  92  92   0   0
  0.8273226E+02  0.2805000E-08  0.8100000E-09  0.3350000E-08  0.5000000E-15
   1.0000000000000000E-004
  CAR 
 unknown system                          
      3.74740803    -25.22218626  301     -3.20005629      1.00000000
    -25.222  0.0000E+00  0.0000E+00
    -25.126  0.0000E+00  0.0000E+00
    -25.029  0.0000E+00  0.0000E+00
    -24.932  0.0000E+00  0.0000E+00
    -24.836  0.0000E+00  0.0000E+00
    -24.739  0.0000E+00  0.0000E+00
    -24.643  0.0000E+00  0.0000E+00
    -24.546  0.0000E+00  0.0000E+00
    -24.450  0.0000E+00  0.0000E+00
    -24.353  0.3449E-14  0.3331E-15
    -24.257  0.6944E-12  0.6739E-13
    -24.160  0.9040E-10  0.8797E-11
    -24.063  0.7492E-08  0.7322E-09
    -23.967  0.3968E-06  0.3904E-07
    -23.870  0.1349E-04  0.1342E-05
    -23.774  0.2964E-03  0.2996E-04
    -23.677  0.4238E-02  0.4392E-03
    -23.581  0.3981E-01  0.4283E-02
    -23.484  0.2487E+00  0.2830E-01
    -23.387  0.1050E+01  0.1297E+00
    -23.291  0.3063E+01  0.4255E+00
    -23.194  0.6379E+01  0.1041E+01
    -23.098  0.9895E+01  0.1997E+01
    -23.001  0.1212E+02  0.3167E+01
    -22.905  0.1285E+02  0.4408E+01
    -22.808  0.1362E+02  0.5724E+01
    -22.711  0.1558E+02  0.7229E+01
    -22.615  0.1727E+02  0.8896E+01
    -22.518  0.1630E+02  0.1047E+02
    -22.422  0.1329E+02  0.1175E+02
    -22.325  0.1131E+02  0.1285E+02
    -22.229  0.1174E+02  0.1398E+02
    -22.132  0.1298E+02  0.1523E+02
    -22.036  0.1358E+02  0.1654E+02
    -21.939  0.1376E+02  0.1787E+02
    -21.842  0.1387E+02  0.1921E+02
    -21.746  0.1355E+02  0.2052E+02
    -21.649  0.1273E+02  0.2175E+02
    -21.553  0.1190E+02  0.2290E+02
    -21.456  0.1148E+02  0.2401E+02
    -21.360  0.1173E+02  0.2514E+02
    -21.263  0.1280E+02  0.2638E+02
    -21.166  0.1436E+02  0.2776E+02
    -21.070  0.1560E+02  0.2927E+02
    -20.973  0.1558E+02  0.3077E+02
    -20.877  0.1397E+02  0.3212E+02
    -20.780  0.1218E+02  0.3330E+02
    -20.684  0.1220E+02  0.3448E+02
    -20.587  0.1358E+02  0.3579E+02
    -20.490  0.1409E+02  0.3715E+02
    -20.394  0.1323E+02  0.3843E+02
    -20.297  0.1259E+02  0.3964E+02
    -20.201  0.1338E+02  0.4094E+02
    -20.104  0.1478E+02  0.4236E+02
    -20.008  0.1526E+02  0.4384E+02
    -19.911  0.1472E+02  0.4526E+02
    -19.815  0.1378E+02  0.4659E+02
    -19.718  0.1316E+02  0.4786E+02
    -19.621  0.1440E+02  0.4925E+02
    -19.525  0.1693E+02  0.5088E+02
    -19.428  0.1729E+02  0.5255E+02
    -19.332  0.1453E+02  0.5396E+02
    -19.235  0.1199E+02  0.5512E+02
    -19.139  0.1215E+02  0.5629E+02
    -19.042  0.1362E+02  0.5760E+02
    -18.945  0.1399E+02  0.5896E+02
    -18.849  0.1306E+02  0.6022E+02
    -18.752  0.1243E+02  0.6142E+02
    -18.656  0.1357E+02  0.6273E+02
    -18.559  0.1611E+02  0.6428E+02
    -18.463  0.1817E+02  0.6604E+02
    -18.366  0.1868E+02  0.6784E+02
    -18.269  0.1862E+02  0.6964E+02
    -18.173  0.1866E+02  0.7144E+02
    -18.076  0.1762E+02  0.7314E+02
    -17.980  0.1518E+02  0.7461E+02
    -17.883  0.1304E+02  0.7587E+02
    -17.787  0.1211E+02  0.7704E+02
    -17.690  0.1163E+02  0.7816E+02
    -17.594  0.1105E+02  0.7923E+02
    -17.497  0.1071E+02  0.8026E+02
    -17.400  0.1101E+02  0.8132E+02
    -17.304  0.1190E+02  0.8247E+02
    -17.207  0.1295E+02  0.8372E+02
    -17.111  0.1348E+02  0.8503E+02
    -17.014  0.1284E+02  0.8627E+02
    -16.918  0.1138E+02  0.8737E+02
    -16.821  0.1030E+02  0.8836E+02
    -16.724  0.1036E+02  0.8936E+02
    -16.628  0.1145E+02  0.9047E+02
    -16.531  0.1300E+02  0.9172E+02
    -16.435  0.1449E+02  0.9312E+02
    -16.338  0.1596E+02  0.9466E+02
    -16.242  0.1742E+02  0.9634E+02
    -16.145  0.1831E+02  0.9811E+02
    -16.048  0.1791E+02  0.9984E+02
    -15.952  0.1605E+02  0.1014E+03
    -15.855  0.1357E+02  0.1027E+03
    -15.759  0.1188E+02  0.1038E+03
    -15.662  0.1174E+02  0.1050E+03
    -15.566  0.1253E+02  0.1062E+03
    -15.469  0.1403E+02  0.1075E+03
    -15.373  0.1690E+02  0.1092E+03
    -15.276  0.2036E+02  0.1111E+03
    -15.179  0.2258E+02  0.1133E+03
    -15.083  0.2295E+02  0.1155E+03
    -14.986  0.2151E+02  0.1176E+03
    -14.890  0.1853E+02  0.1194E+03
    -14.793  0.1511E+02  0.1209E+03
    -14.697  0.1209E+02  0.1220E+03
    -14.600  0.9608E+01  0.1230E+03
    -14.503  0.8365E+01  0.1238E+03
    -14.407  0.8751E+01  0.1246E+03
    -14.310  0.1008E+02  0.1256E+03
    -14.214  0.1174E+02  0.1267E+03
    -14.117  0.1371E+02  0.1280E+03
    -14.021  0.1587E+02  0.1296E+03
    -13.924  0.1744E+02  0.1313E+03
    -13.827  0.1770E+02  0.1330E+03
    -13.731  0.1718E+02  0.1346E+03
    -13.634  0.1710E+02  0.1363E+03
    -13.538  0.1775E+02  0.1380E+03
    -13.441  0.1856E+02  0.1398E+03
    -13.345  0.1902E+02  0.1416E+03
    -13.248  0.1892E+02  0.1435E+03
    -13.152  0.1760E+02  0.1452E+03
    -13.055  0.1472E+02  0.1466E+03
    -12.958  0.1228E+02  0.1478E+03
    -12.862  0.1268E+02  0.1490E+03
    -12.765  0.1491E+02  0.1504E+03
    -12.669  0.1614E+02  0.1520E+03
    -12.572  0.1566E+02  0.1535E+03
    -12.476  0.1516E+02  0.1550E+03
    -12.379  0.1604E+02  0.1565E+03
    -12.282  0.1838E+02  0.1583E+03
    -12.186  0.2143E+02  0.1603E+03
    -12.089  0.2375E+02  0.1626E+03
    -11.993  0.2451E+02  0.1650E+03
    -11.896  0.2407E+02  0.1673E+03
    -11.800  0.2215E+02  0.1695E+03
    -11.703  0.1829E+02  0.1712E+03
    -11.606  0.1412E+02  0.1726E+03
    -11.510  0.1242E+02  0.1738E+03
    -11.413  0.1453E+02  0.1752E+03
    -11.317  0.1897E+02  0.1770E+03
    -11.220  0.2294E+02  0.1793E+03
    -11.124  0.2547E+02  0.1817E+03
    -11.027  0.2803E+02  0.1844E+03
    -10.931  0.3189E+02  0.1875E+03
    -10.834  0.3555E+02  0.1909E+03
    -10.737  0.3629E+02  0.1944E+03
    -10.641  0.3451E+02  0.1978E+03
    -10.544  0.3401E+02  0.2011E+03
    -10.448  0.3684E+02  0.2046E+03
    -10.351  0.3981E+02  0.2085E+03
    -10.255  0.3931E+02  0.2123E+03
    -10.158  0.3666E+02  0.2158E+03
    -10.061  0.3491E+02  0.2192E+03
     -9.965  0.3430E+02  0.2225E+03
     -9.868  0.3418E+02  0.2258E+03
     -9.772  0.3522E+02  0.2292E+03
     -9.675  0.3778E+02  0.2328E+03
     -9.579  0.4063E+02  0.2367E+03
     -9.482  0.4223E+02  0.2408E+03
     -9.385  0.4183E+02  0.2449E+03
     -9.289  0.3921E+02  0.2487E+03
     -9.192  0.3486E+02  0.2520E+03
     -9.096  0.3066E+02  0.2550E+03
     -8.999  0.2905E+02  0.2578E+03
     -8.903  0.3097E+02  0.2608E+03
     -8.806  0.3480E+02  0.2641E+03
     -8.710  0.3778E+02  0.2678E+03
     -8.613  0.3828E+02  0.2715E+03
     -8.516  0.3615E+02  0.2750E+03
     -8.420  0.3234E+02  0.2781E+03
     -8.323  0.2839E+02  0.2808E+03
     -8.227  0.2564E+02  0.2833E+03
     -8.130  0.2480E+02  0.2857E+03
     -8.034  0.2547E+02  0.2882E+03
     -7.937  0.2659E+02  0.2907E+03
     -7.840  0.2756E+02  0.2934E+03
     -7.744  0.2847E+02  0.2961E+03
     -7.647  0.2908E+02  0.2989E+03
     -7.551  0.2868E+02  0.3017E+03
     -7.454  0.2744E+02  0.3044E+03
     -7.358  0.2614E+02  0.3069E+03
     -7.261  0.2492E+02  0.3093E+03
     -7.164  0.2406E+02  0.3116E+03
     -7.068  0.2393E+02  0.3139E+03
     -6.971  0.2438E+02  0.3163E+03
     -6.875  0.2566E+02  0.3188E+03
     -6.778  0.2759E+02  0.3214E+03
     -6.682  0.2819E+02  0.3242E+03
     -6.585  0.2595E+02  0.3267E+03
     -6.489  0.2227E+02  0.3288E+03
     -6.392  0.1978E+02  0.3307E+03
     -6.295  0.1976E+02  0.3326E+03
     -6.199  0.2144E+02  0.3347E+03
     -6.102  0.2319E+02  0.3369E+03
     -6.006  0.2411E+02  0.3393E+03
     -5.909  0.2441E+02  0.3416E+03
     -5.813  0.2440E+02  0.3440E+03
     -5.716  0.2332E+02  0.3462E+03
     -5.619  0.2034E+02  0.3482E+03
     -5.523  0.1607E+02  0.3497E+03
     -5.426  0.1209E+02  0.3509E+03
     -5.330  0.1007E+02  0.3519E+03
     -5.233  0.1072E+02  0.3529E+03
     -5.137  0.1220E+02  0.3541E+03
     -5.040  0.1170E+02  0.3552E+03
     -4.943  0.9346E+01  0.3561E+03
     -4.847  0.7786E+01  0.3569E+03
     -4.750  0.8462E+01  0.3577E+03
     -4.654  0.1079E+02  0.3587E+03
     -4.557  0.1361E+02  0.3601E+03
     -4.461  0.1533E+02  0.3615E+03
     -4.364  0.1405E+02  0.3629E+03
     -4.268  0.9898E+01  0.3638E+03
     -4.171  0.5568E+01  0.3644E+03
     -4.074  0.3349E+01  0.3647E+03
     -3.978  0.3073E+01  0.3650E+03
     -3.881  0.3439E+01  0.3653E+03
     -3.785  0.3765E+01  0.3657E+03
     -3.688  0.3871E+01  0.3661E+03
     -3.592  0.3719E+01  0.3664E+03
     -3.495  0.3658E+01  0.3668E+03
     -3.398  0.3827E+01  0.3672E+03
     -3.302  0.4010E+01  0.3675E+03
     -3.205  0.4439E+01  0.3680E+03
     -3.109  0.5179E+01  0.3685E+03
     -3.012  0.5480E+01  0.3690E+03
     -2.916  0.5220E+01  0.3695E+03
     -2.819  0.5574E+01  0.3700E+03
     -2.722  0.6984E+01  0.3707E+03
     -2.626  0.8131E+01  0.3715E+03
     -2.529  0.7729E+01  0.3723E+03
     -2.433  0.6116E+01  0.3728E+03
     -2.336  0.4832E+01  0.3733E+03
     -2.240  0.5125E+01  0.3738E+03
     -2.143  0.6653E+01  0.3744E+03
     -2.047  0.7530E+01  0.3752E+03
     -1.950  0.6822E+01  0.3758E+03
     -1.853  0.6285E+01  0.3764E+03
     -1.757  0.8233E+01  0.3772E+03
     -1.660  0.1297E+02  0.3785E+03
     -1.564  0.1846E+02  0.3803E+03
     -1.467  0.2194E+02  0.3824E+03
     -1.371  0.2215E+02  0.3845E+03
     -1.274  0.2023E+02  0.3865E+03
     -1.177  0.1878E+02  0.3883E+03
     -1.081  0.1897E+02  0.3901E+03
     -0.984  0.1879E+02  0.3919E+03
     -0.888  0.1644E+02  0.3935E+03
     -0.791  0.1331E+02  0.3948E+03
     -0.695  0.1157E+02  0.3959E+03
     -0.598  0.1155E+02  0.3970E+03
     -0.501  0.1222E+02  0.3982E+03
     -0.405  0.1266E+02  0.3994E+03
     -0.308  0.1327E+02  0.4007E+03
     -0.212  0.1493E+02  0.4022E+03
     -0.115  0.1719E+02  0.4038E+03
     -0.019  0.1895E+02  0.4057E+03
      0.078  0.2017E+02  0.4076E+03
      0.174  0.2150E+02  0.4097E+03
      0.271  0.2229E+02  0.4118E+03
      0.368  0.2090E+02  0.4139E+03
      0.464  0.1796E+02  0.4156E+03
      0.561  0.1691E+02  0.4172E+03
      0.657  0.2004E+02  0.4192E+03
      0.754  0.2566E+02  0.4216E+03
      0.850  0.3028E+02  0.4246E+03
      0.947  0.3290E+02  0.4277E+03
      1.044  0.3540E+02  0.4312E+03
      1.140  0.3898E+02  0.4349E+03
      1.237  0.4346E+02  0.4391E+03
      1.333  0.4826E+02  0.4438E+03
      1.430  0.5134E+02  0.4487E+03
      1.526  0.4986E+02  0.4536E+03
      1.623  0.4289E+02  0.4577E+03
      1.720  0.3196E+02  0.4608E+03
      1.816  0.1975E+02  0.4627E+03
      1.913  0.9441E+01  0.4636E+03
      2.009  0.3261E+01  0.4639E+03
      2.106  0.7737E+00  0.4640E+03
      2.202  0.1224E+00  0.4640E+03
      2.299  0.1269E-01  0.4640E+03
      2.395  0.8536E-03  0.4640E+03
      2.492  0.3701E-04  0.4640E+03
      2.589  0.1031E-05  0.4640E+03
      2.685  0.1836E-07  0.4640E+03
      2.782  0.2090E-09  0.4640E+03
      2.878  0.1517E-11  0.4640E+03
      2.975  0.5749E-14  0.4640E+03
      3.071  0.0000E+00  0.4640E+03
      3.168  0.0000E+00  0.4640E+03
      3.265  0.0000E+00  0.4640E+03
      3.361  0.0000E+00  0.4640E+03
      3.458  0.0000E+00  0.4640E+03
      3.554  0.0000E+00  0.4640E+03
      3.651  0.0000E+00  0.4640E+03
      3.747  0.0000E+00  0.4640E+03
