       N       E                     dE             d eps       ncg     rms          rms(c)
DAV:   1     0.370420589755E+04    0.37042E+04   -0.11898E+05  1704   0.105E+03
DAV:   2     0.180923742157E+03   -0.35233E+04   -0.32635E+04  2144   0.239E+02
DAV:   3    -0.835607429020E+03   -0.10165E+04   -0.99625E+03  1800   0.135E+02
DAV:   4    -0.896495032424E+03   -0.60888E+02   -0.59847E+02  1712   0.429E+01
DAV:   5    -0.898014024361E+03   -0.15190E+01   -0.14980E+01  1792   0.655E+00    0.455E+01
DAV:   6    -0.848500795965E+03    0.49513E+02   -0.47072E+01  1584   0.125E+01    0.267E+01
DAV:   7    -0.830073512599E+03    0.18427E+02   -0.65473E+01  1568   0.144E+01    0.733E+00
DAV:   8    -0.829792399437E+03    0.28111E+00   -0.25068E+00  1608   0.338E+00    0.981E-01
DAV:   9    -0.829686948164E+03    0.10545E+00   -0.27103E-01  1600   0.102E+00    0.564E-01
DAV:  10    -0.829651209546E+03    0.35739E-01   -0.54483E-02  1776   0.453E-01    0.367E-01
DAV:  11    -0.829622154765E+03    0.29055E-01   -0.21025E-02  1560   0.242E-01    0.239E-01
DAV:  12    -0.829617698054E+03    0.44567E-02   -0.23426E-02  1560   0.223E-01    0.153E-01
DAV:  13    -0.829630269532E+03   -0.12571E-01   -0.97286E-03  1544   0.150E-01    0.853E-02
DAV:  14    -0.829645726065E+03   -0.15457E-01   -0.10458E-03  1616   0.656E-02    0.584E-02
DAV:  15    -0.829667046036E+03   -0.21320E-01   -0.20329E-03  1600   0.681E-02    0.324E-02
DAV:  16    -0.829674679963E+03   -0.76339E-02   -0.38102E-04  1656   0.348E-02    0.229E-02
DAV:  17    -0.829680497244E+03   -0.58173E-02   -0.40347E-04  1584   0.260E-02    0.100E-02
DAV:  18    -0.829682313481E+03   -0.18162E-02   -0.75027E-05  1680   0.117E-02    0.665E-03
DAV:  19    -0.829683489598E+03   -0.11761E-02   -0.42772E-05  1408   0.842E-03    0.395E-03
DAV:  20    -0.829683892135E+03   -0.40254E-03   -0.78234E-06  1392   0.371E-03    0.223E-03
DAV:  21    -0.829684152005E+03   -0.25987E-03   -0.38661E-06  1288   0.257E-03    0.963E-04
DAV:  22    -0.829684196221E+03   -0.44216E-04   -0.18925E-07  1056   0.848E-04    0.654E-04
DAV:  23    -0.829684231743E+03   -0.35522E-04   -0.23704E-07   936   0.762E-04    0.364E-04
DAV:  24    -0.829684244499E+03   -0.12756E-04   -0.93556E-08   976   0.466E-04    0.227E-04
DAV:  25    -0.829684249632E+03   -0.51330E-05   -0.37364E-08   904   0.378E-04    0.132E-04
DAV:  26    -0.829684253035E+03   -0.34029E-05   -0.27330E-08   904   0.251E-04    0.131E-04
DAV:  27    -0.829684254152E+03   -0.11173E-05   -0.76766E-09   968   0.182E-04    0.617E-05
DAV:  28    -0.829684255815E+03   -0.16629E-05   -0.70167E-09   928   0.143E-04    0.776E-05
DAV:  29    -0.829684256294E+03   -0.47855E-06   -0.26294E-09   936   0.111E-04
   1 F= -.82968426E+03 E0= -.82963576E+03  d E =-.969924E-01
