<?xml version="1.0" encoding="ISO-8859-1"?>
<modeling>
 <generator>
  <i name="program" type="string">vasp </i>
  <i name="version" type="string">6.5.0  </i>
  <i name="subversion" type="string">16Dec24 (build Feb 19 2025 19:45:31) complex                          parallel </i>
  <i name="platform" type="string">LinuxNV </i>
  <i name="date" type="string">2025 10 25 </i>
  <i name="time" type="string">18:26:20 </i>
 </generator>
 <incar>
  <i type="int" name="ISTART">     0</i>
  <i type="string" name="PREC">Accurate   (Precision level)</i>
  <i type="string" name="ALGO">Normal</i>
  <i type="int" name="ISPIN">     1</i>
  <i type="int" name="ICHARG">     2</i>
  <i type="int" name="NELM">   150</i>
  <i type="int" name="IBRION">    -1</i>
  <i name="EDIFF">      0.00000100</i>
  <i type="int" name="NSW">     0</i>
  <i name="ENCUT">    500.00000000</i>
  <i type="string" name="LREAL">Auto         (Projection operators: automatic)</i>
  <i type="int" name="ISMEAR">     0</i>
  <i type="logical" name="KGAMMA"> T  </i>
  <i type="logical" name="LWAVE"> F  </i>
  <i type="logical" name="LCHARG"> F  </i>
 </incar>
 <primitive_cell>
  <structure name="primitive_cell" >
   <crystal>
    <varray name="basis" >
     <v>      28.05000000       0.00000000       0.00000000 </v>
     <v>       0.00000000       8.10000000       0.00000000 </v>
     <v>       0.00000000       0.00000000      33.50000000 </v>
    </varray>
    <i name="volume">   7611.36750000 </i>
    <varray name="rec_basis" >
     <v>       0.03565062       0.00000000       0.00000000 </v>
     <v>       0.00000000       0.12345679       0.00000000 </v>
     <v>       0.00000000       0.00000000       0.02985075 </v>
    </varray>
   </crystal>
   <varray name="positions" >
    <v>       0.13367130       0.27225679       0.23289134 </v>
    <v>       0.13304242       0.44710494       0.23091851 </v>
    <v>       0.17741569       0.18968889       0.23073791 </v>
    <v>       0.17792478       0.52525062       0.23103433 </v>
    <v>       0.22084135       0.27318642       0.22511403 </v>
    <v>       0.22172264       0.44235802       0.22263134 </v>
    <v>       0.26463387       0.19088889       0.23373433 </v>
    <v>       0.26660463       0.52878395       0.22296448 </v>
    <v>       0.31032299       0.27183086       0.23179940 </v>
    <v>       0.31055080       0.44253457       0.22629881 </v>
    <v>       0.35267094       0.19224568       0.24343970 </v>
    <v>       0.35541961       0.53044321       0.23395313 </v>
    <v>       0.39737255       0.27882099       0.24848299 </v>
    <v>       0.39714439       0.44910617       0.24530955 </v>
    <v>       0.43929055       0.19711481       0.26407731 </v>
    <v>       0.44205704       0.53295062       0.25334925 </v>
    <v>       0.48045276       0.28929136       0.27620239 </v>
    <v>       0.48228520       0.45037160       0.26659224 </v>
    <v>       0.52293405       0.20252099       0.28744060 </v>
    <v>       0.52549376       0.52805309       0.27627164 </v>
    <v>       0.56581105       0.27982469       0.29618119 </v>
    <v>       0.56838146       0.44335432       0.28679015 </v>
    <v>       0.60855258       0.19120617       0.30469851 </v>
    <v>       0.61057398       0.53005926       0.29760090 </v>
    <v>       0.65340107       0.27564444       0.30602090 </v>
    <v>       0.65344385       0.44737407       0.30085075 </v>
    <v>       0.69690909       0.19426296       0.31306269 </v>
    <v>       0.69639572       0.53246790       0.30835522 </v>
    <v>       0.74072371       0.28051111       0.30879701 </v>
    <v>       0.74069519       0.44783827       0.30791940 </v>
    <v>       0.78445633       0.19188148       0.31074925 </v>
    <v>       0.78551872       0.52860494       0.30893134 </v>
    <v>       0.82910517       0.27518642       0.30122090 </v>
    <v>       0.82983244       0.44503704       0.29972239 </v>
    <v>       0.87347950       0.19919877       0.30094030 </v>
    <v>       0.87209269       0.53510000       0.29784746 </v>
    <v>       0.91619251       0.28108642       0.28820657 </v>
    <v>       0.91513725       0.45034444       0.28556627 </v>
    <v>       0.95904813       0.19728148       0.28078776 </v>
    <v>       0.95769340       0.53545062       0.27922716 </v>
    <v>       0.00043824       0.28502222       0.26882030 </v>
    <v>       0.99930125       0.44966420       0.26184030 </v>
    <v>       0.04379002       0.19875556       0.26059313 </v>
    <v>       0.04249982       0.53002840       0.25415284 </v>
    <v>       0.08343886       0.27072963       0.24195164 </v>
    <v>       0.08230303       0.44213704       0.23684448 </v>
    <v>       0.13901569       0.77254938       0.25616060 </v>
    <v>       0.13858717       0.94574198       0.25780060 </v>
    <v>       0.17854795       0.69254568       0.24058060 </v>
    <v>       0.17934225       0.02686321       0.24562507 </v>
    <v>       0.22280428       0.77805802       0.24223433 </v>
    <v>       0.22297504       0.94299753       0.24717403 </v>
    <v>       0.26591373       0.69651852       0.23438597 </v>
    <v>       0.26672193       0.03192247       0.24391761 </v>
    <v>       0.30933119       0.76886296       0.24271045 </v>
    <v>       0.30815936       0.94447654       0.25040060 </v>
    <v>       0.35331159       0.69643210       0.24471284 </v>
    <v>       0.35144670       0.02974049       0.25205194 </v>
    <v>       0.39526203       0.78282963       0.25580657 </v>
    <v>       0.39550802       0.94986543       0.26131612 </v>
    <v>       0.44037433       0.70189383       0.25812239 </v>
    <v>       0.43766488       0.02981728       0.27018955 </v>
    <v>       0.48288414       0.77840494       0.27062030 </v>
    <v>       0.48003209       0.94502593       0.27952836 </v>
    <v>       0.52632442       0.70239753       0.27617851 </v>
    <v>       0.52170766       0.03097074       0.29269373 </v>
    <v>       0.56586453       0.77563086       0.29461403 </v>
    <v>       0.56409982       0.94927037       0.30052836 </v>
    <v>       0.60969697       0.70038025       0.29849313 </v>
    <v>       0.60778610       0.02792654       0.30660299 </v>
    <v>       0.65312656       0.78145926       0.31248657 </v>
    <v>       0.65137611       0.95174815       0.31755224 </v>
    <v>       0.69746881       0.69661975       0.31684478 </v>
    <v>       0.69696613       0.03123704       0.32075224 </v>
    <v>       0.74150446       0.77960370       0.32271940 </v>
    <v>       0.74086631       0.94677654       0.32623284 </v>
    <v>       0.78523351       0.68965802       0.31636716 </v>
    <v>       0.78526203       0.03071765       0.31984776 </v>
    <v>       0.82824955       0.78237778       0.31464179 </v>
    <v>       0.82949733       0.94330494       0.31538806 </v>
    <v>       0.87254189       0.70025309       0.30488060 </v>
    <v>       0.87370766       0.03335852       0.31093134 </v>
    <v>       0.91861319       0.78216049       0.30120299 </v>
    <v>       0.91796078       0.94972963       0.30364776 </v>
    <v>       0.96169340       0.69412716       0.29191224 </v>
    <v>       0.96064171       0.02598123       0.28911015 </v>
    <v>       0.00557569       0.77676914       0.28188687 </v>
    <v>       0.00483711       0.94851605       0.28255672 </v>
    <v>       0.04566453       0.69071358       0.26611284 </v>
    <v>       0.04647986       0.03457605       0.27210776 </v>
    <v>       0.09067558       0.77509259       0.26667164 </v>
    <v>       0.08946809       0.94688889       0.26948985 </v>
   </varray>
  </structure>
  <varray name="primitive_index" >
   <v type="int" >        1 </v>
   <v type="int" >        2 </v>
   <v type="int" >        3 </v>
   <v type="int" >        4 </v>
   <v type="int" >        5 </v>
   <v type="int" >        6 </v>
   <v type="int" >        7 </v>
   <v type="int" >        8 </v>
   <v type="int" >        9 </v>
   <v type="int" >       10 </v>
   <v type="int" >       11 </v>
   <v type="int" >       12 </v>
   <v type="int" >       13 </v>
   <v type="int" >       14 </v>
   <v type="int" >       15 </v>
   <v type="int" >       16 </v>
   <v type="int" >       17 </v>
   <v type="int" >       18 </v>
   <v type="int" >       19 </v>
   <v type="int" >       20 </v>
   <v type="int" >       21 </v>
   <v type="int" >       22 </v>
   <v type="int" >       23 </v>
   <v type="int" >       24 </v>
   <v type="int" >       25 </v>
   <v type="int" >       26 </v>
   <v type="int" >       27 </v>
   <v type="int" >       28 </v>
   <v type="int" >       29 </v>
   <v type="int" >       30 </v>
   <v type="int" >       31 </v>
   <v type="int" >       32 </v>
   <v type="int" >       33 </v>
   <v type="int" >       34 </v>
   <v type="int" >       35 </v>
   <v type="int" >       36 </v>
   <v type="int" >       37 </v>
   <v type="int" >       38 </v>
   <v type="int" >       39 </v>
   <v type="int" >       40 </v>
   <v type="int" >       41 </v>
   <v type="int" >       42 </v>
   <v type="int" >       43 </v>
   <v type="int" >       44 </v>
   <v type="int" >       45 </v>
   <v type="int" >       46 </v>
   <v type="int" >       47 </v>
   <v type="int" >       48 </v>
   <v type="int" >       49 </v>
   <v type="int" >       50 </v>
   <v type="int" >       51 </v>
   <v type="int" >       52 </v>
   <v type="int" >       53 </v>
   <v type="int" >       54 </v>
   <v type="int" >       55 </v>
   <v type="int" >       56 </v>
   <v type="int" >       57 </v>
   <v type="int" >       58 </v>
   <v type="int" >       59 </v>
   <v type="int" >       60 </v>
   <v type="int" >       61 </v>
   <v type="int" >       62 </v>
   <v type="int" >       63 </v>
   <v type="int" >       64 </v>
   <v type="int" >       65 </v>
   <v type="int" >       66 </v>
   <v type="int" >       67 </v>
   <v type="int" >       68 </v>
   <v type="int" >       69 </v>
   <v type="int" >       70 </v>
   <v type="int" >       71 </v>
   <v type="int" >       72 </v>
   <v type="int" >       73 </v>
   <v type="int" >       74 </v>
   <v type="int" >       75 </v>
   <v type="int" >       76 </v>
   <v type="int" >       77 </v>
   <v type="int" >       78 </v>
   <v type="int" >       79 </v>
   <v type="int" >       80 </v>
   <v type="int" >       81 </v>
   <v type="int" >       82 </v>
   <v type="int" >       83 </v>
   <v type="int" >       84 </v>
   <v type="int" >       85 </v>
   <v type="int" >       86 </v>
   <v type="int" >       87 </v>
   <v type="int" >       88 </v>
   <v type="int" >       89 </v>
   <v type="int" >       90 </v>
   <v type="int" >       91 </v>
   <v type="int" >       92 </v>
  </varray>
 </primitive_cell>
 <kpoints>
  <generation param="Gamma">
   <v type="int" name="divisions">       1        4        1 </v>
   <v name="usershift">      0.00000000       0.00000000       0.00000000 </v>
   <v name="genvec1">      1.00000000       0.00000000       0.00000000 </v>
   <v name="genvec2">      0.00000000       0.25000000       0.00000000 </v>
   <v name="genvec3">      0.00000000       0.00000000       1.00000000 </v>
   <v name="shift">      0.00000000       0.00000000       0.00000000 </v>
  </generation>
  <varray name="kpointlist" >
   <v>       0.00000000       0.00000000       0.00000000 </v>
   <v>       0.00000000       0.25000000       0.00000000 </v>
   <v>       0.00000000       0.50000000       0.00000000 </v>
  </varray>
  <varray name="weights" >
   <v>       0.25000000 </v>
   <v>       0.50000000 </v>
   <v>       0.25000000 </v>
  </varray>
 </kpoints>
 <parameters>
  <separator name="general" >
   <i type="string" name="SYSTEM">unknown system</i>
   <i type="logical" name="LCOMPAT"> F  </i>
  </separator>
  <separator name="electronic" >
   <i type="string" name="PREC">accura</i>
   <i name="ENMAX">    500.00000000</i>
   <i name="ENAUG">    644.87300000</i>
   <i name="EDIFF">      0.00000100</i>
   <i type="int" name="IALGO">    38</i>
   <i type="int" name="IWAVPR">    10</i>
   <i type="int" name="NBANDS">   232</i>
   <i type="int" name="NBANDSLOW">    -1</i>
   <i type="int" name="NBANDSHIGH">    -1</i>
   <i name="NELECT">    368.00000000</i>
   <i type="int" name="TURBO">     0</i>
   <i type="int" name="IRESTART">     0</i>
   <i type="int" name="NREBOOT">     0</i>
   <i type="int" name="NMIN">     0</i>
   <i name="EREF">      0.00000000</i>
   <separator name="electronic smearing" >
    <i type="int" name="ISMEAR">     0</i>
    <i name="SIGMA">      0.20000000</i>
    <i name="KSPACING">      0.50000000</i>
    <i type="logical" name="KGAMMA"> T  </i>
    <i type="logical" name="KBLOWUP"> T  </i>
   </separator>
   <separator name="electronic projectors" >
    <i type="logical" name="LREAL"> T  </i>
    <v name="ROPT">     -0.00025000</v>
    <i type="int" name="LMAXPAW">  -100</i>
    <i type="int" name="LMAXMIX">     2</i>
    <i type="logical" name="NLSPLINE"> F  </i>
   </separator>
   <separator name="electronic startup" >
    <i type="int" name="ISTART">     0</i>
    <i type="int" name="ICHARG">     2</i>
    <i type="int" name="INIWAV">     1</i>
   </separator>
   <separator name="electronic spin" >
    <i type="int" name="ISPIN">     1</i>
    <i type="logical" name="LNONCOLLINEAR"> F  </i>
    <v name="MAGMOM">      1.00000000      1.00000000      1.00000000      1.00000000      1.00000000      1.00000000      1.00000000      1.00000000      1.00000000      1.00000000      1.00000000      1.00000000      1.00000000      1.00000000      1.00000000      1.00000000      1.00000000      1.00000000      1.00000000      1.00000000
      1.00000000      1.00000000      1.00000000      1.00000000      1.00000000      1.00000000      1.00000000      1.00000000      1.00000000      1.00000000      1.00000000      1.00000000      1.00000000      1.00000000      1.00000000      1.00000000      1.00000000      1.00000000      1.00000000      1.00000000
      1.00000000      1.00000000      1.00000000      1.00000000      1.00000000      1.00000000      1.00000000      1.00000000      1.00000000      1.00000000      1.00000000      1.00000000      1.00000000      1.00000000      1.00000000      1.00000000      1.00000000      1.00000000      1.00000000      1.00000000
      1.00000000      1.00000000      1.00000000      1.00000000      1.00000000      1.00000000      1.00000000      1.00000000      1.00000000      1.00000000      1.00000000      1.00000000      1.00000000      1.00000000      1.00000000      1.00000000      1.00000000      1.00000000      1.00000000      1.00000000
      1.00000000      1.00000000      1.00000000      1.00000000      1.00000000      1.00000000      1.00000000      1.00000000      1.00000000      1.00000000      1.00000000      1.00000000</v>
    <i name="NUPDOWN">     -1.00000000</i>
    <i type="logical" name="LSORBIT"> F  </i>
    <v name="SAXIS">      0.00000000      0.00000000      1.00000000</v>
    <i type="logical" name="LSPIRAL"> F  </i>
    <v name="QSPIRAL">      0.00000000      0.00000000      0.00000000</v>
    <i type="logical" name="LZEROZ"> F  </i>
   </separator>
   <separator name="electronic exchange-correlation" >
    <i type="logical" name="LASPH"> F  </i>
   </separator>
   <separator name="electronic convergence" >
    <i type="int" name="NELM">   150</i>
    <i type="int" name="NELMDL">    -5</i>
    <i type="int" name="NELMIN">     2</i>
    <i name="ENINI">    500.00000000</i>
    <separator name="electronic convergence detail" >
     <i type="logical" name="LDIAG"> T  </i>
     <i type="logical" name="LSUBROT"> F  </i>
     <i name="WEIMIN">      0.00000000</i>
     <i name="EBREAK">      0.00000000</i>
     <i name="DEPER">      0.30000000</i>
     <i type="int" name="NRMM">     4</i>
     <i name="TIME">      0.40000000</i>
    </separator>
   </separator>
   <separator name="electronic mixer" >
    <i name="AMIX">      0.40000000</i>
    <i name="BMIX">      1.00000000</i>
    <i name="AMIN">      0.10000000</i>
    <i name="AMIX_MAG">      1.60000000</i>
    <i name="BMIX_MAG">      1.00000000</i>
    <separator name="electronic mixer details" >
     <i type="int" name="IMIX">     4</i>
     <i type="logical" name="MIXFIRST"> F  </i>
     <i type="int" name="MAXMIX">   -45</i>
     <i name="WC">    100.00000000</i>
     <i type="int" name="INIMIX">     1</i>
     <i type="int" name="MIXPRE">     1</i>
     <i type="int" name="MREMOVE">     5</i>
    </separator>
   </separator>
   <separator name="electronic dipolcorrection" >
    <i type="logical" name="LDIPOL"> F  </i>
    <i type="logical" name="LMONO"> F  </i>
    <i type="int" name="IDIPOL">     0</i>
    <i name="EPSILON">      1.00000000</i>
    <v name="DIPOL">   -100.00000000   -100.00000000   -100.00000000</v>
    <i name="EFIELD">      0.00000000</i>
    <i type="logical" name="LVACPOTAV"> F  </i>
   </separator>
  </separator>
  <separator name="grids" >
   <i type="int" name="NGX">   210</i>
   <i type="int" name="NGY">    60</i>
   <i type="int" name="NGZ">   250</i>
   <i type="int" name="NGXF">   420</i>
   <i type="int" name="NGYF">   120</i>
   <i type="int" name="NGZF">   500</i>
   <i type="logical" name="ADDGRID"> F  </i>
  </separator>
  <separator name="ionic" >
   <i type="int" name="NSW">     0</i>
   <i type="int" name="IBRION">    -1</i>
   <i type="int" name="MDALGO">     0</i>
   <i type="int" name="ISIF">     2</i>
   <i name="PSTRESS">      0.00000000</i>
   <i name="EDIFFG">      0.00001000</i>
   <i type="int" name="NFREE">     0</i>
   <i name="POTIM">      0.50000000</i>
   <i name="SMASS">     -3.00000000</i>
   <i name="SCALEE">      1.00000000</i>
  </separator>
  <separator name="ionic md" >
   <i name="TEBEG">      0.00010000</i>
   <i name="TEEND">      0.00010000</i>
   <i type="int" name="NBLOCK">     1</i>
   <i type="int" name="KBLOCK">     1</i>
   <i type="int" name="NPACO">   256</i>
   <i name="APACO">     10.00000000</i>
  </separator>
  <separator name="symmetry" >
   <i type="int" name="ISYM">     2</i>
   <i name="SYMPREC">      0.00001000</i>
  </separator>
  <separator name="dos" >
   <i type="int" name="LORBIT">     0</i>
   <v name="RWIGS">     -1.00000000</v>
   <i type="int" name="NEDOS">   301</i>
   <i name="EMIN">     10.00000000</i>
   <i name="EMAX">    -10.00000000</i>
   <i name="EFERMI">      0.00000000</i>
  </separator>
  <separator name="writing" >
   <i type="int" name="NWRITE">     2</i>
   <i type="logical" name="LWAVE"> F  </i>
   <i type="logical" name="LDOWNSAMPLE"> F  </i>
   <i type="logical" name="LCHARG"> F  </i>
   <i type="logical" name="LPARD"> F  </i>
   <i type="logical" name="LVTOT"> F  </i>
   <i type="logical" name="LVHAR"> F  </i>
   <i type="logical" name="LELF"> F  </i>
   <i type="logical" name="LOPTICS"> F  </i>
   <v name="STM">      0.00000000      0.00000000      0.00000000      0.00000000      0.00000000      0.00000000      0.00000000</v>
  </separator>
  <separator name="performance" >
   <i type="int" name="NPAR">     2</i>
   <i type="int" name="NSIM">     4</i>
   <i type="int" name="NBLK">    -1</i>
   <i type="logical" name="LPLANE"> T  </i>
   <i type="logical" name="LSCALAPACK"> T  </i>
   <i type="logical" name="LSCAAWARE"> F  </i>
   <i type="logical" name="LSCALU"> F  </i>
   <i type="logical" name="LASYNC"> F  </i>
   <i type="logical" name="LORBITALREAL"> F  </i>
  </separator>
  <separator name="miscellaneous" >
   <i type="int" name="IDIOT">     3</i>
   <i type="int" name="PHON_NSTRUCT">    -1</i>
   <i type="logical" name="LMUSIC"> F  </i>
   <v name="POMASS">     12.01100000</v>
   <v name="DARWINR">      0.00000000</v>
   <v name="DARWINV">      1.00000000</v>
   <i type="logical" name="LCORR"> T  </i>
  </separator>
  <i type="logical" name="GGA_COMPAT"> T  </i>
  <i type="logical" name="LBERRY"> F  </i>
  <i type="int" name="ICORELEVEL">     0</i>
  <i type="logical" name="LDAU"> F  </i>
  <i type="int" name="I_CONSTRAINED_M">     0</i>
  <separator name="electronic exchange-correlation" >
   <i type="string" name="GGA    ">PE</i>
   <i type="string" name="XC_C">1</i>
   <i type="int" name="VOSKOWN">     0</i>
   <i type="logical" name="LHFCALC"> F  </i>
   <i type="string" name="PRECFOCK"></i>
   <i type="logical" name="LSYMGRAD"> F  </i>
   <i type="logical" name="LHFONE"> F  </i>
   <i type="logical" name="LRHFCALC"> F  </i>
   <i type="logical" name="LTHOMAS"> F  </i>
   <i type="logical" name="LMODELHF"> F  </i>
   <i type="logical" name="LFOCKACE"> F  </i>
   <i name="ENCUT4O">     -1.00000000</i>
   <i type="int" name="EXXOEP">     0</i>
   <i type="int" name="FOURORBIT">     0</i>
   <i name="AEXX">      0.00000000</i>
   <i name="HFALPHA">      0.00000000</i>
   <i name="MCALPHA">      0.00000000</i>
   <i name="ALDAX">      1.00000000</i>
   <i name="AGGAX">      1.00000000</i>
   <i name="AMGGAX">      1.00000000</i>
   <i name="ALDAC">      1.00000000</i>
   <i name="AGGAC">      1.00000000</i>
   <i name="AMGGAC">      1.00000000</i>
   <i type="int" name="NKREDX">     1</i>
   <i type="int" name="NKREDY">     1</i>
   <i type="int" name="NKREDZ">     1</i>
   <i type="logical" name="SHIFTRED"> F  </i>
   <i type="logical" name="ODDONLY"> F  </i>
   <i type="logical" name="EVENONLY"> F  </i>
   <i type="int" name="LMAXFOCK">     0</i>
   <i type="int" name="NMAXFOCKAE">     0</i>
   <i type="logical" name="LFOCKAEDFT"> F  </i>
   <i name="HFSCREEN">      0.00000000</i>
   <i name="HFSCREENC">      0.00000000</i>
   <i type="int" name="NBANDSGWLOW">     0</i>
  </separator>
  <separator name="vdW DFT" >
   <i type="logical" name="LUSE_VDW"> F  </i>
   <i type="int" name="IVDW_NL">    -1</i>
   <i type="logical" name="LSPIN_VDW"> F  </i>
   <i name="ZAB_VDW">     -0.84910000</i>
   <i name="GAMMA_VDW">      1.39626340</i>
   <i name="ALPHA_VDW">      0.00000000</i>
   <i name="PARAM1">      0.12340000</i>
   <i name="PARAM2">      1.00000000</i>
   <i name="BPARAM">      6.30000000</i>
   <i name="CPARAM">      0.00930000</i>
  </separator>
  <separator name="model GW" >
   <i type="int" name="MODEL_GW">     0</i>
   <i name="MODEL_EPS0">     49.63935326</i>
   <i name="MODEL_ALPHA">      1.00000000</i>
  </separator>
  <separator name="linear response parameters" >
   <i type="logical" name="LEPSILON"> F  </i>
   <i type="logical" name="LRPA"> F  </i>
   <i type="logical" name="LNABLA"> F  </i>
   <i type="logical" name="LVEL"> F  </i>
   <i name="CSHIFT">      0.10000000</i>
   <i name="OMEGAMAX">     -1.00000000</i>
   <i name="DEG_THRESHOLD">      0.00200000</i>
   <i name="RTIME">     -0.10000000</i>
   <i name="WPLASMAI">      0.00000000</i>
   <v name="DFIELD">      0.00000000      0.00000000      0.00000000</v>
   <v name="WPLASMA">      0.00000000      0.00000000      0.00000000      0.00000000      0.00000000      0.00000000      0.00000000      0.00000000      0.00000000</v>
  </separator>
  <separator name="orbital magnetization" >
   <i type="logical" name="NUCIND"> F  </i>
   <v name="MAGPOS">      0.00000000      0.00000000      0.00000000</v>
   <i type="logical" name="LNICSALL"> T  </i>
   <i type="logical" name="ORBITALMAG"> F  </i>
   <i type="logical" name="LMAGBLOCH"> F  </i>
   <i type="logical" name="LCHIMAG"> F  </i>
   <i type="logical" name="LGAUGE"> T  </i>
   <i type="int" name="MAGATOM">     0</i>
   <v name="MAGDIPOL">      0.00000000      0.00000000      0.00000000</v>
   <v name="AVECCONST">      0.00000000      0.00000000      0.00000000</v>
  </separator>
  <separator name="response functions" >
   <i type="logical" name="LALL_IN_ONE"> F  </i>
   <i type="int" name="IALL_IN_ONE">    -1</i>
   <i type="int" name="NBANDS_WAVE">    -1</i>
   <i type="logical" name="LFINITE_TEMPERATURE"> F  </i>
   <i type="logical" name="LADDER"> F  </i>
   <i type="logical" name="LRPAFORCE"> F  </i>
   <i type="logical" name="LFXC"> F  </i>
   <i type="logical" name="LHARTREE"> T  </i>
   <i type="int" name="IBSE">     2</i>
   <v type="int" name="KPOINT">    -1     0     0     0</v>
   <i type="logical" name="LTCTC"> F  </i>
   <i type="logical" name="LTCTE"> F  </i>
   <i type="logical" name="LTETE"> F  </i>
   <i type="logical" name="LTRIPLET"> F  </i>
   <i type="logical" name="LFXCEPS"> F  </i>
   <i type="logical" name="LFXHEG"> F  </i>
   <i type="int" name="NATURALO">     2</i>
   <i type="logical" name="LHOLEGF"> F  </i>
   <i type="logical" name="L2ORDER"> F  </i>
   <i type="logical" name="LDMP1"> F  </i>
   <i type="logical" name="LMP2LT"> F  </i>
   <i type="logical" name="LSMP2LT"> F  </i>
   <i type="logical" name="LGWLF"> F  </i>
   <i name="ENCUTGW">     -1.60000002</i>
   <i name="ENCUTGWSOFT">     -1.60000002</i>
   <i name="ENCUTLF">     -1.00000000</i>
   <i type="logical" name="ESF_SPLINES"> F  </i>
   <i name="ESF_CONV">      0.01000000</i>
   <i type="int" name="ESF_NINTER">    15</i>
   <i type="int" name="LMAXMP2">    -1</i>
   <i name="SCISSOR">      0.00000000</i>
   <i type="int" name="NOMEGA">     0</i>
   <i type="int" name="NOMEGAR">     0</i>
   <i type="int" name="NBANDSGW">    -1</i>
   <i type="int" name="NBANDSO">    -1</i>
   <i type="int" name="NBANDSV">    -1</i>
   <i type="int" name="NELMGW">     1</i>
   <i type="int" name="NELMHF">     1</i>
   <i type="int" name="DIM">     3</i>
   <i type="int" name="IESPILON">     4</i>
   <i type="int" name="ANTIRES">     0</i>
   <i name="OMEGAMAX">    -30.00000000</i>
   <i name="OMEGAMIN">    -30.00000000</i>
   <i name="OMEGATL">   -200.00000000</i>
   <i type="int" name="OMEGAGRID">     0</i>
   <i name="CSHIFT">     -0.10000000</i>
   <i type="logical" name="LSELFENERGY"> F  </i>
   <i type="logical" name="LSPECTRAL"> F  </i>
   <i type="logical" name="LSPECTRALGW"> F  </i>
   <i type="logical" name="LSINGLES"> F  </i>
   <i type="logical" name="LFERMIGW"> F  </i>
   <i type="logical" name="ODDONLYGW"> F  </i>
   <i type="logical" name="EVENONLYGW"> F  </i>
   <i type="int" name="NKREDLFX">     1</i>
   <i type="int" name="NKREDLFY">     1</i>
   <i type="int" name="NKREDLFZ">     1</i>
   <i type="int" name="MAXMEM">  2800</i>
   <i type="int" name="TELESCOPE">     0</i>
   <i type="int" name="NTAUPAR">    -1</i>
   <i type="int" name="NOMEGAPAR">    -1</i>
   <i name="DAMP_NEWTON">      0.80000001</i>
   <i name="LAMBDA">      1.00000000</i>
  </separator>
  <separator name="External order field" >
   <i name="OFIELD_KAPPA">      0.00000000</i>
   <v name="OFIELD_K">      0.00000000      0.00000000      0.00000000</v>
   <i name="OFIELD_Q6_NEAR">      0.00000000</i>
   <i name="OFIELD_Q6_FAR">      0.00000000</i>
   <i name="OFIELD_A">      0.00000000</i>
  </separator>
  <separator name="optional k-points parameters" >
   <i type="int" name="KPOINTS_OPT_MODE">     1</i>
   <i type="logical" name="LKPOINTS_OPT"> F  </i>
  </separator>
 </parameters>
 <atominfo>
  <atoms>      92 </atoms>
  <types>       1 </types>
  <array name="atoms" >
   <dimension dim="1">ion</dimension>
   <field type="string">element</field>
   <field type="int">atomtype</field>
   <set>
    <rc><c>C </c><c>   1</c></rc>
    <rc><c>C </c><c>   1</c></rc>
    <rc><c>C </c><c>   1</c></rc>
    <rc><c>C </c><c>   1</c></rc>
    <rc><c>C </c><c>   1</c></rc>
    <rc><c>C </c><c>   1</c></rc>
    <rc><c>C </c><c>   1</c></rc>
    <rc><c>C </c><c>   1</c></rc>
    <rc><c>C </c><c>   1</c></rc>
    <rc><c>C </c><c>   1</c></rc>
    <rc><c>C </c><c>   1</c></rc>
    <rc><c>C </c><c>   1</c></rc>
    <rc><c>C </c><c>   1</c></rc>
    <rc><c>C </c><c>   1</c></rc>
    <rc><c>C </c><c>   1</c></rc>
    <rc><c>C </c><c>   1</c></rc>
    <rc><c>C </c><c>   1</c></rc>
    <rc><c>C </c><c>   1</c></rc>
    <rc><c>C </c><c>   1</c></rc>
    <rc><c>C </c><c>   1</c></rc>
    <rc><c>C </c><c>   1</c></rc>
    <rc><c>C </c><c>   1</c></rc>
    <rc><c>C </c><c>   1</c></rc>
    <rc><c>C </c><c>   1</c></rc>
    <rc><c>C </c><c>   1</c></rc>
    <rc><c>C </c><c>   1</c></rc>
    <rc><c>C </c><c>   1</c></rc>
    <rc><c>C </c><c>   1</c></rc>
    <rc><c>C </c><c>   1</c></rc>
    <rc><c>C </c><c>   1</c></rc>
    <rc><c>C </c><c>   1</c></rc>
    <rc><c>C </c><c>   1</c></rc>
    <rc><c>C </c><c>   1</c></rc>
    <rc><c>C </c><c>   1</c></rc>
    <rc><c>C </c><c>   1</c></rc>
    <rc><c>C </c><c>   1</c></rc>
    <rc><c>C </c><c>   1</c></rc>
    <rc><c>C </c><c>   1</c></rc>
    <rc><c>C </c><c>   1</c></rc>
    <rc><c>C </c><c>   1</c></rc>
    <rc><c>C </c><c>   1</c></rc>
    <rc><c>C </c><c>   1</c></rc>
    <rc><c>C </c><c>   1</c></rc>
    <rc><c>C </c><c>   1</c></rc>
    <rc><c>C </c><c>   1</c></rc>
    <rc><c>C </c><c>   1</c></rc>
    <rc><c>C </c><c>   1</c></rc>
    <rc><c>C </c><c>   1</c></rc>
    <rc><c>C </c><c>   1</c></rc>
    <rc><c>C </c><c>   1</c></rc>
    <rc><c>C </c><c>   1</c></rc>
    <rc><c>C </c><c>   1</c></rc>
    <rc><c>C </c><c>   1</c></rc>
    <rc><c>C </c><c>   1</c></rc>
    <rc><c>C </c><c>   1</c></rc>
    <rc><c>C </c><c>   1</c></rc>
    <rc><c>C </c><c>   1</c></rc>
    <rc><c>C </c><c>   1</c></rc>
    <rc><c>C </c><c>   1</c></rc>
    <rc><c>C </c><c>   1</c></rc>
    <rc><c>C </c><c>   1</c></rc>
    <rc><c>C </c><c>   1</c></rc>
    <rc><c>C </c><c>   1</c></rc>
    <rc><c>C </c><c>   1</c></rc>
    <rc><c>C </c><c>   1</c></rc>
    <rc><c>C </c><c>   1</c></rc>
    <rc><c>C </c><c>   1</c></rc>
    <rc><c>C </c><c>   1</c></rc>
    <rc><c>C </c><c>   1</c></rc>
    <rc><c>C </c><c>   1</c></rc>
    <rc><c>C </c><c>   1</c></rc>
    <rc><c>C </c><c>   1</c></rc>
    <rc><c>C </c><c>   1</c></rc>
    <rc><c>C </c><c>   1</c></rc>
    <rc><c>C </c><c>   1</c></rc>
    <rc><c>C </c><c>   1</c></rc>
    <rc><c>C </c><c>   1</c></rc>
    <rc><c>C </c><c>   1</c></rc>
    <rc><c>C </c><c>   1</c></rc>
    <rc><c>C </c><c>   1</c></rc>
    <rc><c>C </c><c>   1</c></rc>
    <rc><c>C </c><c>   1</c></rc>
    <rc><c>C </c><c>   1</c></rc>
    <rc><c>C </c><c>   1</c></rc>
    <rc><c>C </c><c>   1</c></rc>
    <rc><c>C </c><c>   1</c></rc>
    <rc><c>C </c><c>   1</c></rc>
    <rc><c>C </c><c>   1</c></rc>
    <rc><c>C </c><c>   1</c></rc>
    <rc><c>C </c><c>   1</c></rc>
    <rc><c>C </c><c>   1</c></rc>
    <rc><c>C </c><c>   1</c></rc>
   </set>
  </array>
  <array name="atomtypes" >
   <dimension dim="1">type</dimension>
   <field type="int">atomspertype</field>
   <field type="string">element</field>
   <field>mass</field>
   <field>valence</field>
   <field type="string">pseudopotential</field>
   <set>
    <rc><c>  92</c><c>C </c><c>     12.01100000</c><c>      4.00000000</c><c>  PAW_PBE C 08Apr2002                   </c></rc>
   </set>
  </array>
 </atominfo>
 <structure name="initialpos" >
  <crystal>
   <varray name="basis" >
    <v>      28.05000000       0.00000000       0.00000000 </v>
    <v>       0.00000000       8.10000000       0.00000000 </v>
    <v>       0.00000000       0.00000000      33.50000000 </v>
   </varray>
   <i name="volume">   7611.36750000 </i>
   <varray name="rec_basis" >
    <v>       0.03565062       0.00000000       0.00000000 </v>
    <v>       0.00000000       0.12345679       0.00000000 </v>
    <v>       0.00000000       0.00000000       0.02985075 </v>
   </varray>
  </crystal>
  <varray name="positions" >
   <v>       0.13367130       0.27225679       0.23289134 </v>
   <v>       0.13304242       0.44710494       0.23091851 </v>
   <v>       0.17741569       0.18968889       0.23073791 </v>
   <v>       0.17792478       0.52525062       0.23103433 </v>
   <v>       0.22084135       0.27318642       0.22511403 </v>
   <v>       0.22172264       0.44235802       0.22263134 </v>
   <v>       0.26463387       0.19088889       0.23373433 </v>
   <v>       0.26660463       0.52878395       0.22296448 </v>
   <v>       0.31032299       0.27183086       0.23179940 </v>
   <v>       0.31055080       0.44253457       0.22629881 </v>
   <v>       0.35267094       0.19224568       0.24343970 </v>
   <v>       0.35541961       0.53044321       0.23395313 </v>
   <v>       0.39737255       0.27882099       0.24848299 </v>
   <v>       0.39714439       0.44910617       0.24530955 </v>
   <v>       0.43929055       0.19711481       0.26407731 </v>
   <v>       0.44205704       0.53295062       0.25334925 </v>
   <v>       0.48045276       0.28929136       0.27620239 </v>
   <v>       0.48228520       0.45037160       0.26659224 </v>
   <v>       0.52293405       0.20252099       0.28744060 </v>
   <v>       0.52549376       0.52805309       0.27627164 </v>
   <v>       0.56581105       0.27982469       0.29618119 </v>
   <v>       0.56838146       0.44335432       0.28679015 </v>
   <v>       0.60855258       0.19120617       0.30469851 </v>
   <v>       0.61057398       0.53005926       0.29760090 </v>
   <v>       0.65340107       0.27564444       0.30602090 </v>
   <v>       0.65344385       0.44737407       0.30085075 </v>
   <v>       0.69690909       0.19426296       0.31306269 </v>
   <v>       0.69639572       0.53246790       0.30835522 </v>
   <v>       0.74072371       0.28051111       0.30879701 </v>
   <v>       0.74069519       0.44783827       0.30791940 </v>
   <v>       0.78445633       0.19188148       0.31074925 </v>
   <v>       0.78551872       0.52860494       0.30893134 </v>
   <v>       0.82910517       0.27518642       0.30122090 </v>
   <v>       0.82983244       0.44503704       0.29972239 </v>
   <v>       0.87347950       0.19919877       0.30094030 </v>
   <v>       0.87209269       0.53510000       0.29784746 </v>
   <v>       0.91619251       0.28108642       0.28820657 </v>
   <v>       0.91513725       0.45034444       0.28556627 </v>
   <v>       0.95904813       0.19728148       0.28078776 </v>
   <v>       0.95769340       0.53545062       0.27922716 </v>
   <v>       0.00043824       0.28502222       0.26882030 </v>
   <v>       0.99930125       0.44966420       0.26184030 </v>
   <v>       0.04379002       0.19875556       0.26059313 </v>
   <v>       0.04249982       0.53002840       0.25415284 </v>
   <v>       0.08343886       0.27072963       0.24195164 </v>
   <v>       0.08230303       0.44213704       0.23684448 </v>
   <v>       0.13901569       0.77254938       0.25616060 </v>
   <v>       0.13858717       0.94574198       0.25780060 </v>
   <v>       0.17854795       0.69254568       0.24058060 </v>
   <v>       0.17934225       0.02686321       0.24562507 </v>
   <v>       0.22280428       0.77805802       0.24223433 </v>
   <v>       0.22297504       0.94299753       0.24717403 </v>
   <v>       0.26591373       0.69651852       0.23438597 </v>
   <v>       0.26672193       0.03192247       0.24391761 </v>
   <v>       0.30933119       0.76886296       0.24271045 </v>
   <v>       0.30815936       0.94447654       0.25040060 </v>
   <v>       0.35331159       0.69643210       0.24471284 </v>
   <v>       0.35144670       0.02974049       0.25205194 </v>
   <v>       0.39526203       0.78282963       0.25580657 </v>
   <v>       0.39550802       0.94986543       0.26131612 </v>
   <v>       0.44037433       0.70189383       0.25812239 </v>
   <v>       0.43766488       0.02981728       0.27018955 </v>
   <v>       0.48288414       0.77840494       0.27062030 </v>
   <v>       0.48003209       0.94502593       0.27952836 </v>
   <v>       0.52632442       0.70239753       0.27617851 </v>
   <v>       0.52170766       0.03097074       0.29269373 </v>
   <v>       0.56586453       0.77563086       0.29461403 </v>
   <v>       0.56409982       0.94927037       0.30052836 </v>
   <v>       0.60969697       0.70038025       0.29849313 </v>
   <v>       0.60778610       0.02792654       0.30660299 </v>
   <v>       0.65312656       0.78145926       0.31248657 </v>
   <v>       0.65137611       0.95174815       0.31755224 </v>
   <v>       0.69746881       0.69661975       0.31684478 </v>
   <v>       0.69696613       0.03123704       0.32075224 </v>
   <v>       0.74150446       0.77960370       0.32271940 </v>
   <v>       0.74086631       0.94677654       0.32623284 </v>
   <v>       0.78523351       0.68965802       0.31636716 </v>
   <v>       0.78526203       0.03071765       0.31984776 </v>
   <v>       0.82824955       0.78237778       0.31464179 </v>
   <v>       0.82949733       0.94330494       0.31538806 </v>
   <v>       0.87254189       0.70025309       0.30488060 </v>
   <v>       0.87370766       0.03335852       0.31093134 </v>
   <v>       0.91861319       0.78216049       0.30120299 </v>
   <v>       0.91796078       0.94972963       0.30364776 </v>
   <v>       0.96169340       0.69412716       0.29191224 </v>
   <v>       0.96064171       0.02598123       0.28911015 </v>
   <v>       0.00557569       0.77676914       0.28188687 </v>
   <v>       0.00483711       0.94851605       0.28255672 </v>
   <v>       0.04566453       0.69071358       0.26611284 </v>
   <v>       0.04647986       0.03457605       0.27210776 </v>
   <v>       0.09067558       0.77509259       0.26667164 </v>
   <v>       0.08946809       0.94688889       0.26948985 </v>
  </varray>
 </structure>
 <calculation>
  <scstep>
   <time name="dav">   11.03   11.03</time>
   <time name="total">   11.49   11.52</time>
   <energy>
    <i name="alphaZ">     91.34886789 </i>
    <i name="ewald"> 120377.02778179 </i>
    <i name="hartreedc">-129701.25417009 </i>
    <i name="XCdc">   1221.52512052 </i>
    <i name="pawpsdc">   9984.02826696 </i>
    <i name="pawaedc"> -10036.41360137 </i>
    <i name="eentropy">     -0.82557751 </i>
    <i name="bandstr">  -1768.88558456 </i>
    <i name="atom">  13537.65479391 </i>
    <i name="e_fr_energy">   3704.20589755 </i>
    <i name="e_wo_entrp">   3705.03147505 </i>
    <i name="e_0_energy">   3704.61868630 </i>
   </energy>
  </scstep>
  <scstep>
   <time name="dav">   13.13   13.14</time>
   <time name="total">   13.14   13.14</time>
   <energy>
    <i name="e_fr_energy">    180.92374216 </i>
    <i name="e_wo_entrp">    181.08621845 </i>
    <i name="e_0_energy">    181.00498030 </i>
   </energy>
  </scstep>
  <scstep>
   <time name="dav">   11.37   11.37</time>
   <time name="total">   11.37   11.37</time>
   <energy>
    <i name="e_fr_energy">   -835.60742902 </i>
    <i name="e_wo_entrp">   -835.55612772 </i>
    <i name="e_0_energy">   -835.58177837 </i>
   </energy>
  </scstep>
  <scstep>
   <time name="dav">   10.91   10.92</time>
   <time name="total">   10.91   10.92</time>
   <energy>
    <i name="e_fr_energy">   -896.49503242 </i>
    <i name="e_wo_entrp">   -896.42127303 </i>
    <i name="e_0_energy">   -896.45815273 </i>
   </energy>
  </scstep>
  <scstep>
   <time name="dav">   11.29   11.30</time>
   <time name="total">   12.77   12.78</time>
   <energy>
    <i name="e_fr_energy">   -898.01402436 </i>
    <i name="e_wo_entrp">   -897.93884780 </i>
    <i name="e_0_energy">   -897.97643608 </i>
   </energy>
  </scstep>
  <scstep>
   <time name="dav">   10.27   10.27</time>
   <time name="total">   12.06   12.07</time>
   <energy>
    <i name="e_fr_energy">   -848.50079597 </i>
    <i name="e_wo_entrp">   -848.41042876 </i>
    <i name="e_0_energy">   -848.45561236 </i>
   </energy>
  </scstep>
  <scstep>
   <time name="dav">   10.18   10.19</time>
   <time name="total">   11.98   11.99</time>
   <energy>
    <i name="e_fr_energy">   -830.07351260 </i>
    <i name="e_wo_entrp">   -829.97340103 </i>
    <i name="e_0_energy">   -830.02345681 </i>
   </energy>
  </scstep>
  <scstep>
   <time name="dav">   10.38   10.39</time>
   <time name="total">   12.18   12.19</time>
   <energy>
    <i name="e_fr_energy">   -829.79239944 </i>
    <i name="e_wo_entrp">   -829.69668505 </i>
    <i name="e_0_energy">   -829.74454225 </i>
   </energy>
  </scstep>
  <scstep>
   <time name="dav">   10.35   10.35</time>
   <time name="total">   12.15   12.16</time>
   <energy>
    <i name="e_fr_energy">   -829.68694816 </i>
    <i name="e_wo_entrp">   -829.59036581 </i>
    <i name="e_0_energy">   -829.63865699 </i>
   </energy>
  </scstep>
  <scstep>
   <time name="dav">   11.22   11.22</time>
   <time name="total">   13.03   13.03</time>
   <energy>
    <i name="e_fr_energy">   -829.65120955 </i>
    <i name="e_wo_entrp">   -829.55425206 </i>
    <i name="e_0_energy">   -829.60273080 </i>
   </energy>
  </scstep>
  <scstep>
   <time name="dav">   10.11   10.11</time>
   <time name="total">   11.94   11.94</time>
   <energy>
    <i name="e_fr_energy">   -829.62215476 </i>
    <i name="e_wo_entrp">   -829.52517369 </i>
    <i name="e_0_energy">   -829.57366423 </i>
   </energy>
  </scstep>
  <scstep>
   <time name="dav">   10.11   10.12</time>
   <time name="total">   11.93   11.94</time>
   <energy>
    <i name="e_fr_energy">   -829.61769805 </i>
    <i name="e_wo_entrp">   -829.52071520 </i>
    <i name="e_0_energy">   -829.56920663 </i>
   </energy>
  </scstep>
  <scstep>
   <time name="dav">   10.02   10.03</time>
   <time name="total">   11.84   11.86</time>
   <energy>
    <i name="e_fr_energy">   -829.63026953 </i>
    <i name="e_wo_entrp">   -829.53332866 </i>
    <i name="e_0_energy">   -829.58179910 </i>
   </energy>
  </scstep>
  <scstep>
   <time name="dav">   10.40   10.41</time>
   <time name="total">   12.24   12.25</time>
   <energy>
    <i name="e_fr_energy">   -829.64572607 </i>
    <i name="e_wo_entrp">   -829.54877688 </i>
    <i name="e_0_energy">   -829.59725147 </i>
   </energy>
  </scstep>
  <scstep>
   <time name="dav">   10.33   10.33</time>
   <time name="total">   12.18   12.19</time>
   <energy>
    <i name="e_fr_energy">   -829.66704604 </i>
    <i name="e_wo_entrp">   -829.57004036 </i>
    <i name="e_0_energy">   -829.61854320 </i>
   </energy>
  </scstep>
  <scstep>
   <time name="dav">   10.62   10.63</time>
   <time name="total">   12.49   12.50</time>
   <energy>
    <i name="e_fr_energy">   -829.67467996 </i>
    <i name="e_wo_entrp">   -829.57768020 </i>
    <i name="e_0_energy">   -829.62618008 </i>
   </energy>
  </scstep>
  <scstep>
   <time name="dav">   10.24   10.25</time>
   <time name="total">   12.11   12.12</time>
   <energy>
    <i name="e_fr_energy">   -829.68049724 </i>
    <i name="e_wo_entrp">   -829.58350921 </i>
    <i name="e_0_energy">   -829.63200323 </i>
   </energy>
  </scstep>
  <scstep>
   <time name="dav">   10.74   10.75</time>
   <time name="total">   12.62   12.63</time>
   <energy>
    <i name="e_fr_energy">   -829.68231348 </i>
    <i name="e_wo_entrp">   -829.58531983 </i>
    <i name="e_0_energy">   -829.63381665 </i>
   </energy>
  </scstep>
  <scstep>
   <time name="dav">    9.41    9.41</time>
   <time name="total">   11.30   11.30</time>
   <energy>
    <i name="e_fr_energy">   -829.68348960 </i>
    <i name="e_wo_entrp">   -829.58649841 </i>
    <i name="e_0_energy">   -829.63499400 </i>
   </energy>
  </scstep>
  <scstep>
   <time name="dav">    9.34    9.34</time>
   <time name="total">   11.24   11.25</time>
   <energy>
    <i name="e_fr_energy">   -829.68389214 </i>
    <i name="e_wo_entrp">   -829.58690147 </i>
    <i name="e_0_energy">   -829.63539681 </i>
   </energy>
  </scstep>
  <scstep>
   <time name="dav">    8.81    8.81</time>
   <time name="total">   10.73   10.74</time>
   <energy>
    <i name="e_fr_energy">   -829.68415201 </i>
    <i name="e_wo_entrp">   -829.58715951 </i>
    <i name="e_0_energy">   -829.63565576 </i>
   </energy>
  </scstep>
  <scstep>
   <time name="dav">    7.70    7.70</time>
   <time name="total">    9.63    9.63</time>
   <energy>
    <i name="e_fr_energy">   -829.68419622 </i>
    <i name="e_wo_entrp">   -829.58720352 </i>
    <i name="e_0_energy">   -829.63569987 </i>
   </energy>
  </scstep>
  <scstep>
   <time name="dav">    7.07    7.07</time>
   <time name="total">    9.02    9.02</time>
   <energy>
    <i name="e_fr_energy">   -829.68423174 </i>
    <i name="e_wo_entrp">   -829.58723885 </i>
    <i name="e_0_energy">   -829.63573529 </i>
   </energy>
  </scstep>
  <scstep>
   <time name="dav">    7.28    7.28</time>
   <time name="total">    9.24    9.24</time>
   <energy>
    <i name="e_fr_energy">   -829.68424450 </i>
    <i name="e_wo_entrp">   -829.58725198 </i>
    <i name="e_0_energy">   -829.63574824 </i>
   </energy>
  </scstep>
  <scstep>
   <time name="dav">    6.90    6.90</time>
   <time name="total">    8.88    8.88</time>
   <energy>
    <i name="e_fr_energy">   -829.68424963 </i>
    <i name="e_wo_entrp">   -829.58725727 </i>
    <i name="e_0_energy">   -829.63575345 </i>
   </energy>
  </scstep>
  <scstep>
   <time name="dav">    6.90    6.91</time>
   <time name="total">    8.90    8.91</time>
   <energy>
    <i name="e_fr_energy">   -829.68425304 </i>
    <i name="e_wo_entrp">   -829.58726074 </i>
    <i name="e_0_energy">   -829.63575689 </i>
   </energy>
  </scstep>
  <scstep>
   <time name="dav">    7.24    7.24</time>
   <time name="total">    9.24    9.25</time>
   <energy>
    <i name="e_fr_energy">   -829.68425415 </i>
    <i name="e_wo_entrp">   -829.58726184 </i>
    <i name="e_0_energy">   -829.63575799 </i>
   </energy>
  </scstep>
  <scstep>
   <time name="dav">    7.03    7.03</time>
   <time name="total">    9.05    9.06</time>
   <energy>
    <i name="e_fr_energy">   -829.68425582 </i>
    <i name="e_wo_entrp">   -829.58726333 </i>
    <i name="e_0_energy">   -829.63575957 </i>
   </energy>
  </scstep>
  <scstep>
   <time name="dav">    7.07    7.07</time>
   <time name="total">    7.43    7.43</time>
   <energy>
    <i name="alphaZ">     91.34886789 </i>
    <i name="ewald"> 120377.02778179 </i>
    <i name="hartreedc">-131460.48198244 </i>
    <i name="XCdc">   1278.82669640 </i>
    <i name="pawpsdc">  41102.03596119 </i>
    <i name="pawaedc"> -41166.09527526 </i>
    <i name="eentropy">     -0.09699242 </i>
    <i name="bandstr">  -4589.90410736 </i>
    <i name="atom">  13537.65479391 </i>
    <i name="e_fr_energy">   -829.68425629 </i>
    <i name="e_wo_entrp">   -829.58726388 </i>
    <i name="e_0_energy">   -829.63576008 </i>
   </energy>
  </scstep>
  <structure>
   <crystal>
    <varray name="basis" >
     <v>      28.05000000       0.00000000       0.00000000 </v>
     <v>       0.00000000       8.10000000       0.00000000 </v>
     <v>       0.00000000       0.00000000      33.50000000 </v>
    </varray>
    <i name="volume">   7611.36750000 </i>
    <varray name="rec_basis" >
     <v>       0.03565062       0.00000000       0.00000000 </v>
     <v>       0.00000000       0.12345679       0.00000000 </v>
     <v>       0.00000000       0.00000000       0.02985075 </v>
    </varray>
   </crystal>
   <varray name="positions" >
    <v>       0.13367130       0.27225679       0.23289134 </v>
    <v>       0.13304242       0.44710494       0.23091851 </v>
    <v>       0.17741569       0.18968889       0.23073791 </v>
    <v>       0.17792478       0.52525062       0.23103433 </v>
    <v>       0.22084135       0.27318642       0.22511403 </v>
    <v>       0.22172264       0.44235802       0.22263134 </v>
    <v>       0.26463387       0.19088889       0.23373433 </v>
    <v>       0.26660463       0.52878395       0.22296448 </v>
    <v>       0.31032299       0.27183086       0.23179940 </v>
    <v>       0.31055080       0.44253457       0.22629881 </v>
    <v>       0.35267094       0.19224568       0.24343970 </v>
    <v>       0.35541961       0.53044321       0.23395313 </v>
    <v>       0.39737255       0.27882099       0.24848299 </v>
    <v>       0.39714439       0.44910617       0.24530955 </v>
    <v>       0.43929055       0.19711481       0.26407731 </v>
    <v>       0.44205704       0.53295062       0.25334925 </v>
    <v>       0.48045276       0.28929136       0.27620239 </v>
    <v>       0.48228520       0.45037160       0.26659224 </v>
    <v>       0.52293405       0.20252099       0.28744060 </v>
    <v>       0.52549376       0.52805309       0.27627164 </v>
    <v>       0.56581105       0.27982469       0.29618119 </v>
    <v>       0.56838146       0.44335432       0.28679015 </v>
    <v>       0.60855258       0.19120617       0.30469851 </v>
    <v>       0.61057398       0.53005926       0.29760090 </v>
    <v>       0.65340107       0.27564444       0.30602090 </v>
    <v>       0.65344385       0.44737407       0.30085075 </v>
    <v>       0.69690909       0.19426296       0.31306269 </v>
    <v>       0.69639572       0.53246790       0.30835522 </v>
    <v>       0.74072371       0.28051111       0.30879701 </v>
    <v>       0.74069519       0.44783827       0.30791940 </v>
    <v>       0.78445633       0.19188148       0.31074925 </v>
    <v>       0.78551872       0.52860494       0.30893134 </v>
    <v>       0.82910517       0.27518642       0.30122090 </v>
    <v>       0.82983244       0.44503704       0.29972239 </v>
    <v>       0.87347950       0.19919877       0.30094030 </v>
    <v>       0.87209269       0.53510000       0.29784746 </v>
    <v>       0.91619251       0.28108642       0.28820657 </v>
    <v>       0.91513725       0.45034444       0.28556627 </v>
    <v>       0.95904813       0.19728148       0.28078776 </v>
    <v>       0.95769340       0.53545062       0.27922716 </v>
    <v>       0.00043824       0.28502222       0.26882030 </v>
    <v>       0.99930125       0.44966420       0.26184030 </v>
    <v>       0.04379002       0.19875556       0.26059313 </v>
    <v>       0.04249982       0.53002840       0.25415284 </v>
    <v>       0.08343886       0.27072963       0.24195164 </v>
    <v>       0.08230303       0.44213704       0.23684448 </v>
    <v>       0.13901569       0.77254938       0.25616060 </v>
    <v>       0.13858717       0.94574198       0.25780060 </v>
    <v>       0.17854795       0.69254568       0.24058060 </v>
    <v>       0.17934225       0.02686321       0.24562507 </v>
    <v>       0.22280428       0.77805802       0.24223433 </v>
    <v>       0.22297504       0.94299753       0.24717403 </v>
    <v>       0.26591373       0.69651852       0.23438597 </v>
    <v>       0.26672193       0.03192247       0.24391761 </v>
    <v>       0.30933119       0.76886296       0.24271045 </v>
    <v>       0.30815936       0.94447654       0.25040060 </v>
    <v>       0.35331159       0.69643210       0.24471284 </v>
    <v>       0.35144670       0.02974049       0.25205194 </v>
    <v>       0.39526203       0.78282963       0.25580657 </v>
    <v>       0.39550802       0.94986543       0.26131612 </v>
    <v>       0.44037433       0.70189383       0.25812239 </v>
    <v>       0.43766488       0.02981728       0.27018955 </v>
    <v>       0.48288414       0.77840494       0.27062030 </v>
    <v>       0.48003209       0.94502593       0.27952836 </v>
    <v>       0.52632442       0.70239753       0.27617851 </v>
    <v>       0.52170766       0.03097074       0.29269373 </v>
    <v>       0.56586453       0.77563086       0.29461403 </v>
    <v>       0.56409982       0.94927037       0.30052836 </v>
    <v>       0.60969697       0.70038025       0.29849313 </v>
    <v>       0.60778610       0.02792654       0.30660299 </v>
    <v>       0.65312656       0.78145926       0.31248657 </v>
    <v>       0.65137611       0.95174815       0.31755224 </v>
    <v>       0.69746881       0.69661975       0.31684478 </v>
    <v>       0.69696613       0.03123704       0.32075224 </v>
    <v>       0.74150446       0.77960370       0.32271940 </v>
    <v>       0.74086631       0.94677654       0.32623284 </v>
    <v>       0.78523351       0.68965802       0.31636716 </v>
    <v>       0.78526203       0.03071765       0.31984776 </v>
    <v>       0.82824955       0.78237778       0.31464179 </v>
    <v>       0.82949733       0.94330494       0.31538806 </v>
    <v>       0.87254189       0.70025309       0.30488060 </v>
    <v>       0.87370766       0.03335852       0.31093134 </v>
    <v>       0.91861319       0.78216049       0.30120299 </v>
    <v>       0.91796078       0.94972963       0.30364776 </v>
    <v>       0.96169340       0.69412716       0.29191224 </v>
    <v>       0.96064171       0.02598123       0.28911015 </v>
    <v>       0.00557569       0.77676914       0.28188687 </v>
    <v>       0.00483711       0.94851605       0.28255672 </v>
    <v>       0.04566453       0.69071358       0.26611284 </v>
    <v>       0.04647986       0.03457605       0.27210776 </v>
    <v>       0.09067558       0.77509259       0.26667164 </v>
    <v>       0.08946809       0.94688889       0.26948985 </v>
   </varray>
  </structure>
  <varray name="forces" >
   <v>       2.85953513       0.50972297      -1.19155678 </v>
   <v>       3.18358583      -1.53834394      -0.71125417 </v>
   <v>      -1.31761530      -0.42034005       1.41306535 </v>
   <v>      -1.38840123       0.48735079      -0.84739842 </v>
   <v>       0.78067956      -0.69004250       0.19984153 </v>
   <v>       0.05237455       0.98708559       0.09002541 </v>
   <v>       1.53772845       2.74992748      -1.14921373 </v>
   <v>      -0.63320029      -0.27363168       0.88262152 </v>
   <v>      -1.07555846       0.68785386      -0.05534090 </v>
   <v>       1.15720280       1.03711529      -0.11268836 </v>
   <v>       0.96343299       2.04627240      -0.13250237 </v>
   <v>      -1.35823176      -0.48360642       0.76054842 </v>
   <v>      -0.06614788      -1.01823767       0.58647107 </v>
   <v>       2.05551122      -0.40104400      -0.78213779 </v>
   <v>      -0.81663860       1.97267639       0.60900510 </v>
   <v>      -2.49107357      -0.13627400      -0.03566955 </v>
   <v>      -0.02914339      -3.54290948      -1.37402974 </v>
   <v>       1.19424657       0.77627177       0.32912216 </v>
   <v>      -1.36780916      -0.56813668       1.38091883 </v>
   <v>       1.30338580       1.16287049      -0.75373557 </v>
   <v>       0.78801155      -0.71694715      -1.13240697 </v>
   <v>      -0.76574038       1.87331246       1.14243430 </v>
   <v>       0.40970050       3.95351460      -0.30809605 </v>
   <v>      -0.84851025      -0.05347712      -1.93368578 </v>
   <v>      -0.77340302       0.27637104      -0.24213963 </v>
   <v>       0.87854118      -0.81453453       1.27282253 </v>
   <v>       0.29266001       2.22073100      -0.62751474 </v>
   <v>       1.11907877      -1.35634577      -0.26022838 </v>
   <v>       0.07154852      -1.88127889       0.49098859 </v>
   <v>       0.08900805       0.61795356      -0.16260317 </v>
   <v>       1.08147883       2.87723831      -0.81260868 </v>
   <v>       0.23538333      -2.35141141      -1.03689580 </v>
   <v>      -1.06803623       0.12203760       0.50898651 </v>
   <v>      -2.25243753       1.01081450       0.87594807 </v>
   <v>       0.24571994      -0.77526288      -0.13349000 </v>
   <v>       1.15177496      -1.76543487      -1.02727579 </v>
   <v>      -0.88950619      -0.78571301      -0.07154335 </v>
   <v>      -0.90781984       0.94325921       0.77095771 </v>
   <v>       0.05539657      -0.58966936       0.92351319 </v>
   <v>       1.36497935      -1.71316354      -0.98077514 </v>
   <v>       0.20556461      -2.18777656      -1.47959254 </v>
   <v>      -1.57606880       1.54422008       1.71014150 </v>
   <v>       0.84039997      -0.24112093      -0.16385186 </v>
   <v>       1.38637502      -1.02405325      -1.66755990 </v>
   <v>      -2.93961295       0.75765850       0.33657310 </v>
   <v>      -3.37860812       1.22738467       1.91833485 </v>
   <v>       2.97166032       0.31384558      -0.90350800 </v>
   <v>       2.84931671       0.05793146      -0.37035243 </v>
   <v>      -0.15467190       0.11319505       1.01018468 </v>
   <v>      -0.99434818       1.02161374       0.05425154 </v>
   <v>      -0.35246083      -1.76855325      -0.44587081 </v>
   <v>       0.30628118       1.63085330      -0.60240316 </v>
   <v>       0.10657447      -1.77958473      -0.42460423 </v>
   <v>      -2.03387806      -2.89955296       0.86085115 </v>
   <v>      -0.75436239       3.82662366       1.25765832 </v>
   <v>       1.21185985      -1.32725860      -0.96132641 </v>
   <v>       0.95420025      -0.80266872      -0.98600532 </v>
   <v>       0.92356728      -1.38200824       0.89418440 </v>
   <v>       1.07341245      -1.38833077      -0.02154674 </v>
   <v>      -1.78264880      -0.23293256      -0.48296544 </v>
   <v>      -0.31753661      -0.36683250      -0.22574953 </v>
   <v>       0.59533142       0.12622614      -0.04572929 </v>
   <v>      -1.06059372       1.80539966       0.19088005 </v>
   <v>       0.55935503       0.54877218       0.33982748 </v>
   <v>       0.40915902      -2.65783037       1.24102551 </v>
   <v>      -1.10874096       0.38168130      -1.15689283 </v>
   <v>      -0.39025157       2.77860325      -0.92425984 </v>
   <v>       0.34684216      -2.20498957      -0.26877980 </v>
   <v>       1.95992204      -0.42490112       1.76106276 </v>
   <v>       0.56479957      -1.43300853       1.67762797 </v>
   <v>      -0.88617639      -0.20284136       0.07469754 </v>
   <v>       0.89742209      -1.58302521      -0.89352863 </v>
   <v>      -1.16379715       1.42594967      -0.38138166 </v>
   <v>      -1.05199933      -1.61435016       0.75902434 </v>
   <v>      -0.15412025      -2.32087107      -0.04336973 </v>
   <v>       0.54778227       1.18461953      -0.84059952 </v>
   <v>      -0.17700156       4.01242235       0.75859970 </v>
   <v>      -0.10176763      -1.88431220       0.24231386 </v>
   <v>       1.72381297      -4.77966676      -0.65812546 </v>
   <v>       0.02314990       5.17000445       1.24693699 </v>
   <v>       0.94575710       1.12134373       0.41864326 </v>
   <v>       0.72902857      -1.10528768      -1.28759273 </v>
   <v>      -1.17940945      -2.01639887       0.87823801 </v>
   <v>       0.50190404       0.91971873      -0.39996175 </v>
   <v>      -0.06815162       1.98439650      -1.47468353 </v>
   <v>      -0.30880734       2.12328702       0.44899555 </v>
   <v>      -0.74155018      -0.46733887       0.48980105 </v>
   <v>      -0.26737972      -0.89687762       0.44174303 </v>
   <v>       2.01625145       1.91324053       0.81879459 </v>
   <v>       1.22006013      -0.59098808      -0.08522307 </v>
   <v>      -5.40656550      -0.92629292       0.62107354 </v>
   <v>      -2.34097219       0.08408803       0.38151996 </v>
  </varray>
  <varray name="stress" >
   <v>       2.36992800       0.01162083       0.43444077 </v>
   <v>       0.01162083      48.73367975      -0.79248432 </v>
   <v>       0.43444077      -0.79248432      -0.91803024 </v>
  </varray>
  <energy>
   <i name="e_fr_energy">   -829.68425629 </i>
   <i name="e_wo_entrp">   -829.58726388 </i>
   <i name="e_0_energy">   -829.63576008 </i>
  </energy>
  <time name="totalsc">  334.62  334.86</time>
  <eigenvalues>
   <array>
    <dimension dim="1">band</dimension>
    <dimension dim="2">kpoint</dimension>
    <dimension dim="3">spin</dimension>
    <field>eigene</field>
    <field>occ</field>
    <set>
     <set comment="spin 1">
      <set comment="kpoint 1">
       <r>  -23.2222    1.0000 </r>
       <r>  -23.1204    1.0000 </r>
       <r>  -22.9992    1.0000 </r>
       <r>  -22.7106    1.0000 </r>
       <r>  -22.6201    1.0000 </r>
       <r>  -22.5375    1.0000 </r>
       <r>  -22.0988    1.0000 </r>
       <r>  -21.9543    1.0000 </r>
       <r>  -21.5829    1.0000 </r>
       <r>  -21.4952    1.0000 </r>
       <r>  -21.4250    1.0000 </r>
       <r>  -21.4008    1.0000 </r>
       <r>  -21.2799    1.0000 </r>
       <r>  -21.2181    1.0000 </r>
       <r>  -21.1492    1.0000 </r>
       <r>  -21.0664    1.0000 </r>
       <r>  -21.0126    1.0000 </r>
       <r>  -20.9682    1.0000 </r>
       <r>  -20.7812    1.0000 </r>
       <r>  -20.5893    1.0000 </r>
       <r>  -20.3940    1.0000 </r>
       <r>  -20.3525    1.0000 </r>
       <r>  -20.1528    1.0000 </r>
       <r>  -20.0949    1.0000 </r>
       <r>  -19.9109    1.0000 </r>
       <r>  -19.7683    1.0000 </r>
       <r>  -19.5132    1.0000 </r>
       <r>  -19.4509    1.0000 </r>
       <r>  -19.1668    1.0000 </r>
       <r>  -18.9227    1.0000 </r>
       <r>  -18.7269    1.0000 </r>
       <r>  -18.5313    1.0000 </r>
       <r>  -18.5015    1.0000 </r>
       <r>  -18.3857    1.0000 </r>
       <r>  -18.1825    1.0000 </r>
       <r>  -17.5635    1.0000 </r>
       <r>  -17.2748    1.0000 </r>
       <r>  -17.1458    1.0000 </r>
       <r>  -17.1288    1.0000 </r>
       <r>  -17.0158    1.0000 </r>
       <r>  -16.9316    1.0000 </r>
       <r>  -16.8432    1.0000 </r>
       <r>  -16.7144    1.0000 </r>
       <r>  -16.6662    1.0000 </r>
       <r>  -16.6209    1.0000 </r>
       <r>  -16.5631    1.0000 </r>
       <r>  -16.5380    1.0000 </r>
       <r>  -16.4335    1.0000 </r>
       <r>  -16.4061    1.0000 </r>
       <r>  -16.3447    1.0000 </r>
       <r>  -16.2938    1.0000 </r>
       <r>  -16.1836    1.0000 </r>
       <r>  -16.1556    1.0000 </r>
       <r>  -16.0675    1.0000 </r>
       <r>  -15.9974    1.0000 </r>
       <r>  -15.6079    1.0000 </r>
       <r>  -15.3797    1.0000 </r>
       <r>  -15.3548    1.0000 </r>
       <r>  -15.2246    1.0000 </r>
       <r>  -15.1958    1.0000 </r>
       <r>  -15.1363    1.0000 </r>
       <r>  -14.9732    1.0000 </r>
       <r>  -14.4034    1.0000 </r>
       <r>  -14.2182    1.0000 </r>
       <r>  -14.1172    1.0000 </r>
       <r>  -13.9981    1.0000 </r>
       <r>  -13.9306    1.0000 </r>
       <r>  -13.7344    1.0000 </r>
       <r>  -13.6623    1.0000 </r>
       <r>  -13.5365    1.0000 </r>
       <r>  -13.4112    1.0000 </r>
       <r>  -13.4020    1.0000 </r>
       <r>  -13.2713    1.0000 </r>
       <r>  -13.1663    1.0000 </r>
       <r>  -13.1262    1.0000 </r>
       <r>  -12.8486    1.0000 </r>
       <r>  -12.6826    1.0000 </r>
       <r>  -12.4133    1.0000 </r>
       <r>  -12.0710    1.0000 </r>
       <r>  -12.0593    1.0000 </r>
       <r>  -12.0221    1.0000 </r>
       <r>  -11.9072    1.0000 </r>
       <r>  -11.8901    1.0000 </r>
       <r>  -11.8212    1.0000 </r>
       <r>  -11.7931    1.0000 </r>
       <r>  -11.4198    1.0000 </r>
       <r>  -11.3616    1.0000 </r>
       <r>  -11.2682    1.0000 </r>
       <r>  -11.1392    1.0000 </r>
       <r>  -11.1320    1.0000 </r>
       <r>  -10.8865    1.0000 </r>
       <r>  -10.8308    1.0000 </r>
       <r>  -10.8017    1.0000 </r>
       <r>  -10.7673    1.0000 </r>
       <r>  -10.7189    1.0000 </r>
       <r>  -10.7000    1.0000 </r>
       <r>  -10.5928    1.0000 </r>
       <r>  -10.5608    1.0000 </r>
       <r>  -10.4762    1.0000 </r>
       <r>  -10.4293    1.0000 </r>
       <r>  -10.4068    1.0000 </r>
       <r>  -10.3729    1.0000 </r>
       <r>  -10.3188    1.0000 </r>
       <r>  -10.3089    1.0000 </r>
       <r>  -10.2201    1.0000 </r>
       <r>  -10.1008    1.0000 </r>
       <r>   -9.9665    1.0000 </r>
       <r>   -9.9018    1.0000 </r>
       <r>   -9.8464    1.0000 </r>
       <r>   -9.7960    1.0000 </r>
       <r>   -9.7195    1.0000 </r>
       <r>   -9.6793    1.0000 </r>
       <r>   -9.6640    1.0000 </r>
       <r>   -9.6485    1.0000 </r>
       <r>   -9.6027    1.0000 </r>
       <r>   -9.5766    1.0000 </r>
       <r>   -9.5617    1.0000 </r>
       <r>   -9.5460    1.0000 </r>
       <r>   -9.5015    1.0000 </r>
       <r>   -9.4765    1.0000 </r>
       <r>   -9.4496    1.0000 </r>
       <r>   -9.3982    1.0000 </r>
       <r>   -9.3605    1.0000 </r>
       <r>   -9.3541    1.0000 </r>
       <r>   -9.3229    1.0000 </r>
       <r>   -9.2988    1.0000 </r>
       <r>   -9.2540    1.0000 </r>
       <r>   -9.2113    1.0000 </r>
       <r>   -9.1715    1.0000 </r>
       <r>   -9.1460    1.0000 </r>
       <r>   -9.0575    1.0000 </r>
       <r>   -9.0341    1.0000 </r>
       <r>   -8.9502    1.0000 </r>
       <r>   -8.8998    1.0000 </r>
       <r>   -8.8724    1.0000 </r>
       <r>   -8.8671    1.0000 </r>
       <r>   -8.8551    1.0000 </r>
       <r>   -8.8002    1.0000 </r>
       <r>   -8.7340    1.0000 </r>
       <r>   -8.7226    1.0000 </r>
       <r>   -8.6926    1.0000 </r>
       <r>   -8.6366    1.0000 </r>
       <r>   -8.6078    1.0000 </r>
       <r>   -8.5456    1.0000 </r>
       <r>   -8.4809    1.0000 </r>
       <r>   -8.3854    1.0000 </r>
       <r>   -8.0843    1.0000 </r>
       <r>   -7.9610    1.0000 </r>
       <r>   -7.8975    1.0000 </r>
       <r>   -7.7545    1.0000 </r>
       <r>   -7.6856    1.0000 </r>
       <r>   -7.6338    1.0000 </r>
       <r>   -7.6111    1.0000 </r>
       <r>   -7.5355    1.0000 </r>
       <r>   -7.4194    1.0000 </r>
       <r>   -7.3380    1.0000 </r>
       <r>   -7.1908    1.0000 </r>
       <r>   -7.1291    1.0000 </r>
       <r>   -6.9900    1.0000 </r>
       <r>   -6.9408    1.0000 </r>
       <r>   -6.7746    1.0000 </r>
       <r>   -6.7385    1.0000 </r>
       <r>   -6.6697    1.0000 </r>
       <r>   -6.5778    1.0000 </r>
       <r>   -6.4063    1.0000 </r>
       <r>   -6.2192    1.0000 </r>
       <r>   -6.1746    1.0000 </r>
       <r>   -6.1130    1.0000 </r>
       <r>   -6.0449    1.0000 </r>
       <r>   -5.9726    1.0000 </r>
       <r>   -5.9712    1.0000 </r>
       <r>   -5.9353    1.0000 </r>
       <r>   -5.8432    1.0000 </r>
       <r>   -5.0970    1.0000 </r>
       <r>   -4.9389    1.0000 </r>
       <r>   -4.8551    1.0000 </r>
       <r>   -4.5607    1.0000 </r>
       <r>   -4.4984    1.0000 </r>
       <r>   -4.4695    1.0000 </r>
       <r>   -4.4379    1.0000 </r>
       <r>   -4.3541    1.0000 </r>
       <r>   -3.7222    0.9999 </r>
       <r>   -3.7055    0.9998 </r>
       <r>   -3.2268    0.5749 </r>
       <r>   -3.0827    0.2034 </r>
       <r>   -2.7256    0.0004 </r>
       <r>   -2.6700    0.0001 </r>
       <r>   -2.5162    0.0000 </r>
       <r>   -2.3561    0.0000 </r>
       <r>   -2.1300    0.0000 </r>
       <r>   -1.8579    0.0000 </r>
       <r>   -1.7438    0.0000 </r>
       <r>   -1.5595    0.0000 </r>
       <r>   -1.5120    0.0000 </r>
       <r>   -1.4033    0.0000 </r>
       <r>   -1.3858    0.0000 </r>
       <r>   -1.2978    0.0000 </r>
       <r>   -1.0040    0.0000 </r>
       <r>   -0.7798    0.0000 </r>
       <r>   -0.6204    0.0000 </r>
       <r>   -0.5193    0.0000 </r>
       <r>   -0.4024    0.0000 </r>
       <r>   -0.0696    0.0000 </r>
       <r>    0.0080    0.0000 </r>
       <r>    0.1119    0.0000 </r>
       <r>    0.1320    0.0000 </r>
       <r>    0.2389    0.0000 </r>
       <r>    0.6133    0.0000 </r>
       <r>    0.6562    0.0000 </r>
       <r>    0.6935    0.0000 </r>
       <r>    0.7417    0.0000 </r>
       <r>    0.8014    0.0000 </r>
       <r>    0.8978    0.0000 </r>
       <r>    0.9115    0.0000 </r>
       <r>    0.9420    0.0000 </r>
       <r>    0.9806    0.0000 </r>
       <r>    1.0614    0.0000 </r>
       <r>    1.1542    0.0000 </r>
       <r>    1.1623    0.0000 </r>
       <r>    1.2171    0.0000 </r>
       <r>    1.3249    0.0000 </r>
       <r>    1.3326    0.0000 </r>
       <r>    1.3363    0.0000 </r>
       <r>    1.4052    0.0000 </r>
       <r>    1.4535    0.0000 </r>
       <r>    1.5545    0.0000 </r>
       <r>    1.5708    0.0000 </r>
       <r>    1.6655    0.0000 </r>
       <r>    1.7064    0.0000 </r>
       <r>    1.7305    0.0000 </r>
       <r>    1.7318    0.0000 </r>
       <r>    1.7474    0.0000 </r>
      </set>
      <set comment="kpoint 2">
       <r>  -23.1481    1.0000 </r>
       <r>  -23.0256    1.0000 </r>
       <r>  -22.9005    1.0000 </r>
       <r>  -22.6761    1.0000 </r>
       <r>  -22.6119    1.0000 </r>
       <r>  -22.5063    1.0000 </r>
       <r>  -22.2351    1.0000 </r>
       <r>  -22.0992    1.0000 </r>
       <r>  -21.9927    1.0000 </r>
       <r>  -21.8653    1.0000 </r>
       <r>  -21.8474    1.0000 </r>
       <r>  -21.7076    1.0000 </r>
       <r>  -21.3000    1.0000 </r>
       <r>  -21.1636    1.0000 </r>
       <r>  -21.0637    1.0000 </r>
       <r>  -20.9375    1.0000 </r>
       <r>  -20.6409    1.0000 </r>
       <r>  -20.5651    1.0000 </r>
       <r>  -20.4915    1.0000 </r>
       <r>  -20.3376    1.0000 </r>
       <r>  -20.1567    1.0000 </r>
       <r>  -20.1315    1.0000 </r>
       <r>  -20.0854    1.0000 </r>
       <r>  -19.9046    1.0000 </r>
       <r>  -19.8135    1.0000 </r>
       <r>  -19.5405    1.0000 </r>
       <r>  -19.4940    1.0000 </r>
       <r>  -19.0926    1.0000 </r>
       <r>  -19.0646    1.0000 </r>
       <r>  -18.8684    1.0000 </r>
       <r>  -18.6709    1.0000 </r>
       <r>  -18.5190    1.0000 </r>
       <r>  -18.4437    1.0000 </r>
       <r>  -18.3301    1.0000 </r>
       <r>  -18.2312    1.0000 </r>
       <r>  -18.1181    1.0000 </r>
       <r>  -18.0985    1.0000 </r>
       <r>  -17.9489    1.0000 </r>
       <r>  -17.8746    1.0000 </r>
       <r>  -17.7476    1.0000 </r>
       <r>  -17.4793    1.0000 </r>
       <r>  -17.3536    1.0000 </r>
       <r>  -17.2966    1.0000 </r>
       <r>  -17.1302    1.0000 </r>
       <r>  -17.0680    1.0000 </r>
       <r>  -16.5407    1.0000 </r>
       <r>  -16.3570    1.0000 </r>
       <r>  -16.1783    1.0000 </r>
       <r>  -16.0904    1.0000 </r>
       <r>  -15.9133    1.0000 </r>
       <r>  -15.7184    1.0000 </r>
       <r>  -15.6303    1.0000 </r>
       <r>  -15.5791    1.0000 </r>
       <r>  -15.4086    1.0000 </r>
       <r>  -15.3503    1.0000 </r>
       <r>  -15.2933    1.0000 </r>
       <r>  -15.1842    1.0000 </r>
       <r>  -15.1045    1.0000 </r>
       <r>  -15.0467    1.0000 </r>
       <r>  -14.9969    1.0000 </r>
       <r>  -14.9710    1.0000 </r>
       <r>  -14.7400    1.0000 </r>
       <r>  -14.5220    1.0000 </r>
       <r>  -14.3659    1.0000 </r>
       <r>  -14.2485    1.0000 </r>
       <r>  -14.1184    1.0000 </r>
       <r>  -13.9427    1.0000 </r>
       <r>  -13.8952    1.0000 </r>
       <r>  -13.3869    1.0000 </r>
       <r>  -13.2613    1.0000 </r>
       <r>  -13.1930    1.0000 </r>
       <r>  -13.1378    1.0000 </r>
       <r>  -12.8733    1.0000 </r>
       <r>  -12.8073    1.0000 </r>
       <r>  -12.7634    1.0000 </r>
       <r>  -12.6794    1.0000 </r>
       <r>  -12.6525    1.0000 </r>
       <r>  -12.5226    1.0000 </r>
       <r>  -12.4665    1.0000 </r>
       <r>  -12.3534    1.0000 </r>
       <r>  -12.2210    1.0000 </r>
       <r>  -12.1625    1.0000 </r>
       <r>  -12.0995    1.0000 </r>
       <r>  -12.0208    1.0000 </r>
       <r>  -11.8374    1.0000 </r>
       <r>  -11.6152    1.0000 </r>
       <r>  -11.4153    1.0000 </r>
       <r>  -11.3375    1.0000 </r>
       <r>  -11.2541    1.0000 </r>
       <r>  -11.1554    1.0000 </r>
       <r>  -11.1161    1.0000 </r>
       <r>  -11.0394    1.0000 </r>
       <r>  -10.9894    1.0000 </r>
       <r>  -10.9477    1.0000 </r>
       <r>  -10.9155    1.0000 </r>
       <r>  -10.8792    1.0000 </r>
       <r>  -10.8523    1.0000 </r>
       <r>  -10.8356    1.0000 </r>
       <r>  -10.7741    1.0000 </r>
       <r>  -10.6969    1.0000 </r>
       <r>  -10.6061    1.0000 </r>
       <r>  -10.4436    1.0000 </r>
       <r>  -10.4226    1.0000 </r>
       <r>  -10.3962    1.0000 </r>
       <r>  -10.3608    1.0000 </r>
       <r>  -10.3390    1.0000 </r>
       <r>  -10.2705    1.0000 </r>
       <r>  -10.1347    1.0000 </r>
       <r>  -10.0959    1.0000 </r>
       <r>  -10.0805    1.0000 </r>
       <r>   -9.9991    1.0000 </r>
       <r>   -9.9469    1.0000 </r>
       <r>   -9.9041    1.0000 </r>
       <r>   -9.8029    1.0000 </r>
       <r>   -9.7676    1.0000 </r>
       <r>   -9.7423    1.0000 </r>
       <r>   -9.6647    1.0000 </r>
       <r>   -9.6116    1.0000 </r>
       <r>   -9.5977    1.0000 </r>
       <r>   -9.5490    1.0000 </r>
       <r>   -9.5027    1.0000 </r>
       <r>   -9.4830    1.0000 </r>
       <r>   -9.4153    1.0000 </r>
       <r>   -9.3650    1.0000 </r>
       <r>   -9.2826    1.0000 </r>
       <r>   -9.2262    1.0000 </r>
       <r>   -9.1081    1.0000 </r>
       <r>   -9.0445    1.0000 </r>
       <r>   -8.9139    1.0000 </r>
       <r>   -8.8631    1.0000 </r>
       <r>   -8.8402    1.0000 </r>
       <r>   -8.7551    1.0000 </r>
       <r>   -8.6986    1.0000 </r>
       <r>   -8.6534    1.0000 </r>
       <r>   -8.6080    1.0000 </r>
       <r>   -8.5882    1.0000 </r>
       <r>   -8.5585    1.0000 </r>
       <r>   -8.5098    1.0000 </r>
       <r>   -8.4598    1.0000 </r>
       <r>   -8.3594    1.0000 </r>
       <r>   -8.3430    1.0000 </r>
       <r>   -8.1816    1.0000 </r>
       <r>   -8.1373    1.0000 </r>
       <r>   -8.0863    1.0000 </r>
       <r>   -8.0366    1.0000 </r>
       <r>   -7.9808    1.0000 </r>
       <r>   -7.9459    1.0000 </r>
       <r>   -7.8550    1.0000 </r>
       <r>   -7.7851    1.0000 </r>
       <r>   -7.7474    1.0000 </r>
       <r>   -7.6216    1.0000 </r>
       <r>   -7.5942    1.0000 </r>
       <r>   -7.4575    1.0000 </r>
       <r>   -7.3782    1.0000 </r>
       <r>   -7.3590    1.0000 </r>
       <r>   -7.2899    1.0000 </r>
       <r>   -7.1120    1.0000 </r>
       <r>   -7.0284    1.0000 </r>
       <r>   -6.9276    1.0000 </r>
       <r>   -6.8626    1.0000 </r>
       <r>   -6.7798    1.0000 </r>
       <r>   -6.7263    1.0000 </r>
       <r>   -6.6488    1.0000 </r>
       <r>   -6.5368    1.0000 </r>
       <r>   -6.4766    1.0000 </r>
       <r>   -6.3365    1.0000 </r>
       <r>   -6.2203    1.0000 </r>
       <r>   -6.1119    1.0000 </r>
       <r>   -6.0862    1.0000 </r>
       <r>   -6.0251    1.0000 </r>
       <r>   -5.8490    1.0000 </r>
       <r>   -5.7884    1.0000 </r>
       <r>   -5.7489    1.0000 </r>
       <r>   -5.6782    1.0000 </r>
       <r>   -5.5466    1.0000 </r>
       <r>   -5.4691    1.0000 </r>
       <r>   -5.1500    1.0000 </r>
       <r>   -5.1123    1.0000 </r>
       <r>   -4.7248    1.0000 </r>
       <r>   -4.6727    1.0000 </r>
       <r>   -4.5172    1.0000 </r>
       <r>   -4.4551    1.0000 </r>
       <r>   -4.3511    1.0000 </r>
       <r>   -3.4347    0.9515 </r>
       <r>   -3.0580    0.1575 </r>
       <r>   -2.5825    0.0000 </r>
       <r>   -2.1250    0.0000 </r>
       <r>   -2.0647    0.0000 </r>
       <r>   -1.6062    0.0000 </r>
       <r>   -1.5685    0.0000 </r>
       <r>   -1.4704    0.0000 </r>
       <r>   -1.3970    0.0000 </r>
       <r>   -1.3709    0.0000 </r>
       <r>   -1.2751    0.0000 </r>
       <r>   -1.1075    0.0000 </r>
       <r>   -1.0410    0.0000 </r>
       <r>   -1.0088    0.0000 </r>
       <r>   -0.9496    0.0000 </r>
       <r>   -0.8128    0.0000 </r>
       <r>   -0.4860    0.0000 </r>
       <r>   -0.2322    0.0000 </r>
       <r>   -0.1538    0.0000 </r>
       <r>   -0.0763    0.0000 </r>
       <r>    0.0020    0.0000 </r>
       <r>    0.0922    0.0000 </r>
       <r>    0.2088    0.0000 </r>
       <r>    0.2735    0.0000 </r>
       <r>    0.3027    0.0000 </r>
       <r>    0.3452    0.0000 </r>
       <r>    0.7808    0.0000 </r>
       <r>    0.7986    0.0000 </r>
       <r>    0.8344    0.0000 </r>
       <r>    1.0067    0.0000 </r>
       <r>    1.0323    0.0000 </r>
       <r>    1.0541    0.0000 </r>
       <r>    1.1193    0.0000 </r>
       <r>    1.1377    0.0000 </r>
       <r>    1.1998    0.0000 </r>
       <r>    1.2957    0.0000 </r>
       <r>    1.3023    0.0000 </r>
       <r>    1.3576    0.0000 </r>
       <r>    1.3678    0.0000 </r>
       <r>    1.3969    0.0000 </r>
       <r>    1.4449    0.0000 </r>
       <r>    1.4663    0.0000 </r>
       <r>    1.4749    0.0000 </r>
       <r>    1.5167    0.0000 </r>
       <r>    1.5481    0.0000 </r>
       <r>    1.5859    0.0000 </r>
       <r>    1.6248    0.0000 </r>
       <r>    1.6937    0.0000 </r>
       <r>    1.7032    0.0000 </r>
      </set>
      <set comment="kpoint 3">
       <r>  -23.0107    1.0000 </r>
       <r>  -22.8477    1.0000 </r>
       <r>  -22.7487    1.0000 </r>
       <r>  -22.7192    1.0000 </r>
       <r>  -22.6344    1.0000 </r>
       <r>  -22.5642    1.0000 </r>
       <r>  -22.3774    1.0000 </r>
       <r>  -22.2741    1.0000 </r>
       <r>  -22.2087    1.0000 </r>
       <r>  -22.1957    1.0000 </r>
       <r>  -21.7759    1.0000 </r>
       <r>  -21.6938    1.0000 </r>
       <r>  -21.5719    1.0000 </r>
       <r>  -21.5285    1.0000 </r>
       <r>  -20.9242    1.0000 </r>
       <r>  -20.8970    1.0000 </r>
       <r>  -20.6798    1.0000 </r>
       <r>  -20.6105    1.0000 </r>
       <r>  -19.9345    1.0000 </r>
       <r>  -19.8576    1.0000 </r>
       <r>  -19.6203    1.0000 </r>
       <r>  -19.5717    1.0000 </r>
       <r>  -19.5523    1.0000 </r>
       <r>  -19.5340    1.0000 </r>
       <r>  -19.4676    1.0000 </r>
       <r>  -19.4148    1.0000 </r>
       <r>  -19.3353    1.0000 </r>
       <r>  -19.2879    1.0000 </r>
       <r>  -19.1163    1.0000 </r>
       <r>  -19.0543    1.0000 </r>
       <r>  -18.9320    1.0000 </r>
       <r>  -18.9024    1.0000 </r>
       <r>  -18.6536    1.0000 </r>
       <r>  -18.6055    1.0000 </r>
       <r>  -18.4787    1.0000 </r>
       <r>  -18.4747    1.0000 </r>
       <r>  -18.2576    1.0000 </r>
       <r>  -18.2054    1.0000 </r>
       <r>  -18.1483    1.0000 </r>
       <r>  -18.0940    1.0000 </r>
       <r>  -17.7752    1.0000 </r>
       <r>  -17.7482    1.0000 </r>
       <r>  -17.6225    1.0000 </r>
       <r>  -17.5827    1.0000 </r>
       <r>  -16.8613    1.0000 </r>
       <r>  -16.7970    1.0000 </r>
       <r>  -16.2718    1.0000 </r>
       <r>  -16.2394    1.0000 </r>
       <r>  -16.0712    1.0000 </r>
       <r>  -16.0008    1.0000 </r>
       <r>  -15.8997    1.0000 </r>
       <r>  -15.8618    1.0000 </r>
       <r>  -15.2654    1.0000 </r>
       <r>  -15.2510    1.0000 </r>
       <r>  -15.0549    1.0000 </r>
       <r>  -14.9321    1.0000 </r>
       <r>  -14.8194    1.0000 </r>
       <r>  -14.7957    1.0000 </r>
       <r>  -14.7454    1.0000 </r>
       <r>  -14.7150    1.0000 </r>
       <r>  -14.0518    1.0000 </r>
       <r>  -14.0177    1.0000 </r>
       <r>  -13.8825    1.0000 </r>
       <r>  -13.8334    1.0000 </r>
       <r>  -13.7849    1.0000 </r>
       <r>  -13.7171    1.0000 </r>
       <r>  -13.6841    1.0000 </r>
       <r>  -13.6531    1.0000 </r>
       <r>  -13.6016    1.0000 </r>
       <r>  -13.5584    1.0000 </r>
       <r>  -13.5187    1.0000 </r>
       <r>  -13.4972    1.0000 </r>
       <r>  -13.4666    1.0000 </r>
       <r>  -13.4072    1.0000 </r>
       <r>  -13.2293    1.0000 </r>
       <r>  -13.0565    1.0000 </r>
       <r>  -12.3541    1.0000 </r>
       <r>  -12.2948    1.0000 </r>
       <r>  -12.2264    1.0000 </r>
       <r>  -12.1943    1.0000 </r>
       <r>  -12.1608    1.0000 </r>
       <r>  -12.1123    1.0000 </r>
       <r>  -11.9410    1.0000 </r>
       <r>  -11.9048    1.0000 </r>
       <r>  -11.8817    1.0000 </r>
       <r>  -11.8416    1.0000 </r>
       <r>  -11.8161    1.0000 </r>
       <r>  -11.7819    1.0000 </r>
       <r>  -11.6765    1.0000 </r>
       <r>  -11.6482    1.0000 </r>
       <r>  -11.3291    1.0000 </r>
       <r>  -11.2931    1.0000 </r>
       <r>  -11.2223    1.0000 </r>
       <r>  -11.1721    1.0000 </r>
       <r>  -10.9857    1.0000 </r>
       <r>  -10.8994    1.0000 </r>
       <r>  -10.7748    1.0000 </r>
       <r>  -10.7470    1.0000 </r>
       <r>  -10.7162    1.0000 </r>
       <r>  -10.6801    1.0000 </r>
       <r>  -10.6069    1.0000 </r>
       <r>  -10.5303    1.0000 </r>
       <r>  -10.4949    1.0000 </r>
       <r>  -10.4905    1.0000 </r>
       <r>  -10.4411    1.0000 </r>
       <r>  -10.3862    1.0000 </r>
       <r>  -10.3472    1.0000 </r>
       <r>  -10.2931    1.0000 </r>
       <r>  -10.2532    1.0000 </r>
       <r>  -10.2257    1.0000 </r>
       <r>  -10.1940    1.0000 </r>
       <r>  -10.1602    1.0000 </r>
       <r>  -10.1127    1.0000 </r>
       <r>  -10.0591    1.0000 </r>
       <r>  -10.0222    1.0000 </r>
[...]
       <r>   -22.7115    15.5834     7.2287 </r>
       <r>   -22.6149    17.2676     8.8961 </r>
       <r>   -22.5184    16.3046    10.4706 </r>
       <r>   -22.4218    13.2871    11.7536 </r>
       <r>   -22.3252    11.3148    12.8463 </r>
       <r>   -22.2287    11.7381    13.9798 </r>
       <r>   -22.1321    12.9777    15.2329 </r>
       <r>   -22.0355    13.5759    16.5439 </r>
       <r>   -21.9390    13.7578    17.8724 </r>
       <r>   -21.8424    13.8682    19.2116 </r>
       <r>   -21.7458    13.5542    20.5205 </r>
       <r>   -21.6493    12.7318    21.7499 </r>
       <r>   -21.5527    11.8993    22.8990 </r>
       <r>   -21.4561    11.4817    24.0077 </r>
       <r>   -21.3596    11.7318    25.1406 </r>
       <r>   -21.2630    12.7996    26.3766 </r>
       <r>   -21.1664    14.3601    27.7633 </r>
       <r>   -21.0699    15.6018    29.2699 </r>
       <r>   -20.9733    15.5784    30.7742 </r>
       <r>   -20.8767    13.9719    32.1234 </r>
       <r>   -20.7802    12.1838    33.3000 </r>
       <r>   -20.6836    12.1999    34.4780 </r>
       <r>   -20.5871    13.5845    35.7898 </r>
       <r>   -20.4905    14.0899    37.1504 </r>
       <r>   -20.3939    13.2275    38.4278 </r>
       <r>   -20.2974    12.5947    39.6440 </r>
       <r>   -20.2008    13.3759    40.9356 </r>
       <r>   -20.1042    14.7841    42.3632 </r>
       <r>   -20.0077    15.2612    43.8369 </r>
       <r>   -19.9111    14.7219    45.2586 </r>
       <r>   -19.8145    13.7755    46.5888 </r>
       <r>   -19.7180    13.1627    47.8599 </r>
       <r>   -19.6214    14.4014    49.2505 </r>
       <r>   -19.5248    16.9260    50.8850 </r>
       <r>   -19.4283    17.2876    52.5544 </r>
       <r>   -19.3317    14.5334    53.9578 </r>
       <r>   -19.2351    11.9920    55.1158 </r>
       <r>   -19.1386    12.1477    56.2889 </r>
       <r>   -19.0420    13.6174    57.6038 </r>
       <r>   -18.9454    13.9924    58.9550 </r>
       <r>   -18.8489    13.0552    60.2157 </r>
       <r>   -18.7523    12.4299    61.4160 </r>
       <r>   -18.6557    13.5670    62.7261 </r>
       <r>   -18.5592    16.1118    64.2819 </r>
       <r>   -18.4626    18.1745    66.0370 </r>
       <r>   -18.3660    18.6845    67.8412 </r>
       <r>   -18.2695    18.6219    69.6395 </r>
       <r>   -18.1729    18.6568    71.4411 </r>
       <r>   -18.0764    17.6160    73.1422 </r>
       <r>   -17.9798    15.1788    74.6079 </r>
       <r>   -17.8832    13.0352    75.8667 </r>
       <r>   -17.7867    12.1098    77.0361 </r>
       <r>   -17.6901    11.6332    78.1594 </r>
       <r>   -17.5935    11.0550    79.2269 </r>
       <r>   -17.4970    10.7140    80.2615 </r>
       <r>   -17.4004    11.0070    81.3244 </r>
       <r>   -17.3038    11.9010    82.4737 </r>
       <r>   -17.2073    12.9538    83.7246 </r>
       <r>   -17.1107    13.4800    85.0263 </r>
       <r>   -17.0141    12.8436    86.2665 </r>
       <r>   -16.9176    11.3774    87.3652 </r>
       <r>   -16.8210    10.3048    88.3602 </r>
       <r>   -16.7244    10.3574    89.3604 </r>
       <r>   -16.6279    11.4496    90.4660 </r>
       <r>   -16.5313    13.0020    91.7216 </r>
       <r>   -16.4347    14.4901    93.1208 </r>
       <r>   -16.3382    15.9599    94.6620 </r>
       <r>   -16.2416    17.4202    96.3442 </r>
       <r>   -16.1450    18.3114    98.1124 </r>
       <r>   -16.0485    17.9084    99.8418 </r>
       <r>   -15.9519    16.0538   101.3920 </r>
       <r>   -15.8554    13.5694   102.7023 </r>
       <r>   -15.7588    11.8792   103.8495 </r>
       <r>   -15.6622    11.7356   104.9827 </r>
       <r>   -15.5657    12.5264   106.1923 </r>
       <r>   -15.4691    14.0255   107.5467 </r>
       <r>   -15.3725    16.9011   109.1788 </r>
       <r>   -15.2760    20.3604   111.1449 </r>
       <r>   -15.1794    22.5803   113.3254 </r>
       <r>   -15.0828    22.9474   115.5413 </r>
       <r>   -14.9863    21.5143   117.6188 </r>
       <r>   -14.8897    18.5260   119.4078 </r>
       <r>   -14.7931    15.1060   120.8665 </r>
       <r>   -14.6966    12.0852   122.0335 </r>
       <r>   -14.6000     9.6076   122.9613 </r>
       <r>   -14.5034     8.3654   123.7691 </r>
       <r>   -14.4069     8.7513   124.6141 </r>
       <r>   -14.3103    10.0816   125.5877 </r>
       <r>   -14.2137    11.7402   126.7214 </r>
       <r>   -14.1172    13.7104   128.0453 </r>
       <r>   -14.0206    15.8700   129.5778 </r>
       <r>   -13.9240    17.4412   131.2620 </r>
       <r>   -13.8275    17.6967   132.9709 </r>
       <r>   -13.7309    17.1832   134.6302 </r>
       <r>   -13.6343    17.0990   136.2814 </r>
       <r>   -13.5378    17.7470   137.9951 </r>
       <r>   -13.4412    18.5603   139.7874 </r>
       <r>   -13.3447    19.0191   141.6240 </r>
       <r>   -13.2481    18.9187   143.4509 </r>
       <r>   -13.1515    17.6028   145.1507 </r>
       <r>   -13.0550    14.7156   146.5717 </r>
       <r>   -12.9584    12.2771   147.7573 </r>
       <r>   -12.8618    12.6765   148.9814 </r>
       <r>   -12.7653    14.9147   150.4216 </r>
       <r>   -12.6687    16.1374   151.9799 </r>
       <r>   -12.5721    15.6634   153.4925 </r>
       <r>   -12.4756    15.1632   154.9567 </r>
       <r>   -12.3790    16.0351   156.5052 </r>
       <r>   -12.2824    18.3810   158.2801 </r>
       <r>   -12.1859    21.4310   160.3496 </r>
       <r>   -12.0893    23.7526   162.6433 </r>
       <r>   -11.9927    24.5138   165.0105 </r>
       <r>   -11.8962    24.0662   167.3344 </r>
       <r>   -11.7996    22.1511   169.4735 </r>
       <r>   -11.7030    18.2950   171.2401 </r>
       <r>   -11.6065    14.1175   172.6034 </r>
       <r>   -11.5099    12.4207   173.8028 </r>
       <r>   -11.4133    14.5346   175.2063 </r>
       <r>   -11.3168    18.9745   177.0386 </r>
       <r>   -11.2202    22.9418   179.2540 </r>
       <r>   -11.1237    25.4713   181.7136 </r>
       <r>   -11.0271    28.0290   184.4203 </r>
       <r>   -10.9305    31.8901   187.4998 </r>
       <r>   -10.8340    35.5498   190.9326 </r>
       <r>   -10.7374    36.2916   194.4371 </r>
       <r>   -10.6408    34.5067   197.7693 </r>
       <r>   -10.5443    34.0123   201.0537 </r>
       <r>   -10.4477    36.8366   204.6108 </r>
       <r>   -10.3511    39.8138   208.4555 </r>
       <r>   -10.2546    39.3132   212.2518 </r>
       <r>   -10.1580    36.6612   215.7920 </r>
       <r>   -10.0614    34.9076   219.1628 </r>
       <r>    -9.9649    34.2976   222.4748 </r>
       <r>    -9.8683    34.1768   225.7751 </r>
       <r>    -9.7717    35.2192   229.1760 </r>
       <r>    -9.6752    37.7758   232.8239 </r>
       <r>    -9.5786    40.6265   236.7470 </r>
       <r>    -9.4820    42.2263   240.8246 </r>
       <r>    -9.3855    41.8266   244.8636 </r>
       <r>    -9.2889    39.2134   248.6502 </r>
       <r>    -9.1923    34.8574   252.0162 </r>
       <r>    -9.0958    30.6620   254.9771 </r>
       <r>    -8.9992    29.0527   257.7826 </r>
       <r>    -8.9026    30.9654   260.7728 </r>
       <r>    -8.8061    34.7965   264.1329 </r>
       <r>    -8.7095    37.7776   267.7809 </r>
       <r>    -8.6130    38.2832   271.4778 </r>
       <r>    -8.5164    36.1539   274.9690 </r>
       <r>    -8.4198    32.3401   278.0919 </r>
       <r>    -8.3233    28.3919   280.8336 </r>
       <r>    -8.2267    25.6407   283.3096 </r>
       <r>    -8.1301    24.7959   285.7040 </r>
       <r>    -8.0336    25.4718   288.1637 </r>
       <r>    -7.9370    26.5908   290.7314 </r>
       <r>    -7.8404    27.5619   293.3930 </r>
       <r>    -7.7439    28.4693   296.1421 </r>
       <r>    -7.6473    29.0772   298.9500 </r>
       <r>    -7.5507    28.6800   301.7194 </r>
       <r>    -7.4542    27.4439   304.3696 </r>
       <r>    -7.3576    26.1391   306.8937 </r>
       <r>    -7.2610    24.9173   309.2999 </r>
       <r>    -7.1645    24.0567   311.6229 </r>
       <r>    -7.0679    23.9288   313.9336 </r>
       <r>    -6.9713    24.3840   316.2882 </r>
       <r>    -6.8748    25.6595   318.7661 </r>
       <r>    -6.7782    27.5883   321.4301 </r>
       <r>    -6.6816    28.1881   324.1521 </r>
       <r>    -6.5851    25.9516   326.6581 </r>
       <r>    -6.4885    22.2688   328.8085 </r>
       <r>    -6.3919    19.7793   330.7185 </r>
       <r>    -6.2954    19.7586   332.6265 </r>
       <r>    -6.1988    21.4395   334.6968 </r>
       <r>    -6.1023    23.1939   336.9366 </r>
       <r>    -6.0057    24.1124   339.2650 </r>
       <r>    -5.9091    24.4103   341.6222 </r>
       <r>    -5.8126    24.3962   343.9780 </r>
       <r>    -5.7160    23.3163   346.2296 </r>
       <r>    -5.6194    20.3389   348.1936 </r>
       <r>    -5.5229    16.0749   349.7459 </r>
       <r>    -5.4263    12.0875   350.9131 </r>
       <r>    -5.3297    10.0677   351.8853 </r>
       <r>    -5.2332    10.7242   352.9209 </r>
       <r>    -5.1366    12.1981   354.0988 </r>
       <r>    -5.0400    11.6968   355.2283 </r>
       <r>    -4.9435     9.3464   356.1308 </r>
       <r>    -4.8469     7.7856   356.8826 </r>
       <r>    -4.7503     8.4617   357.6998 </r>
       <r>    -4.6538    10.7901   358.7417 </r>
       <r>    -4.5572    13.6128   360.0562 </r>
       <r>    -4.4606    15.3308   361.5367 </r>
       <r>    -4.3641    14.0548   362.8939 </r>
       <r>    -4.2675     9.8985   363.8497 </r>
       <r>    -4.1709     5.5677   364.3874 </r>
       <r>    -4.0744     3.3490   364.7108 </r>
       <r>    -3.9778     3.0729   365.0075 </r>
       <r>    -3.8813     3.4389   365.3396 </r>
       <r>    -3.7847     3.7654   365.7032 </r>
       <r>    -3.6881     3.8708   366.0770 </r>
       <r>    -3.5916     3.7188   366.4361 </r>
       <r>    -3.4950     3.6581   366.7893 </r>
       <r>    -3.3984     3.8266   367.1588 </r>
       <r>    -3.3019     4.0099   367.5461 </r>
       <r>    -3.2053     4.4391   367.9747 </r>
       <r>    -3.1087     5.1792   368.4748 </r>
       <r>    -3.0122     5.4798   369.0040 </r>
       <r>    -2.9156     5.2197   369.5081 </r>
       <r>    -2.8190     5.5745   370.0464 </r>
       <r>    -2.7225     6.9838   370.7207 </r>
       <r>    -2.6259     8.1314   371.5060 </r>
       <r>    -2.5293     7.7288   372.2523 </r>
       <r>    -2.4328     6.1160   372.8429 </r>
       <r>    -2.3362     4.8322   373.3095 </r>
       <r>    -2.2396     5.1251   373.8044 </r>
       <r>    -2.1431     6.6534   374.4469 </r>
       <r>    -2.0465     7.5304   375.1741 </r>
       <r>    -1.9499     6.8218   375.8328 </r>
       <r>    -1.8534     6.2847   376.4397 </r>
       <r>    -1.7568     8.2329   377.2347 </r>
       <r>    -1.6602    12.9689   378.4871 </r>
       <r>    -1.5637    18.4588   380.2695 </r>
       <r>    -1.4671    21.9354   382.3877 </r>
       <r>    -1.3706    22.1475   384.5264 </r>
       <r>    -1.2740    20.2321   386.4801 </r>
       <r>    -1.1774    18.7844   388.2941 </r>
       <r>    -1.0809    18.9714   390.1260 </r>
       <r>    -0.9843    18.7922   391.9407 </r>
       <r>    -0.8877    16.4355   393.5278 </r>
       <r>    -0.7912    13.3070   394.8128 </r>
       <r>    -0.6946    11.5715   395.9302 </r>
       <r>    -0.5980    11.5536   397.0459 </r>
       <r>    -0.5015    12.2222   398.2261 </r>
       <r>    -0.4049    12.6553   399.4482 </r>
       <r>    -0.3083    13.2676   400.7294 </r>
       <r>    -0.2118    14.9309   402.1712 </r>
       <r>    -0.1152    17.1904   403.8312 </r>
       <r>    -0.0186    18.9512   405.6612 </r>
       <r>     0.0779    20.1717   407.6091 </r>
       <r>     0.1745    21.4985   409.6851 </r>
       <r>     0.2711    22.2911   411.8377 </r>
       <r>     0.3676    20.9012   413.8560 </r>
       <r>     0.4642    17.9561   415.5899 </r>
       <r>     0.5608    16.9136   417.2232 </r>
       <r>     0.6573    20.0376   419.1581 </r>
       <r>     0.7539    25.6586   421.6359 </r>
       <r>     0.8504    30.2824   424.5601 </r>
       <r>     0.9470    32.8992   427.7370 </r>
       <r>     1.0436    35.4042   431.1558 </r>
       <r>     1.1401    38.9835   434.9203 </r>
       <r>     1.2367    43.4601   439.1170 </r>
       <r>     1.3333    48.2643   443.7777 </r>
       <r>     1.4298    51.3423   448.7356 </r>
       <r>     1.5264    49.8623   453.5506 </r>
       <r>     1.6230    42.8941   457.6926 </r>
       <r>     1.7195    31.9594   460.7788 </r>
       <r>     1.8161    19.7459   462.6856 </r>
       <r>     1.9127     9.4414   463.5973 </r>
       <r>     2.0092     3.2605   463.9122 </r>
       <r>     2.1058     0.7737   463.9869 </r>
       <r>     2.2024     0.1224   463.9987 </r>
       <r>     2.2989     0.0127   463.9999 </r>
       <r>     2.3955     0.0009   464.0000 </r>
       <r>     2.4921     0.0000   464.0000 </r>
       <r>     2.5886     0.0000   464.0000 </r>
       <r>     2.6852     0.0000   464.0000 </r>
       <r>     2.7818     0.0000   464.0000 </r>
       <r>     2.8783     0.0000   464.0000 </r>
       <r>     2.9749     0.0000   464.0000 </r>
       <r>     3.0715     0.0000   464.0000 </r>
       <r>     3.1680     0.0000   464.0000 </r>
       <r>     3.2646     0.0000   464.0000 </r>
       <r>     3.3611     0.0000   464.0000 </r>
       <r>     3.4577     0.0000   464.0000 </r>
       <r>     3.5543     0.0000   464.0000 </r>
       <r>     3.6508     0.0000   464.0000 </r>
       <r>     3.7474     0.0000   464.0000 </r>
      </set>
     </set>
    </array>
   </total>
  </dos>
 </calculation>
 <structure name="finalpos" >
  <crystal>
   <varray name="basis" >
    <v>      28.05000000       0.00000000       0.00000000 </v>
    <v>       0.00000000       8.10000000       0.00000000 </v>
    <v>       0.00000000       0.00000000      33.50000000 </v>
   </varray>
   <i name="volume">   7611.36750000 </i>
   <varray name="rec_basis" >
    <v>       0.03565062       0.00000000       0.00000000 </v>
    <v>       0.00000000       0.12345679       0.00000000 </v>
    <v>       0.00000000       0.00000000       0.02985075 </v>
   </varray>
  </crystal>
  <varray name="positions" >
   <v>       0.13367130       0.27225679       0.23289134 </v>
   <v>       0.13304242       0.44710494       0.23091851 </v>
   <v>       0.17741569       0.18968889       0.23073791 </v>
   <v>       0.17792478       0.52525062       0.23103433 </v>
   <v>       0.22084135       0.27318642       0.22511403 </v>
   <v>       0.22172264       0.44235802       0.22263134 </v>
   <v>       0.26463387       0.19088889       0.23373433 </v>
   <v>       0.26660463       0.52878395       0.22296448 </v>
   <v>       0.31032299       0.27183086       0.23179940 </v>
   <v>       0.31055080       0.44253457       0.22629881 </v>
   <v>       0.35267094       0.19224568       0.24343970 </v>
   <v>       0.35541961       0.53044321       0.23395313 </v>
   <v>       0.39737255       0.27882099       0.24848299 </v>
   <v>       0.39714439       0.44910617       0.24530955 </v>
   <v>       0.43929055       0.19711481       0.26407731 </v>
   <v>       0.44205704       0.53295062       0.25334925 </v>
   <v>       0.48045276       0.28929136       0.27620239 </v>
   <v>       0.48228520       0.45037160       0.26659224 </v>
   <v>       0.52293405       0.20252099       0.28744060 </v>
   <v>       0.52549376       0.52805309       0.27627164 </v>
   <v>       0.56581105       0.27982469       0.29618119 </v>
   <v>       0.56838146       0.44335432       0.28679015 </v>
   <v>       0.60855258       0.19120617       0.30469851 </v>
   <v>       0.61057398       0.53005926       0.29760090 </v>
   <v>       0.65340107       0.27564444       0.30602090 </v>
   <v>       0.65344385       0.44737407       0.30085075 </v>
   <v>       0.69690909       0.19426296       0.31306269 </v>
   <v>       0.69639572       0.53246790       0.30835522 </v>
   <v>       0.74072371       0.28051111       0.30879701 </v>
   <v>       0.74069519       0.44783827       0.30791940 </v>
   <v>       0.78445633       0.19188148       0.31074925 </v>
   <v>       0.78551872       0.52860494       0.30893134 </v>
   <v>       0.82910517       0.27518642       0.30122090 </v>
   <v>       0.82983244       0.44503704       0.29972239 </v>
   <v>       0.87347950       0.19919877       0.30094030 </v>
   <v>       0.87209269       0.53510000       0.29784746 </v>
   <v>       0.91619251       0.28108642       0.28820657 </v>
   <v>       0.91513725       0.45034444       0.28556627 </v>
   <v>       0.95904813       0.19728148       0.28078776 </v>
   <v>       0.95769340       0.53545062       0.27922716 </v>
   <v>       0.00043824       0.28502222       0.26882030 </v>
   <v>       0.99930125       0.44966420       0.26184030 </v>
   <v>       0.04379002       0.19875556       0.26059313 </v>
   <v>       0.04249982       0.53002840       0.25415284 </v>
   <v>       0.08343886       0.27072963       0.24195164 </v>
   <v>       0.08230303       0.44213704       0.23684448 </v>
   <v>       0.13901569       0.77254938       0.25616060 </v>
   <v>       0.13858717       0.94574198       0.25780060 </v>
   <v>       0.17854795       0.69254568       0.24058060 </v>
   <v>       0.17934225       0.02686321       0.24562507 </v>
   <v>       0.22280428       0.77805802       0.24223433 </v>
   <v>       0.22297504       0.94299753       0.24717403 </v>
   <v>       0.26591373       0.69651852       0.23438597 </v>
   <v>       0.26672193       0.03192247       0.24391761 </v>
   <v>       0.30933119       0.76886296       0.24271045 </v>
   <v>       0.30815936       0.94447654       0.25040060 </v>
   <v>       0.35331159       0.69643210       0.24471284 </v>
   <v>       0.35144670       0.02974049       0.25205194 </v>
   <v>       0.39526203       0.78282963       0.25580657 </v>
   <v>       0.39550802       0.94986543       0.26131612 </v>
   <v>       0.44037433       0.70189383       0.25812239 </v>
   <v>       0.43766488       0.02981728       0.27018955 </v>
   <v>       0.48288414       0.77840494       0.27062030 </v>
   <v>       0.48003209       0.94502593       0.27952836 </v>
   <v>       0.52632442       0.70239753       0.27617851 </v>
   <v>       0.52170766       0.03097074       0.29269373 </v>
   <v>       0.56586453       0.77563086       0.29461403 </v>
   <v>       0.56409982       0.94927037       0.30052836 </v>
   <v>       0.60969697       0.70038025       0.29849313 </v>
   <v>       0.60778610       0.02792654       0.30660299 </v>
   <v>       0.65312656       0.78145926       0.31248657 </v>
   <v>       0.65137611       0.95174815       0.31755224 </v>
   <v>       0.69746881       0.69661975       0.31684478 </v>
   <v>       0.69696613       0.03123704       0.32075224 </v>
   <v>       0.74150446       0.77960370       0.32271940 </v>
   <v>       0.74086631       0.94677654       0.32623284 </v>
   <v>       0.78523351       0.68965802       0.31636716 </v>
   <v>       0.78526203       0.03071765       0.31984776 </v>
   <v>       0.82824955       0.78237778       0.31464179 </v>
   <v>       0.82949733       0.94330494       0.31538806 </v>
   <v>       0.87254189       0.70025309       0.30488060 </v>
   <v>       0.87370766       0.03335852       0.31093134 </v>
   <v>       0.91861319       0.78216049       0.30120299 </v>
   <v>       0.91796078       0.94972963       0.30364776 </v>
   <v>       0.96169340       0.69412716       0.29191224 </v>
   <v>       0.96064171       0.02598123       0.28911015 </v>
   <v>       0.00557569       0.77676914       0.28188687 </v>
   <v>       0.00483711       0.94851605       0.28255672 </v>
   <v>       0.04566453       0.69071358       0.26611284 </v>
   <v>       0.04647986       0.03457605       0.27210776 </v>
   <v>       0.09067558       0.77509259       0.26667164 </v>
   <v>       0.08946809       0.94688889       0.26948985 </v>
  </varray>
 </structure>
</modeling>
