unknown system                          
            1
    28.050000    0.000000    0.000000
     0.000000    8.100000    0.000000
     0.000000    0.000000   33.500000
   C 
    92
Direct configuration=     1
   0.13367130  0.27225679  0.23289134
   0.13304242  0.44710494  0.23091851
   0.17741569  0.18968889  0.23073791
   0.17792478  0.52525062  0.23103433
   0.22084135  0.27318642  0.22511403
   0.22172264  0.44235802  0.22263134
   0.26463387  0.19088889  0.23373433
   0.26660463  0.52878395  0.22296448
   0.31032299  0.27183086  0.23179940
   0.31055080  0.44253457  0.22629881
   0.35267094  0.19224568  0.24343970
   0.35541961  0.53044321  0.23395313
   0.39737255  0.27882099  0.24848299
   0.39714439  0.44910617  0.24530955
   0.43929055  0.19711481  0.26407731
   0.44205704  0.53295062  0.25334925
   0.48045276  0.28929136  0.27620239
   0.48228520  0.45037160  0.26659224
   0.52293405  0.20252099  0.28744060
   0.52549376  0.52805309  0.27627164
   0.56581105  0.27982469  0.29618119
   0.56838146  0.44335432  0.28679015
   0.60855258  0.19120617  0.30469851
   0.61057398  0.53005926  0.29760090
   0.65340107  0.27564444  0.30602090
   0.65344385  0.44737407  0.30085075
   0.69690909  0.19426296  0.31306269
   0.69639572  0.53246790  0.30835522
   0.74072371  0.28051111  0.30879701
   0.74069519  0.44783827  0.30791940
   0.78445633  0.19188148  0.31074925
   0.78551872  0.52860494  0.30893134
   0.82910517  0.27518642  0.30122090
   0.82983244  0.44503704  0.29972239
   0.87347950  0.19919877  0.30094030
   0.87209269  0.53510000  0.29784746
   0.91619251  0.28108642  0.28820657
   0.91513725  0.45034444  0.28556627
   0.95904813  0.19728148  0.28078776
   0.95769340  0.53545062  0.27922716
   0.00043824  0.28502222  0.26882030
   0.99930125  0.44966420  0.26184030
   0.04379002  0.19875556  0.26059313
   0.04249982  0.53002840  0.25415284
   0.08343886  0.27072963  0.24195164
   0.08230303  0.44213704  0.23684448
   0.13901569  0.77254938  0.25616060
   0.13858717  0.94574198  0.25780060
   0.17854795  0.69254568  0.24058060
   0.17934225  0.02686321  0.24562507
   0.22280428  0.77805802  0.24223433
   0.22297504  0.94299753  0.24717403
   0.26591373  0.69651852  0.23438597
   0.26672193  0.03192247  0.24391761
   0.30933119  0.76886296  0.24271045
   0.30815936  0.94447654  0.25040060
   0.35331159  0.69643210  0.24471284
   0.35144670  0.02974049  0.25205194
   0.39526203  0.78282963  0.25580657
   0.39550802  0.94986543  0.26131612
   0.44037433  0.70189383  0.25812239
   0.43766488  0.02981728  0.27018955
   0.48288414  0.77840494  0.27062030
   0.48003209  0.94502593  0.27952836
   0.52632442  0.70239753  0.27617851
   0.52170766  0.03097074  0.29269373
   0.56586453  0.77563086  0.29461403
   0.56409982  0.94927037  0.30052836
   0.60969697  0.70038025  0.29849313
   0.60778610  0.02792654  0.30660299
   0.65312656  0.78145926  0.31248657
   0.65137611  0.95174815  0.31755224
   0.69746881  0.69661975  0.31684478
   0.69696613  0.03123704  0.32075224
   0.74150446  0.77960370  0.32271940
   0.74086631  0.94677654  0.32623284
   0.78523351  0.68965802  0.31636716
   0.78526203  0.03071765  0.31984776
   0.82824955  0.78237778  0.31464179
   0.82949733  0.94330494  0.31538806
   0.87254189  0.70025309  0.30488060
   0.87370766  0.03335852  0.31093134
   0.91861319  0.78216049  0.30120299
   0.91796078  0.94972963  0.30364776
   0.96169340  0.69412716  0.29191224
   0.96064171  0.02598123  0.28911015
   0.00557569  0.77676914  0.28188687
   0.00483711  0.94851605  0.28255672
   0.04566453  0.69071358  0.26611284
   0.04647986  0.03457605  0.27210776
   0.09067558  0.77509259  0.26667164
   0.08946809  0.94688889  0.26948985
