       N       E                     dE             d eps       ncg     rms          rms(c)
DAV:   1     0.371383706265E+04    0.37138E+04   -0.11901E+05  1712   0.105E+03
DAV:   2     0.183697241306E+03   -0.35301E+04   -0.32675E+04  2152   0.238E+02
DAV:   3    -0.834471506473E+03   -0.10182E+04   -0.99483E+03  1792   0.135E+02
DAV:   4    -0.897405453575E+03   -0.62934E+02   -0.61930E+02  1712   0.430E+01
DAV:   5    -0.898959382957E+03   -0.15539E+01   -0.15335E+01  1808   0.658E+00    0.458E+01
DAV:   6    -0.848566981574E+03    0.50392E+02   -0.48337E+01  1584   0.128E+01    0.269E+01
DAV:   7    -0.829828685263E+03    0.18738E+02   -0.66348E+01  1568   0.145E+01    0.742E+00
DAV:   8    -0.829527870785E+03    0.30081E+00   -0.24117E+00  1608   0.336E+00    0.103E+00
DAV:   9    -0.829413710106E+03    0.11416E+00   -0.28118E-01  1640   0.105E+00    0.582E-01
DAV:  10    -0.829373578844E+03    0.40131E-01   -0.54738E-02  1728   0.466E-01    0.362E-01
DAV:  11    -0.829345861506E+03    0.27717E-01   -0.19321E-02  1576   0.239E-01    0.259E-01
DAV:  12    -0.829340457132E+03    0.54044E-02   -0.27830E-02  1512   0.246E-01    0.154E-01
DAV:  13    -0.829352101729E+03   -0.11645E-01   -0.85083E-03  1552   0.149E-01    0.921E-02
DAV:  14    -0.829368826057E+03   -0.16724E-01   -0.11902E-03  1592   0.687E-02    0.606E-02
DAV:  15    -0.829389973591E+03   -0.21148E-01   -0.18575E-03  1536   0.663E-02    0.320E-02
DAV:  16    -0.829399629623E+03   -0.96560E-02   -0.58964E-04  1584   0.377E-02    0.219E-02
DAV:  17    -0.829404575476E+03   -0.49459E-02   -0.29272E-04  1568   0.223E-02    0.118E-02
DAV:  18    -0.829406611018E+03   -0.20355E-02   -0.76815E-05  1608   0.132E-02    0.604E-03
DAV:  19    -0.829407770325E+03   -0.11593E-02   -0.41713E-05  1472   0.848E-03    0.415E-03
DAV:  20    -0.829408134341E+03   -0.36402E-03   -0.55569E-06  1368   0.346E-03    0.244E-03
DAV:  21    -0.829408382997E+03   -0.24866E-03   -0.40015E-06  1264   0.294E-03    0.116E-03
DAV:  22    -0.829408424728E+03   -0.41731E-04   -0.20799E-07  1040   0.109E-03    0.774E-04
DAV:  23    -0.829408465590E+03   -0.40863E-04   -0.30203E-07   944   0.968E-04    0.398E-04
DAV:  24    -0.829408476241E+03   -0.10651E-04   -0.79201E-08   976   0.525E-04    0.270E-04
DAV:  25    -0.829408483472E+03   -0.72309E-05   -0.43452E-08   904   0.444E-04    0.147E-04
DAV:  26    -0.829408486876E+03   -0.34040E-05   -0.27271E-08   912   0.273E-04    0.128E-04
DAV:  27    -0.829408489084E+03   -0.22080E-05   -0.81865E-09   952   0.222E-04    0.106E-04
DAV:  28    -0.829408490395E+03   -0.13110E-05   -0.59932E-09   952   0.149E-04    0.495E-05
DAV:  29    -0.829408491144E+03   -0.74843E-06   -0.25636E-09   968   0.110E-04
   1 F= -.82940849E+03 E0= -.82937872E+03  d E =-.595435E-01
