       N       E                     dE             d eps       ncg     rms          rms(c)
DAV:   1     0.363991743817E+04    0.36399E+04   -0.11982E+05  1728   0.105E+03
DAV:   2     0.169739896771E+03   -0.34702E+04   -0.32068E+04  2144   0.237E+02
DAV:   3    -0.834690187690E+03   -0.10044E+04   -0.98235E+03  1800   0.134E+02
DAV:   4    -0.897029756565E+03   -0.62340E+02   -0.61183E+02  1720   0.425E+01
DAV:   5    -0.898630063791E+03   -0.16003E+01   -0.15730E+01  1768   0.659E+00    0.458E+01
DAV:   6    -0.848380808077E+03    0.50249E+02   -0.47873E+01  1576   0.126E+01    0.269E+01
DAV:   7    -0.829597029068E+03    0.18784E+02   -0.66402E+01  1560   0.145E+01    0.736E+00
DAV:   8    -0.829295010012E+03    0.30202E+00   -0.24340E+00  1600   0.330E+00    0.960E-01
DAV:   9    -0.829186949350E+03    0.10806E+00   -0.26233E-01  1664   0.955E-01    0.572E-01
DAV:  10    -0.829143365019E+03    0.43584E-01   -0.45245E-02  1744   0.417E-01    0.354E-01
DAV:  11    -0.829113969832E+03    0.29395E-01   -0.23622E-02  1552   0.242E-01    0.239E-01
DAV:  12    -0.829111243368E+03    0.27265E-02   -0.20861E-02  1544   0.221E-01    0.148E-01
DAV:  13    -0.829122698543E+03   -0.11455E-01   -0.90510E-03  1576   0.141E-01    0.867E-02
DAV:  14    -0.829141716125E+03   -0.19018E-01   -0.12028E-03  1592   0.649E-02    0.536E-02
DAV:  15    -0.829163013299E+03   -0.21297E-01   -0.19429E-03  1568   0.650E-02    0.320E-02
DAV:  16    -0.829170366911E+03   -0.73536E-02   -0.38617E-04  1616   0.368E-02    0.202E-02
DAV:  17    -0.829175246731E+03   -0.48798E-02   -0.29375E-04  1544   0.235E-02    0.109E-02
DAV:  18    -0.829177420109E+03   -0.21734E-02   -0.97306E-05  1600   0.130E-02    0.571E-03
DAV:  19    -0.829178415710E+03   -0.99560E-03   -0.31912E-05  1376   0.795E-03    0.376E-03
DAV:  20    -0.829178756030E+03   -0.34032E-03   -0.45583E-06  1368   0.357E-03    0.214E-03
DAV:  21    -0.829178966906E+03   -0.21088E-03   -0.29453E-06  1288   0.248E-03    0.116E-03
DAV:  22    -0.829179014668E+03   -0.47762E-04   -0.16683E-07  1024   0.112E-03    0.627E-04
DAV:  23    -0.829179051870E+03   -0.37202E-04   -0.32285E-07   944   0.885E-04    0.495E-04
DAV:  24    -0.829179064823E+03   -0.12953E-04   -0.88174E-08   968   0.609E-04    0.173E-04
DAV:  25    -0.829179069397E+03   -0.45741E-05   -0.49580E-08   960   0.359E-04    0.216E-04
DAV:  26    -0.829179072810E+03   -0.34133E-05   -0.19715E-08   944   0.279E-04    0.802E-05
DAV:  27    -0.829179074590E+03   -0.17796E-05   -0.89432E-09   960   0.171E-04    0.841E-05
DAV:  28    -0.829179075975E+03   -0.13853E-05   -0.40735E-09   936   0.142E-04    0.358E-05
DAV:  29    -0.829179076548E+03   -0.57317E-06   -0.21848E-09   944   0.756E-05
   1 F= -.82917908E+03 E0= -.82914257E+03  d E =-.730064E-01
