<?xml version="1.0" encoding="ISO-8859-1"?>
<modeling>
 <generator>
  <i name="program" type="string">vasp </i>
  <i name="version" type="string">6.5.0  </i>
  <i name="subversion" type="string">16Dec24 (build Feb 19 2025 19:45:31) complex                          parallel </i>
  <i name="platform" type="string">LinuxNV </i>
  <i name="date" type="string">2025 10 25 </i>
  <i name="time" type="string">17:06:01 </i>
 </generator>
 <incar>
  <i type="int" name="ISTART">     0</i>
  <i type="string" name="PREC">Accurate   (Precision level)</i>
  <i type="string" name="ALGO">Normal</i>
  <i type="int" name="ISPIN">     1</i>
  <i type="int" name="ICHARG">     2</i>
  <i type="int" name="NELM">   150</i>
  <i type="int" name="IBRION">    -1</i>
  <i name="EDIFF">      0.00000100</i>
  <i type="int" name="NSW">     0</i>
  <i name="ENCUT">    500.00000000</i>
  <i type="string" name="LREAL">Auto         (Projection operators: automatic)</i>
  <i type="int" name="ISMEAR">     0</i>
  <i type="logical" name="KGAMMA"> T  </i>
  <i type="logical" name="LWAVE"> F  </i>
  <i type="logical" name="LCHARG"> F  </i>
 </incar>
 <primitive_cell>
  <structure name="primitive_cell" >
   <crystal>
    <varray name="basis" >
     <v>      28.05000000       0.00000000       0.00000000 </v>
     <v>       0.00000000       8.10000000       0.00000000 </v>
     <v>       0.00000000       0.00000000      33.50000000 </v>
    </varray>
    <i name="volume">   7611.36750000 </i>
    <varray name="rec_basis" >
     <v>       0.03565062       0.00000000       0.00000000 </v>
     <v>       0.00000000       0.12345679       0.00000000 </v>
     <v>       0.00000000       0.00000000       0.02985075 </v>
    </varray>
   </crystal>
   <varray name="positions" >
    <v>       0.00940310       0.09894630       0.50164179 </v>
    <v>       0.00810025       0.27398642       0.49779104 </v>
    <v>       0.04901854       0.02013272       0.48454030 </v>
    <v>       0.04889697       0.35774321       0.48332239 </v>
    <v>       0.09123173       0.10317840       0.47271343 </v>
    <v>       0.09284884       0.27285556       0.47163582 </v>
    <v>       0.13607665       0.02337481       0.46645075 </v>
    <v>       0.13455401       0.35489136       0.46249552 </v>
    <v>       0.17869875       0.10037790       0.45886567 </v>
    <v>       0.17947736       0.27411728       0.45780000 </v>
    <v>       0.22406168       0.02387259       0.45580896 </v>
    <v>       0.22360927       0.35885062       0.45792836 </v>
    <v>       0.26824029       0.10640235       0.45491045 </v>
    <v>       0.26802317       0.27523580       0.45732537 </v>
    <v>       0.31364171       0.02949333       0.46166866 </v>
    <v>       0.31237219       0.35420370       0.46077910 </v>
    <v>       0.35721569       0.10631494       0.46598209 </v>
    <v>       0.35673440       0.27411728       0.46782388 </v>
    <v>       0.40242781       0.02372432       0.46958507 </v>
    <v>       0.39957932       0.35914198       0.47938507 </v>
    <v>       0.44260250       0.09966025       0.48564776 </v>
    <v>       0.44175758       0.27606420       0.48741791 </v>
    <v>       0.48560071       0.02007222       0.49194328 </v>
    <v>       0.48439929       0.35758889       0.49529851 </v>
    <v>       0.52363280       0.09927222       0.51028358 </v>
    <v>       0.52465597       0.27210864       0.51226567 </v>
    <v>       0.56752585       0.02197617       0.51867761 </v>
    <v>       0.56678431       0.35232840       0.52289552 </v>
    <v>       0.61136542       0.10206852       0.53034627 </v>
    <v>       0.60990374       0.27153457       0.53283582 </v>
    <v>       0.65557576       0.02387556       0.53442687 </v>
    <v>       0.65307665       0.35202840       0.54228657 </v>
    <v>       0.69996791       0.10255185       0.54019104 </v>
    <v>       0.69832442       0.27370000       0.54452239 </v>
    <v>       0.74337255       0.02347753       0.54781194 </v>
    <v>       0.74122638       0.35414938       0.54827164 </v>
    <v>       0.78710873       0.10755840       0.54811940 </v>
    <v>       0.78688414       0.27474568       0.54448955 </v>
    <v>       0.83114795       0.02710790       0.54534030 </v>
    <v>       0.82919430       0.35938519       0.53359403 </v>
    <v>       0.87538681       0.11075765       0.53400896 </v>
    <v>       0.87295900       0.27908519       0.52876716 </v>
    <v>       0.91693048       0.02117827       0.52318209 </v>
    <v>       0.91587522       0.35949012       0.51694925 </v>
    <v>       0.96060606       0.10013605       0.51320299 </v>
    <v>       0.95948307       0.26919136       0.51230448 </v>
    <v>       0.00400845       0.60842716       0.48527761 </v>
    <v>       0.00502873       0.78010617       0.48702985 </v>
    <v>       0.04626096       0.52586420       0.47616716 </v>
    <v>       0.04750410       0.85594568       0.48036119 </v>
    <v>       0.08802246       0.60256420       0.46287463 </v>
    <v>       0.09151765       0.76933704       0.46819701 </v>
    <v>       0.13268200       0.52361728       0.45582388 </v>
    <v>       0.13305241       0.85330123       0.46499104 </v>
    <v>       0.17469055       0.60671852       0.45599104 </v>
    <v>       0.17662210       0.77807407       0.45663284 </v>
    <v>       0.22100463       0.52420494       0.45658806 </v>
    <v>       0.22317469       0.85731852       0.45529552 </v>
    <v>       0.26678039       0.60558025       0.45480896 </v>
    <v>       0.26796078       0.77157037       0.45361493 </v>
    <v>       0.31236185       0.52098395       0.45843881 </v>
    <v>       0.31298645       0.85774568       0.45828955 </v>
    <v>       0.35611943       0.60884198       0.46120896 </v>
    <v>       0.35696970       0.77751481       0.45782687 </v>
    <v>       0.40060606       0.52649877       0.46914030 </v>
    <v>       0.40242781       0.85637531       0.46694925 </v>
    <v>       0.44594652       0.60155556       0.47484179 </v>
    <v>       0.44655971       0.76830000       0.47642388 </v>
    <v>       0.48766845       0.52188765       0.48593433 </v>
    <v>       0.48687344       0.85191235       0.48836716 </v>
    <v>       0.52965062       0.60061358       0.49877910 </v>
    <v>       0.53021034       0.77280494       0.49702388 </v>
    <v>       0.56937255       0.52074198       0.51818507 </v>
    <v>       0.56999643       0.85295309       0.51424478 </v>
    <v>       0.60907665       0.59742346       0.53281194 </v>
    <v>       0.61024599       0.77297160       0.52756716 </v>
    <v>       0.65302674       0.52252716       0.54372836 </v>
    <v>       0.65222460       0.85440247       0.53675224 </v>
    <v>       0.69679857       0.60777160       0.54730149 </v>
    <v>       0.69739394       0.77726173       0.54423582 </v>
    <v>       0.74116934       0.52378889       0.54945373 </v>
    <v>       0.74212478       0.85652963       0.54795821 </v>
    <v>       0.78592513       0.60466296       0.54675224 </v>
    <v>       0.78649554       0.77196296       0.55097015 </v>
    <v>       0.82911943       0.53163457       0.53569552 </v>
    <v>       0.83113369       0.85416543       0.54432239 </v>
    <v>       0.87224242       0.60841481       0.52295224 </v>
    <v>       0.87164349       0.77086173       0.52847761 </v>
    <v>       0.91414260       0.52504074       0.51095224 </v>
    <v>       0.91484848       0.85802099       0.51697612 </v>
    <v>       0.95683779       0.60800494       0.50182388 </v>
    <v>       0.95557576       0.77714444       0.50318209 </v>
   </varray>
  </structure>
  <varray name="primitive_index" >
   <v type="int" >        1 </v>
   <v type="int" >        2 </v>
   <v type="int" >        3 </v>
   <v type="int" >        4 </v>
   <v type="int" >        5 </v>
   <v type="int" >        6 </v>
   <v type="int" >        7 </v>
   <v type="int" >        8 </v>
   <v type="int" >        9 </v>
   <v type="int" >       10 </v>
   <v type="int" >       11 </v>
   <v type="int" >       12 </v>
   <v type="int" >       13 </v>
   <v type="int" >       14 </v>
   <v type="int" >       15 </v>
   <v type="int" >       16 </v>
   <v type="int" >       17 </v>
   <v type="int" >       18 </v>
   <v type="int" >       19 </v>
   <v type="int" >       20 </v>
   <v type="int" >       21 </v>
   <v type="int" >       22 </v>
   <v type="int" >       23 </v>
   <v type="int" >       24 </v>
   <v type="int" >       25 </v>
   <v type="int" >       26 </v>
   <v type="int" >       27 </v>
   <v type="int" >       28 </v>
   <v type="int" >       29 </v>
   <v type="int" >       30 </v>
   <v type="int" >       31 </v>
   <v type="int" >       32 </v>
   <v type="int" >       33 </v>
   <v type="int" >       34 </v>
   <v type="int" >       35 </v>
   <v type="int" >       36 </v>
   <v type="int" >       37 </v>
   <v type="int" >       38 </v>
   <v type="int" >       39 </v>
   <v type="int" >       40 </v>
   <v type="int" >       41 </v>
   <v type="int" >       42 </v>
   <v type="int" >       43 </v>
   <v type="int" >       44 </v>
   <v type="int" >       45 </v>
   <v type="int" >       46 </v>
   <v type="int" >       47 </v>
   <v type="int" >       48 </v>
   <v type="int" >       49 </v>
   <v type="int" >       50 </v>
   <v type="int" >       51 </v>
   <v type="int" >       52 </v>
   <v type="int" >       53 </v>
   <v type="int" >       54 </v>
   <v type="int" >       55 </v>
   <v type="int" >       56 </v>
   <v type="int" >       57 </v>
   <v type="int" >       58 </v>
   <v type="int" >       59 </v>
   <v type="int" >       60 </v>
   <v type="int" >       61 </v>
   <v type="int" >       62 </v>
   <v type="int" >       63 </v>
   <v type="int" >       64 </v>
   <v type="int" >       65 </v>
   <v type="int" >       66 </v>
   <v type="int" >       67 </v>
   <v type="int" >       68 </v>
   <v type="int" >       69 </v>
   <v type="int" >       70 </v>
   <v type="int" >       71 </v>
   <v type="int" >       72 </v>
   <v type="int" >       73 </v>
   <v type="int" >       74 </v>
   <v type="int" >       75 </v>
   <v type="int" >       76 </v>
   <v type="int" >       77 </v>
   <v type="int" >       78 </v>
   <v type="int" >       79 </v>
   <v type="int" >       80 </v>
   <v type="int" >       81 </v>
   <v type="int" >       82 </v>
   <v type="int" >       83 </v>
   <v type="int" >       84 </v>
   <v type="int" >       85 </v>
   <v type="int" >       86 </v>
   <v type="int" >       87 </v>
   <v type="int" >       88 </v>
   <v type="int" >       89 </v>
   <v type="int" >       90 </v>
   <v type="int" >       91 </v>
   <v type="int" >       92 </v>
  </varray>
 </primitive_cell>
 <kpoints>
  <generation param="Gamma">
   <v type="int" name="divisions">       1        4        1 </v>
   <v name="usershift">      0.00000000       0.00000000       0.00000000 </v>
   <v name="genvec1">      1.00000000       0.00000000       0.00000000 </v>
   <v name="genvec2">      0.00000000       0.25000000       0.00000000 </v>
   <v name="genvec3">      0.00000000       0.00000000       1.00000000 </v>
   <v name="shift">      0.00000000       0.00000000       0.00000000 </v>
  </generation>
  <varray name="kpointlist" >
   <v>       0.00000000       0.00000000       0.00000000 </v>
   <v>       0.00000000       0.25000000       0.00000000 </v>
   <v>       0.00000000       0.50000000       0.00000000 </v>
  </varray>
  <varray name="weights" >
   <v>       0.25000000 </v>
   <v>       0.50000000 </v>
   <v>       0.25000000 </v>
  </varray>
 </kpoints>
 <parameters>
  <separator name="general" >
   <i type="string" name="SYSTEM">unknown system</i>
   <i type="logical" name="LCOMPAT"> F  </i>
  </separator>
  <separator name="electronic" >
   <i type="string" name="PREC">accura</i>
   <i name="ENMAX">    500.00000000</i>
   <i name="ENAUG">    644.87300000</i>
   <i name="EDIFF">      0.00000100</i>
   <i type="int" name="IALGO">    38</i>
   <i type="int" name="IWAVPR">    10</i>
   <i type="int" name="NBANDS">   232</i>
   <i type="int" name="NBANDSLOW">    -1</i>
   <i type="int" name="NBANDSHIGH">    -1</i>
   <i name="NELECT">    368.00000000</i>
   <i type="int" name="TURBO">     0</i>
   <i type="int" name="IRESTART">     0</i>
   <i type="int" name="NREBOOT">     0</i>
   <i type="int" name="NMIN">     0</i>
   <i name="EREF">      0.00000000</i>
   <separator name="electronic smearing" >
    <i type="int" name="ISMEAR">     0</i>
    <i name="SIGMA">      0.20000000</i>
    <i name="KSPACING">      0.50000000</i>
    <i type="logical" name="KGAMMA"> T  </i>
    <i type="logical" name="KBLOWUP"> T  </i>
   </separator>
   <separator name="electronic projectors" >
    <i type="logical" name="LREAL"> T  </i>
    <v name="ROPT">     -0.00025000</v>
    <i type="int" name="LMAXPAW">  -100</i>
    <i type="int" name="LMAXMIX">     2</i>
    <i type="logical" name="NLSPLINE"> F  </i>
   </separator>
   <separator name="electronic startup" >
    <i type="int" name="ISTART">     0</i>
    <i type="int" name="ICHARG">     2</i>
    <i type="int" name="INIWAV">     1</i>
   </separator>
   <separator name="electronic spin" >
    <i type="int" name="ISPIN">     1</i>
    <i type="logical" name="LNONCOLLINEAR"> F  </i>
    <v name="MAGMOM">      1.00000000      1.00000000      1.00000000      1.00000000      1.00000000      1.00000000      1.00000000      1.00000000      1.00000000      1.00000000      1.00000000      1.00000000      1.00000000      1.00000000      1.00000000      1.00000000      1.00000000      1.00000000      1.00000000      1.00000000
      1.00000000      1.00000000      1.00000000      1.00000000      1.00000000      1.00000000      1.00000000      1.00000000      1.00000000      1.00000000      1.00000000      1.00000000      1.00000000      1.00000000      1.00000000      1.00000000      1.00000000      1.00000000      1.00000000      1.00000000
      1.00000000      1.00000000      1.00000000      1.00000000      1.00000000      1.00000000      1.00000000      1.00000000      1.00000000      1.00000000      1.00000000      1.00000000      1.00000000      1.00000000      1.00000000      1.00000000      1.00000000      1.00000000      1.00000000      1.00000000
      1.00000000      1.00000000      1.00000000      1.00000000      1.00000000      1.00000000      1.00000000      1.00000000      1.00000000      1.00000000      1.00000000      1.00000000      1.00000000      1.00000000      1.00000000      1.00000000      1.00000000      1.00000000      1.00000000      1.00000000
      1.00000000      1.00000000      1.00000000      1.00000000      1.00000000      1.00000000      1.00000000      1.00000000      1.00000000      1.00000000      1.00000000      1.00000000</v>
    <i name="NUPDOWN">     -1.00000000</i>
    <i type="logical" name="LSORBIT"> F  </i>
    <v name="SAXIS">      0.00000000      0.00000000      1.00000000</v>
    <i type="logical" name="LSPIRAL"> F  </i>
    <v name="QSPIRAL">      0.00000000      0.00000000      0.00000000</v>
    <i type="logical" name="LZEROZ"> F  </i>
   </separator>
   <separator name="electronic exchange-correlation" >
    <i type="logical" name="LASPH"> F  </i>
   </separator>
   <separator name="electronic convergence" >
    <i type="int" name="NELM">   150</i>
    <i type="int" name="NELMDL">    -5</i>
    <i type="int" name="NELMIN">     2</i>
    <i name="ENINI">    500.00000000</i>
    <separator name="electronic convergence detail" >
     <i type="logical" name="LDIAG"> T  </i>
     <i type="logical" name="LSUBROT"> F  </i>
     <i name="WEIMIN">      0.00000000</i>
     <i name="EBREAK">      0.00000000</i>
     <i name="DEPER">      0.30000000</i>
     <i type="int" name="NRMM">     4</i>
     <i name="TIME">      0.40000000</i>
    </separator>
   </separator>
   <separator name="electronic mixer" >
    <i name="AMIX">      0.40000000</i>
    <i name="BMIX">      1.00000000</i>
    <i name="AMIN">      0.10000000</i>
    <i name="AMIX_MAG">      1.60000000</i>
    <i name="BMIX_MAG">      1.00000000</i>
    <separator name="electronic mixer details" >
     <i type="int" name="IMIX">     4</i>
     <i type="logical" name="MIXFIRST"> F  </i>
     <i type="int" name="MAXMIX">   -45</i>
     <i name="WC">    100.00000000</i>
     <i type="int" name="INIMIX">     1</i>
     <i type="int" name="MIXPRE">     1</i>
     <i type="int" name="MREMOVE">     5</i>
    </separator>
   </separator>
   <separator name="electronic dipolcorrection" >
    <i type="logical" name="LDIPOL"> F  </i>
    <i type="logical" name="LMONO"> F  </i>
    <i type="int" name="IDIPOL">     0</i>
    <i name="EPSILON">      1.00000000</i>
    <v name="DIPOL">   -100.00000000   -100.00000000   -100.00000000</v>
    <i name="EFIELD">      0.00000000</i>
    <i type="logical" name="LVACPOTAV"> F  </i>
   </separator>
  </separator>
  <separator name="grids" >
   <i type="int" name="NGX">   210</i>
   <i type="int" name="NGY">    60</i>
   <i type="int" name="NGZ">   250</i>
   <i type="int" name="NGXF">   420</i>
   <i type="int" name="NGYF">   120</i>
   <i type="int" name="NGZF">   500</i>
   <i type="logical" name="ADDGRID"> F  </i>
  </separator>
  <separator name="ionic" >
   <i type="int" name="NSW">     0</i>
   <i type="int" name="IBRION">    -1</i>
   <i type="int" name="MDALGO">     0</i>
   <i type="int" name="ISIF">     2</i>
   <i name="PSTRESS">      0.00000000</i>
   <i name="EDIFFG">      0.00001000</i>
   <i type="int" name="NFREE">     0</i>
   <i name="POTIM">      0.50000000</i>
   <i name="SMASS">     -3.00000000</i>
   <i name="SCALEE">      1.00000000</i>
  </separator>
  <separator name="ionic md" >
   <i name="TEBEG">      0.00010000</i>
   <i name="TEEND">      0.00010000</i>
   <i type="int" name="NBLOCK">     1</i>
   <i type="int" name="KBLOCK">     1</i>
   <i type="int" name="NPACO">   256</i>
   <i name="APACO">     10.00000000</i>
  </separator>
  <separator name="symmetry" >
   <i type="int" name="ISYM">     2</i>
   <i name="SYMPREC">      0.00001000</i>
  </separator>
  <separator name="dos" >
   <i type="int" name="LORBIT">     0</i>
   <v name="RWIGS">     -1.00000000</v>
   <i type="int" name="NEDOS">   301</i>
   <i name="EMIN">     10.00000000</i>
   <i name="EMAX">    -10.00000000</i>
   <i name="EFERMI">      0.00000000</i>
  </separator>
  <separator name="writing" >
   <i type="int" name="NWRITE">     2</i>
   <i type="logical" name="LWAVE"> F  </i>
   <i type="logical" name="LDOWNSAMPLE"> F  </i>
   <i type="logical" name="LCHARG"> F  </i>
   <i type="logical" name="LPARD"> F  </i>
   <i type="logical" name="LVTOT"> F  </i>
   <i type="logical" name="LVHAR"> F  </i>
   <i type="logical" name="LELF"> F  </i>
   <i type="logical" name="LOPTICS"> F  </i>
   <v name="STM">      0.00000000      0.00000000      0.00000000      0.00000000      0.00000000      0.00000000      0.00000000</v>
  </separator>
  <separator name="performance" >
   <i type="int" name="NPAR">     2</i>
   <i type="int" name="NSIM">     4</i>
   <i type="int" name="NBLK">    -1</i>
   <i type="logical" name="LPLANE"> T  </i>
   <i type="logical" name="LSCALAPACK"> T  </i>
   <i type="logical" name="LSCAAWARE"> F  </i>
   <i type="logical" name="LSCALU"> F  </i>
   <i type="logical" name="LASYNC"> F  </i>
   <i type="logical" name="LORBITALREAL"> F  </i>
  </separator>
  <separator name="miscellaneous" >
   <i type="int" name="IDIOT">     3</i>
   <i type="int" name="PHON_NSTRUCT">    -1</i>
   <i type="logical" name="LMUSIC"> F  </i>
   <v name="POMASS">     12.01100000</v>
   <v name="DARWINR">      0.00000000</v>
   <v name="DARWINV">      1.00000000</v>
   <i type="logical" name="LCORR"> T  </i>
  </separator>
  <i type="logical" name="GGA_COMPAT"> T  </i>
  <i type="logical" name="LBERRY"> F  </i>
  <i type="int" name="ICORELEVEL">     0</i>
  <i type="logical" name="LDAU"> F  </i>
  <i type="int" name="I_CONSTRAINED_M">     0</i>
  <separator name="electronic exchange-correlation" >
   <i type="string" name="GGA    ">PE</i>
   <i type="string" name="XC_C">1</i>
   <i type="int" name="VOSKOWN">     0</i>
   <i type="logical" name="LHFCALC"> F  </i>
   <i type="string" name="PRECFOCK"></i>
   <i type="logical" name="LSYMGRAD"> F  </i>
   <i type="logical" name="LHFONE"> F  </i>
   <i type="logical" name="LRHFCALC"> F  </i>
   <i type="logical" name="LTHOMAS"> F  </i>
   <i type="logical" name="LMODELHF"> F  </i>
   <i type="logical" name="LFOCKACE"> F  </i>
   <i name="ENCUT4O">     -1.00000000</i>
   <i type="int" name="EXXOEP">     0</i>
   <i type="int" name="FOURORBIT">     0</i>
   <i name="AEXX">      0.00000000</i>
   <i name="HFALPHA">      0.00000000</i>
   <i name="MCALPHA">      0.00000000</i>
   <i name="ALDAX">      1.00000000</i>
   <i name="AGGAX">      1.00000000</i>
   <i name="AMGGAX">      1.00000000</i>
   <i name="ALDAC">      1.00000000</i>
   <i name="AGGAC">      1.00000000</i>
   <i name="AMGGAC">      1.00000000</i>
   <i type="int" name="NKREDX">     1</i>
   <i type="int" name="NKREDY">     1</i>
   <i type="int" name="NKREDZ">     1</i>
   <i type="logical" name="SHIFTRED"> F  </i>
   <i type="logical" name="ODDONLY"> F  </i>
   <i type="logical" name="EVENONLY"> F  </i>
   <i type="int" name="LMAXFOCK">     0</i>
   <i type="int" name="NMAXFOCKAE">     0</i>
   <i type="logical" name="LFOCKAEDFT"> F  </i>
   <i name="HFSCREEN">      0.00000000</i>
   <i name="HFSCREENC">      0.00000000</i>
   <i type="int" name="NBANDSGWLOW">     0</i>
  </separator>
  <separator name="vdW DFT" >
   <i type="logical" name="LUSE_VDW"> F  </i>
   <i type="int" name="IVDW_NL">    -1</i>
   <i type="logical" name="LSPIN_VDW"> F  </i>
   <i name="ZAB_VDW">     -0.84910000</i>
   <i name="GAMMA_VDW">      1.39626340</i>
   <i name="ALPHA_VDW">      0.00000000</i>
   <i name="PARAM1">      0.12340000</i>
   <i name="PARAM2">      1.00000000</i>
   <i name="BPARAM">      6.30000000</i>
   <i name="CPARAM">      0.00930000</i>
  </separator>
  <separator name="model GW" >
   <i type="int" name="MODEL_GW">     0</i>
   <i name="MODEL_EPS0">     49.63935326</i>
   <i name="MODEL_ALPHA">      1.00000000</i>
  </separator>
  <separator name="linear response parameters" >
   <i type="logical" name="LEPSILON"> F  </i>
   <i type="logical" name="LRPA"> F  </i>
   <i type="logical" name="LNABLA"> F  </i>
   <i type="logical" name="LVEL"> F  </i>
   <i name="CSHIFT">      0.10000000</i>
   <i name="OMEGAMAX">     -1.00000000</i>
   <i name="DEG_THRESHOLD">      0.00200000</i>
   <i name="RTIME">     -0.10000000</i>
   <i name="WPLASMAI">      0.00000000</i>
   <v name="DFIELD">      0.00000000      0.00000000      0.00000000</v>
   <v name="WPLASMA">      0.00000000      0.00000000      0.00000000      0.00000000      0.00000000      0.00000000      0.00000000      0.00000000      0.00000000</v>
  </separator>
  <separator name="orbital magnetization" >
   <i type="logical" name="NUCIND"> F  </i>
   <v name="MAGPOS">      0.00000000      0.00000000      0.00000000</v>
   <i type="logical" name="LNICSALL"> T  </i>
   <i type="logical" name="ORBITALMAG"> F  </i>
   <i type="logical" name="LMAGBLOCH"> F  </i>
   <i type="logical" name="LCHIMAG"> F  </i>
   <i type="logical" name="LGAUGE"> T  </i>
   <i type="int" name="MAGATOM">     0</i>
   <v name="MAGDIPOL">      0.00000000      0.00000000      0.00000000</v>
   <v name="AVECCONST">      0.00000000      0.00000000      0.00000000</v>
  </separator>
  <separator name="response functions" >
   <i type="logical" name="LALL_IN_ONE"> F  </i>
   <i type="int" name="IALL_IN_ONE">    -1</i>
   <i type="int" name="NBANDS_WAVE">    -1</i>
   <i type="logical" name="LFINITE_TEMPERATURE"> F  </i>
   <i type="logical" name="LADDER"> F  </i>
   <i type="logical" name="LRPAFORCE"> F  </i>
   <i type="logical" name="LFXC"> F  </i>
   <i type="logical" name="LHARTREE"> T  </i>
   <i type="int" name="IBSE">     2</i>
   <v type="int" name="KPOINT">    -1     0     0     0</v>
   <i type="logical" name="LTCTC"> F  </i>
   <i type="logical" name="LTCTE"> F  </i>
   <i type="logical" name="LTETE"> F  </i>
   <i type="logical" name="LTRIPLET"> F  </i>
   <i type="logical" name="LFXCEPS"> F  </i>
   <i type="logical" name="LFXHEG"> F  </i>
   <i type="int" name="NATURALO">     2</i>
   <i type="logical" name="LHOLEGF"> F  </i>
   <i type="logical" name="L2ORDER"> F  </i>
   <i type="logical" name="LDMP1"> F  </i>
   <i type="logical" name="LMP2LT"> F  </i>
   <i type="logical" name="LSMP2LT"> F  </i>
   <i type="logical" name="LGWLF"> F  </i>
   <i name="ENCUTGW">     -1.60000002</i>
   <i name="ENCUTGWSOFT">     -1.60000002</i>
   <i name="ENCUTLF">     -1.00000000</i>
   <i type="logical" name="ESF_SPLINES"> F  </i>
   <i name="ESF_CONV">      0.01000000</i>
   <i type="int" name="ESF_NINTER">    15</i>
   <i type="int" name="LMAXMP2">    -1</i>
   <i name="SCISSOR">      0.00000000</i>
   <i type="int" name="NOMEGA">     0</i>
   <i type="int" name="NOMEGAR">     0</i>
   <i type="int" name="NBANDSGW">    -1</i>
   <i type="int" name="NBANDSO">    -1</i>
   <i type="int" name="NBANDSV">    -1</i>
   <i type="int" name="NELMGW">     1</i>
   <i type="int" name="NELMHF">     1</i>
   <i type="int" name="DIM">     3</i>
   <i type="int" name="IESPILON">     4</i>
   <i type="int" name="ANTIRES">     0</i>
   <i name="OMEGAMAX">    -30.00000000</i>
   <i name="OMEGAMIN">    -30.00000000</i>
   <i name="OMEGATL">   -200.00000000</i>
   <i type="int" name="OMEGAGRID">     0</i>
   <i name="CSHIFT">     -0.10000000</i>
   <i type="logical" name="LSELFENERGY"> F  </i>
   <i type="logical" name="LSPECTRAL"> F  </i>
   <i type="logical" name="LSPECTRALGW"> F  </i>
   <i type="logical" name="LSINGLES"> F  </i>
   <i type="logical" name="LFERMIGW"> F  </i>
   <i type="logical" name="ODDONLYGW"> F  </i>
   <i type="logical" name="EVENONLYGW"> F  </i>
   <i type="int" name="NKREDLFX">     1</i>
   <i type="int" name="NKREDLFY">     1</i>
   <i type="int" name="NKREDLFZ">     1</i>
   <i type="int" name="MAXMEM">  2800</i>
   <i type="int" name="TELESCOPE">     0</i>
   <i type="int" name="NTAUPAR">    -1</i>
   <i type="int" name="NOMEGAPAR">    -1</i>
   <i name="DAMP_NEWTON">      0.80000001</i>
   <i name="LAMBDA">      1.00000000</i>
  </separator>
  <separator name="External order field" >
   <i name="OFIELD_KAPPA">      0.00000000</i>
   <v name="OFIELD_K">      0.00000000      0.00000000      0.00000000</v>
   <i name="OFIELD_Q6_NEAR">      0.00000000</i>
   <i name="OFIELD_Q6_FAR">      0.00000000</i>
   <i name="OFIELD_A">      0.00000000</i>
  </separator>
  <separator name="optional k-points parameters" >
   <i type="int" name="KPOINTS_OPT_MODE">     1</i>
   <i type="logical" name="LKPOINTS_OPT"> F  </i>
  </separator>
 </parameters>
 <atominfo>
  <atoms>      92 </atoms>
  <types>       1 </types>
  <array name="atoms" >
   <dimension dim="1">ion</dimension>
   <field type="string">element</field>
   <field type="int">atomtype</field>
   <set>
    <rc><c>C </c><c>   1</c></rc>
    <rc><c>C </c><c>   1</c></rc>
    <rc><c>C </c><c>   1</c></rc>
    <rc><c>C </c><c>   1</c></rc>
    <rc><c>C </c><c>   1</c></rc>
    <rc><c>C </c><c>   1</c></rc>
    <rc><c>C </c><c>   1</c></rc>
    <rc><c>C </c><c>   1</c></rc>
    <rc><c>C </c><c>   1</c></rc>
    <rc><c>C </c><c>   1</c></rc>
    <rc><c>C </c><c>   1</c></rc>
    <rc><c>C </c><c>   1</c></rc>
    <rc><c>C </c><c>   1</c></rc>
    <rc><c>C </c><c>   1</c></rc>
    <rc><c>C </c><c>   1</c></rc>
    <rc><c>C </c><c>   1</c></rc>
    <rc><c>C </c><c>   1</c></rc>
    <rc><c>C </c><c>   1</c></rc>
    <rc><c>C </c><c>   1</c></rc>
    <rc><c>C </c><c>   1</c></rc>
    <rc><c>C </c><c>   1</c></rc>
    <rc><c>C </c><c>   1</c></rc>
    <rc><c>C </c><c>   1</c></rc>
    <rc><c>C </c><c>   1</c></rc>
    <rc><c>C </c><c>   1</c></rc>
    <rc><c>C </c><c>   1</c></rc>
    <rc><c>C </c><c>   1</c></rc>
    <rc><c>C </c><c>   1</c></rc>
    <rc><c>C </c><c>   1</c></rc>
    <rc><c>C </c><c>   1</c></rc>
    <rc><c>C </c><c>   1</c></rc>
    <rc><c>C </c><c>   1</c></rc>
    <rc><c>C </c><c>   1</c></rc>
    <rc><c>C </c><c>   1</c></rc>
    <rc><c>C </c><c>   1</c></rc>
    <rc><c>C </c><c>   1</c></rc>
    <rc><c>C </c><c>   1</c></rc>
    <rc><c>C </c><c>   1</c></rc>
    <rc><c>C </c><c>   1</c></rc>
    <rc><c>C </c><c>   1</c></rc>
    <rc><c>C </c><c>   1</c></rc>
    <rc><c>C </c><c>   1</c></rc>
    <rc><c>C </c><c>   1</c></rc>
    <rc><c>C </c><c>   1</c></rc>
    <rc><c>C </c><c>   1</c></rc>
    <rc><c>C </c><c>   1</c></rc>
    <rc><c>C </c><c>   1</c></rc>
    <rc><c>C </c><c>   1</c></rc>
    <rc><c>C </c><c>   1</c></rc>
    <rc><c>C </c><c>   1</c></rc>
    <rc><c>C </c><c>   1</c></rc>
    <rc><c>C </c><c>   1</c></rc>
    <rc><c>C </c><c>   1</c></rc>
    <rc><c>C </c><c>   1</c></rc>
    <rc><c>C </c><c>   1</c></rc>
    <rc><c>C </c><c>   1</c></rc>
    <rc><c>C </c><c>   1</c></rc>
    <rc><c>C </c><c>   1</c></rc>
    <rc><c>C </c><c>   1</c></rc>
    <rc><c>C </c><c>   1</c></rc>
    <rc><c>C </c><c>   1</c></rc>
    <rc><c>C </c><c>   1</c></rc>
    <rc><c>C </c><c>   1</c></rc>
    <rc><c>C </c><c>   1</c></rc>
    <rc><c>C </c><c>   1</c></rc>
    <rc><c>C </c><c>   1</c></rc>
    <rc><c>C </c><c>   1</c></rc>
    <rc><c>C </c><c>   1</c></rc>
    <rc><c>C </c><c>   1</c></rc>
    <rc><c>C </c><c>   1</c></rc>
    <rc><c>C </c><c>   1</c></rc>
    <rc><c>C </c><c>   1</c></rc>
    <rc><c>C </c><c>   1</c></rc>
    <rc><c>C </c><c>   1</c></rc>
    <rc><c>C </c><c>   1</c></rc>
    <rc><c>C </c><c>   1</c></rc>
    <rc><c>C </c><c>   1</c></rc>
    <rc><c>C </c><c>   1</c></rc>
    <rc><c>C </c><c>   1</c></rc>
    <rc><c>C </c><c>   1</c></rc>
    <rc><c>C </c><c>   1</c></rc>
    <rc><c>C </c><c>   1</c></rc>
    <rc><c>C </c><c>   1</c></rc>
    <rc><c>C </c><c>   1</c></rc>
    <rc><c>C </c><c>   1</c></rc>
    <rc><c>C </c><c>   1</c></rc>
    <rc><c>C </c><c>   1</c></rc>
    <rc><c>C </c><c>   1</c></rc>
    <rc><c>C </c><c>   1</c></rc>
    <rc><c>C </c><c>   1</c></rc>
    <rc><c>C </c><c>   1</c></rc>
    <rc><c>C </c><c>   1</c></rc>
   </set>
  </array>
  <array name="atomtypes" >
   <dimension dim="1">type</dimension>
   <field type="int">atomspertype</field>
   <field type="string">element</field>
   <field>mass</field>
   <field>valence</field>
   <field type="string">pseudopotential</field>
   <set>
    <rc><c>  92</c><c>C </c><c>     12.01100000</c><c>      4.00000000</c><c>  PAW_PBE C 08Apr2002                   </c></rc>
   </set>
  </array>
 </atominfo>
 <structure name="initialpos" >
  <crystal>
   <varray name="basis" >
    <v>      28.05000000       0.00000000       0.00000000 </v>
    <v>       0.00000000       8.10000000       0.00000000 </v>
    <v>       0.00000000       0.00000000      33.50000000 </v>
   </varray>
   <i name="volume">   7611.36750000 </i>
   <varray name="rec_basis" >
    <v>       0.03565062       0.00000000       0.00000000 </v>
    <v>       0.00000000       0.12345679       0.00000000 </v>
    <v>       0.00000000       0.00000000       0.02985075 </v>
   </varray>
  </crystal>
  <varray name="positions" >
   <v>       0.00940310       0.09894630       0.50164179 </v>
   <v>       0.00810025       0.27398642       0.49779104 </v>
   <v>       0.04901854       0.02013272       0.48454030 </v>
   <v>       0.04889697       0.35774321       0.48332239 </v>
   <v>       0.09123173       0.10317840       0.47271343 </v>
   <v>       0.09284884       0.27285556       0.47163582 </v>
   <v>       0.13607665       0.02337481       0.46645075 </v>
   <v>       0.13455401       0.35489136       0.46249552 </v>
   <v>       0.17869875       0.10037790       0.45886567 </v>
   <v>       0.17947736       0.27411728       0.45780000 </v>
   <v>       0.22406168       0.02387259       0.45580896 </v>
   <v>       0.22360927       0.35885062       0.45792836 </v>
   <v>       0.26824029       0.10640235       0.45491045 </v>
   <v>       0.26802317       0.27523580       0.45732537 </v>
   <v>       0.31364171       0.02949333       0.46166866 </v>
   <v>       0.31237219       0.35420370       0.46077910 </v>
   <v>       0.35721569       0.10631494       0.46598209 </v>
   <v>       0.35673440       0.27411728       0.46782388 </v>
   <v>       0.40242781       0.02372432       0.46958507 </v>
   <v>       0.39957932       0.35914198       0.47938507 </v>
   <v>       0.44260250       0.09966025       0.48564776 </v>
   <v>       0.44175758       0.27606420       0.48741791 </v>
   <v>       0.48560071       0.02007222       0.49194328 </v>
   <v>       0.48439929       0.35758889       0.49529851 </v>
   <v>       0.52363280       0.09927222       0.51028358 </v>
   <v>       0.52465597       0.27210864       0.51226567 </v>
   <v>       0.56752585       0.02197617       0.51867761 </v>
   <v>       0.56678431       0.35232840       0.52289552 </v>
   <v>       0.61136542       0.10206852       0.53034627 </v>
   <v>       0.60990374       0.27153457       0.53283582 </v>
   <v>       0.65557576       0.02387556       0.53442687 </v>
   <v>       0.65307665       0.35202840       0.54228657 </v>
   <v>       0.69996791       0.10255185       0.54019104 </v>
   <v>       0.69832442       0.27370000       0.54452239 </v>
   <v>       0.74337255       0.02347753       0.54781194 </v>
   <v>       0.74122638       0.35414938       0.54827164 </v>
   <v>       0.78710873       0.10755840       0.54811940 </v>
   <v>       0.78688414       0.27474568       0.54448955 </v>
   <v>       0.83114795       0.02710790       0.54534030 </v>
   <v>       0.82919430       0.35938519       0.53359403 </v>
   <v>       0.87538681       0.11075765       0.53400896 </v>
   <v>       0.87295900       0.27908519       0.52876716 </v>
   <v>       0.91693048       0.02117827       0.52318209 </v>
   <v>       0.91587522       0.35949012       0.51694925 </v>
   <v>       0.96060606       0.10013605       0.51320299 </v>
   <v>       0.95948307       0.26919136       0.51230448 </v>
   <v>       0.00400845       0.60842716       0.48527761 </v>
   <v>       0.00502873       0.78010617       0.48702985 </v>
   <v>       0.04626096       0.52586420       0.47616716 </v>
   <v>       0.04750410       0.85594568       0.48036119 </v>
   <v>       0.08802246       0.60256420       0.46287463 </v>
   <v>       0.09151765       0.76933704       0.46819701 </v>
   <v>       0.13268200       0.52361728       0.45582388 </v>
   <v>       0.13305241       0.85330123       0.46499104 </v>
   <v>       0.17469055       0.60671852       0.45599104 </v>
   <v>       0.17662210       0.77807407       0.45663284 </v>
   <v>       0.22100463       0.52420494       0.45658806 </v>
   <v>       0.22317469       0.85731852       0.45529552 </v>
   <v>       0.26678039       0.60558025       0.45480896 </v>
   <v>       0.26796078       0.77157037       0.45361493 </v>
   <v>       0.31236185       0.52098395       0.45843881 </v>
   <v>       0.31298645       0.85774568       0.45828955 </v>
   <v>       0.35611943       0.60884198       0.46120896 </v>
   <v>       0.35696970       0.77751481       0.45782687 </v>
   <v>       0.40060606       0.52649877       0.46914030 </v>
   <v>       0.40242781       0.85637531       0.46694925 </v>
   <v>       0.44594652       0.60155556       0.47484179 </v>
   <v>       0.44655971       0.76830000       0.47642388 </v>
   <v>       0.48766845       0.52188765       0.48593433 </v>
   <v>       0.48687344       0.85191235       0.48836716 </v>
   <v>       0.52965062       0.60061358       0.49877910 </v>
   <v>       0.53021034       0.77280494       0.49702388 </v>
   <v>       0.56937255       0.52074198       0.51818507 </v>
   <v>       0.56999643       0.85295309       0.51424478 </v>
   <v>       0.60907665       0.59742346       0.53281194 </v>
   <v>       0.61024599       0.77297160       0.52756716 </v>
   <v>       0.65302674       0.52252716       0.54372836 </v>
   <v>       0.65222460       0.85440247       0.53675224 </v>
   <v>       0.69679857       0.60777160       0.54730149 </v>
   <v>       0.69739394       0.77726173       0.54423582 </v>
   <v>       0.74116934       0.52378889       0.54945373 </v>
   <v>       0.74212478       0.85652963       0.54795821 </v>
   <v>       0.78592513       0.60466296       0.54675224 </v>
   <v>       0.78649554       0.77196296       0.55097015 </v>
   <v>       0.82911943       0.53163457       0.53569552 </v>
   <v>       0.83113369       0.85416543       0.54432239 </v>
   <v>       0.87224242       0.60841481       0.52295224 </v>
   <v>       0.87164349       0.77086173       0.52847761 </v>
   <v>       0.91414260       0.52504074       0.51095224 </v>
   <v>       0.91484848       0.85802099       0.51697612 </v>
   <v>       0.95683779       0.60800494       0.50182388 </v>
   <v>       0.95557576       0.77714444       0.50318209 </v>
  </varray>
 </structure>
 <calculation>
  <scstep>
   <time name="dav">   11.15   11.16</time>
   <time name="total">   11.62   11.64</time>
   <energy>
    <i name="alphaZ">     91.34886789 </i>
    <i name="ewald"> 119889.17940876 </i>
    <i name="hartreedc">-129198.97623141 </i>
    <i name="XCdc">   1222.53805501 </i>
    <i name="pawpsdc">   9984.02826696 </i>
    <i name="pawaedc"> -10036.41360137 </i>
    <i name="eentropy">     -0.84345561 </i>
    <i name="bandstr">  -1848.59866597 </i>
    <i name="atom">  13537.65479391 </i>
    <i name="e_fr_energy">   3639.91743817 </i>
    <i name="e_wo_entrp">   3640.76089378 </i>
    <i name="e_0_energy">   3640.33916598 </i>
   </energy>
  </scstep>
  <scstep>
   <time name="dav">   13.13   13.13</time>
   <time name="total">   13.13   13.13</time>
   <energy>
    <i name="e_fr_energy">    169.73989677 </i>
    <i name="e_wo_entrp">    169.96380230 </i>
    <i name="e_0_energy">    169.85184953 </i>
   </energy>
  </scstep>
  <scstep>
   <time name="dav">   11.35   11.36</time>
   <time name="total">   11.35   11.36</time>
   <energy>
    <i name="e_fr_energy">   -834.69018769 </i>
    <i name="e_wo_entrp">   -834.65759641 </i>
    <i name="e_0_energy">   -834.67389205 </i>
   </energy>
  </scstep>
  <scstep>
   <time name="dav">   10.94   10.94</time>
   <time name="total">   10.94   10.94</time>
   <energy>
    <i name="e_fr_energy">   -897.02975657 </i>
    <i name="e_wo_entrp">   -896.97739397 </i>
    <i name="e_0_energy">   -897.00357527 </i>
   </energy>
  </scstep>
  <scstep>
   <time name="dav">   11.16   11.16</time>
   <time name="total">   12.64   12.65</time>
   <energy>
    <i name="e_fr_energy">   -898.63006379 </i>
    <i name="e_wo_entrp">   -898.57590350 </i>
    <i name="e_0_energy">   -898.60298364 </i>
   </energy>
  </scstep>
  <scstep>
   <time name="dav">   10.21   10.22</time>
   <time name="total">   12.01   12.02</time>
   <energy>
    <i name="e_fr_energy">   -848.38080808 </i>
    <i name="e_wo_entrp">   -848.31493580 </i>
    <i name="e_0_energy">   -848.34787194 </i>
   </energy>
  </scstep>
  <scstep>
   <time name="dav">   10.13   10.13</time>
   <time name="total">   11.92   11.93</time>
   <energy>
    <i name="e_fr_energy">   -829.59702907 </i>
    <i name="e_wo_entrp">   -829.52080821 </i>
    <i name="e_0_energy">   -829.55891864 </i>
   </energy>
  </scstep>
  <scstep>
   <time name="dav">   10.33   10.33</time>
   <time name="total">   12.13   12.14</time>
   <energy>
    <i name="e_fr_energy">   -829.29501001 </i>
    <i name="e_wo_entrp">   -829.22330047 </i>
    <i name="e_0_energy">   -829.25915524 </i>
   </energy>
  </scstep>
  <scstep>
   <time name="dav">   10.65   10.66</time>
   <time name="total">   12.46   12.46</time>
   <energy>
    <i name="e_fr_energy">   -829.18694935 </i>
    <i name="e_wo_entrp">   -829.11424866 </i>
    <i name="e_0_energy">   -829.15059900 </i>
   </energy>
  </scstep>
  <scstep>
   <time name="dav">   11.04   11.05</time>
   <time name="total">   12.86   12.87</time>
   <energy>
    <i name="e_fr_energy">   -829.14336502 </i>
    <i name="e_wo_entrp">   -829.07035632 </i>
    <i name="e_0_energy">   -829.10686067 </i>
   </energy>
  </scstep>
  <scstep>
   <time name="dav">   10.09   10.09</time>
   <time name="total">   11.92   11.92</time>
   <energy>
    <i name="e_fr_energy">   -829.11396983 </i>
    <i name="e_wo_entrp">   -829.04094418 </i>
    <i name="e_0_energy">   -829.07745701 </i>
   </energy>
  </scstep>
  <scstep>
   <time name="dav">   10.03   10.03</time>
   <time name="total">   11.86   11.86</time>
   <energy>
    <i name="e_fr_energy">   -829.11124337 </i>
    <i name="e_wo_entrp">   -829.03825014 </i>
    <i name="e_0_energy">   -829.07474675 </i>
   </energy>
  </scstep>
  <scstep>
   <time name="dav">   10.19   10.19</time>
   <time name="total">   12.02   12.02</time>
   <energy>
    <i name="e_fr_energy">   -829.12269854 </i>
    <i name="e_wo_entrp">   -829.04975886 </i>
    <i name="e_0_energy">   -829.08622870 </i>
   </energy>
  </scstep>
  <scstep>
   <time name="dav">   10.28   10.28</time>
   <time name="total">   12.12   12.13</time>
   <energy>
    <i name="e_fr_energy">   -829.14171612 </i>
    <i name="e_wo_entrp">   -829.06874196 </i>
    <i name="e_0_energy">   -829.10522904 </i>
   </energy>
  </scstep>
  <scstep>
   <time name="dav">   10.15   10.15</time>
   <time name="total">   12.00   12.01</time>
   <energy>
    <i name="e_fr_energy">   -829.16301330 </i>
    <i name="e_wo_entrp">   -829.08997965 </i>
    <i name="e_0_energy">   -829.12649647 </i>
   </energy>
  </scstep>
  <scstep>
   <time name="dav">   10.40   10.40</time>
   <time name="total">   12.27   12.28</time>
   <energy>
    <i name="e_fr_energy">   -829.17036691 </i>
    <i name="e_wo_entrp">   -829.09737017 </i>
    <i name="e_0_energy">   -829.13386854 </i>
   </energy>
  </scstep>
  <scstep>
   <time name="dav">   10.03   10.03</time>
   <time name="total">   11.89   11.90</time>
   <energy>
    <i name="e_fr_energy">   -829.17524673 </i>
    <i name="e_wo_entrp">   -829.10224699 </i>
    <i name="e_0_energy">   -829.13874686 </i>
   </energy>
  </scstep>
  <scstep>
   <time name="dav">   10.32   10.32</time>
   <time name="total">   12.20   12.20</time>
   <energy>
    <i name="e_fr_energy">   -829.17742011 </i>
    <i name="e_wo_entrp">   -829.10441353 </i>
    <i name="e_0_energy">   -829.14091682 </i>
   </energy>
  </scstep>
  <scstep>
   <time name="dav">    9.21    9.22</time>
   <time name="total">   11.11   11.11</time>
   <energy>
    <i name="e_fr_energy">   -829.17841571 </i>
    <i name="e_wo_entrp">   -829.10541097 </i>
    <i name="e_0_energy">   -829.14191334 </i>
   </energy>
  </scstep>
  <scstep>
   <time name="dav">    9.18    9.19</time>
   <time name="total">   11.09   11.09</time>
   <energy>
    <i name="e_fr_energy">   -829.17875603 </i>
    <i name="e_wo_entrp">   -829.10574986 </i>
    <i name="e_0_energy">   -829.14225294 </i>
   </energy>
  </scstep>
  <scstep>
   <time name="dav">    8.78    8.79</time>
   <time name="total">   10.70   10.71</time>
   <energy>
    <i name="e_fr_energy">   -829.17896691 </i>
    <i name="e_wo_entrp">   -829.10596026 </i>
    <i name="e_0_energy">   -829.14246358 </i>
   </energy>
  </scstep>
  <scstep>
   <time name="dav">    7.50    7.51</time>
   <time name="total">    9.43    9.44</time>
   <energy>
    <i name="e_fr_energy">   -829.17901467 </i>
    <i name="e_wo_entrp">   -829.10600810 </i>
    <i name="e_0_energy">   -829.14251139 </i>
   </energy>
  </scstep>
  <scstep>
   <time name="dav">    7.08    7.08</time>
   <time name="total">    9.02    9.03</time>
   <energy>
    <i name="e_fr_energy">   -829.17905187 </i>
    <i name="e_wo_entrp">   -829.10604502 </i>
    <i name="e_0_energy">   -829.14254844 </i>
   </energy>
  </scstep>
  <scstep>
   <time name="dav">    7.21    7.21</time>
   <time name="total">    9.17    9.17</time>
   <energy>
    <i name="e_fr_energy">   -829.17906482 </i>
    <i name="e_wo_entrp">   -829.10605855 </i>
    <i name="e_0_energy">   -829.14256169 </i>
   </energy>
  </scstep>
  <scstep>
   <time name="dav">    7.17    7.18</time>
   <time name="total">    9.15    9.15</time>
   <energy>
    <i name="e_fr_energy">   -829.17906940 </i>
    <i name="e_wo_entrp">   -829.10606319 </i>
    <i name="e_0_energy">   -829.14256629 </i>
   </energy>
  </scstep>
  <scstep>
   <time name="dav">    7.09    7.09</time>
   <time name="total">    9.09    9.10</time>
   <energy>
    <i name="e_fr_energy">   -829.17907281 </i>
    <i name="e_wo_entrp">   -829.10606640 </i>
    <i name="e_0_energy">   -829.14256960 </i>
   </energy>
  </scstep>
  <scstep>
   <time name="dav">    7.19    7.19</time>
   <time name="total">    9.19    9.20</time>
   <energy>
    <i name="e_fr_energy">   -829.17907459 </i>
    <i name="e_wo_entrp">   -829.10606813 </i>
    <i name="e_0_energy">   -829.14257136 </i>
   </energy>
  </scstep>
  <scstep>
   <time name="dav">    7.06    7.06</time>
   <time name="total">    9.09    9.09</time>
   <energy>
    <i name="e_fr_energy">   -829.17907597 </i>
    <i name="e_wo_entrp">   -829.10606954 </i>
    <i name="e_0_energy">   -829.14257276 </i>
   </energy>
  </scstep>
  <scstep>
   <time name="dav">    7.12    7.12</time>
   <time name="total">    7.48    7.48</time>
   <energy>
    <i name="alphaZ">     91.34886789 </i>
    <i name="ewald"> 119889.17940876 </i>
    <i name="hartreedc">-130978.37414469 </i>
    <i name="XCdc">   1280.25151986 </i>
    <i name="pawpsdc">  41384.80800815 </i>
    <i name="pawaedc"> -41448.99337644 </i>
    <i name="eentropy">     -0.07300641 </i>
    <i name="bandstr">  -4584.98114757 </i>
    <i name="atom">  13537.65479391 </i>
    <i name="e_fr_energy">   -829.17907655 </i>
    <i name="e_wo_entrp">   -829.10607014 </i>
    <i name="e_0_energy">   -829.14257334 </i>
   </energy>
  </scstep>
  <structure>
   <crystal>
    <varray name="basis" >
     <v>      28.05000000       0.00000000       0.00000000 </v>
     <v>       0.00000000       8.10000000       0.00000000 </v>
     <v>       0.00000000       0.00000000      33.50000000 </v>
    </varray>
    <i name="volume">   7611.36750000 </i>
    <varray name="rec_basis" >
     <v>       0.03565062       0.00000000       0.00000000 </v>
     <v>       0.00000000       0.12345679       0.00000000 </v>
     <v>       0.00000000       0.00000000       0.02985075 </v>
    </varray>
   </crystal>
   <varray name="positions" >
    <v>       0.00940310       0.09894630       0.50164179 </v>
    <v>       0.00810025       0.27398642       0.49779104 </v>
    <v>       0.04901854       0.02013272       0.48454030 </v>
    <v>       0.04889697       0.35774321       0.48332239 </v>
    <v>       0.09123173       0.10317840       0.47271343 </v>
    <v>       0.09284884       0.27285556       0.47163582 </v>
    <v>       0.13607665       0.02337481       0.46645075 </v>
    <v>       0.13455401       0.35489136       0.46249552 </v>
    <v>       0.17869875       0.10037790       0.45886567 </v>
    <v>       0.17947736       0.27411728       0.45780000 </v>
    <v>       0.22406168       0.02387259       0.45580896 </v>
    <v>       0.22360927       0.35885062       0.45792836 </v>
    <v>       0.26824029       0.10640235       0.45491045 </v>
    <v>       0.26802317       0.27523580       0.45732537 </v>
    <v>       0.31364171       0.02949333       0.46166866 </v>
    <v>       0.31237219       0.35420370       0.46077910 </v>
    <v>       0.35721569       0.10631494       0.46598209 </v>
    <v>       0.35673440       0.27411728       0.46782388 </v>
    <v>       0.40242781       0.02372432       0.46958507 </v>
    <v>       0.39957932       0.35914198       0.47938507 </v>
    <v>       0.44260250       0.09966025       0.48564776 </v>
    <v>       0.44175758       0.27606420       0.48741791 </v>
    <v>       0.48560071       0.02007222       0.49194328 </v>
    <v>       0.48439929       0.35758889       0.49529851 </v>
    <v>       0.52363280       0.09927222       0.51028358 </v>
    <v>       0.52465597       0.27210864       0.51226567 </v>
    <v>       0.56752585       0.02197617       0.51867761 </v>
    <v>       0.56678431       0.35232840       0.52289552 </v>
    <v>       0.61136542       0.10206852       0.53034627 </v>
    <v>       0.60990374       0.27153457       0.53283582 </v>
    <v>       0.65557576       0.02387556       0.53442687 </v>
    <v>       0.65307665       0.35202840       0.54228657 </v>
    <v>       0.69996791       0.10255185       0.54019104 </v>
    <v>       0.69832442       0.27370000       0.54452239 </v>
    <v>       0.74337255       0.02347753       0.54781194 </v>
    <v>       0.74122638       0.35414938       0.54827164 </v>
    <v>       0.78710873       0.10755840       0.54811940 </v>
    <v>       0.78688414       0.27474568       0.54448955 </v>
    <v>       0.83114795       0.02710790       0.54534030 </v>
    <v>       0.82919430       0.35938519       0.53359403 </v>
    <v>       0.87538681       0.11075765       0.53400896 </v>
    <v>       0.87295900       0.27908519       0.52876716 </v>
    <v>       0.91693048       0.02117827       0.52318209 </v>
    <v>       0.91587522       0.35949012       0.51694925 </v>
    <v>       0.96060606       0.10013605       0.51320299 </v>
    <v>       0.95948307       0.26919136       0.51230448 </v>
    <v>       0.00400845       0.60842716       0.48527761 </v>
    <v>       0.00502873       0.78010617       0.48702985 </v>
    <v>       0.04626096       0.52586420       0.47616716 </v>
    <v>       0.04750410       0.85594568       0.48036119 </v>
    <v>       0.08802246       0.60256420       0.46287463 </v>
    <v>       0.09151765       0.76933704       0.46819701 </v>
    <v>       0.13268200       0.52361728       0.45582388 </v>
    <v>       0.13305241       0.85330123       0.46499104 </v>
    <v>       0.17469055       0.60671852       0.45599104 </v>
    <v>       0.17662210       0.77807407       0.45663284 </v>
    <v>       0.22100463       0.52420494       0.45658806 </v>
    <v>       0.22317469       0.85731852       0.45529552 </v>
    <v>       0.26678039       0.60558025       0.45480896 </v>
    <v>       0.26796078       0.77157037       0.45361493 </v>
    <v>       0.31236185       0.52098395       0.45843881 </v>
    <v>       0.31298645       0.85774568       0.45828955 </v>
    <v>       0.35611943       0.60884198       0.46120896 </v>
    <v>       0.35696970       0.77751481       0.45782687 </v>
    <v>       0.40060606       0.52649877       0.46914030 </v>
    <v>       0.40242781       0.85637531       0.46694925 </v>
    <v>       0.44594652       0.60155556       0.47484179 </v>
    <v>       0.44655971       0.76830000       0.47642388 </v>
    <v>       0.48766845       0.52188765       0.48593433 </v>
    <v>       0.48687344       0.85191235       0.48836716 </v>
    <v>       0.52965062       0.60061358       0.49877910 </v>
    <v>       0.53021034       0.77280494       0.49702388 </v>
    <v>       0.56937255       0.52074198       0.51818507 </v>
    <v>       0.56999643       0.85295309       0.51424478 </v>
    <v>       0.60907665       0.59742346       0.53281194 </v>
    <v>       0.61024599       0.77297160       0.52756716 </v>
    <v>       0.65302674       0.52252716       0.54372836 </v>
    <v>       0.65222460       0.85440247       0.53675224 </v>
    <v>       0.69679857       0.60777160       0.54730149 </v>
    <v>       0.69739394       0.77726173       0.54423582 </v>
    <v>       0.74116934       0.52378889       0.54945373 </v>
    <v>       0.74212478       0.85652963       0.54795821 </v>
    <v>       0.78592513       0.60466296       0.54675224 </v>
    <v>       0.78649554       0.77196296       0.55097015 </v>
    <v>       0.82911943       0.53163457       0.53569552 </v>
    <v>       0.83113369       0.85416543       0.54432239 </v>
    <v>       0.87224242       0.60841481       0.52295224 </v>
    <v>       0.87164349       0.77086173       0.52847761 </v>
    <v>       0.91414260       0.52504074       0.51095224 </v>
    <v>       0.91484848       0.85802099       0.51697612 </v>
    <v>       0.95683779       0.60800494       0.50182388 </v>
    <v>       0.95557576       0.77714444       0.50318209 </v>
   </varray>
  </structure>
  <varray name="forces" >
   <v>       3.40390713       1.57614484      -2.12909534 </v>
   <v>       3.66803997      -0.63778953      -0.25330664 </v>
   <v>      -0.44822259       2.23207347       1.09697379 </v>
   <v>      -0.91496961      -1.16447039      -0.41242609 </v>
   <v>       1.26384341       0.91169939       0.63386188 </v>
   <v>      -2.68519735      -0.20292481       1.09036913 </v>
   <v>      -2.63624535      -0.55268292      -0.11339929 </v>
   <v>       1.51401722      -0.04947671      -1.20585782 </v>
   <v>       1.46634358       2.54167182       0.13245835 </v>
   <v>      -0.97122385      -0.92468664       0.77641281 </v>
   <v>      -0.51753338       0.18143784      -0.11273806 </v>
   <v>      -0.74014618      -1.70992855      -0.72655063 </v>
   <v>       0.73632838       0.33247376       1.42654763 </v>
   <v>      -0.10462939      -0.00390978      -0.12408778 </v>
   <v>      -1.97893721      -1.92141398      -1.56437711 </v>
   <v>       0.51585140      -0.47347649       0.32746872 </v>
   <v>       1.12632038       0.16569659       0.14381008 </v>
   <v>       0.02479309       0.82372963       0.84790270 </v>
   <v>      -1.34003071       0.11160325       1.08772786 </v>
   <v>      -1.54623485       0.24973397      -2.54598703 </v>
   <v>      -0.30918545       2.77777181      -0.90965333 </v>
   <v>       0.08033880      -1.96524372       0.61376752 </v>
   <v>      -0.61607917       0.01745306       1.20573187 </v>
   <v>       1.04629802      -1.09142943       0.67749994 </v>
   <v>       1.86070164       1.68525873      -0.01205841 </v>
   <v>      -1.12316658      -0.38528699      -0.99161035 </v>
   <v>       1.10104089      -0.15921184       0.42491122 </v>
   <v>       0.43358451      -0.33279789       0.01080247 </v>
   <v>      -1.42916445       0.72353171      -0.68677426 </v>
   <v>       0.01120125      -0.24321861       0.44150633 </v>
   <v>      -0.47618104      -0.62152757       0.30211539 </v>
   <v>       0.64710715       0.48347285      -0.11823838 </v>
   <v>      -1.04820293       1.07455184       0.71502856 </v>
   <v>      -1.35527637      -1.45722864      -0.17619418 </v>
   <v>      -0.48680721       0.66533433      -0.66962286 </v>
   <v>       1.68131218       0.79347785      -0.36605113 </v>
   <v>       0.56501357      -0.41736706       0.07008878 </v>
   <v>      -0.72183139       1.15031800      -0.24876124 </v>
   <v>       1.83018381      -0.71616007      -0.87898889 </v>
   <v>      -0.62949914       0.33754072       1.33537164 </v>
   <v>      -1.51901616      -1.14868700       0.46036670 </v>
   <v>       1.10941304      -0.44014149      -0.36078234 </v>
   <v>       1.23696723       2.22136140      -0.12543759 </v>
   <v>       0.91558939      -2.10322058      -0.10826098 </v>
   <v>      -3.72261645       0.21571386       1.78381865 </v>
   <v>      -3.10963806       1.71089667       0.22255365 </v>
   <v>       2.57935155       0.30793997      -0.70094736 </v>
   <v>       0.66579281      -1.39943655      -0.39122660 </v>
   <v>      -1.29961120      -0.83415962       0.00699536 </v>
   <v>       1.25489735      -2.06309602      -0.76448134 </v>
   <v>       1.15563266       0.67850127       0.14305131 </v>
   <v>      -4.07772994       0.60758545       0.51443170 </v>
   <v>      -1.84898169      -1.01659701       1.43130789 </v>
   <v>       2.78503341       1.19183302      -0.90272654 </v>
   <v>       3.80740376       0.60175223      -0.78330578 </v>
   <v>       1.44807151      -1.13424523       0.35692228 </v>
   <v>       0.51590330       2.06863487      -0.38867910 </v>
   <v>      -0.49993953      -1.84282431      -0.20465336 </v>
   <v>       0.38140837      -1.72446352       0.25420413 </v>
   <v>       0.12899668       2.35636880       0.60750736 </v>
   <v>      -0.91410285       2.16427106       0.06933932 </v>
   <v>      -0.97148582       0.24100050      -0.88904600 </v>
   <v>       0.91595589      -1.31594610      -0.38756960 </v>
   <v>       1.48050742      -0.04685249       1.25700856 </v>
   <v>      -0.00889055      -0.74268586       1.02845508 </v>
   <v>      -0.10026064      -1.67844633      -0.41174884 </v>
   <v>      -1.24885792       0.03988351      -0.53564904 </v>
   <v>      -2.51220400       1.94866367      -1.36135526 </v>
   <v>       0.71457147      -0.97135082       1.29825574 </v>
   <v>       1.27808407       0.03348387      -0.67056731 </v>
   <v>       0.92388910       1.12541035       0.12743455 </v>
   <v>       0.20215509      -1.28381262       1.09726331 </v>
   <v>      -2.20199434      -0.49306743      -0.55836674 </v>
   <v>      -1.17338260       0.50608149      -0.78922950 </v>
   <v>       1.79480120       3.44661646      -0.61737131 </v>
   <v>       0.52676618      -2.56306962       0.70285732 </v>
   <v>      -0.68039374      -0.24633026      -0.20875434 </v>
   <v>       2.69078904       0.34558410      -0.02885957 </v>
   <v>       0.39214750      -0.46754325       0.25109408 </v>
   <v>      -0.72918459      -0.61975042       0.17859360 </v>
   <v>       0.03822980       0.05363176      -0.14704704 </v>
   <v>       0.20234859      -1.05159855       0.80896348 </v>
   <v>      -0.05854920       0.25158015       0.07745413 </v>
   <v>       0.22624776       1.20434928      -1.00913722 </v>
   <v>       0.43756061      -2.45117319      -0.95282817 </v>
   <v>      -0.47341903       0.33334270      -0.15618528 </v>
   <v>      -1.33528654      -1.57689415       0.63848417 </v>
   <v>       1.49371024       3.33247596      -0.06810869 </v>
   <v>       1.13576654       0.59292624       0.07593764 </v>
   <v>      -0.43504395      -2.07160380       0.57152947 </v>
   <v>      -3.20371358      -0.16021773       0.16933592 </v>
   <v>      -1.21115136       0.06258148       0.27458165 </v>
  </varray>
  <varray name="stress" >
   <v>      -1.91042014       1.44572833       0.44853890 </v>
   <v>       1.44572833      57.29484700       0.48480824 </v>
   <v>       0.44853890       0.48480825      -0.88474790 </v>
  </varray>
  <energy>
   <i name="e_fr_energy">   -829.17907655 </i>
   <i name="e_wo_entrp">   -829.10607014 </i>
   <i name="e_0_energy">   -829.14257334 </i>
  </energy>
  <time name="totalsc">  333.35  333.54</time>
  <eigenvalues>
   <array>
    <dimension dim="1">band</dimension>
    <dimension dim="2">kpoint</dimension>
    <dimension dim="3">spin</dimension>
    <field>eigene</field>
    <field>occ</field>
    <set>
     <set comment="spin 1">
      <set comment="kpoint 1">
       <r>  -23.1972    1.0000 </r>
       <r>  -23.1029    1.0000 </r>
       <r>  -22.9961    1.0000 </r>
       <r>  -22.7276    1.0000 </r>
       <r>  -22.6100    1.0000 </r>
       <r>  -22.4287    1.0000 </r>
       <r>  -22.1281    1.0000 </r>
       <r>  -21.9552    1.0000 </r>
       <r>  -21.5700    1.0000 </r>
       <r>  -21.4610    1.0000 </r>
       <r>  -21.4077    1.0000 </r>
       <r>  -21.3512    1.0000 </r>
       <r>  -21.3113    1.0000 </r>
       <r>  -21.2619    1.0000 </r>
       <r>  -21.1299    1.0000 </r>
       <r>  -21.0807    1.0000 </r>
       <r>  -21.0045    1.0000 </r>
       <r>  -20.9600    1.0000 </r>
       <r>  -20.7934    1.0000 </r>
       <r>  -20.6091    1.0000 </r>
       <r>  -20.4136    1.0000 </r>
       <r>  -20.3060    1.0000 </r>
       <r>  -20.1636    1.0000 </r>
       <r>  -20.1475    1.0000 </r>
       <r>  -19.9952    1.0000 </r>
       <r>  -19.7158    1.0000 </r>
       <r>  -19.5667    1.0000 </r>
       <r>  -19.4163    1.0000 </r>
       <r>  -19.2407    1.0000 </r>
       <r>  -18.9661    1.0000 </r>
       <r>  -18.7039    1.0000 </r>
       <r>  -18.6230    1.0000 </r>
       <r>  -18.5986    1.0000 </r>
       <r>  -18.3899    1.0000 </r>
       <r>  -18.2114    1.0000 </r>
       <r>  -17.6813    1.0000 </r>
       <r>  -17.3540    1.0000 </r>
       <r>  -17.2140    1.0000 </r>
       <r>  -17.0640    1.0000 </r>
       <r>  -16.8460    1.0000 </r>
       <r>  -16.8161    1.0000 </r>
       <r>  -16.6964    1.0000 </r>
       <r>  -16.6477    1.0000 </r>
       <r>  -16.6041    1.0000 </r>
       <r>  -16.5841    1.0000 </r>
       <r>  -16.5581    1.0000 </r>
       <r>  -16.4736    1.0000 </r>
       <r>  -16.4140    1.0000 </r>
       <r>  -16.3910    1.0000 </r>
       <r>  -16.3784    1.0000 </r>
       <r>  -16.2570    1.0000 </r>
       <r>  -16.0961    1.0000 </r>
       <r>  -16.0738    1.0000 </r>
       <r>  -15.9885    1.0000 </r>
       <r>  -15.8406    1.0000 </r>
       <r>  -15.6456    1.0000 </r>
       <r>  -15.4341    1.0000 </r>
       <r>  -15.3175    1.0000 </r>
       <r>  -15.3008    1.0000 </r>
       <r>  -15.2276    1.0000 </r>
       <r>  -15.1203    1.0000 </r>
       <r>  -15.0076    1.0000 </r>
       <r>  -14.3592    1.0000 </r>
       <r>  -14.1233    1.0000 </r>
       <r>  -14.0992    1.0000 </r>
       <r>  -14.0971    1.0000 </r>
       <r>  -13.9395    1.0000 </r>
       <r>  -13.8110    1.0000 </r>
       <r>  -13.7100    1.0000 </r>
       <r>  -13.6620    1.0000 </r>
       <r>  -13.4821    1.0000 </r>
       <r>  -13.4724    1.0000 </r>
       <r>  -13.2664    1.0000 </r>
       <r>  -13.1190    1.0000 </r>
       <r>  -13.0686    1.0000 </r>
       <r>  -12.9897    1.0000 </r>
       <r>  -12.6628    1.0000 </r>
       <r>  -12.4656    1.0000 </r>
       <r>  -12.2288    1.0000 </r>
       <r>  -12.1059    1.0000 </r>
       <r>  -12.0305    1.0000 </r>
       <r>  -12.0226    1.0000 </r>
       <r>  -11.9468    1.0000 </r>
       <r>  -11.8449    1.0000 </r>
       <r>  -11.7428    1.0000 </r>
       <r>  -11.6037    1.0000 </r>
       <r>  -11.3964    1.0000 </r>
       <r>  -11.1883    1.0000 </r>
       <r>  -11.0690    1.0000 </r>
       <r>  -11.0367    1.0000 </r>
       <r>  -11.0010    1.0000 </r>
       <r>  -10.9035    1.0000 </r>
       <r>  -10.7698    1.0000 </r>
       <r>  -10.7414    1.0000 </r>
       <r>  -10.6749    1.0000 </r>
       <r>  -10.6435    1.0000 </r>
       <r>  -10.6323    1.0000 </r>
       <r>  -10.5355    1.0000 </r>
       <r>  -10.4989    1.0000 </r>
       <r>  -10.4577    1.0000 </r>
       <r>  -10.3481    1.0000 </r>
       <r>  -10.2838    1.0000 </r>
       <r>  -10.1978    1.0000 </r>
       <r>  -10.1093    1.0000 </r>
       <r>  -10.1009    1.0000 </r>
       <r>  -10.0319    1.0000 </r>
       <r>   -9.8393    1.0000 </r>
       <r>   -9.8002    1.0000 </r>
       <r>   -9.7576    1.0000 </r>
       <r>   -9.7195    1.0000 </r>
       <r>   -9.6616    1.0000 </r>
       <r>   -9.5984    1.0000 </r>
       <r>   -9.5943    1.0000 </r>
       <r>   -9.5557    1.0000 </r>
       <r>   -9.5067    1.0000 </r>
       <r>   -9.4704    1.0000 </r>
       <r>   -9.4157    1.0000 </r>
       <r>   -9.4107    1.0000 </r>
       <r>   -9.3844    1.0000 </r>
       <r>   -9.3673    1.0000 </r>
       <r>   -9.3412    1.0000 </r>
       <r>   -9.2923    1.0000 </r>
       <r>   -9.2746    1.0000 </r>
       <r>   -9.2561    1.0000 </r>
       <r>   -9.2309    1.0000 </r>
       <r>   -9.1903    1.0000 </r>
       <r>   -9.1646    1.0000 </r>
       <r>   -9.1305    1.0000 </r>
       <r>   -9.1156    1.0000 </r>
       <r>   -9.0646    1.0000 </r>
       <r>   -9.0549    1.0000 </r>
       <r>   -9.0136    1.0000 </r>
       <r>   -8.9900    1.0000 </r>
       <r>   -8.9558    1.0000 </r>
       <r>   -8.9160    1.0000 </r>
       <r>   -8.9011    1.0000 </r>
       <r>   -8.8652    1.0000 </r>
       <r>   -8.8422    1.0000 </r>
       <r>   -8.7378    1.0000 </r>
       <r>   -8.6884    1.0000 </r>
       <r>   -8.6570    1.0000 </r>
       <r>   -8.6384    1.0000 </r>
       <r>   -8.5650    1.0000 </r>
       <r>   -8.5118    1.0000 </r>
       <r>   -8.4471    1.0000 </r>
       <r>   -8.3920    1.0000 </r>
       <r>   -8.0747    1.0000 </r>
       <r>   -8.0012    1.0000 </r>
       <r>   -7.8718    1.0000 </r>
       <r>   -7.7943    1.0000 </r>
       <r>   -7.7498    1.0000 </r>
       <r>   -7.6627    1.0000 </r>
       <r>   -7.5426    1.0000 </r>
       <r>   -7.5233    1.0000 </r>
       <r>   -7.4834    1.0000 </r>
       <r>   -7.3887    1.0000 </r>
       <r>   -7.2519    1.0000 </r>
       <r>   -7.1586    1.0000 </r>
       <r>   -7.0981    1.0000 </r>
       <r>   -6.9034    1.0000 </r>
       <r>   -6.8094    1.0000 </r>
       <r>   -6.7784    1.0000 </r>
       <r>   -6.6849    1.0000 </r>
       <r>   -6.5262    1.0000 </r>
       <r>   -6.4394    1.0000 </r>
       <r>   -6.2563    1.0000 </r>
       <r>   -6.1552    1.0000 </r>
       <r>   -6.0304    1.0000 </r>
       <r>   -5.9803    1.0000 </r>
       <r>   -5.9573    1.0000 </r>
       <r>   -5.9133    1.0000 </r>
       <r>   -5.7862    1.0000 </r>
       <r>   -5.7560    1.0000 </r>
       <r>   -5.1456    1.0000 </r>
       <r>   -4.9233    1.0000 </r>
       <r>   -4.8897    1.0000 </r>
       <r>   -4.6277    1.0000 </r>
       <r>   -4.5048    1.0000 </r>
       <r>   -4.4907    1.0000 </r>
       <r>   -4.4238    1.0000 </r>
       <r>   -4.4002    1.0000 </r>
       <r>   -3.7437    1.0000 </r>
       <r>   -3.6667    0.9999 </r>
       <r>   -3.2268    0.7083 </r>
       <r>   -3.0063    0.1562 </r>
       <r>   -2.6986    0.0007 </r>
       <r>   -2.6268    0.0001 </r>
       <r>   -2.5530    0.0000 </r>
       <r>   -2.1889    0.0000 </r>
       <r>   -2.0124    0.0000 </r>
       <r>   -1.6613    0.0000 </r>
       <r>   -1.5924    0.0000 </r>
       <r>   -1.5058    0.0000 </r>
       <r>   -1.4493    0.0000 </r>
       <r>   -1.4109    0.0000 </r>
       <r>   -1.3623    0.0000 </r>
       <r>   -1.2072    0.0000 </r>
       <r>   -0.9917    0.0000 </r>
       <r>   -0.8171    0.0000 </r>
       <r>   -0.6711    0.0000 </r>
       <r>   -0.5259    0.0000 </r>
       <r>   -0.4216    0.0000 </r>
       <r>   -0.0517    0.0000 </r>
       <r>    0.0725    0.0000 </r>
       <r>    0.1457    0.0000 </r>
       <r>    0.2066    0.0000 </r>
       <r>    0.2915    0.0000 </r>
       <r>    0.6090    0.0000 </r>
       <r>    0.6401    0.0000 </r>
       <r>    0.7090    0.0000 </r>
       <r>    0.7221    0.0000 </r>
       <r>    0.8340    0.0000 </r>
       <r>    0.9189    0.0000 </r>
       <r>    0.9237    0.0000 </r>
       <r>    0.9839    0.0000 </r>
       <r>    0.9893    0.0000 </r>
       <r>    1.1176    0.0000 </r>
       <r>    1.1504    0.0000 </r>
       <r>    1.1592    0.0000 </r>
       <r>    1.2186    0.0000 </r>
       <r>    1.3094    0.0000 </r>
       <r>    1.3140    0.0000 </r>
       <r>    1.3305    0.0000 </r>
       <r>    1.4049    0.0000 </r>
       <r>    1.4615    0.0000 </r>
       <r>    1.5544    0.0000 </r>
       <r>    1.5677    0.0000 </r>
       <r>    1.6978    0.0000 </r>
       <r>    1.7281    0.0000 </r>
       <r>    1.7292    0.0000 </r>
       <r>    1.7368    0.0000 </r>
       <r>    1.8723    0.0000 </r>
      </set>
      <set comment="kpoint 2">
       <r>  -23.1110    1.0000 </r>
       <r>  -23.0080    1.0000 </r>
       <r>  -22.8948    1.0000 </r>
       <r>  -22.6369    1.0000 </r>
       <r>  -22.5780    1.0000 </r>
       <r>  -22.5082    1.0000 </r>
       <r>  -22.2191    1.0000 </r>
       <r>  -22.0943    1.0000 </r>
       <r>  -22.0157    1.0000 </r>
       <r>  -21.8960    1.0000 </r>
       <r>  -21.8401    1.0000 </r>
       <r>  -21.6866    1.0000 </r>
       <r>  -21.3184    1.0000 </r>
       <r>  -21.1705    1.0000 </r>
       <r>  -21.0536    1.0000 </r>
       <r>  -20.9603    1.0000 </r>
       <r>  -20.6200    1.0000 </r>
       <r>  -20.5575    1.0000 </r>
       <r>  -20.4592    1.0000 </r>
       <r>  -20.3567    1.0000 </r>
       <r>  -20.2016    1.0000 </r>
       <r>  -20.1239    1.0000 </r>
       <r>  -20.0655    1.0000 </r>
       <r>  -19.9124    1.0000 </r>
       <r>  -19.8994    1.0000 </r>
       <r>  -19.5374    1.0000 </r>
       <r>  -19.4853    1.0000 </r>
       <r>  -19.1310    1.0000 </r>
       <r>  -19.0708    1.0000 </r>
       <r>  -18.9300    1.0000 </r>
       <r>  -18.6608    1.0000 </r>
       <r>  -18.5773    1.0000 </r>
       <r>  -18.5233    1.0000 </r>
       <r>  -18.2713    1.0000 </r>
       <r>  -18.1521    1.0000 </r>
       <r>  -18.1022    1.0000 </r>
       <r>  -18.0607    1.0000 </r>
       <r>  -17.9600    1.0000 </r>
       <r>  -17.7901    1.0000 </r>
       <r>  -17.7704    1.0000 </r>
       <r>  -17.4703    1.0000 </r>
       <r>  -17.4112    1.0000 </r>
       <r>  -17.2895    1.0000 </r>
       <r>  -17.1168    1.0000 </r>
       <r>  -17.0464    1.0000 </r>
       <r>  -16.5901    1.0000 </r>
       <r>  -16.3202    1.0000 </r>
       <r>  -16.2130    1.0000 </r>
       <r>  -16.1349    1.0000 </r>
       <r>  -15.8272    1.0000 </r>
       <r>  -15.7996    1.0000 </r>
       <r>  -15.6770    1.0000 </r>
       <r>  -15.5955    1.0000 </r>
       <r>  -15.3634    1.0000 </r>
       <r>  -15.2738    1.0000 </r>
       <r>  -15.1729    1.0000 </r>
       <r>  -15.1339    1.0000 </r>
       <r>  -15.0560    1.0000 </r>
       <r>  -14.9509    1.0000 </r>
       <r>  -14.9173    1.0000 </r>
       <r>  -14.8913    1.0000 </r>
       <r>  -14.7888    1.0000 </r>
       <r>  -14.6089    1.0000 </r>
       <r>  -14.3480    1.0000 </r>
       <r>  -14.3192    1.0000 </r>
       <r>  -14.1914    1.0000 </r>
       <r>  -13.9187    1.0000 </r>
       <r>  -13.8930    1.0000 </r>
       <r>  -13.3587    1.0000 </r>
       <r>  -13.2484    1.0000 </r>
       <r>  -13.2111    1.0000 </r>
       <r>  -13.1706    1.0000 </r>
       <r>  -12.9647    1.0000 </r>
       <r>  -12.8036    1.0000 </r>
       <r>  -12.7765    1.0000 </r>
       <r>  -12.7602    1.0000 </r>
       <r>  -12.7248    1.0000 </r>
       <r>  -12.5595    1.0000 </r>
       <r>  -12.4190    1.0000 </r>
       <r>  -12.3149    1.0000 </r>
       <r>  -12.1466    1.0000 </r>
       <r>  -12.0876    1.0000 </r>
       <r>  -11.9046    1.0000 </r>
       <r>  -11.8811    1.0000 </r>
       <r>  -11.6684    1.0000 </r>
       <r>  -11.6219    1.0000 </r>
       <r>  -11.5223    1.0000 </r>
       <r>  -11.3529    1.0000 </r>
       <r>  -11.2542    1.0000 </r>
       <r>  -11.2043    1.0000 </r>
       <r>  -11.0984    1.0000 </r>
       <r>  -11.0609    1.0000 </r>
       <r>  -11.0278    1.0000 </r>
       <r>  -10.9591    1.0000 </r>
       <r>  -10.9208    1.0000 </r>
       <r>  -10.8787    1.0000 </r>
       <r>  -10.8667    1.0000 </r>
       <r>  -10.8073    1.0000 </r>
       <r>  -10.7279    1.0000 </r>
       <r>  -10.5908    1.0000 </r>
       <r>  -10.5423    1.0000 </r>
       <r>  -10.5219    1.0000 </r>
       <r>  -10.4939    1.0000 </r>
       <r>  -10.4159    1.0000 </r>
       <r>  -10.4019    1.0000 </r>
       <r>  -10.3326    1.0000 </r>
       <r>  -10.1903    1.0000 </r>
       <r>  -10.0906    1.0000 </r>
       <r>  -10.0531    1.0000 </r>
       <r>  -10.0030    1.0000 </r>
       <r>   -9.9834    1.0000 </r>
       <r>   -9.9470    1.0000 </r>
       <r>   -9.8953    1.0000 </r>
       <r>   -9.8232    1.0000 </r>
       <r>   -9.7655    1.0000 </r>
       <r>   -9.7355    1.0000 </r>
       <r>   -9.6813    1.0000 </r>
       <r>   -9.6282    1.0000 </r>
       <r>   -9.5945    1.0000 </r>
       <r>   -9.5526    1.0000 </r>
       <r>   -9.5109    1.0000 </r>
       <r>   -9.4422    1.0000 </r>
       <r>   -9.3679    1.0000 </r>
       <r>   -9.3453    1.0000 </r>
       <r>   -9.3034    1.0000 </r>
       <r>   -9.2068    1.0000 </r>
       <r>   -8.9641    1.0000 </r>
       <r>   -8.8907    1.0000 </r>
       <r>   -8.8234    1.0000 </r>
       <r>   -8.7741    1.0000 </r>
       <r>   -8.7344    1.0000 </r>
       <r>   -8.6812    1.0000 </r>
       <r>   -8.6259    1.0000 </r>
       <r>   -8.5742    1.0000 </r>
       <r>   -8.5491    1.0000 </r>
       <r>   -8.5132    1.0000 </r>
       <r>   -8.4619    1.0000 </r>
       <r>   -8.4069    1.0000 </r>
       <r>   -8.3410    1.0000 </r>
       <r>   -8.2662    1.0000 </r>
       <r>   -8.1952    1.0000 </r>
       <r>   -8.1614    1.0000 </r>
       <r>   -8.1127    1.0000 </r>
       <r>   -8.0964    1.0000 </r>
       <r>   -8.0503    1.0000 </r>
       <r>   -7.9825    1.0000 </r>
       <r>   -7.9439    1.0000 </r>
       <r>   -7.8678    1.0000 </r>
       <r>   -7.7858    1.0000 </r>
       <r>   -7.6625    1.0000 </r>
       <r>   -7.6023    1.0000 </r>
       <r>   -7.5335    1.0000 </r>
       <r>   -7.4588    1.0000 </r>
       <r>   -7.4054    1.0000 </r>
       <r>   -7.3813    1.0000 </r>
       <r>   -7.3166    1.0000 </r>
       <r>   -7.1226    1.0000 </r>
       <r>   -7.0706    1.0000 </r>
       <r>   -7.0268    1.0000 </r>
       <r>   -6.8943    1.0000 </r>
       <r>   -6.8614    1.0000 </r>
       <r>   -6.6415    1.0000 </r>
       <r>   -6.5913    1.0000 </r>
       <r>   -6.5546    1.0000 </r>
       <r>   -6.4820    1.0000 </r>
       <r>   -6.1915    1.0000 </r>
       <r>   -6.1596    1.0000 </r>
       <r>   -6.0809    1.0000 </r>
       <r>   -6.0278    1.0000 </r>
       <r>   -5.9982    1.0000 </r>
       <r>   -5.8580    1.0000 </r>
       <r>   -5.7702    1.0000 </r>
       <r>   -5.7361    1.0000 </r>
       <r>   -5.7131    1.0000 </r>
       <r>   -5.5198    1.0000 </r>
       <r>   -5.4882    1.0000 </r>
       <r>   -5.1634    1.0000 </r>
       <r>   -5.1303    1.0000 </r>
       <r>   -4.7396    1.0000 </r>
       <r>   -4.6647    1.0000 </r>
       <r>   -4.4884    1.0000 </r>
       <r>   -4.4586    1.0000 </r>
       <r>   -4.4208    1.0000 </r>
       <r>   -3.4283    0.9758 </r>
       <r>   -2.9602    0.0907 </r>
       <r>   -2.5692    0.0000 </r>
       <r>   -2.1272    0.0000 </r>
       <r>   -2.0306    0.0000 </r>
       <r>   -1.5693    0.0000 </r>
       <r>   -1.4985    0.0000 </r>
       <r>   -1.4454    0.0000 </r>
       <r>   -1.3320    0.0000 </r>
       <r>   -1.3261    0.0000 </r>
       <r>   -1.2482    0.0000 </r>
       <r>   -1.1129    0.0000 </r>
       <r>   -0.9835    0.0000 </r>
       <r>   -0.9148    0.0000 </r>
       <r>   -0.8219    0.0000 </r>
       <r>   -0.6555    0.0000 </r>
       <r>   -0.3940    0.0000 </r>
       <r>   -0.2238    0.0000 </r>
       <r>   -0.1033    0.0000 </r>
       <r>   -0.0000    0.0000 </r>
       <r>    0.0513    0.0000 </r>
       <r>    0.1273    0.0000 </r>
       <r>    0.1959    0.0000 </r>
       <r>    0.2808    0.0000 </r>
       <r>    0.3232    0.0000 </r>
       <r>    0.3414    0.0000 </r>
       <r>    0.7821    0.0000 </r>
       <r>    0.8052    0.0000 </r>
       <r>    0.8516    0.0000 </r>
       <r>    1.0558    0.0000 </r>
       <r>    1.0607    0.0000 </r>
       <r>    1.0897    0.0000 </r>
       <r>    1.1268    0.0000 </r>
       <r>    1.1927    0.0000 </r>
       <r>    1.2635    0.0000 </r>
       <r>    1.2925    0.0000 </r>
       <r>    1.2992    0.0000 </r>
       <r>    1.3546    0.0000 </r>
       <r>    1.3615    0.0000 </r>
       <r>    1.3944    0.0000 </r>
       <r>    1.4503    0.0000 </r>
       <r>    1.4532    0.0000 </r>
       <r>    1.4721    0.0000 </r>
       <r>    1.5468    0.0000 </r>
       <r>    1.5967    0.0000 </r>
       <r>    1.6242    0.0000 </r>
       <r>    1.6944    0.0000 </r>
       <r>    1.7158    0.0000 </r>
       <r>    1.7497    0.0000 </r>
      </set>
      <set comment="kpoint 3">
       <r>  -22.9126    1.0000 </r>
       <r>  -22.8341    1.0000 </r>
       <r>  -22.7377    1.0000 </r>
       <r>  -22.6946    1.0000 </r>
       <r>  -22.6050    1.0000 </r>
       <r>  -22.5796    1.0000 </r>
       <r>  -22.3727    1.0000 </r>
       <r>  -22.3360    1.0000 </r>
       <r>  -22.2159    1.0000 </r>
       <r>  -22.1744    1.0000 </r>
       <r>  -21.7706    1.0000 </r>
       <r>  -21.7360    1.0000 </r>
       <r>  -21.5574    1.0000 </r>
       <r>  -21.5319    1.0000 </r>
       <r>  -20.9255    1.0000 </r>
       <r>  -20.8971    1.0000 </r>
       <r>  -20.7046    1.0000 </r>
       <r>  -20.6433    1.0000 </r>
       <r>  -19.9433    1.0000 </r>
       <r>  -19.9110    1.0000 </r>
       <r>  -19.6803    1.0000 </r>
       <r>  -19.5926    1.0000 </r>
       <r>  -19.5688    1.0000 </r>
       <r>  -19.5056    1.0000 </r>
       <r>  -19.4046    1.0000 </r>
       <r>  -19.3639    1.0000 </r>
       <r>  -19.3437    1.0000 </r>
       <r>  -19.2545    1.0000 </r>
       <r>  -19.0520    1.0000 </r>
       <r>  -19.0105    1.0000 </r>
       <r>  -18.9573    1.0000 </r>
       <r>  -18.8976    1.0000 </r>
       <r>  -18.6564    1.0000 </r>
       <r>  -18.6067    1.0000 </r>
       <r>  -18.4978    1.0000 </r>
       <r>  -18.3726    1.0000 </r>
       <r>  -18.3199    1.0000 </r>
       <r>  -18.2492    1.0000 </r>
       <r>  -18.1643    1.0000 </r>
       <r>  -18.0779    1.0000 </r>
       <r>  -17.7603    1.0000 </r>
       <r>  -17.7024    1.0000 </r>
       <r>  -17.6408    1.0000 </r>
       <r>  -17.5910    1.0000 </r>
       <r>  -16.9715    1.0000 </r>
       <r>  -16.8028    1.0000 </r>
       <r>  -16.3306    1.0000 </r>
       <r>  -16.2319    1.0000 </r>
       <r>  -16.0751    1.0000 </r>
       <r>  -16.0699    1.0000 </r>
       <r>  -15.9085    1.0000 </r>
       <r>  -15.8621    1.0000 </r>
       <r>  -15.3232    1.0000 </r>
       <r>  -15.2863    1.0000 </r>
       <r>  -15.1239    1.0000 </r>
       <r>  -14.9908    1.0000 </r>
       <r>  -14.8991    1.0000 </r>
       <r>  -14.8220    1.0000 </r>
       <r>  -14.7824    1.0000 </r>
       <r>  -14.7182    1.0000 </r>
       <r>  -14.0429    1.0000 </r>
       <r>  -13.8886    1.0000 </r>
       <r>  -13.7459    1.0000 </r>
       <r>  -13.7034    1.0000 </r>
       <r>  -13.6593    1.0000 </r>
       <r>  -13.6514    1.0000 </r>
       <r>  -13.5692    1.0000 </r>
       <r>  -13.5575    1.0000 </r>
       <r>  -13.5497    1.0000 </r>
       <r>  -13.4965    1.0000 </r>
       <r>  -13.4843    1.0000 </r>
       <r>  -13.4733    1.0000 </r>
       <r>  -13.4218    1.0000 </r>
       <r>  -13.3698    1.0000 </r>
       <r>  -13.1012    1.0000 </r>
       <r>  -13.0326    1.0000 </r>
       <r>  -12.3508    1.0000 </r>
       <r>  -12.3076    1.0000 </r>
       <r>  -12.1797    1.0000 </r>
       <r>  -12.1616    1.0000 </r>
       <r>  -12.0914    1.0000 </r>
       <r>  -12.0532    1.0000 </r>
       <r>  -11.9924    1.0000 </r>
       <r>  -11.9551    1.0000 </r>
       <r>  -11.8755    1.0000 </r>
       <r>  -11.8486    1.0000 </r>
       <r>  -11.7427    1.0000 </r>
       <r>  -11.7122    1.0000 </r>
       <r>  -11.6953    1.0000 </r>
       <r>  -11.5653    1.0000 </r>
       <r>  -11.2949    1.0000 </r>
       <r>  -11.2533    1.0000 </r>
       <r>  -11.1823    1.0000 </r>
       <r>  -11.1658    1.0000 </r>
       <r>  -11.0173    1.0000 </r>
       <r>  -10.9313    1.0000 </r>
       <r>  -10.7624    1.0000 </r>
       <r>  -10.7429    1.0000 </r>
       <r>  -10.7012    1.0000 </r>
       <r>  -10.6712    1.0000 </r>
       <r>  -10.6134    1.0000 </r>
       <r>  -10.5735    1.0000 </r>
       <r>  -10.5393    1.0000 </r>
       <r>  -10.5118    1.0000 </r>
       <r>  -10.4991    1.0000 </r>
       <r>  -10.4373    1.0000 </r>
       <r>  -10.3731    1.0000 </r>
       <r>  -10.2926    1.0000 </r>
       <r>  -10.2767    1.0000 </r>
       <r>  -10.2745    1.0000 </r>
       <r>  -10.2469    1.0000 </r>
       <r>  -10.2150    1.0000 </r>
       <r>  -10.1003    1.0000 </r>
       <r>  -10.0898    1.0000 </r>
       <r>  -10.0578    1.0000 </r>
[...]
       <r>   -22.6779    15.8074     7.4570 </r>
       <r>   -22.5810    17.1742     9.1212 </r>
       <r>   -22.4841    16.2157    10.6925 </r>
       <r>   -22.3872    13.7294    12.0228 </r>
       <r>   -22.2903    12.3248    13.2171 </r>
       <r>   -22.1934    12.8123    14.4585 </r>
       <r>   -22.0965    13.7832    15.7941 </r>
       <r>   -21.9996    14.0622    17.1567 </r>
       <r>   -21.9027    13.7893    18.4929 </r>
       <r>   -21.8058    13.2795    19.7796 </r>
       <r>   -21.7089    12.5013    20.9910 </r>
       <r>   -21.6120    11.6948    22.1242 </r>
       <r>   -21.5151    11.4138    23.2302 </r>
       <r>   -21.4182    11.9437    24.3875 </r>
       <r>   -21.3213    12.9579    25.6431 </r>
       <r>   -21.2244    13.9270    26.9926 </r>
       <r>   -21.1275    14.8621    28.4327 </r>
       <r>   -21.0306    15.6213    29.9464 </r>
       <r>   -20.9337    15.1233    31.4118 </r>
       <r>   -20.8368    13.1755    32.6885 </r>
       <r>   -20.7399    11.7564    33.8277 </r>
       <r>   -20.6430    12.3051    35.0200 </r>
       <r>   -20.5461    13.5376    36.3318 </r>
       <r>   -20.4492    13.8251    37.6715 </r>
       <r>   -20.3523    13.4987    38.9795 </r>
       <r>   -20.2554    13.7771    40.3144 </r>
       <r>   -20.1585    14.9818    41.7661 </r>
       <r>   -20.0616    16.1433    43.3304 </r>
       <r>   -19.9647    16.1192    44.8923 </r>
       <r>   -19.8678    14.5057    46.2979 </r>
       <r>   -19.7709    12.3146    47.4912 </r>
       <r>   -19.6740    11.9227    48.6465 </r>
       <r>   -19.5771    14.0472    50.0076 </r>
       <r>   -19.4802    16.1485    51.5724 </r>
       <r>   -19.3833    15.8392    53.1072 </r>
       <r>   -19.2864    13.9411    54.4580 </r>
       <r>   -19.1895    12.9324    55.7112 </r>
       <r>   -19.0926    13.7214    57.0407 </r>
       <r>   -18.9957    14.6783    58.4630 </r>
       <r>   -18.8988    13.9769    59.8174 </r>
       <r>   -18.8019    12.6966    61.0477 </r>
       <r>   -18.7050    13.5926    62.3648 </r>
       <r>   -18.6081    16.2441    63.9388 </r>
       <r>   -18.5112    17.2993    65.6151 </r>
       <r>   -18.4143    16.1583    67.1808 </r>
       <r>   -18.3174    15.5643    68.6890 </r>
       <r>   -18.2205    16.7158    70.3087 </r>
       <r>   -18.1236    17.7301    72.0267 </r>
       <r>   -18.0267    16.6504    73.6401 </r>
       <r>   -17.9299    14.2666    75.0225 </r>
       <r>   -17.8330    13.0401    76.2861 </r>
       <r>   -17.7361    13.2775    77.5727 </r>
       <r>   -17.6392    13.0477    78.8370 </r>
       <r>   -17.5423    11.9651    79.9964 </r>
       <r>   -17.4454    11.3456    81.0957 </r>
       <r>   -17.3485    11.3592    82.1964 </r>
       <r>   -17.2516    11.3140    83.2927 </r>
       <r>   -17.1547    11.2591    84.3837 </r>
       <r>   -17.0578    11.1781    85.4669 </r>
       <r>   -16.9609    10.5493    86.4891 </r>
       <r>   -16.8640     9.7995    87.4386 </r>
       <r>   -16.7671    10.1163    88.4189 </r>
       <r>   -16.6702    11.7383    89.5563 </r>
       <r>   -16.5733    13.6369    90.8777 </r>
       <r>   -16.4764    14.9111    92.3226 </r>
       <r>   -16.3795    15.9427    93.8674 </r>
       <r>   -16.2826    17.1210    95.5264 </r>
       <r>   -16.1857    17.7727    97.2485 </r>
       <r>   -16.0888    17.2368    98.9188 </r>
       <r>   -15.9919    15.9329   100.4626 </r>
       <r>   -15.8950    15.0858   101.9244 </r>
       <r>   -15.7981    14.8807   103.3663 </r>
       <r>   -15.7012    14.1099   104.7336 </r>
       <r>   -15.6043    12.4320   105.9382 </r>
       <r>   -15.5074    11.3514   107.0381 </r>
       <r>   -15.4105    12.8313   108.2815 </r>
       <r>   -15.3136    16.7123   109.9009 </r>
       <r>   -15.2167    20.4023   111.8778 </r>
       <r>   -15.1198    22.1863   114.0276 </r>
       <r>   -15.0229    22.6051   116.2180 </r>
       <r>   -14.9260    22.1900   118.3682 </r>
       <r>   -14.8291    20.1539   120.3211 </r>
       <r>   -14.7322    16.0813   121.8793 </r>
       <r>   -14.6353    11.3600   122.9801 </r>
       <r>   -14.5384     8.0898   123.7640 </r>
       <r>   -14.4415     7.5563   124.4962 </r>
       <r>   -14.3446     9.2776   125.3952 </r>
       <r>   -14.2477    11.2959   126.4897 </r>
       <r>   -14.1508    12.4569   127.6968 </r>
       <r>   -14.0539    13.2570   128.9814 </r>
       <r>   -13.9570    14.2931   130.3663 </r>
       <r>   -13.8601    15.3397   131.8527 </r>
       <r>   -13.7632    16.1615   133.4188 </r>
       <r>   -13.6663    17.2752   135.0927 </r>
       <r>   -13.5694    18.8356   136.9178 </r>
       <r>   -13.4725    19.9453   138.8505 </r>
       <r>   -13.3756    19.9281   140.7815 </r>
       <r>   -13.2787    19.3398   142.6555 </r>
       <r>   -13.1818    18.7219   144.4696 </r>
       <r>   -13.0849    17.5720   146.1723 </r>
       <r>   -12.9880    15.8595   147.7091 </r>
       <r>   -12.8911    14.8816   149.1511 </r>
       <r>   -12.7942    15.2491   150.6287 </r>
       <r>   -12.6973    15.3082   152.1120 </r>
       <r>   -12.6004    13.8393   153.4531 </r>
       <r>   -12.5035    12.4397   154.6584 </r>
       <r>   -12.4066    12.8519   155.9038 </r>
       <r>   -12.3097    14.9036   157.3479 </r>
       <r>   -12.2128    17.9321   159.0855 </r>
       <r>   -12.1159    21.3348   161.1528 </r>
       <r>   -12.0190    23.8185   163.4608 </r>
       <r>   -11.9221    24.3277   165.8181 </r>
       <r>   -11.8252    23.1731   168.0635 </r>
       <r>   -11.7283    21.4454   170.1416 </r>
       <r>   -11.6315    19.5712   172.0380 </r>
       <r>   -11.5346    17.1952   173.7042 </r>
       <r>   -11.4377    15.2966   175.1864 </r>
       <r>   -11.3408    16.0638   176.7429 </r>
       <r>   -11.2439    19.8257   178.6640 </r>
       <r>   -11.1470    24.7008   181.0575 </r>
       <r>   -11.0501    28.9281   183.8606 </r>
       <r>   -10.9532    31.5954   186.9221 </r>
       <r>   -10.8563    32.5995   190.0810 </r>
       <r>   -10.7594    33.1758   193.2957 </r>
       <r>   -10.6625    34.9290   196.6802 </r>
       <r>   -10.5656    37.6502   200.3285 </r>
       <r>   -10.4687    38.9361   204.1013 </r>
       <r>   -10.3718    37.2051   207.7064 </r>
       <r>   -10.2749    34.2927   211.0293 </r>
       <r>   -10.1780    33.2948   214.2556 </r>
       <r>   -10.0811    34.6370   217.6118 </r>
       <r>    -9.9842    35.5950   221.0609 </r>
       <r>    -9.8873    34.6148   224.4151 </r>
       <r>    -9.7904    33.6937   227.6799 </r>
       <r>    -9.6935    34.3708   231.0104 </r>
       <r>    -9.5966    35.7310   234.4727 </r>
       <r>    -9.4997    37.3079   238.0878 </r>
       <r>    -9.4028    39.4545   241.9108 </r>
       <r>    -9.3059    40.5096   245.8362 </r>
       <r>    -9.2090    37.9615   249.5146 </r>
       <r>    -9.1121    33.2228   252.7338 </r>
       <r>    -9.0152    30.6818   255.7068 </r>
       <r>    -8.9183    31.9043   258.7983 </r>
       <r>    -8.8214    34.4878   262.1401 </r>
       <r>    -8.7245    35.7826   265.6074 </r>
       <r>    -8.6276    35.2263   269.0208 </r>
       <r>    -8.5307    33.6904   272.2853 </r>
       <r>    -8.4338    32.0415   275.3901 </r>
       <r>    -8.3369    30.9006   278.3843 </r>
       <r>    -8.2400    30.8076   281.3695 </r>
       <r>    -8.1431    31.2233   284.3950 </r>
       <r>    -8.0462    30.5334   287.3537 </r>
       <r>    -7.9493    28.3570   290.1014 </r>
       <r>    -7.8524    26.1109   292.6315 </r>
       <r>    -7.7555    25.2001   295.0734 </r>
       <r>    -7.6586    26.1909   297.6112 </r>
       <r>    -7.5617    28.3639   300.3596 </r>
       <r>    -7.4648    29.7053   303.2380 </r>
       <r>    -7.3679    28.9255   306.0409 </r>
       <r>    -7.2710    27.1062   308.6674 </r>
       <r>    -7.1741    26.4240   311.2279 </r>
       <r>    -7.0772    27.3015   313.8733 </r>
       <r>    -6.9803    27.9570   316.5823 </r>
       <r>    -6.8834    27.1288   319.2111 </r>
       <r>    -6.7865    25.3929   321.6716 </r>
       <r>    -6.6896    24.0663   324.0036 </r>
       <r>    -6.5927    23.4084   326.2718 </r>
       <r>    -6.4958    21.9998   328.4036 </r>
       <r>    -6.3989    19.4586   330.2891 </r>
       <r>    -6.3020    17.8787   332.0215 </r>
       <r>    -6.2051    18.8892   333.8518 </r>
       <r>    -6.1082    21.7372   335.9581 </r>
       <r>    -6.0113    24.6013   338.3420 </r>
       <r>    -5.9144    26.1787   340.8786 </r>
       <r>    -5.8175    26.2737   343.4245 </r>
       <r>    -5.7206    24.8450   345.8320 </r>
       <r>    -5.6237    21.5545   347.9206 </r>
       <r>    -5.5268    17.0371   349.5714 </r>
       <r>    -5.4300    12.7512   350.8070 </r>
       <r>    -5.3331    10.4149   351.8162 </r>
       <r>    -5.2362    11.0351   352.8855 </r>
       <r>    -5.1393    12.6016   354.1065 </r>
       <r>    -5.0424    11.9573   355.2652 </r>
       <r>    -4.9455     9.4473   356.1806 </r>
       <r>    -4.8486     7.9147   356.9475 </r>
       <r>    -4.7517     8.6427   357.7850 </r>
       <r>    -4.6548    11.0394   358.8547 </r>
       <r>    -4.5579    14.0938   360.2204 </r>
       <r>    -4.4610    15.9946   361.7702 </r>
       <r>    -4.3641    14.3308   363.1588 </r>
       <r>    -4.2672     9.5419   364.0834 </r>
       <r>    -4.1703     5.2070   364.5880 </r>
       <r>    -4.0734     3.3060   364.9083 </r>
       <r>    -3.9765     2.8891   365.1883 </r>
       <r>    -3.8796     2.8308   365.4626 </r>
       <r>    -3.7827     3.0024   365.7535 </r>
       <r>    -3.6858     3.3223   366.0754 </r>
       <r>    -3.5889     3.5043   366.4150 </r>
       <r>    -3.4920     3.6498   366.7687 </r>
       <r>    -3.3951     3.8001   367.1369 </r>
       <r>    -3.2982     3.6463   367.4902 </r>
       <r>    -3.2013     3.3803   367.8178 </r>
       <r>    -3.1044     3.6546   368.1719 </r>
       <r>    -3.0075     4.5249   368.6103 </r>
       <r>    -2.9106     5.2733   369.1213 </r>
       <r>    -2.8137     5.8581   369.6890 </r>
       <r>    -2.7168     7.1786   370.3845 </r>
       <r>    -2.6199     8.7777   371.2351 </r>
       <r>    -2.5230     8.6110   372.0695 </r>
       <r>    -2.4261     6.2723   372.6773 </r>
       <r>    -2.3292     4.1549   373.0799 </r>
       <r>    -2.2323     4.4044   373.5067 </r>
       <r>    -2.1354     6.3788   374.1247 </r>
       <r>    -2.0385     7.6210   374.8632 </r>
       <r>    -1.9416     6.8300   375.5250 </r>
       <r>    -1.8447     5.6699   376.0744 </r>
       <r>    -1.7478     7.0764   376.7601 </r>
       <r>    -1.6509    11.9035   377.9136 </r>
       <r>    -1.5540    17.9113   379.6491 </r>
       <r>    -1.4571    21.9162   381.7728 </r>
       <r>    -1.3602    22.5689   383.9597 </r>
       <r>    -1.2633    20.9089   385.9857 </r>
       <r>    -1.1664    18.8150   387.8088 </r>
       <r>    -1.0695    17.4950   389.5041 </r>
       <r>    -0.9726    16.7960   391.1316 </r>
       <r>    -0.8757    15.8224   392.6648 </r>
       <r>    -0.7788    14.5529   394.0749 </r>
       <r>    -0.6819    13.8718   395.4191 </r>
       <r>    -0.5850    13.7101   396.7475 </r>
       <r>    -0.4881    13.0200   398.0092 </r>
       <r>    -0.3912    11.7109   399.1439 </r>
       <r>    -0.2943    11.0943   400.2190 </r>
       <r>    -0.1974    12.5085   401.4310 </r>
       <r>    -0.1005    15.7167   402.9539 </r>
       <r>    -0.0036    19.0625   404.8011 </r>
       <r>     0.0933    21.2271   406.8579 </r>
       <r>     0.1902    22.0680   408.9963 </r>
       <r>     0.2871    21.8063   411.1093 </r>
       <r>     0.3840    20.3575   413.0819 </r>
       <r>     0.4809    18.5418   414.8785 </r>
       <r>     0.5778    18.6163   416.6824 </r>
       <r>     0.6747    21.7178   418.7869 </r>
       <r>     0.7715    25.9444   421.3008 </r>
       <r>     0.8684    28.8872   424.1000 </r>
       <r>     0.9653    31.3312   427.1359 </r>
       <r>     1.0622    35.6891   430.5941 </r>
       <r>     1.1591    41.9314   434.6572 </r>
       <r>     1.2560    47.9211   439.3007 </r>
       <r>     1.3529    51.4545   444.2865 </r>
       <r>     1.4498    51.0461   449.2328 </r>
       <r>     1.5467    46.6906   453.7571 </r>
       <r>     1.6436    39.4890   457.5835 </r>
       <r>     1.7405    30.3153   460.5210 </r>
       <r>     1.8374    19.9185   462.4511 </r>
       <r>     1.9343    10.3960   463.4584 </r>
       <r>     2.0312     4.0963   463.8554 </r>
       <r>     2.1281     1.1941   463.9711 </r>
       <r>     2.2250     0.2549   463.9958 </r>
       <r>     2.3219     0.0391   463.9996 </r>
       <r>     2.4188     0.0042   464.0000 </r>
       <r>     2.5157     0.0003   464.0000 </r>
       <r>     2.6126     0.0000   464.0000 </r>
       <r>     2.7095     0.0000   464.0000 </r>
       <r>     2.8064     0.0000   464.0000 </r>
       <r>     2.9033     0.0000   464.0000 </r>
       <r>     3.0002     0.0000   464.0000 </r>
       <r>     3.0971     0.0000   464.0000 </r>
       <r>     3.1940     0.0000   464.0000 </r>
       <r>     3.2909     0.0000   464.0000 </r>
       <r>     3.3878     0.0000   464.0000 </r>
       <r>     3.4847     0.0000   464.0000 </r>
       <r>     3.5816     0.0000   464.0000 </r>
       <r>     3.6785     0.0000   464.0000 </r>
       <r>     3.7754     0.0000   464.0000 </r>
       <r>     3.8723     0.0000   464.0000 </r>
      </set>
     </set>
    </array>
   </total>
  </dos>
 </calculation>
 <structure name="finalpos" >
  <crystal>
   <varray name="basis" >
    <v>      28.05000000       0.00000000       0.00000000 </v>
    <v>       0.00000000       8.10000000       0.00000000 </v>
    <v>       0.00000000       0.00000000      33.50000000 </v>
   </varray>
   <i name="volume">   7611.36750000 </i>
   <varray name="rec_basis" >
    <v>       0.03565062       0.00000000       0.00000000 </v>
    <v>       0.00000000       0.12345679       0.00000000 </v>
    <v>       0.00000000       0.00000000       0.02985075 </v>
   </varray>
  </crystal>
  <varray name="positions" >
   <v>       0.00940310       0.09894630       0.50164179 </v>
   <v>       0.00810025       0.27398642       0.49779104 </v>
   <v>       0.04901854       0.02013272       0.48454030 </v>
   <v>       0.04889697       0.35774321       0.48332239 </v>
   <v>       0.09123173       0.10317840       0.47271343 </v>
   <v>       0.09284884       0.27285556       0.47163582 </v>
   <v>       0.13607665       0.02337481       0.46645075 </v>
   <v>       0.13455401       0.35489136       0.46249552 </v>
   <v>       0.17869875       0.10037790       0.45886567 </v>
   <v>       0.17947736       0.27411728       0.45780000 </v>
   <v>       0.22406168       0.02387259       0.45580896 </v>
   <v>       0.22360927       0.35885062       0.45792836 </v>
   <v>       0.26824029       0.10640235       0.45491045 </v>
   <v>       0.26802317       0.27523580       0.45732537 </v>
   <v>       0.31364171       0.02949333       0.46166866 </v>
   <v>       0.31237219       0.35420370       0.46077910 </v>
   <v>       0.35721569       0.10631494       0.46598209 </v>
   <v>       0.35673440       0.27411728       0.46782388 </v>
   <v>       0.40242781       0.02372432       0.46958507 </v>
   <v>       0.39957932       0.35914198       0.47938507 </v>
   <v>       0.44260250       0.09966025       0.48564776 </v>
   <v>       0.44175758       0.27606420       0.48741791 </v>
   <v>       0.48560071       0.02007222       0.49194328 </v>
   <v>       0.48439929       0.35758889       0.49529851 </v>
   <v>       0.52363280       0.09927222       0.51028358 </v>
   <v>       0.52465597       0.27210864       0.51226567 </v>
   <v>       0.56752585       0.02197617       0.51867761 </v>
   <v>       0.56678431       0.35232840       0.52289552 </v>
   <v>       0.61136542       0.10206852       0.53034627 </v>
   <v>       0.60990374       0.27153457       0.53283582 </v>
   <v>       0.65557576       0.02387556       0.53442687 </v>
   <v>       0.65307665       0.35202840       0.54228657 </v>
   <v>       0.69996791       0.10255185       0.54019104 </v>
   <v>       0.69832442       0.27370000       0.54452239 </v>
   <v>       0.74337255       0.02347753       0.54781194 </v>
   <v>       0.74122638       0.35414938       0.54827164 </v>
   <v>       0.78710873       0.10755840       0.54811940 </v>
   <v>       0.78688414       0.27474568       0.54448955 </v>
   <v>       0.83114795       0.02710790       0.54534030 </v>
   <v>       0.82919430       0.35938519       0.53359403 </v>
   <v>       0.87538681       0.11075765       0.53400896 </v>
   <v>       0.87295900       0.27908519       0.52876716 </v>
   <v>       0.91693048       0.02117827       0.52318209 </v>
   <v>       0.91587522       0.35949012       0.51694925 </v>
   <v>       0.96060606       0.10013605       0.51320299 </v>
   <v>       0.95948307       0.26919136       0.51230448 </v>
   <v>       0.00400845       0.60842716       0.48527761 </v>
   <v>       0.00502873       0.78010617       0.48702985 </v>
   <v>       0.04626096       0.52586420       0.47616716 </v>
   <v>       0.04750410       0.85594568       0.48036119 </v>
   <v>       0.08802246       0.60256420       0.46287463 </v>
   <v>       0.09151765       0.76933704       0.46819701 </v>
   <v>       0.13268200       0.52361728       0.45582388 </v>
   <v>       0.13305241       0.85330123       0.46499104 </v>
   <v>       0.17469055       0.60671852       0.45599104 </v>
   <v>       0.17662210       0.77807407       0.45663284 </v>
   <v>       0.22100463       0.52420494       0.45658806 </v>
   <v>       0.22317469       0.85731852       0.45529552 </v>
   <v>       0.26678039       0.60558025       0.45480896 </v>
   <v>       0.26796078       0.77157037       0.45361493 </v>
   <v>       0.31236185       0.52098395       0.45843881 </v>
   <v>       0.31298645       0.85774568       0.45828955 </v>
   <v>       0.35611943       0.60884198       0.46120896 </v>
   <v>       0.35696970       0.77751481       0.45782687 </v>
   <v>       0.40060606       0.52649877       0.46914030 </v>
   <v>       0.40242781       0.85637531       0.46694925 </v>
   <v>       0.44594652       0.60155556       0.47484179 </v>
   <v>       0.44655971       0.76830000       0.47642388 </v>
   <v>       0.48766845       0.52188765       0.48593433 </v>
   <v>       0.48687344       0.85191235       0.48836716 </v>
   <v>       0.52965062       0.60061358       0.49877910 </v>
   <v>       0.53021034       0.77280494       0.49702388 </v>
   <v>       0.56937255       0.52074198       0.51818507 </v>
   <v>       0.56999643       0.85295309       0.51424478 </v>
   <v>       0.60907665       0.59742346       0.53281194 </v>
   <v>       0.61024599       0.77297160       0.52756716 </v>
   <v>       0.65302674       0.52252716       0.54372836 </v>
   <v>       0.65222460       0.85440247       0.53675224 </v>
   <v>       0.69679857       0.60777160       0.54730149 </v>
   <v>       0.69739394       0.77726173       0.54423582 </v>
   <v>       0.74116934       0.52378889       0.54945373 </v>
   <v>       0.74212478       0.85652963       0.54795821 </v>
   <v>       0.78592513       0.60466296       0.54675224 </v>
   <v>       0.78649554       0.77196296       0.55097015 </v>
   <v>       0.82911943       0.53163457       0.53569552 </v>
   <v>       0.83113369       0.85416543       0.54432239 </v>
   <v>       0.87224242       0.60841481       0.52295224 </v>
   <v>       0.87164349       0.77086173       0.52847761 </v>
   <v>       0.91414260       0.52504074       0.51095224 </v>
   <v>       0.91484848       0.85802099       0.51697612 </v>
   <v>       0.95683779       0.60800494       0.50182388 </v>
   <v>       0.95557576       0.77714444       0.50318209 </v>
  </varray>
 </structure>
</modeling>
