unknown system                          
            1
    28.050000    0.000000    0.000000
     0.000000    8.100000    0.000000
     0.000000    0.000000   33.500000
   C 
    92
Direct configuration=     1
   0.00940310  0.09894630  0.50164179
   0.00810025  0.27398642  0.49779104
   0.04901854  0.02013272  0.48454030
   0.04889697  0.35774321  0.48332239
   0.09123173  0.10317840  0.47271343
   0.09284884  0.27285556  0.47163582
   0.13607665  0.02337481  0.46645075
   0.13455401  0.35489136  0.46249552
   0.17869875  0.10037790  0.45886567
   0.17947736  0.27411728  0.45780000
   0.22406168  0.02387259  0.45580896
   0.22360927  0.35885062  0.45792836
   0.26824029  0.10640235  0.45491045
   0.26802317  0.27523580  0.45732537
   0.31364171  0.02949333  0.46166866
   0.31237219  0.35420370  0.46077910
   0.35721569  0.10631494  0.46598209
   0.35673440  0.27411728  0.46782388
   0.40242781  0.02372432  0.46958507
   0.39957932  0.35914198  0.47938507
   0.44260250  0.09966025  0.48564776
   0.44175758  0.27606420  0.48741791
   0.48560071  0.02007222  0.49194328
   0.48439929  0.35758889  0.49529851
   0.52363280  0.09927222  0.51028358
   0.52465597  0.27210864  0.51226567
   0.56752585  0.02197617  0.51867761
   0.56678431  0.35232840  0.52289552
   0.61136542  0.10206852  0.53034627
   0.60990374  0.27153457  0.53283582
   0.65557576  0.02387556  0.53442687
   0.65307665  0.35202840  0.54228657
   0.69996791  0.10255185  0.54019104
   0.69832442  0.27370000  0.54452239
   0.74337255  0.02347753  0.54781194
   0.74122638  0.35414938  0.54827164
   0.78710873  0.10755840  0.54811940
   0.78688414  0.27474568  0.54448955
   0.83114795  0.02710790  0.54534030
   0.82919430  0.35938519  0.53359403
   0.87538681  0.11075765  0.53400896
   0.87295900  0.27908519  0.52876716
   0.91693048  0.02117827  0.52318209
   0.91587522  0.35949012  0.51694925
   0.96060606  0.10013605  0.51320299
   0.95948307  0.26919136  0.51230448
   0.00400845  0.60842716  0.48527761
   0.00502873  0.78010617  0.48702985
   0.04626096  0.52586420  0.47616716
   0.04750410  0.85594568  0.48036119
   0.08802246  0.60256420  0.46287463
   0.09151765  0.76933704  0.46819701
   0.13268200  0.52361728  0.45582388
   0.13305241  0.85330123  0.46499104
   0.17469055  0.60671852  0.45599104
   0.17662210  0.77807407  0.45663284
   0.22100463  0.52420494  0.45658806
   0.22317469  0.85731852  0.45529552
   0.26678039  0.60558025  0.45480896
   0.26796078  0.77157037  0.45361493
   0.31236185  0.52098395  0.45843881
   0.31298645  0.85774568  0.45828955
   0.35611943  0.60884198  0.46120896
   0.35696970  0.77751481  0.45782687
   0.40060606  0.52649877  0.46914030
   0.40242781  0.85637531  0.46694925
   0.44594652  0.60155556  0.47484179
   0.44655971  0.76830000  0.47642388
   0.48766845  0.52188765  0.48593433
   0.48687344  0.85191235  0.48836716
   0.52965062  0.60061358  0.49877910
   0.53021034  0.77280494  0.49702388
   0.56937255  0.52074198  0.51818507
   0.56999643  0.85295309  0.51424478
   0.60907665  0.59742346  0.53281194
   0.61024599  0.77297160  0.52756716
   0.65302674  0.52252716  0.54372836
   0.65222460  0.85440247  0.53675224
   0.69679857  0.60777160  0.54730149
   0.69739394  0.77726173  0.54423582
   0.74116934  0.52378889  0.54945373
   0.74212478  0.85652963  0.54795821
   0.78592513  0.60466296  0.54675224
   0.78649554  0.77196296  0.55097015
   0.82911943  0.53163457  0.53569552
   0.83113369  0.85416543  0.54432239
   0.87224242  0.60841481  0.52295224
   0.87164349  0.77086173  0.52847761
   0.91414260  0.52504074  0.51095224
   0.91484848  0.85802099  0.51697612
   0.95683779  0.60800494  0.50182388
   0.95557576  0.77714444  0.50318209
