  92  92   0   0
  0.8273226E+02  0.2805000E-08  0.8100000E-09  0.3350000E-08  0.5000000E-15
   1.0000000000000000E-004
  CAR 
 unknown system                          
      3.91330784    -25.20813645  301     -3.12708877      1.00000000
    -25.208  0.0000E+00  0.0000E+00
    -25.111  0.0000E+00  0.0000E+00
    -25.014  0.0000E+00  0.0000E+00
    -24.917  0.0000E+00  0.0000E+00
    -24.820  0.0000E+00  0.0000E+00
    -24.723  0.0000E+00  0.0000E+00
    -24.626  0.0000E+00  0.0000E+00
    -24.529  0.0000E+00  0.0000E+00
    -24.432  0.0000E+00  0.0000E+00
    -24.334  0.4289E-14  0.4163E-15
    -24.237  0.8881E-12  0.8663E-13
    -24.140  0.1150E-09  0.1125E-10
    -24.043  0.9421E-08  0.9258E-09
    -23.946  0.4898E-06  0.4848E-07
    -23.849  0.1624E-04  0.1625E-05
    -23.752  0.3454E-03  0.3515E-04
    -23.655  0.4749E-02  0.4962E-03
    -23.558  0.4270E-01  0.4641E-02
    -23.461  0.2548E+00  0.2937E-01
    -23.364  0.1031E+01  0.1295E+00
    -23.267  0.2924E+01  0.4133E+00
    -23.170  0.6057E+01  0.1001E+01
    -23.073  0.9590E+01  0.1932E+01
    -22.975  0.1204E+02  0.3101E+01
    -22.878  0.1268E+02  0.4332E+01
    -22.781  0.1294E+02  0.5588E+01
    -22.684  0.1468E+02  0.7013E+01
    -22.587  0.1669E+02  0.8632E+01
    -22.490  0.1629E+02  0.1021E+02
    -22.393  0.1396E+02  0.1157E+02
    -22.296  0.1256E+02  0.1279E+02
    -22.199  0.1309E+02  0.1406E+02
    -22.102  0.1415E+02  0.1543E+02
    -22.005  0.1460E+02  0.1685E+02
    -21.908  0.1441E+02  0.1825E+02
    -21.811  0.1385E+02  0.1959E+02
    -21.714  0.1303E+02  0.2086E+02
    -21.616  0.1210E+02  0.2203E+02
    -21.519  0.1140E+02  0.2314E+02
    -21.422  0.1139E+02  0.2425E+02
    -21.325  0.1230E+02  0.2544E+02
    -21.228  0.1410E+02  0.2681E+02
    -21.131  0.1610E+02  0.2837E+02
    -21.034  0.1678E+02  0.3000E+02
    -20.937  0.1522E+02  0.3148E+02
    -20.840  0.1263E+02  0.3270E+02
    -20.743  0.1145E+02  0.3381E+02
    -20.646  0.1249E+02  0.3503E+02
    -20.549  0.1400E+02  0.3639E+02
    -20.452  0.1402E+02  0.3775E+02
    -20.355  0.1304E+02  0.3901E+02
    -20.257  0.1282E+02  0.4026E+02
    -20.160  0.1392E+02  0.4161E+02
    -20.063  0.1528E+02  0.4309E+02
    -19.966  0.1574E+02  0.4462E+02
    -19.869  0.1480E+02  0.4606E+02
    -19.772  0.1304E+02  0.4732E+02
    -19.675  0.1279E+02  0.4856E+02
    -19.578  0.1523E+02  0.5004E+02
    -19.481  0.1739E+02  0.5173E+02
    -19.384  0.1616E+02  0.5330E+02
    -19.287  0.1326E+02  0.5458E+02
    -19.190  0.1220E+02  0.5577E+02
    -19.093  0.1329E+02  0.5706E+02
    -18.996  0.1415E+02  0.5843E+02
    -18.898  0.1340E+02  0.5973E+02
    -18.801  0.1237E+02  0.6093E+02
    -18.704  0.1350E+02  0.6225E+02
    -18.607  0.1667E+02  0.6386E+02
    -18.510  0.1852E+02  0.6566E+02
    -18.413  0.1741E+02  0.6735E+02
    -18.316  0.1606E+02  0.6891E+02
    -18.219  0.1677E+02  0.7054E+02
    -18.122  0.1790E+02  0.7228E+02
    -18.025  0.1703E+02  0.7393E+02
    -17.928  0.1460E+02  0.7535E+02
    -17.831  0.1282E+02  0.7659E+02
    -17.734  0.1239E+02  0.7779E+02
    -17.637  0.1218E+02  0.7898E+02
    -17.539  0.1177E+02  0.8012E+02
    -17.442  0.1173E+02  0.8126E+02
    -17.345  0.1180E+02  0.8240E+02
    -17.248  0.1160E+02  0.8353E+02
    -17.151  0.1176E+02  0.8467E+02
    -17.054  0.1221E+02  0.8586E+02
    -16.957  0.1174E+02  0.8700E+02
    -16.860  0.1036E+02  0.8800E+02
    -16.763  0.9815E+01  0.8895E+02
    -16.666  0.1128E+02  0.9005E+02
    -16.569  0.1361E+02  0.9137E+02
    -16.472  0.1513E+02  0.9284E+02
    -16.375  0.1573E+02  0.9437E+02
    -16.278  0.1613E+02  0.9593E+02
    -16.180  0.1677E+02  0.9756E+02
    -16.083  0.1747E+02  0.9925E+02
    -15.986  0.1745E+02  0.1009E+03
    -15.889  0.1610E+02  0.1025E+03
    -15.792  0.1374E+02  0.1038E+03
    -15.695  0.1169E+02  0.1050E+03
    -15.598  0.1091E+02  0.1060E+03
    -15.501  0.1166E+02  0.1072E+03
    -15.404  0.1479E+02  0.1086E+03
    -15.307  0.1975E+02  0.1105E+03
    -15.210  0.2332E+02  0.1128E+03
    -15.113  0.2352E+02  0.1151E+03
    -15.016  0.2154E+02  0.1172E+03
    -14.919  0.1888E+02  0.1190E+03
    -14.821  0.1597E+02  0.1205E+03
    -14.724  0.1315E+02  0.1218E+03
    -14.627  0.1095E+02  0.1229E+03
    -14.530  0.9917E+01  0.1238E+03
    -14.433  0.9844E+01  0.1248E+03
    -14.336  0.9947E+01  0.1258E+03
    -14.239  0.1029E+02  0.1268E+03
    -14.142  0.1160E+02  0.1279E+03
    -14.045  0.1365E+02  0.1292E+03
    -13.948  0.1533E+02  0.1307E+03
    -13.851  0.1625E+02  0.1323E+03
    -13.754  0.1732E+02  0.1340E+03
    -13.657  0.1884E+02  0.1358E+03
    -13.560  0.1958E+02  0.1377E+03
    -13.462  0.1923E+02  0.1396E+03
    -13.365  0.1910E+02  0.1414E+03
    -13.268  0.1955E+02  0.1433E+03
    -13.171  0.1870E+02  0.1451E+03
    -13.074  0.1558E+02  0.1466E+03
    -12.977  0.1288E+02  0.1479E+03
    -12.880  0.1321E+02  0.1492E+03
    -12.783  0.1502E+02  0.1506E+03
    -12.686  0.1530E+02  0.1521E+03
    -12.589  0.1388E+02  0.1535E+03
    -12.492  0.1304E+02  0.1547E+03
    -12.395  0.1413E+02  0.1561E+03
    -12.298  0.1665E+02  0.1577E+03
    -12.201  0.2030E+02  0.1597E+03
    -12.103  0.2422E+02  0.1620E+03
    -12.006  0.2610E+02  0.1646E+03
    -11.909  0.2531E+02  0.1670E+03
    -11.812  0.2295E+02  0.1693E+03
    -11.715  0.1939E+02  0.1711E+03
    -11.618  0.1534E+02  0.1726E+03
    -11.521  0.1291E+02  0.1739E+03
    -11.424  0.1374E+02  0.1752E+03
    -11.327  0.1727E+02  0.1769E+03
    -11.230  0.2125E+02  0.1790E+03
    -11.133  0.2463E+02  0.1813E+03
    -11.036  0.2853E+02  0.1841E+03
    -10.939  0.3291E+02  0.1873E+03
    -10.842  0.3521E+02  0.1907E+03
    -10.744  0.3439E+02  0.1941E+03
    -10.647  0.3345E+02  0.1973E+03
    -10.550  0.3558E+02  0.2008E+03
    -10.453  0.3948E+02  0.2046E+03
    -10.356  0.4079E+02  0.2086E+03
    -10.259  0.3825E+02  0.2123E+03
    -10.162  0.3518E+02  0.2157E+03
    -10.065  0.3386E+02  0.2190E+03
     -9.968  0.3263E+02  0.2221E+03
     -9.871  0.3072E+02  0.2251E+03
     -9.774  0.3108E+02  0.2281E+03
     -9.677  0.3578E+02  0.2316E+03
     -9.580  0.4243E+02  0.2357E+03
     -9.483  0.4683E+02  0.2403E+03
     -9.385  0.4660E+02  0.2448E+03
     -9.288  0.4153E+02  0.2488E+03
     -9.191  0.3366E+02  0.2521E+03
     -9.094  0.2761E+02  0.2548E+03
     -8.997  0.2694E+02  0.2574E+03
     -8.900  0.3070E+02  0.2604E+03
     -8.803  0.3540E+02  0.2638E+03
     -8.706  0.3813E+02  0.2675E+03
     -8.609  0.3771E+02  0.2712E+03
     -8.512  0.3485E+02  0.2746E+03
     -8.415  0.3167E+02  0.2776E+03
     -8.318  0.3005E+02  0.2805E+03
     -8.221  0.2986E+02  0.2834E+03
     -8.124  0.2933E+02  0.2863E+03
     -8.026  0.2720E+02  0.2889E+03
     -7.929  0.2463E+02  0.2913E+03
     -7.832  0.2456E+02  0.2937E+03
     -7.735  0.2755E+02  0.2964E+03
     -7.638  0.3053E+02  0.2993E+03
     -7.541  0.3109E+02  0.3024E+03
     -7.444  0.3011E+02  0.3053E+03
     -7.347  0.2912E+02  0.3081E+03
     -7.250  0.2766E+02  0.3108E+03
     -7.153  0.2530E+02  0.3133E+03
     -7.056  0.2356E+02  0.3155E+03
     -6.959  0.2353E+02  0.3178E+03
     -6.862  0.2482E+02  0.3202E+03
     -6.765  0.2673E+02  0.3228E+03
     -6.667  0.2749E+02  0.3255E+03
     -6.570  0.2507E+02  0.3279E+03
     -6.473  0.2077E+02  0.3299E+03
     -6.376  0.1821E+02  0.3317E+03
     -6.279  0.1847E+02  0.3335E+03
     -6.182  0.2007E+02  0.3355E+03
     -6.085  0.2232E+02  0.3376E+03
     -5.988  0.2485E+02  0.3400E+03
     -5.891  0.2606E+02  0.3426E+03
     -5.794  0.2501E+02  0.3450E+03
     -5.697  0.2240E+02  0.3472E+03
     -5.600  0.1875E+02  0.3490E+03
     -5.503  0.1415E+02  0.3504E+03
     -5.406  0.1018E+02  0.3513E+03
     -5.308  0.9433E+01  0.3523E+03
     -5.211  0.1158E+02  0.3534E+03
     -5.114  0.1279E+02  0.3546E+03
     -5.017  0.1100E+02  0.3557E+03
     -4.920  0.8363E+01  0.3565E+03
     -4.823  0.7721E+01  0.3573E+03
     -4.726  0.9677E+01  0.3582E+03
     -4.629  0.1297E+02  0.3595E+03
     -4.532  0.1569E+02  0.3610E+03
     -4.435  0.1575E+02  0.3625E+03
     -4.338  0.1228E+02  0.3637E+03
     -4.241  0.7454E+01  0.3644E+03
     -4.144  0.4163E+01  0.3648E+03
     -4.047  0.2832E+01  0.3651E+03
     -3.949  0.2457E+01  0.3653E+03
     -3.852  0.2540E+01  0.3656E+03
     -3.755  0.3059E+01  0.3659E+03
     -3.658  0.3675E+01  0.3662E+03
     -3.561  0.3971E+01  0.3666E+03
     -3.464  0.3826E+01  0.3670E+03
     -3.367  0.3215E+01  0.3673E+03
     -3.270  0.2620E+01  0.3676E+03
     -3.173  0.2827E+01  0.3678E+03
     -3.076  0.3805E+01  0.3682E+03
     -2.979  0.4749E+01  0.3687E+03
     -2.882  0.5103E+01  0.3692E+03
     -2.785  0.5269E+01  0.3697E+03
     -2.688  0.5937E+01  0.3703E+03
     -2.590  0.6855E+01  0.3709E+03
     -2.493  0.7301E+01  0.3716E+03
     -2.396  0.6959E+01  0.3723E+03
     -2.299  0.6239E+01  0.3729E+03
     -2.202  0.6361E+01  0.3735E+03
     -2.105  0.7566E+01  0.3743E+03
     -2.008  0.7965E+01  0.3750E+03
     -1.911  0.6438E+01  0.3757E+03
     -1.814  0.5132E+01  0.3762E+03
     -1.717  0.7047E+01  0.3768E+03
     -1.620  0.1243E+02  0.3780E+03
     -1.523  0.1861E+02  0.3799E+03
     -1.426  0.2267E+02  0.3821E+03
     -1.329  0.2335E+02  0.3843E+03
     -1.231  0.2126E+02  0.3864E+03
     -1.134  0.1915E+02  0.3882E+03
     -1.037  0.1892E+02  0.3901E+03
     -0.940  0.1862E+02  0.3919E+03
     -0.843  0.1629E+02  0.3935E+03
     -0.746  0.1325E+02  0.3948E+03
     -0.649  0.1149E+02  0.3959E+03
     -0.552  0.1144E+02  0.3970E+03
     -0.455  0.1180E+02  0.3981E+03
     -0.358  0.1121E+02  0.3992E+03
     -0.261  0.1080E+02  0.4003E+03
     -0.164  0.1314E+02  0.4015E+03
     -0.067  0.1773E+02  0.4033E+03
      0.030  0.2130E+02  0.4053E+03
      0.128  0.2233E+02  0.4075E+03
      0.225  0.2188E+02  0.4096E+03
      0.322  0.2095E+02  0.4117E+03
      0.419  0.1965E+02  0.4136E+03
      0.516  0.1904E+02  0.4154E+03
      0.613  0.2089E+02  0.4174E+03
      0.710  0.2484E+02  0.4198E+03
      0.807  0.2800E+02  0.4226E+03
      0.904  0.2900E+02  0.4254E+03
      1.001  0.3069E+02  0.4284E+03
      1.098  0.3629E+02  0.4319E+03
      1.195  0.4434E+02  0.4362E+03
      1.292  0.5034E+02  0.4411E+03
      1.389  0.5198E+02  0.4461E+03
      1.487  0.4971E+02  0.4509E+03
      1.584  0.4417E+02  0.4552E+03
      1.681  0.3605E+02  0.4587E+03
      1.778  0.2625E+02  0.4613E+03
      1.875  0.1607E+02  0.4628E+03
      1.972  0.7823E+01  0.4636E+03
      2.069  0.2985E+01  0.4639E+03
      2.166  0.8971E+00  0.4640E+03
      2.263  0.2074E+00  0.4640E+03
      2.360  0.3482E-01  0.4640E+03
      2.457  0.4002E-02  0.4640E+03
      2.554  0.3027E-03  0.4640E+03
      2.651  0.1474E-04  0.4640E+03
      2.748  0.4573E-06  0.4640E+03
      2.846  0.8978E-08  0.4640E+03
      2.943  0.1112E-09  0.4640E+03
      3.040  0.8669E-12  0.4640E+03
      3.137  0.4575E-14  0.4640E+03
      3.234  0.0000E+00  0.4640E+03
      3.331  0.0000E+00  0.4640E+03
      3.428  0.0000E+00  0.4640E+03
      3.525  0.0000E+00  0.4640E+03
      3.622  0.0000E+00  0.4640E+03
      3.719  0.0000E+00  0.4640E+03
      3.816  0.0000E+00  0.4640E+03
      3.913  0.0000E+00  0.4640E+03
