       N       E                     dE             d eps       ncg     rms          rms(c)
DAV:   1     0.371054994948E+04    0.37105E+04   -0.11905E+05  1712   0.105E+03
DAV:   2     0.176279652829E+03   -0.35343E+04   -0.32701E+04  2136   0.239E+02
DAV:   3    -0.839675445605E+03   -0.10160E+04   -0.99274E+03  1776   0.135E+02
DAV:   4    -0.900269798168E+03   -0.60594E+02   -0.59703E+02  1720   0.427E+01
DAV:   5    -0.901741575354E+03   -0.14718E+01   -0.14518E+01  1792   0.639E+00    0.457E+01
DAV:   6    -0.851837369302E+03    0.49904E+02   -0.47270E+01  1584   0.124E+01    0.268E+01
DAV:   7    -0.833149774457E+03    0.18688E+02   -0.66052E+01  1568   0.143E+01    0.734E+00
DAV:   8    -0.832843683149E+03    0.30609E+00   -0.22997E+00  1608   0.320E+00    0.918E-01
DAV:   9    -0.832741463089E+03    0.10222E+00   -0.26075E-01  1632   0.946E-01    0.559E-01
DAV:  10    -0.832699815505E+03    0.41648E-01   -0.43119E-02  1744   0.409E-01    0.345E-01
DAV:  11    -0.832669824141E+03    0.29991E-01   -0.29594E-02  1512   0.256E-01    0.235E-01
DAV:  12    -0.832669247581E+03    0.57656E-03   -0.18531E-02  1520   0.207E-01    0.144E-01
DAV:  13    -0.832682070893E+03   -0.12823E-01   -0.75327E-03  1520   0.130E-01    0.864E-02
DAV:  14    -0.832700498766E+03   -0.18428E-01   -0.12304E-03  1552   0.591E-02    0.546E-02
DAV:  15    -0.832720586976E+03   -0.20088E-01   -0.16452E-03  1528   0.605E-02    0.303E-02
DAV:  16    -0.832728987409E+03   -0.84004E-02   -0.54436E-04  1608   0.339E-02    0.207E-02
DAV:  17    -0.832732867639E+03   -0.38802E-02   -0.18528E-04  1568   0.190E-02    0.104E-02
DAV:  18    -0.832735174566E+03   -0.23069E-02   -0.11361E-04  1544   0.132E-02    0.595E-03
DAV:  19    -0.832735957846E+03   -0.78328E-03   -0.18381E-05  1328   0.601E-03    0.369E-03
DAV:  20    -0.832736327000E+03   -0.36915E-03   -0.54562E-06  1288   0.351E-03    0.191E-03
DAV:  21    -0.832736500344E+03   -0.17334E-03   -0.19452E-06  1192   0.211E-03    0.922E-04
DAV:  22    -0.832736554927E+03   -0.54583E-04   -0.24873E-07   984   0.102E-03    0.547E-04
DAV:  23    -0.832736583355E+03   -0.28428E-04   -0.21796E-07   904   0.724E-04    0.338E-04
DAV:  24    -0.832736590851E+03   -0.74962E-05   -0.55052E-08   928   0.481E-04    0.170E-04
DAV:  25    -0.832736595964E+03   -0.51132E-05   -0.33888E-08   864   0.322E-04    0.147E-04
DAV:  26    -0.832736597765E+03   -0.18013E-05   -0.11795E-08   912   0.236E-04    0.690E-05
DAV:  27    -0.832736600068E+03   -0.23022E-05   -0.93666E-09   904   0.143E-04    0.493E-05
DAV:  28    -0.832736600789E+03   -0.72090E-06   -0.23665E-09   888   0.101E-04
   1 F= -.83273660E+03 E0= -.83269885E+03  d E =-.755100E-01
