<?xml version="1.0" encoding="ISO-8859-1"?>
<modeling>
 <generator>
  <i name="program" type="string">vasp </i>
  <i name="version" type="string">6.5.0  </i>
  <i name="subversion" type="string">16Dec24 (build Feb 19 2025 19:45:31) complex                          parallel </i>
  <i name="platform" type="string">LinuxNV </i>
  <i name="date" type="string">2025 10 25 </i>
  <i name="time" type="string">20:53:45 </i>
 </generator>
 <incar>
  <i type="int" name="ISTART">     0</i>
  <i type="string" name="PREC">Accurate   (Precision level)</i>
  <i type="string" name="ALGO">Normal</i>
  <i type="int" name="ISPIN">     1</i>
  <i type="int" name="ICHARG">     2</i>
  <i type="int" name="NELM">   150</i>
  <i type="int" name="IBRION">    -1</i>
  <i name="EDIFF">      0.00000100</i>
  <i type="int" name="NSW">     0</i>
  <i name="ENCUT">    500.00000000</i>
  <i type="string" name="LREAL">Auto         (Projection operators: automatic)</i>
  <i type="int" name="ISMEAR">     0</i>
  <i type="logical" name="KGAMMA"> T  </i>
  <i type="logical" name="LWAVE"> F  </i>
  <i type="logical" name="LCHARG"> F  </i>
 </incar>
 <primitive_cell>
  <structure name="primitive_cell" >
   <crystal>
    <varray name="basis" >
     <v>      28.05000000       0.00000000       0.00000000 </v>
     <v>       0.00000000       8.10000000       0.00000000 </v>
     <v>       0.00000000       0.00000000      33.50000000 </v>
    </varray>
    <i name="volume">   7611.36750000 </i>
    <varray name="rec_basis" >
     <v>       0.03565062       0.00000000       0.00000000 </v>
     <v>       0.00000000       0.12345679       0.00000000 </v>
     <v>       0.00000000       0.00000000       0.02985075 </v>
    </varray>
   </crystal>
   <varray name="positions" >
    <v>       0.61442424       0.36748889       0.24656716 </v>
    <v>       0.61577540       0.53922840       0.24507463 </v>
    <v>       0.65837790       0.28282593       0.24805970 </v>
    <v>       0.65898752       0.61871358       0.24567164 </v>
    <v>       0.70259180       0.36629383       0.25522388 </v>
    <v>       0.70311586       0.53606790       0.25343284 </v>
    <v>       0.74656684       0.28431111       0.25611940 </v>
    <v>       0.74693048       0.61957778       0.25253731 </v>
    <v>       0.79206774       0.36807160       0.25641791 </v>
    <v>       0.79180036       0.53785185       0.25373134 </v>
    <v>       0.83663102       0.28645556       0.25074627 </v>
    <v>       0.83600000       0.61967407       0.24477612 </v>
    <v>       0.88121925       0.36854691       0.24447761 </v>
    <v>       0.87956506       0.53910988       0.24208955 </v>
    <v>       0.92437077       0.28537654       0.23283582 </v>
    <v>       0.92217112       0.62093210       0.22776119 </v>
    <v>       0.96705526       0.36891481       0.22537313 </v>
    <v>       0.96629947       0.53795185       0.22149254 </v>
    <v>       0.00853907       0.28722099       0.21014925 </v>
    <v>       0.00689012       0.61887160       0.20537313 </v>
    <v>       0.05117861       0.36969630       0.20029851 </v>
    <v>       0.05029020       0.53674938       0.19761194 </v>
    <v>       0.09353405       0.28455802       0.18865672 </v>
    <v>       0.09232692       0.61833827       0.18388060 </v>
    <v>       0.13579715       0.36532963       0.17850746 </v>
    <v>       0.13542103       0.53515185       0.17582090 </v>
    <v>       0.17858752       0.28574321       0.16985075 </v>
    <v>       0.17832442       0.61604568       0.16626866 </v>
    <v>       0.22297255       0.36614568       0.16955224 </v>
    <v>       0.22240820       0.53442716       0.16656716 </v>
    <v>       0.26683244       0.28545679       0.16805970 </v>
    <v>       0.26658111       0.61780123       0.16626866 </v>
    <v>       0.31039251       0.36810864       0.17432836 </v>
    <v>       0.31071337       0.53890494       0.17402985 </v>
    <v>       0.35427914       0.28610741       0.17910448 </v>
    <v>       0.35495971       0.61955432       0.17791045 </v>
    <v>       0.39596435       0.36747407       0.19313433 </v>
    <v>       0.39602496       0.54004444       0.19194030 </v>
    <v>       0.43857754       0.28495309       0.19880597 </v>
    <v>       0.43898396       0.61892222       0.19880597 </v>
    <v>       0.48011765       0.36313951       0.21343284 </v>
    <v>       0.47994296       0.53593704       0.21343284 </v>
    <v>       0.52406061       0.28326543       0.21970149 </v>
    <v>       0.52331907       0.61768148       0.22089552 </v>
    <v>       0.56308734       0.36482593       0.23582090 </v>
    <v>       0.56289483       0.53486667       0.23552239 </v>
    <v>       0.61874866       0.86106543       0.22656716 </v>
    <v>       0.61844920       0.03319667       0.22865672 </v>
    <v>       0.66056684       0.78399136       0.23701493 </v>
    <v>       0.65932264       0.12058481       0.24000000 </v>
    <v>       0.70349020       0.86958642       0.24119403 </v>
    <v>       0.70289840       0.03683617       0.24179104 </v>
    <v>       0.74705526       0.78734074       0.24567164 </v>
    <v>       0.74709447       0.11811802       0.24835821 </v>
    <v>       0.79173619       0.86811111       0.24298507 </v>
    <v>       0.79101604       0.03671938       0.24388060 </v>
    <v>       0.83505882       0.78423457       0.23671642 </v>
    <v>       0.83498396       0.11865432       0.24298507 </v>
    <v>       0.87698039       0.86817654       0.22805970 </v>
    <v>       0.87729055       0.03913370       0.23134328 </v>
    <v>       0.91893761       0.78431481       0.21880597 </v>
    <v>       0.92122995       0.11968617       0.22388060 </v>
    <v>       0.96106952       0.86765679       0.20597015 </v>
    <v>       0.96155437       0.03691000       0.20835821 </v>
    <v>       0.00403950       0.78455802       0.19671642 </v>
    <v>       0.00564053       0.12058198       0.20149254 </v>
    <v>       0.04649840       0.86918272       0.18358209 </v>
    <v>       0.04562424       0.03781370       0.18537313 </v>
    <v>       0.08949733       0.78540494       0.17582090 </v>
    <v>       0.09055009       0.11893593       0.17970149 </v>
    <v>       0.13232014       0.86732222       0.16537313 </v>
    <v>       0.13292157       0.03707444       0.16716418 </v>
    <v>       0.17718004       0.78559012       0.16149254 </v>
    <v>       0.17802531       0.11918654       0.16298507 </v>
    <v>       0.22221390       0.86732346       0.15791045 </v>
    <v>       0.22296328       0.03697926       0.15880597 </v>
    <v>       0.26666845       0.78572593       0.16059701 </v>
    <v>       0.26748663       0.11655691       0.16119403 </v>
    <v>       0.31206381       0.86730123       0.16208955 </v>
    <v>       0.31263102       0.03629296       0.16179104 </v>
    <v>       0.35626168       0.78475185       0.17074627 </v>
    <v>       0.35589127       0.11973877       0.17164179 </v>
    <v>       0.39981105       0.86641605       0.17701493 </v>
    <v>       0.40014260       0.03661210       0.17641791 </v>
    <v>       0.44204991       0.78741358       0.18955224 </v>
    <v>       0.44216043       0.11878963       0.18955224 </v>
    <v>       0.48547237       0.86502716       0.19582090 </v>
    <v>       0.48538681       0.03701914       0.19582090 </v>
    <v>       0.52694831       0.77827778       0.20955224 </v>
    <v>       0.52663815       0.11821889       0.21074627 </v>
    <v>       0.56917647       0.86171605       0.21462687 </v>
    <v>       0.56971480       0.03254852       0.21582090 </v>
   </varray>
  </structure>
  <varray name="primitive_index" >
   <v type="int" >        1 </v>
   <v type="int" >        2 </v>
   <v type="int" >        3 </v>
   <v type="int" >        4 </v>
   <v type="int" >        5 </v>
   <v type="int" >        6 </v>
   <v type="int" >        7 </v>
   <v type="int" >        8 </v>
   <v type="int" >        9 </v>
   <v type="int" >       10 </v>
   <v type="int" >       11 </v>
   <v type="int" >       12 </v>
   <v type="int" >       13 </v>
   <v type="int" >       14 </v>
   <v type="int" >       15 </v>
   <v type="int" >       16 </v>
   <v type="int" >       17 </v>
   <v type="int" >       18 </v>
   <v type="int" >       19 </v>
   <v type="int" >       20 </v>
   <v type="int" >       21 </v>
   <v type="int" >       22 </v>
   <v type="int" >       23 </v>
   <v type="int" >       24 </v>
   <v type="int" >       25 </v>
   <v type="int" >       26 </v>
   <v type="int" >       27 </v>
   <v type="int" >       28 </v>
   <v type="int" >       29 </v>
   <v type="int" >       30 </v>
   <v type="int" >       31 </v>
   <v type="int" >       32 </v>
   <v type="int" >       33 </v>
   <v type="int" >       34 </v>
   <v type="int" >       35 </v>
   <v type="int" >       36 </v>
   <v type="int" >       37 </v>
   <v type="int" >       38 </v>
   <v type="int" >       39 </v>
   <v type="int" >       40 </v>
   <v type="int" >       41 </v>
   <v type="int" >       42 </v>
   <v type="int" >       43 </v>
   <v type="int" >       44 </v>
   <v type="int" >       45 </v>
   <v type="int" >       46 </v>
   <v type="int" >       47 </v>
   <v type="int" >       48 </v>
   <v type="int" >       49 </v>
   <v type="int" >       50 </v>
   <v type="int" >       51 </v>
   <v type="int" >       52 </v>
   <v type="int" >       53 </v>
   <v type="int" >       54 </v>
   <v type="int" >       55 </v>
   <v type="int" >       56 </v>
   <v type="int" >       57 </v>
   <v type="int" >       58 </v>
   <v type="int" >       59 </v>
   <v type="int" >       60 </v>
   <v type="int" >       61 </v>
   <v type="int" >       62 </v>
   <v type="int" >       63 </v>
   <v type="int" >       64 </v>
   <v type="int" >       65 </v>
   <v type="int" >       66 </v>
   <v type="int" >       67 </v>
   <v type="int" >       68 </v>
   <v type="int" >       69 </v>
   <v type="int" >       70 </v>
   <v type="int" >       71 </v>
   <v type="int" >       72 </v>
   <v type="int" >       73 </v>
   <v type="int" >       74 </v>
   <v type="int" >       75 </v>
   <v type="int" >       76 </v>
   <v type="int" >       77 </v>
   <v type="int" >       78 </v>
   <v type="int" >       79 </v>
   <v type="int" >       80 </v>
   <v type="int" >       81 </v>
   <v type="int" >       82 </v>
   <v type="int" >       83 </v>
   <v type="int" >       84 </v>
   <v type="int" >       85 </v>
   <v type="int" >       86 </v>
   <v type="int" >       87 </v>
   <v type="int" >       88 </v>
   <v type="int" >       89 </v>
   <v type="int" >       90 </v>
   <v type="int" >       91 </v>
   <v type="int" >       92 </v>
  </varray>
 </primitive_cell>
 <kpoints>
  <generation param="Gamma">
   <v type="int" name="divisions">       1        4        1 </v>
   <v name="usershift">      0.00000000       0.00000000       0.00000000 </v>
   <v name="genvec1">      1.00000000       0.00000000       0.00000000 </v>
   <v name="genvec2">      0.00000000       0.25000000       0.00000000 </v>
   <v name="genvec3">      0.00000000       0.00000000       1.00000000 </v>
   <v name="shift">      0.00000000       0.00000000       0.00000000 </v>
  </generation>
  <varray name="kpointlist" >
   <v>       0.00000000       0.00000000       0.00000000 </v>
   <v>       0.00000000       0.25000000       0.00000000 </v>
   <v>       0.00000000       0.50000000       0.00000000 </v>
  </varray>
  <varray name="weights" >
   <v>       0.25000000 </v>
   <v>       0.50000000 </v>
   <v>       0.25000000 </v>
  </varray>
 </kpoints>
 <parameters>
  <separator name="general" >
   <i type="string" name="SYSTEM">unknown system</i>
   <i type="logical" name="LCOMPAT"> F  </i>
  </separator>
  <separator name="electronic" >
   <i type="string" name="PREC">accura</i>
   <i name="ENMAX">    500.00000000</i>
   <i name="ENAUG">    644.87300000</i>
   <i name="EDIFF">      0.00000100</i>
   <i type="int" name="IALGO">    38</i>
   <i type="int" name="IWAVPR">    10</i>
   <i type="int" name="NBANDS">   232</i>
   <i type="int" name="NBANDSLOW">    -1</i>
   <i type="int" name="NBANDSHIGH">    -1</i>
   <i name="NELECT">    368.00000000</i>
   <i type="int" name="TURBO">     0</i>
   <i type="int" name="IRESTART">     0</i>
   <i type="int" name="NREBOOT">     0</i>
   <i type="int" name="NMIN">     0</i>
   <i name="EREF">      0.00000000</i>
   <separator name="electronic smearing" >
    <i type="int" name="ISMEAR">     0</i>
    <i name="SIGMA">      0.20000000</i>
    <i name="KSPACING">      0.50000000</i>
    <i type="logical" name="KGAMMA"> T  </i>
    <i type="logical" name="KBLOWUP"> T  </i>
   </separator>
   <separator name="electronic projectors" >
    <i type="logical" name="LREAL"> T  </i>
    <v name="ROPT">     -0.00025000</v>
    <i type="int" name="LMAXPAW">  -100</i>
    <i type="int" name="LMAXMIX">     2</i>
    <i type="logical" name="NLSPLINE"> F  </i>
   </separator>
   <separator name="electronic startup" >
    <i type="int" name="ISTART">     0</i>
    <i type="int" name="ICHARG">     2</i>
    <i type="int" name="INIWAV">     1</i>
   </separator>
   <separator name="electronic spin" >
    <i type="int" name="ISPIN">     1</i>
    <i type="logical" name="LNONCOLLINEAR"> F  </i>
    <v name="MAGMOM">      1.00000000      1.00000000      1.00000000      1.00000000      1.00000000      1.00000000      1.00000000      1.00000000      1.00000000      1.00000000      1.00000000      1.00000000      1.00000000      1.00000000      1.00000000      1.00000000      1.00000000      1.00000000      1.00000000      1.00000000
      1.00000000      1.00000000      1.00000000      1.00000000      1.00000000      1.00000000      1.00000000      1.00000000      1.00000000      1.00000000      1.00000000      1.00000000      1.00000000      1.00000000      1.00000000      1.00000000      1.00000000      1.00000000      1.00000000      1.00000000
      1.00000000      1.00000000      1.00000000      1.00000000      1.00000000      1.00000000      1.00000000      1.00000000      1.00000000      1.00000000      1.00000000      1.00000000      1.00000000      1.00000000      1.00000000      1.00000000      1.00000000      1.00000000      1.00000000      1.00000000
      1.00000000      1.00000000      1.00000000      1.00000000      1.00000000      1.00000000      1.00000000      1.00000000      1.00000000      1.00000000      1.00000000      1.00000000      1.00000000      1.00000000      1.00000000      1.00000000      1.00000000      1.00000000      1.00000000      1.00000000
      1.00000000      1.00000000      1.00000000      1.00000000      1.00000000      1.00000000      1.00000000      1.00000000      1.00000000      1.00000000      1.00000000      1.00000000</v>
    <i name="NUPDOWN">     -1.00000000</i>
    <i type="logical" name="LSORBIT"> F  </i>
    <v name="SAXIS">      0.00000000      0.00000000      1.00000000</v>
    <i type="logical" name="LSPIRAL"> F  </i>
    <v name="QSPIRAL">      0.00000000      0.00000000      0.00000000</v>
    <i type="logical" name="LZEROZ"> F  </i>
   </separator>
   <separator name="electronic exchange-correlation" >
    <i type="logical" name="LASPH"> F  </i>
   </separator>
   <separator name="electronic convergence" >
    <i type="int" name="NELM">   150</i>
    <i type="int" name="NELMDL">    -5</i>
    <i type="int" name="NELMIN">     2</i>
    <i name="ENINI">    500.00000000</i>
    <separator name="electronic convergence detail" >
     <i type="logical" name="LDIAG"> T  </i>
     <i type="logical" name="LSUBROT"> F  </i>
     <i name="WEIMIN">      0.00000000</i>
     <i name="EBREAK">      0.00000000</i>
     <i name="DEPER">      0.30000000</i>
     <i type="int" name="NRMM">     4</i>
     <i name="TIME">      0.40000000</i>
    </separator>
   </separator>
   <separator name="electronic mixer" >
    <i name="AMIX">      0.40000000</i>
    <i name="BMIX">      1.00000000</i>
    <i name="AMIN">      0.10000000</i>
    <i name="AMIX_MAG">      1.60000000</i>
    <i name="BMIX_MAG">      1.00000000</i>
    <separator name="electronic mixer details" >
     <i type="int" name="IMIX">     4</i>
     <i type="logical" name="MIXFIRST"> F  </i>
     <i type="int" name="MAXMIX">   -45</i>
     <i name="WC">    100.00000000</i>
     <i type="int" name="INIMIX">     1</i>
     <i type="int" name="MIXPRE">     1</i>
     <i type="int" name="MREMOVE">     5</i>
    </separator>
   </separator>
   <separator name="electronic dipolcorrection" >
    <i type="logical" name="LDIPOL"> F  </i>
    <i type="logical" name="LMONO"> F  </i>
    <i type="int" name="IDIPOL">     0</i>
    <i name="EPSILON">      1.00000000</i>
    <v name="DIPOL">   -100.00000000   -100.00000000   -100.00000000</v>
    <i name="EFIELD">      0.00000000</i>
    <i type="logical" name="LVACPOTAV"> F  </i>
   </separator>
  </separator>
  <separator name="grids" >
   <i type="int" name="NGX">   210</i>
   <i type="int" name="NGY">    60</i>
   <i type="int" name="NGZ">   250</i>
   <i type="int" name="NGXF">   420</i>
   <i type="int" name="NGYF">   120</i>
   <i type="int" name="NGZF">   500</i>
   <i type="logical" name="ADDGRID"> F  </i>
  </separator>
  <separator name="ionic" >
   <i type="int" name="NSW">     0</i>
   <i type="int" name="IBRION">    -1</i>
   <i type="int" name="MDALGO">     0</i>
   <i type="int" name="ISIF">     2</i>
   <i name="PSTRESS">      0.00000000</i>
   <i name="EDIFFG">      0.00001000</i>
   <i type="int" name="NFREE">     0</i>
   <i name="POTIM">      0.50000000</i>
   <i name="SMASS">     -3.00000000</i>
   <i name="SCALEE">      1.00000000</i>
  </separator>
  <separator name="ionic md" >
   <i name="TEBEG">      0.00010000</i>
   <i name="TEEND">      0.00010000</i>
   <i type="int" name="NBLOCK">     1</i>
   <i type="int" name="KBLOCK">     1</i>
   <i type="int" name="NPACO">   256</i>
   <i name="APACO">     10.00000000</i>
  </separator>
  <separator name="symmetry" >
   <i type="int" name="ISYM">     2</i>
   <i name="SYMPREC">      0.00001000</i>
  </separator>
  <separator name="dos" >
   <i type="int" name="LORBIT">     0</i>
   <v name="RWIGS">     -1.00000000</v>
   <i type="int" name="NEDOS">   301</i>
   <i name="EMIN">     10.00000000</i>
   <i name="EMAX">    -10.00000000</i>
   <i name="EFERMI">      0.00000000</i>
  </separator>
  <separator name="writing" >
   <i type="int" name="NWRITE">     2</i>
   <i type="logical" name="LWAVE"> F  </i>
   <i type="logical" name="LDOWNSAMPLE"> F  </i>
   <i type="logical" name="LCHARG"> F  </i>
   <i type="logical" name="LPARD"> F  </i>
   <i type="logical" name="LVTOT"> F  </i>
   <i type="logical" name="LVHAR"> F  </i>
   <i type="logical" name="LELF"> F  </i>
   <i type="logical" name="LOPTICS"> F  </i>
   <v name="STM">      0.00000000      0.00000000      0.00000000      0.00000000      0.00000000      0.00000000      0.00000000</v>
  </separator>
  <separator name="performance" >
   <i type="int" name="NPAR">     2</i>
   <i type="int" name="NSIM">     4</i>
   <i type="int" name="NBLK">    -1</i>
   <i type="logical" name="LPLANE"> T  </i>
   <i type="logical" name="LSCALAPACK"> T  </i>
   <i type="logical" name="LSCAAWARE"> F  </i>
   <i type="logical" name="LSCALU"> F  </i>
   <i type="logical" name="LASYNC"> F  </i>
   <i type="logical" name="LORBITALREAL"> F  </i>
  </separator>
  <separator name="miscellaneous" >
   <i type="int" name="IDIOT">     3</i>
   <i type="int" name="PHON_NSTRUCT">    -1</i>
   <i type="logical" name="LMUSIC"> F  </i>
   <v name="POMASS">     12.01100000</v>
   <v name="DARWINR">      0.00000000</v>
   <v name="DARWINV">      1.00000000</v>
   <i type="logical" name="LCORR"> T  </i>
  </separator>
  <i type="logical" name="GGA_COMPAT"> T  </i>
  <i type="logical" name="LBERRY"> F  </i>
  <i type="int" name="ICORELEVEL">     0</i>
  <i type="logical" name="LDAU"> F  </i>
  <i type="int" name="I_CONSTRAINED_M">     0</i>
  <separator name="electronic exchange-correlation" >
   <i type="string" name="GGA    ">PE</i>
   <i type="string" name="XC_C">1</i>
   <i type="int" name="VOSKOWN">     0</i>
   <i type="logical" name="LHFCALC"> F  </i>
   <i type="string" name="PRECFOCK"></i>
   <i type="logical" name="LSYMGRAD"> F  </i>
   <i type="logical" name="LHFONE"> F  </i>
   <i type="logical" name="LRHFCALC"> F  </i>
   <i type="logical" name="LTHOMAS"> F  </i>
   <i type="logical" name="LMODELHF"> F  </i>
   <i type="logical" name="LFOCKACE"> F  </i>
   <i name="ENCUT4O">     -1.00000000</i>
   <i type="int" name="EXXOEP">     0</i>
   <i type="int" name="FOURORBIT">     0</i>
   <i name="AEXX">      0.00000000</i>
   <i name="HFALPHA">      0.00000000</i>
   <i name="MCALPHA">      0.00000000</i>
   <i name="ALDAX">      1.00000000</i>
   <i name="AGGAX">      1.00000000</i>
   <i name="AMGGAX">      1.00000000</i>
   <i name="ALDAC">      1.00000000</i>
   <i name="AGGAC">      1.00000000</i>
   <i name="AMGGAC">      1.00000000</i>
   <i type="int" name="NKREDX">     1</i>
   <i type="int" name="NKREDY">     1</i>
   <i type="int" name="NKREDZ">     1</i>
   <i type="logical" name="SHIFTRED"> F  </i>
   <i type="logical" name="ODDONLY"> F  </i>
   <i type="logical" name="EVENONLY"> F  </i>
   <i type="int" name="LMAXFOCK">     0</i>
   <i type="int" name="NMAXFOCKAE">     0</i>
   <i type="logical" name="LFOCKAEDFT"> F  </i>
   <i name="HFSCREEN">      0.00000000</i>
   <i name="HFSCREENC">      0.00000000</i>
   <i type="int" name="NBANDSGWLOW">     0</i>
  </separator>
  <separator name="vdW DFT" >
   <i type="logical" name="LUSE_VDW"> F  </i>
   <i type="int" name="IVDW_NL">    -1</i>
   <i type="logical" name="LSPIN_VDW"> F  </i>
   <i name="ZAB_VDW">     -0.84910000</i>
   <i name="GAMMA_VDW">      1.39626340</i>
   <i name="ALPHA_VDW">      0.00000000</i>
   <i name="PARAM1">      0.12340000</i>
   <i name="PARAM2">      1.00000000</i>
   <i name="BPARAM">      6.30000000</i>
   <i name="CPARAM">      0.00930000</i>
  </separator>
  <separator name="model GW" >
   <i type="int" name="MODEL_GW">     0</i>
   <i name="MODEL_EPS0">     49.63935326</i>
   <i name="MODEL_ALPHA">      1.00000000</i>
  </separator>
  <separator name="linear response parameters" >
   <i type="logical" name="LEPSILON"> F  </i>
   <i type="logical" name="LRPA"> F  </i>
   <i type="logical" name="LNABLA"> F  </i>
   <i type="logical" name="LVEL"> F  </i>
   <i name="CSHIFT">      0.10000000</i>
   <i name="OMEGAMAX">     -1.00000000</i>
   <i name="DEG_THRESHOLD">      0.00200000</i>
   <i name="RTIME">     -0.10000000</i>
   <i name="WPLASMAI">      0.00000000</i>
   <v name="DFIELD">      0.00000000      0.00000000      0.00000000</v>
   <v name="WPLASMA">      0.00000000      0.00000000      0.00000000      0.00000000      0.00000000      0.00000000      0.00000000      0.00000000      0.00000000</v>
  </separator>
  <separator name="orbital magnetization" >
   <i type="logical" name="NUCIND"> F  </i>
   <v name="MAGPOS">      0.00000000      0.00000000      0.00000000</v>
   <i type="logical" name="LNICSALL"> T  </i>
   <i type="logical" name="ORBITALMAG"> F  </i>
   <i type="logical" name="LMAGBLOCH"> F  </i>
   <i type="logical" name="LCHIMAG"> F  </i>
   <i type="logical" name="LGAUGE"> T  </i>
   <i type="int" name="MAGATOM">     0</i>
   <v name="MAGDIPOL">      0.00000000      0.00000000      0.00000000</v>
   <v name="AVECCONST">      0.00000000      0.00000000      0.00000000</v>
  </separator>
  <separator name="response functions" >
   <i type="logical" name="LALL_IN_ONE"> F  </i>
   <i type="int" name="IALL_IN_ONE">    -1</i>
   <i type="int" name="NBANDS_WAVE">    -1</i>
   <i type="logical" name="LFINITE_TEMPERATURE"> F  </i>
   <i type="logical" name="LADDER"> F  </i>
   <i type="logical" name="LRPAFORCE"> F  </i>
   <i type="logical" name="LFXC"> F  </i>
   <i type="logical" name="LHARTREE"> T  </i>
   <i type="int" name="IBSE">     2</i>
   <v type="int" name="KPOINT">    -1     0     0     0</v>
   <i type="logical" name="LTCTC"> F  </i>
   <i type="logical" name="LTCTE"> F  </i>
   <i type="logical" name="LTETE"> F  </i>
   <i type="logical" name="LTRIPLET"> F  </i>
   <i type="logical" name="LFXCEPS"> F  </i>
   <i type="logical" name="LFXHEG"> F  </i>
   <i type="int" name="NATURALO">     2</i>
   <i type="logical" name="LHOLEGF"> F  </i>
   <i type="logical" name="L2ORDER"> F  </i>
   <i type="logical" name="LDMP1"> F  </i>
   <i type="logical" name="LMP2LT"> F  </i>
   <i type="logical" name="LSMP2LT"> F  </i>
   <i type="logical" name="LGWLF"> F  </i>
   <i name="ENCUTGW">     -1.60000002</i>
   <i name="ENCUTGWSOFT">     -1.60000002</i>
   <i name="ENCUTLF">     -1.00000000</i>
   <i type="logical" name="ESF_SPLINES"> F  </i>
   <i name="ESF_CONV">      0.01000000</i>
   <i type="int" name="ESF_NINTER">    15</i>
   <i type="int" name="LMAXMP2">    -1</i>
   <i name="SCISSOR">      0.00000000</i>
   <i type="int" name="NOMEGA">     0</i>
   <i type="int" name="NOMEGAR">     0</i>
   <i type="int" name="NBANDSGW">    -1</i>
   <i type="int" name="NBANDSO">    -1</i>
   <i type="int" name="NBANDSV">    -1</i>
   <i type="int" name="NELMGW">     1</i>
   <i type="int" name="NELMHF">     1</i>
   <i type="int" name="DIM">     3</i>
   <i type="int" name="IESPILON">     4</i>
   <i type="int" name="ANTIRES">     0</i>
   <i name="OMEGAMAX">    -30.00000000</i>
   <i name="OMEGAMIN">    -30.00000000</i>
   <i name="OMEGATL">   -200.00000000</i>
   <i type="int" name="OMEGAGRID">     0</i>
   <i name="CSHIFT">     -0.10000000</i>
   <i type="logical" name="LSELFENERGY"> F  </i>
   <i type="logical" name="LSPECTRAL"> F  </i>
   <i type="logical" name="LSPECTRALGW"> F  </i>
   <i type="logical" name="LSINGLES"> F  </i>
   <i type="logical" name="LFERMIGW"> F  </i>
   <i type="logical" name="ODDONLYGW"> F  </i>
   <i type="logical" name="EVENONLYGW"> F  </i>
   <i type="int" name="NKREDLFX">     1</i>
   <i type="int" name="NKREDLFY">     1</i>
   <i type="int" name="NKREDLFZ">     1</i>
   <i type="int" name="MAXMEM">  2800</i>
   <i type="int" name="TELESCOPE">     0</i>
   <i type="int" name="NTAUPAR">    -1</i>
   <i type="int" name="NOMEGAPAR">    -1</i>
   <i name="DAMP_NEWTON">      0.80000001</i>
   <i name="LAMBDA">      1.00000000</i>
  </separator>
  <separator name="External order field" >
   <i name="OFIELD_KAPPA">      0.00000000</i>
   <v name="OFIELD_K">      0.00000000      0.00000000      0.00000000</v>
   <i name="OFIELD_Q6_NEAR">      0.00000000</i>
   <i name="OFIELD_Q6_FAR">      0.00000000</i>
   <i name="OFIELD_A">      0.00000000</i>
  </separator>
  <separator name="optional k-points parameters" >
   <i type="int" name="KPOINTS_OPT_MODE">     1</i>
   <i type="logical" name="LKPOINTS_OPT"> F  </i>
  </separator>
 </parameters>
 <atominfo>
  <atoms>      92 </atoms>
  <types>       1 </types>
  <array name="atoms" >
   <dimension dim="1">ion</dimension>
   <field type="string">element</field>
   <field type="int">atomtype</field>
   <set>
    <rc><c>C </c><c>   1</c></rc>
    <rc><c>C </c><c>   1</c></rc>
    <rc><c>C </c><c>   1</c></rc>
    <rc><c>C </c><c>   1</c></rc>
    <rc><c>C </c><c>   1</c></rc>
    <rc><c>C </c><c>   1</c></rc>
    <rc><c>C </c><c>   1</c></rc>
    <rc><c>C </c><c>   1</c></rc>
    <rc><c>C </c><c>   1</c></rc>
    <rc><c>C </c><c>   1</c></rc>
    <rc><c>C </c><c>   1</c></rc>
    <rc><c>C </c><c>   1</c></rc>
    <rc><c>C </c><c>   1</c></rc>
    <rc><c>C </c><c>   1</c></rc>
    <rc><c>C </c><c>   1</c></rc>
    <rc><c>C </c><c>   1</c></rc>
    <rc><c>C </c><c>   1</c></rc>
    <rc><c>C </c><c>   1</c></rc>
    <rc><c>C </c><c>   1</c></rc>
    <rc><c>C </c><c>   1</c></rc>
    <rc><c>C </c><c>   1</c></rc>
    <rc><c>C </c><c>   1</c></rc>
    <rc><c>C </c><c>   1</c></rc>
    <rc><c>C </c><c>   1</c></rc>
    <rc><c>C </c><c>   1</c></rc>
    <rc><c>C </c><c>   1</c></rc>
    <rc><c>C </c><c>   1</c></rc>
    <rc><c>C </c><c>   1</c></rc>
    <rc><c>C </c><c>   1</c></rc>
    <rc><c>C </c><c>   1</c></rc>
    <rc><c>C </c><c>   1</c></rc>
    <rc><c>C </c><c>   1</c></rc>
    <rc><c>C </c><c>   1</c></rc>
    <rc><c>C </c><c>   1</c></rc>
    <rc><c>C </c><c>   1</c></rc>
    <rc><c>C </c><c>   1</c></rc>
    <rc><c>C </c><c>   1</c></rc>
    <rc><c>C </c><c>   1</c></rc>
    <rc><c>C </c><c>   1</c></rc>
    <rc><c>C </c><c>   1</c></rc>
    <rc><c>C </c><c>   1</c></rc>
    <rc><c>C </c><c>   1</c></rc>
    <rc><c>C </c><c>   1</c></rc>
    <rc><c>C </c><c>   1</c></rc>
    <rc><c>C </c><c>   1</c></rc>
    <rc><c>C </c><c>   1</c></rc>
    <rc><c>C </c><c>   1</c></rc>
    <rc><c>C </c><c>   1</c></rc>
    <rc><c>C </c><c>   1</c></rc>
    <rc><c>C </c><c>   1</c></rc>
    <rc><c>C </c><c>   1</c></rc>
    <rc><c>C </c><c>   1</c></rc>
    <rc><c>C </c><c>   1</c></rc>
    <rc><c>C </c><c>   1</c></rc>
    <rc><c>C </c><c>   1</c></rc>
    <rc><c>C </c><c>   1</c></rc>
    <rc><c>C </c><c>   1</c></rc>
    <rc><c>C </c><c>   1</c></rc>
    <rc><c>C </c><c>   1</c></rc>
    <rc><c>C </c><c>   1</c></rc>
    <rc><c>C </c><c>   1</c></rc>
    <rc><c>C </c><c>   1</c></rc>
    <rc><c>C </c><c>   1</c></rc>
    <rc><c>C </c><c>   1</c></rc>
    <rc><c>C </c><c>   1</c></rc>
    <rc><c>C </c><c>   1</c></rc>
    <rc><c>C </c><c>   1</c></rc>
    <rc><c>C </c><c>   1</c></rc>
    <rc><c>C </c><c>   1</c></rc>
    <rc><c>C </c><c>   1</c></rc>
    <rc><c>C </c><c>   1</c></rc>
    <rc><c>C </c><c>   1</c></rc>
    <rc><c>C </c><c>   1</c></rc>
    <rc><c>C </c><c>   1</c></rc>
    <rc><c>C </c><c>   1</c></rc>
    <rc><c>C </c><c>   1</c></rc>
    <rc><c>C </c><c>   1</c></rc>
    <rc><c>C </c><c>   1</c></rc>
    <rc><c>C </c><c>   1</c></rc>
    <rc><c>C </c><c>   1</c></rc>
    <rc><c>C </c><c>   1</c></rc>
    <rc><c>C </c><c>   1</c></rc>
    <rc><c>C </c><c>   1</c></rc>
    <rc><c>C </c><c>   1</c></rc>
    <rc><c>C </c><c>   1</c></rc>
    <rc><c>C </c><c>   1</c></rc>
    <rc><c>C </c><c>   1</c></rc>
    <rc><c>C </c><c>   1</c></rc>
    <rc><c>C </c><c>   1</c></rc>
    <rc><c>C </c><c>   1</c></rc>
    <rc><c>C </c><c>   1</c></rc>
    <rc><c>C </c><c>   1</c></rc>
   </set>
  </array>
  <array name="atomtypes" >
   <dimension dim="1">type</dimension>
   <field type="int">atomspertype</field>
   <field type="string">element</field>
   <field>mass</field>
   <field>valence</field>
   <field type="string">pseudopotential</field>
   <set>
    <rc><c>  92</c><c>C </c><c>     12.01100000</c><c>      4.00000000</c><c>  PAW_PBE C 08Apr2002                   </c></rc>
   </set>
  </array>
 </atominfo>
 <structure name="initialpos" >
  <crystal>
   <varray name="basis" >
    <v>      28.05000000       0.00000000       0.00000000 </v>
    <v>       0.00000000       8.10000000       0.00000000 </v>
    <v>       0.00000000       0.00000000      33.50000000 </v>
   </varray>
   <i name="volume">   7611.36750000 </i>
   <varray name="rec_basis" >
    <v>       0.03565062       0.00000000       0.00000000 </v>
    <v>       0.00000000       0.12345679       0.00000000 </v>
    <v>       0.00000000       0.00000000       0.02985075 </v>
   </varray>
  </crystal>
  <varray name="positions" >
   <v>       0.61442424       0.36748889       0.24656716 </v>
   <v>       0.61577540       0.53922840       0.24507463 </v>
   <v>       0.65837790       0.28282593       0.24805970 </v>
   <v>       0.65898752       0.61871358       0.24567164 </v>
   <v>       0.70259180       0.36629383       0.25522388 </v>
   <v>       0.70311586       0.53606790       0.25343284 </v>
   <v>       0.74656684       0.28431111       0.25611940 </v>
   <v>       0.74693048       0.61957778       0.25253731 </v>
   <v>       0.79206774       0.36807160       0.25641791 </v>
   <v>       0.79180036       0.53785185       0.25373134 </v>
   <v>       0.83663102       0.28645556       0.25074627 </v>
   <v>       0.83600000       0.61967407       0.24477612 </v>
   <v>       0.88121925       0.36854691       0.24447761 </v>
   <v>       0.87956506       0.53910988       0.24208955 </v>
   <v>       0.92437077       0.28537654       0.23283582 </v>
   <v>       0.92217112       0.62093210       0.22776119 </v>
   <v>       0.96705526       0.36891481       0.22537313 </v>
   <v>       0.96629947       0.53795185       0.22149254 </v>
   <v>       0.00853907       0.28722099       0.21014925 </v>
   <v>       0.00689012       0.61887160       0.20537313 </v>
   <v>       0.05117861       0.36969630       0.20029851 </v>
   <v>       0.05029020       0.53674938       0.19761194 </v>
   <v>       0.09353405       0.28455802       0.18865672 </v>
   <v>       0.09232692       0.61833827       0.18388060 </v>
   <v>       0.13579715       0.36532963       0.17850746 </v>
   <v>       0.13542103       0.53515185       0.17582090 </v>
   <v>       0.17858752       0.28574321       0.16985075 </v>
   <v>       0.17832442       0.61604568       0.16626866 </v>
   <v>       0.22297255       0.36614568       0.16955224 </v>
   <v>       0.22240820       0.53442716       0.16656716 </v>
   <v>       0.26683244       0.28545679       0.16805970 </v>
   <v>       0.26658111       0.61780123       0.16626866 </v>
   <v>       0.31039251       0.36810864       0.17432836 </v>
   <v>       0.31071337       0.53890494       0.17402985 </v>
   <v>       0.35427914       0.28610741       0.17910448 </v>
   <v>       0.35495971       0.61955432       0.17791045 </v>
   <v>       0.39596435       0.36747407       0.19313433 </v>
   <v>       0.39602496       0.54004444       0.19194030 </v>
   <v>       0.43857754       0.28495309       0.19880597 </v>
   <v>       0.43898396       0.61892222       0.19880597 </v>
   <v>       0.48011765       0.36313951       0.21343284 </v>
   <v>       0.47994296       0.53593704       0.21343284 </v>
   <v>       0.52406061       0.28326543       0.21970149 </v>
   <v>       0.52331907       0.61768148       0.22089552 </v>
   <v>       0.56308734       0.36482593       0.23582090 </v>
   <v>       0.56289483       0.53486667       0.23552239 </v>
   <v>       0.61874866       0.86106543       0.22656716 </v>
   <v>       0.61844920       0.03319667       0.22865672 </v>
   <v>       0.66056684       0.78399136       0.23701493 </v>
   <v>       0.65932264       0.12058481       0.24000000 </v>
   <v>       0.70349020       0.86958642       0.24119403 </v>
   <v>       0.70289840       0.03683617       0.24179104 </v>
   <v>       0.74705526       0.78734074       0.24567164 </v>
   <v>       0.74709447       0.11811802       0.24835821 </v>
   <v>       0.79173619       0.86811111       0.24298507 </v>
   <v>       0.79101604       0.03671938       0.24388060 </v>
   <v>       0.83505882       0.78423457       0.23671642 </v>
   <v>       0.83498396       0.11865432       0.24298507 </v>
   <v>       0.87698039       0.86817654       0.22805970 </v>
   <v>       0.87729055       0.03913370       0.23134328 </v>
   <v>       0.91893761       0.78431481       0.21880597 </v>
   <v>       0.92122995       0.11968617       0.22388060 </v>
   <v>       0.96106952       0.86765679       0.20597015 </v>
   <v>       0.96155437       0.03691000       0.20835821 </v>
   <v>       0.00403950       0.78455802       0.19671642 </v>
   <v>       0.00564053       0.12058198       0.20149254 </v>
   <v>       0.04649840       0.86918272       0.18358209 </v>
   <v>       0.04562424       0.03781370       0.18537313 </v>
   <v>       0.08949733       0.78540494       0.17582090 </v>
   <v>       0.09055009       0.11893593       0.17970149 </v>
   <v>       0.13232014       0.86732222       0.16537313 </v>
   <v>       0.13292157       0.03707444       0.16716418 </v>
   <v>       0.17718004       0.78559012       0.16149254 </v>
   <v>       0.17802531       0.11918654       0.16298507 </v>
   <v>       0.22221390       0.86732346       0.15791045 </v>
   <v>       0.22296328       0.03697926       0.15880597 </v>
   <v>       0.26666845       0.78572593       0.16059701 </v>
   <v>       0.26748663       0.11655691       0.16119403 </v>
   <v>       0.31206381       0.86730123       0.16208955 </v>
   <v>       0.31263102       0.03629296       0.16179104 </v>
   <v>       0.35626168       0.78475185       0.17074627 </v>
   <v>       0.35589127       0.11973877       0.17164179 </v>
   <v>       0.39981105       0.86641605       0.17701493 </v>
   <v>       0.40014260       0.03661210       0.17641791 </v>
   <v>       0.44204991       0.78741358       0.18955224 </v>
   <v>       0.44216043       0.11878963       0.18955224 </v>
   <v>       0.48547237       0.86502716       0.19582090 </v>
   <v>       0.48538681       0.03701914       0.19582090 </v>
   <v>       0.52694831       0.77827778       0.20955224 </v>
   <v>       0.52663815       0.11821889       0.21074627 </v>
   <v>       0.56917647       0.86171605       0.21462687 </v>
   <v>       0.56971480       0.03254852       0.21582090 </v>
  </varray>
 </structure>
 <calculation>
  <scstep>
   <time name="dav">   11.07   11.08</time>
   <time name="total">   11.53   11.57</time>
   <energy>
    <i name="alphaZ">     91.34886789 </i>
    <i name="ewald"> 120215.22982001 </i>
    <i name="hartreedc">-129526.78470443 </i>
    <i name="XCdc">   1222.42503775 </i>
    <i name="pawpsdc">   9984.02826696 </i>
    <i name="pawaedc"> -10036.41360137 </i>
    <i name="eentropy">     -0.85944846 </i>
    <i name="bandstr">  -1776.07908277 </i>
    <i name="atom">  13537.65479391 </i>
    <i name="e_fr_energy">   3710.54994948 </i>
    <i name="e_wo_entrp">   3711.40939794 </i>
    <i name="e_0_energy">   3710.97967371 </i>
   </energy>
  </scstep>
  <scstep>
   <time name="dav">   13.10   13.11</time>
   <time name="total">   13.10   13.11</time>
   <energy>
    <i name="e_fr_energy">    176.27965283 </i>
    <i name="e_wo_entrp">    176.41770871 </i>
    <i name="e_0_energy">    176.34868077 </i>
   </energy>
  </scstep>
  <scstep>
   <time name="dav">   11.21   11.22</time>
   <time name="total">   11.21   11.22</time>
   <energy>
    <i name="e_fr_energy">   -839.67544560 </i>
    <i name="e_wo_entrp">   -839.63737681 </i>
    <i name="e_0_energy">   -839.65641121 </i>
   </energy>
  </scstep>
  <scstep>
   <time name="dav">   10.98   10.99</time>
   <time name="total">   10.98   10.99</time>
   <energy>
    <i name="e_fr_energy">   -900.26979817 </i>
    <i name="e_wo_entrp">   -900.21189019 </i>
    <i name="e_0_energy">   -900.24084418 </i>
   </energy>
  </scstep>
  <scstep>
   <time name="dav">   11.34   11.34</time>
   <time name="total">   12.82   12.83</time>
   <energy>
    <i name="e_fr_energy">   -901.74157535 </i>
    <i name="e_wo_entrp">   -901.68319525 </i>
    <i name="e_0_energy">   -901.71238530 </i>
   </energy>
  </scstep>
  <scstep>
   <time name="dav">   10.30   10.31</time>
   <time name="total">   12.11   12.11</time>
   <energy>
    <i name="e_fr_energy">   -851.83736930 </i>
    <i name="e_wo_entrp">   -851.76870262 </i>
    <i name="e_0_energy">   -851.80303596 </i>
   </energy>
  </scstep>
  <scstep>
   <time name="dav">   10.21   10.22</time>
   <time name="total">   12.01   12.02</time>
   <energy>
    <i name="e_fr_energy">   -833.14977446 </i>
    <i name="e_wo_entrp">   -833.07166752 </i>
    <i name="e_0_energy">   -833.11072099 </i>
   </energy>
  </scstep>
  <scstep>
   <time name="dav">   10.42   10.42</time>
   <time name="total">   12.22   12.22</time>
   <energy>
    <i name="e_fr_energy">   -832.84368315 </i>
    <i name="e_wo_entrp">   -832.76891036 </i>
    <i name="e_0_energy">   -832.80629675 </i>
   </energy>
  </scstep>
  <scstep>
   <time name="dav">   10.54   10.54</time>
   <time name="total">   12.34   12.35</time>
   <energy>
    <i name="e_fr_energy">   -832.74146309 </i>
    <i name="e_wo_entrp">   -832.66603110 </i>
    <i name="e_0_energy">   -832.70374709 </i>
   </energy>
  </scstep>
  <scstep>
   <time name="dav">   11.10   11.11</time>
   <time name="total">   12.91   12.92</time>
   <energy>
    <i name="e_fr_energy">   -832.69981551 </i>
    <i name="e_wo_entrp">   -832.62449592 </i>
    <i name="e_0_energy">   -832.66215571 </i>
   </energy>
  </scstep>
  <scstep>
   <time name="dav">    9.91    9.91</time>
   <time name="total">   11.74   11.75</time>
   <energy>
    <i name="e_fr_energy">   -832.66982414 </i>
    <i name="e_wo_entrp">   -832.59443791 </i>
    <i name="e_0_energy">   -832.63213103 </i>
   </energy>
  </scstep>
  <scstep>
   <time name="dav">    9.95    9.96</time>
   <time name="total">   11.77   11.78</time>
   <energy>
    <i name="e_fr_energy">   -832.66924758 </i>
    <i name="e_wo_entrp">   -832.59366277 </i>
    <i name="e_0_energy">   -832.63145518 </i>
   </energy>
  </scstep>
  <scstep>
   <time name="dav">    9.95    9.95</time>
   <time name="total">   11.78   11.79</time>
   <energy>
    <i name="e_fr_energy">   -832.68207089 </i>
    <i name="e_wo_entrp">   -832.60661961 </i>
    <i name="e_0_energy">   -832.64434525 </i>
   </energy>
  </scstep>
  <scstep>
   <time name="dav">   10.12   10.12</time>
   <time name="total">   11.96   11.97</time>
   <energy>
    <i name="e_fr_energy">   -832.70049877 </i>
    <i name="e_wo_entrp">   -832.62501971 </i>
    <i name="e_0_energy">   -832.66275924 </i>
   </energy>
  </scstep>
  <scstep>
   <time name="dav">   10.00   10.01</time>
   <time name="total">   11.85   11.86</time>
   <energy>
    <i name="e_fr_energy">   -832.72058698 </i>
    <i name="e_wo_entrp">   -832.64505234 </i>
    <i name="e_0_energy">   -832.68281966 </i>
   </energy>
  </scstep>
  <scstep>
   <time name="dav">   10.40   10.41</time>
   <time name="total">   12.27   12.28</time>
   <energy>
    <i name="e_fr_energy">   -832.72898741 </i>
    <i name="e_wo_entrp">   -832.65348297 </i>
    <i name="e_0_energy">   -832.69123519 </i>
   </energy>
  </scstep>
  <scstep>
   <time name="dav">   10.20   10.20</time>
   <time name="total">   12.07   12.07</time>
   <energy>
    <i name="e_fr_energy">   -832.73286764 </i>
    <i name="e_wo_entrp">   -832.65736060 </i>
    <i name="e_0_energy">   -832.69511412 </i>
   </energy>
  </scstep>
  <scstep>
   <time name="dav">   10.07   10.07</time>
   <time name="total">   11.95   11.95</time>
   <energy>
    <i name="e_fr_energy">   -832.73517457 </i>
    <i name="e_wo_entrp">   -832.65966373 </i>
    <i name="e_0_energy">   -832.69741915 </i>
   </energy>
  </scstep>
  <scstep>
   <time name="dav">    9.02    9.02</time>
   <time name="total">   10.91   10.92</time>
   <energy>
    <i name="e_fr_energy">   -832.73595785 </i>
    <i name="e_wo_entrp">   -832.66044923 </i>
    <i name="e_0_energy">   -832.69820354 </i>
   </energy>
  </scstep>
  <scstep>
   <time name="dav">    8.82    8.82</time>
   <time name="total">   10.72   10.73</time>
   <energy>
    <i name="e_fr_energy">   -832.73632700 </i>
    <i name="e_wo_entrp">   -832.66081759 </i>
    <i name="e_0_energy">   -832.69857230 </i>
   </energy>
  </scstep>
  <scstep>
   <time name="dav">    8.35    8.36</time>
   <time name="total">   10.27   10.28</time>
   <energy>
    <i name="e_fr_energy">   -832.73650034 </i>
    <i name="e_wo_entrp">   -832.66099039 </i>
    <i name="e_0_energy">   -832.69874537 </i>
   </energy>
  </scstep>
  <scstep>
   <time name="dav">    7.33    7.34</time>
   <time name="total">    9.25    9.26</time>
   <energy>
    <i name="e_fr_energy">   -832.73655493 </i>
    <i name="e_wo_entrp">   -832.66104465 </i>
    <i name="e_0_energy">   -832.69879979 </i>
   </energy>
  </scstep>
  <scstep>
   <time name="dav">    6.91    6.91</time>
   <time name="total">    8.85    8.86</time>
   <energy>
    <i name="e_fr_energy">   -832.73658335 </i>
    <i name="e_wo_entrp">   -832.66107320 </i>
    <i name="e_0_energy">   -832.69882828 </i>
   </energy>
  </scstep>
  <scstep>
   <time name="dav">    7.05    7.05</time>
   <time name="total">    9.00    9.01</time>
   <energy>
    <i name="e_fr_energy">   -832.73659085 </i>
    <i name="e_wo_entrp">   -832.66108083 </i>
    <i name="e_0_energy">   -832.69883584 </i>
   </energy>
  </scstep>
  <scstep>
   <time name="dav">    6.72    6.72</time>
   <time name="total">    8.69    8.69</time>
   <energy>
    <i name="e_fr_energy">   -832.73659596 </i>
    <i name="e_wo_entrp">   -832.66108605 </i>
    <i name="e_0_energy">   -832.69884101 </i>
   </energy>
  </scstep>
  <scstep>
   <time name="dav">    6.97    6.97</time>
   <time name="total">    8.96    8.97</time>
   <energy>
    <i name="e_fr_energy">   -832.73659777 </i>
    <i name="e_wo_entrp">   -832.66108781 </i>
    <i name="e_0_energy">   -832.69884279 </i>
   </energy>
  </scstep>
  <scstep>
   <time name="dav">    6.91    6.92</time>
   <time name="total">    8.92    8.92</time>
   <energy>
    <i name="e_fr_energy">   -832.73660007 </i>
    <i name="e_wo_entrp">   -832.66109004 </i>
    <i name="e_0_energy">   -832.69884505 </i>
   </energy>
  </scstep>
  <scstep>
   <time name="dav">    6.84    6.85</time>
   <time name="total">    7.20    7.21</time>
   <energy>
    <i name="alphaZ">     91.34886789 </i>
    <i name="ewald"> 120215.22982001 </i>
    <i name="hartreedc">-131300.71547840 </i>
    <i name="XCdc">   1280.11437195 </i>
    <i name="pawpsdc">  41386.13549782 </i>
    <i name="pawaedc"> -41450.29380605 </i>
    <i name="eentropy">     -0.07551000 </i>
    <i name="bandstr">  -4592.13515792 </i>
    <i name="atom">  13537.65479391 </i>
    <i name="e_fr_energy">   -832.73660079 </i>
    <i name="e_wo_entrp">   -832.66109079 </i>
    <i name="e_0_energy">   -832.69884579 </i>
   </energy>
  </scstep>
  <structure>
   <crystal>
    <varray name="basis" >
     <v>      28.05000000       0.00000000       0.00000000 </v>
     <v>       0.00000000       8.10000000       0.00000000 </v>
     <v>       0.00000000       0.00000000      33.50000000 </v>
    </varray>
    <i name="volume">   7611.36750000 </i>
    <varray name="rec_basis" >
     <v>       0.03565062       0.00000000       0.00000000 </v>
     <v>       0.00000000       0.12345679       0.00000000 </v>
     <v>       0.00000000       0.00000000       0.02985075 </v>
    </varray>
   </crystal>
   <varray name="positions" >
    <v>       0.61442424       0.36748889       0.24656716 </v>
    <v>       0.61577540       0.53922840       0.24507463 </v>
    <v>       0.65837790       0.28282593       0.24805970 </v>
    <v>       0.65898752       0.61871358       0.24567164 </v>
    <v>       0.70259180       0.36629383       0.25522388 </v>
    <v>       0.70311586       0.53606790       0.25343284 </v>
    <v>       0.74656684       0.28431111       0.25611940 </v>
    <v>       0.74693048       0.61957778       0.25253731 </v>
    <v>       0.79206774       0.36807160       0.25641791 </v>
    <v>       0.79180036       0.53785185       0.25373134 </v>
    <v>       0.83663102       0.28645556       0.25074627 </v>
    <v>       0.83600000       0.61967407       0.24477612 </v>
    <v>       0.88121925       0.36854691       0.24447761 </v>
    <v>       0.87956506       0.53910988       0.24208955 </v>
    <v>       0.92437077       0.28537654       0.23283582 </v>
    <v>       0.92217112       0.62093210       0.22776119 </v>
    <v>       0.96705526       0.36891481       0.22537313 </v>
    <v>       0.96629947       0.53795185       0.22149254 </v>
    <v>       0.00853907       0.28722099       0.21014925 </v>
    <v>       0.00689012       0.61887160       0.20537313 </v>
    <v>       0.05117861       0.36969630       0.20029851 </v>
    <v>       0.05029020       0.53674938       0.19761194 </v>
    <v>       0.09353405       0.28455802       0.18865672 </v>
    <v>       0.09232692       0.61833827       0.18388060 </v>
    <v>       0.13579715       0.36532963       0.17850746 </v>
    <v>       0.13542103       0.53515185       0.17582090 </v>
    <v>       0.17858752       0.28574321       0.16985075 </v>
    <v>       0.17832442       0.61604568       0.16626866 </v>
    <v>       0.22297255       0.36614568       0.16955224 </v>
    <v>       0.22240820       0.53442716       0.16656716 </v>
    <v>       0.26683244       0.28545679       0.16805970 </v>
    <v>       0.26658111       0.61780123       0.16626866 </v>
    <v>       0.31039251       0.36810864       0.17432836 </v>
    <v>       0.31071337       0.53890494       0.17402985 </v>
    <v>       0.35427914       0.28610741       0.17910448 </v>
    <v>       0.35495971       0.61955432       0.17791045 </v>
    <v>       0.39596435       0.36747407       0.19313433 </v>
    <v>       0.39602496       0.54004444       0.19194030 </v>
    <v>       0.43857754       0.28495309       0.19880597 </v>
    <v>       0.43898396       0.61892222       0.19880597 </v>
    <v>       0.48011765       0.36313951       0.21343284 </v>
    <v>       0.47994296       0.53593704       0.21343284 </v>
    <v>       0.52406061       0.28326543       0.21970149 </v>
    <v>       0.52331907       0.61768148       0.22089552 </v>
    <v>       0.56308734       0.36482593       0.23582090 </v>
    <v>       0.56289483       0.53486667       0.23552239 </v>
    <v>       0.61874866       0.86106543       0.22656716 </v>
    <v>       0.61844920       0.03319667       0.22865672 </v>
    <v>       0.66056684       0.78399136       0.23701493 </v>
    <v>       0.65932264       0.12058481       0.24000000 </v>
    <v>       0.70349020       0.86958642       0.24119403 </v>
    <v>       0.70289840       0.03683617       0.24179104 </v>
    <v>       0.74705526       0.78734074       0.24567164 </v>
    <v>       0.74709447       0.11811802       0.24835821 </v>
    <v>       0.79173619       0.86811111       0.24298507 </v>
    <v>       0.79101604       0.03671938       0.24388060 </v>
    <v>       0.83505882       0.78423457       0.23671642 </v>
    <v>       0.83498396       0.11865432       0.24298507 </v>
    <v>       0.87698039       0.86817654       0.22805970 </v>
    <v>       0.87729055       0.03913370       0.23134328 </v>
    <v>       0.91893761       0.78431481       0.21880597 </v>
    <v>       0.92122995       0.11968617       0.22388060 </v>
    <v>       0.96106952       0.86765679       0.20597015 </v>
    <v>       0.96155437       0.03691000       0.20835821 </v>
    <v>       0.00403950       0.78455802       0.19671642 </v>
    <v>       0.00564053       0.12058198       0.20149254 </v>
    <v>       0.04649840       0.86918272       0.18358209 </v>
    <v>       0.04562424       0.03781370       0.18537313 </v>
    <v>       0.08949733       0.78540494       0.17582090 </v>
    <v>       0.09055009       0.11893593       0.17970149 </v>
    <v>       0.13232014       0.86732222       0.16537313 </v>
    <v>       0.13292157       0.03707444       0.16716418 </v>
    <v>       0.17718004       0.78559012       0.16149254 </v>
    <v>       0.17802531       0.11918654       0.16298507 </v>
    <v>       0.22221390       0.86732346       0.15791045 </v>
    <v>       0.22296328       0.03697926       0.15880597 </v>
    <v>       0.26666845       0.78572593       0.16059701 </v>
    <v>       0.26748663       0.11655691       0.16119403 </v>
    <v>       0.31206381       0.86730123       0.16208955 </v>
    <v>       0.31263102       0.03629296       0.16179104 </v>
    <v>       0.35626168       0.78475185       0.17074627 </v>
    <v>       0.35589127       0.11973877       0.17164179 </v>
    <v>       0.39981105       0.86641605       0.17701493 </v>
    <v>       0.40014260       0.03661210       0.17641791 </v>
    <v>       0.44204991       0.78741358       0.18955224 </v>
    <v>       0.44216043       0.11878963       0.18955224 </v>
    <v>       0.48547237       0.86502716       0.19582090 </v>
    <v>       0.48538681       0.03701914       0.19582090 </v>
    <v>       0.52694831       0.77827778       0.20955224 </v>
    <v>       0.52663815       0.11821889       0.21074627 </v>
    <v>       0.56917647       0.86171605       0.21462687 </v>
    <v>       0.56971480       0.03254852       0.21582090 </v>
   </varray>
  </structure>
  <varray name="forces" >
   <v>       2.09574756      -0.00021953       0.09958792 </v>
   <v>      -0.49011866      -1.38070788       0.33424725 </v>
   <v>      -0.99255081       2.37180300       0.60716264 </v>
   <v>       0.54798130      -0.50425177       0.22372292 </v>
   <v>      -0.64520461       0.06953609       0.00765900 </v>
   <v>      -0.94905330       0.08900811       0.08276446 </v>
   <v>       1.36747167       0.41444173      -0.22575080 </v>
   <v>       0.72618492      -0.20030830      -0.22413936 </v>
   <v>      -0.21092450      -0.30449083       0.10383875 </v>
   <v>       0.18757626       0.40660072      -0.04777736 </v>
   <v>       0.05338765       0.00874658      -0.38029752 </v>
   <v>      -1.14033009      -0.99266987       0.36497281 </v>
   <v>      -0.23568991      -0.35416808       0.20885383 </v>
   <v>       1.83414285      -0.34858688      -0.65292535 </v>
   <v>      -1.16531203       0.36184051       0.48015600 </v>
   <v>      -0.50102731      -1.39165411       0.42624763 </v>
   <v>       0.98046618      -0.35999827      -0.83585884 </v>
   <v>      -0.34986834       0.74768432       0.05573776 </v>
   <v>      -0.39145196      -0.28570946       0.32965105 </v>
   <v>      -0.13656534      -0.19927086       0.09449485 </v>
   <v>       0.43042154      -1.22787708       0.20539330 </v>
   <v>       0.62922122       1.09498835      -0.02144443 </v>
   <v>      -0.93038557       0.00915095      -0.57050573 </v>
   <v>      -0.71177455      -0.06767601      -0.39557988 </v>
   <v>      -0.04617217       0.82436653       0.35119710 </v>
   <v>      -0.21764310       0.11464443       0.47141494 </v>
   <v>       0.43730139      -0.60883117      -0.06023042 </v>
   <v>      -0.31833868       0.53305549       0.02845958 </v>
   <v>      -0.43666352       0.12468603      -0.38747562 </v>
   <v>       0.52291261       0.49953892       0.41798555 </v>
   <v>       0.52853119      -0.54088206      -0.04319302 </v>
   <v>       0.36501018      -0.05468093       0.04576855 </v>
   <v>      -0.01619981       0.24760497       0.09120715 </v>
   <v>      -0.55046338      -0.57814139      -0.23286856 </v>
   <v>       0.16020098       0.20932409       0.42614240 </v>
   <v>      -0.67774799      -0.41683080       0.37386768 </v>
   <v>      -1.09815364       0.42684652      -0.81939246 </v>
   <v>      -0.17513604      -1.24710778      -0.02021189 </v>
   <v>       1.04890248      -0.56031606       0.48629965 </v>
   <v>       0.73034539       0.87017000       0.10463354 </v>
   <v>      -0.13030560       1.41890599      -0.23055130 </v>
   <v>      -0.24221438      -0.74062664       0.03996705 </v>
   <v>       0.08683346      -0.07491612       0.82113553 </v>
   <v>       0.22167088      -0.90839778       0.22502555 </v>
   <v>      -0.52704873       0.35069934      -0.03477479 </v>
   <v>      -0.37113143       0.39536211       0.03274372 </v>
   <v>       2.15908171       1.25703896       0.51773790 </v>
   <v>       2.18274261      -0.02536706       0.24629149 </v>
   <v>      -0.87479755      -0.36550289      -0.13483053 </v>
   <v>      -1.00121429      -2.20063419      -0.70214846 </v>
   <v>       0.20106374      -0.59715044      -0.28715319 </v>
   <v>       0.92870804       0.83396924       0.36496149 </v>
   <v>       0.68957532      -0.20789158       0.18775041 </v>
   <v>      -0.41890270      -0.30150747      -0.08934831 </v>
   <v>      -0.84632662      -0.51403790      -0.79455271 </v>
   <v>       0.07606041       0.36406869       0.29628961 </v>
   <v>      -0.82062292       0.83058251       0.80779985 </v>
   <v>       0.45471217       0.51441231       0.07135452 </v>
   <v>      -0.09592126       0.69009124      -0.41926244 </v>
   <v>       0.44571755      -0.50408202      -0.40012290 </v>
   <v>       1.24731057       0.84669272      -0.18251056 </v>
   <v>      -0.25227898      -0.21803633       0.30245209 </v>
   <v>      -0.20586223      -0.44678462      -0.15805333 </v>
   <v>       0.52955920       0.81680965       0.19198100 </v>
   <v>       0.44190775       0.62550154      -0.15196855 </v>
   <v>      -0.60863037      -0.39330005      -0.19113971 </v>
   <v>      -1.39266812      -1.10514276       0.19593017 </v>
   <v>       1.20818870       0.91028219       0.23975348 </v>
   <v>       0.42427850      -0.01915858       0.04137728 </v>
   <v>      -0.15206047      -0.32947689       0.06492680 </v>
   <v>       0.54863975      -0.25573056      -0.03194908 </v>
   <v>       0.33815295       0.49312636      -0.14188701 </v>
   <v>       0.23863227       0.02005996      -0.10927225 </v>
   <v>      -0.16984372      -0.78071828       0.50079581 </v>
   <v>      -0.38045608      -0.20962360      -0.03480668 </v>
   <v>      -0.77047877       0.07461393      -0.28198757 </v>
   <v>       0.65148071       0.28087087      -0.06927606 </v>
   <v>       0.32156174       0.63070192       0.24887359 </v>
   <v>       0.14479269      -0.79069490      -0.07479149 </v>
   <v>      -0.33121222       0.59450897       0.31628082 </v>
   <v>      -0.79260997       0.79325533      -0.23586037 </v>
   <v>       0.06957023      -0.60177612      -0.40940749 </v>
   <v>       0.31377365       0.36937413      -0.27622409 </v>
   <v>      -0.07926912       0.59369548       0.31275275 </v>
   <v>      -0.63646181      -1.50638293       0.03884367 </v>
   <v>      -1.01590503      -0.07638942      -0.43160615 </v>
   <v>       0.72336134       0.59844867       0.17229856 </v>
   <v>       0.80800722      -0.52572058       0.38821597 </v>
   <v>      -0.08822252       1.61593807      -0.43685422 </v>
   <v>       1.07538464      -0.89976582      -0.45965153 </v>
   <v>      -1.38091101       0.20418186      -0.58044445 </v>
   <v>      -3.20444197       0.67596528      -0.77891890 </v>
  </varray>
  <varray name="stress" >
   <v>       1.06644135      -0.24217876       0.61171433 </v>
   <v>      -0.24217876      51.52841135      -0.24732347 </v>
   <v>       0.61171433      -0.24732347      -0.20162567 </v>
  </varray>
  <energy>
   <i name="e_fr_energy">   -832.73660079 </i>
   <i name="e_wo_entrp">   -832.66109079 </i>
   <i name="e_0_energy">   -832.69884579 </i>
  </energy>
  <time name="totalsc">  320.91  321.15</time>
  <eigenvalues>
   <array>
    <dimension dim="1">band</dimension>
    <dimension dim="2">kpoint</dimension>
    <dimension dim="3">spin</dimension>
    <field>eigene</field>
    <field>occ</field>
    <set>
     <set comment="spin 1">
      <set comment="kpoint 1">
       <r>  -23.2081    1.0000 </r>
       <r>  -23.0588    1.0000 </r>
       <r>  -23.0080    1.0000 </r>
       <r>  -22.6920    1.0000 </r>
       <r>  -22.6270    1.0000 </r>
       <r>  -22.3619    1.0000 </r>
       <r>  -22.0568    1.0000 </r>
       <r>  -21.9795    1.0000 </r>
       <r>  -21.5017    1.0000 </r>
       <r>  -21.4709    1.0000 </r>
       <r>  -21.4012    1.0000 </r>
       <r>  -21.3904    1.0000 </r>
       <r>  -21.2672    1.0000 </r>
       <r>  -21.2140    1.0000 </r>
       <r>  -21.1672    1.0000 </r>
       <r>  -21.0949    1.0000 </r>
       <r>  -21.0340    1.0000 </r>
       <r>  -21.0084    1.0000 </r>
       <r>  -20.8000    1.0000 </r>
       <r>  -20.5829    1.0000 </r>
       <r>  -20.4116    1.0000 </r>
       <r>  -20.3823    1.0000 </r>
       <r>  -20.1277    1.0000 </r>
       <r>  -20.0998    1.0000 </r>
       <r>  -19.9832    1.0000 </r>
       <r>  -19.7346    1.0000 </r>
       <r>  -19.5383    1.0000 </r>
       <r>  -19.4988    1.0000 </r>
       <r>  -19.1846    1.0000 </r>
       <r>  -18.9162    1.0000 </r>
       <r>  -18.6784    1.0000 </r>
       <r>  -18.6301    1.0000 </r>
       <r>  -18.5475    1.0000 </r>
       <r>  -18.4455    1.0000 </r>
       <r>  -18.1626    1.0000 </r>
       <r>  -17.6114    1.0000 </r>
       <r>  -17.3648    1.0000 </r>
       <r>  -17.1830    1.0000 </r>
       <r>  -17.0667    1.0000 </r>
       <r>  -17.0066    1.0000 </r>
       <r>  -16.9110    1.0000 </r>
       <r>  -16.7053    1.0000 </r>
       <r>  -16.6889    1.0000 </r>
       <r>  -16.6807    1.0000 </r>
       <r>  -16.6050    1.0000 </r>
       <r>  -16.5358    1.0000 </r>
       <r>  -16.5248    1.0000 </r>
       <r>  -16.4883    1.0000 </r>
       <r>  -16.4004    1.0000 </r>
       <r>  -16.3471    1.0000 </r>
       <r>  -16.3000    1.0000 </r>
       <r>  -16.1389    1.0000 </r>
       <r>  -16.1291    1.0000 </r>
       <r>  -16.0638    1.0000 </r>
       <r>  -15.9611    1.0000 </r>
       <r>  -15.6535    1.0000 </r>
       <r>  -15.4344    1.0000 </r>
       <r>  -15.3650    1.0000 </r>
       <r>  -15.3554    1.0000 </r>
       <r>  -15.2318    1.0000 </r>
       <r>  -15.1867    1.0000 </r>
       <r>  -14.9521    1.0000 </r>
       <r>  -14.4378    1.0000 </r>
       <r>  -14.1862    1.0000 </r>
       <r>  -14.1347    1.0000 </r>
       <r>  -14.0607    1.0000 </r>
       <r>  -13.9380    1.0000 </r>
       <r>  -13.7710    1.0000 </r>
       <r>  -13.6988    1.0000 </r>
       <r>  -13.6110    1.0000 </r>
       <r>  -13.4651    1.0000 </r>
       <r>  -13.3911    1.0000 </r>
       <r>  -13.3065    1.0000 </r>
       <r>  -13.2214    1.0000 </r>
       <r>  -13.0574    1.0000 </r>
       <r>  -12.9291    1.0000 </r>
       <r>  -12.6753    1.0000 </r>
       <r>  -12.4149    1.0000 </r>
       <r>  -12.1405    1.0000 </r>
       <r>  -12.0854    1.0000 </r>
       <r>  -12.0459    1.0000 </r>
       <r>  -11.9757    1.0000 </r>
       <r>  -11.8698    1.0000 </r>
       <r>  -11.8285    1.0000 </r>
       <r>  -11.7726    1.0000 </r>
       <r>  -11.5111    1.0000 </r>
       <r>  -11.3473    1.0000 </r>
       <r>  -11.2322    1.0000 </r>
       <r>  -11.1398    1.0000 </r>
       <r>  -11.0869    1.0000 </r>
       <r>  -10.8887    1.0000 </r>
       <r>  -10.8728    1.0000 </r>
       <r>  -10.7574    1.0000 </r>
       <r>  -10.7380    1.0000 </r>
       <r>  -10.6997    1.0000 </r>
       <r>  -10.6832    1.0000 </r>
       <r>  -10.5595    1.0000 </r>
       <r>  -10.5256    1.0000 </r>
       <r>  -10.4655    1.0000 </r>
       <r>  -10.4329    1.0000 </r>
       <r>  -10.3638    1.0000 </r>
       <r>  -10.3608    1.0000 </r>
       <r>  -10.3243    1.0000 </r>
       <r>  -10.2580    1.0000 </r>
       <r>  -10.0960    1.0000 </r>
       <r>  -10.0088    1.0000 </r>
       <r>   -9.8872    1.0000 </r>
       <r>   -9.8605    1.0000 </r>
       <r>   -9.7734    1.0000 </r>
       <r>   -9.7251    1.0000 </r>
       <r>   -9.6576    1.0000 </r>
       <r>   -9.6053    1.0000 </r>
       <r>   -9.5885    1.0000 </r>
       <r>   -9.5709    1.0000 </r>
       <r>   -9.5479    1.0000 </r>
       <r>   -9.5378    1.0000 </r>
       <r>   -9.5128    1.0000 </r>
       <r>   -9.4814    1.0000 </r>
       <r>   -9.4571    1.0000 </r>
       <r>   -9.4460    1.0000 </r>
       <r>   -9.4357    1.0000 </r>
       <r>   -9.4123    1.0000 </r>
       <r>   -9.4014    1.0000 </r>
       <r>   -9.3749    1.0000 </r>
       <r>   -9.3392    1.0000 </r>
       <r>   -9.3135    1.0000 </r>
       <r>   -9.2831    1.0000 </r>
       <r>   -9.2188    1.0000 </r>
       <r>   -9.1877    1.0000 </r>
       <r>   -9.1385    1.0000 </r>
       <r>   -9.0797    1.0000 </r>
       <r>   -9.0413    1.0000 </r>
       <r>   -8.9935    1.0000 </r>
       <r>   -8.9517    1.0000 </r>
       <r>   -8.9051    1.0000 </r>
       <r>   -8.9005    1.0000 </r>
       <r>   -8.8757    1.0000 </r>
       <r>   -8.8511    1.0000 </r>
       <r>   -8.8008    1.0000 </r>
       <r>   -8.7775    1.0000 </r>
       <r>   -8.6899    1.0000 </r>
       <r>   -8.6593    1.0000 </r>
       <r>   -8.6396    1.0000 </r>
       <r>   -8.6028    1.0000 </r>
       <r>   -8.5182    1.0000 </r>
       <r>   -8.4092    1.0000 </r>
       <r>   -8.0970    1.0000 </r>
       <r>   -8.0191    1.0000 </r>
       <r>   -7.9416    1.0000 </r>
       <r>   -7.7913    1.0000 </r>
       <r>   -7.6738    1.0000 </r>
       <r>   -7.6635    1.0000 </r>
       <r>   -7.6199    1.0000 </r>
       <r>   -7.5571    1.0000 </r>
       <r>   -7.4427    1.0000 </r>
       <r>   -7.3910    1.0000 </r>
       <r>   -7.3633    1.0000 </r>
       <r>   -7.1619    1.0000 </r>
       <r>   -7.0552    1.0000 </r>
       <r>   -6.9533    1.0000 </r>
       <r>   -6.7616    1.0000 </r>
       <r>   -6.7482    1.0000 </r>
       <r>   -6.6717    1.0000 </r>
       <r>   -6.5829    1.0000 </r>
       <r>   -6.5380    1.0000 </r>
       <r>   -6.2405    1.0000 </r>
       <r>   -6.2079    1.0000 </r>
       <r>   -6.0791    1.0000 </r>
       <r>   -6.0340    1.0000 </r>
       <r>   -5.9927    1.0000 </r>
       <r>   -5.9553    1.0000 </r>
       <r>   -5.9420    1.0000 </r>
       <r>   -5.9130    1.0000 </r>
       <r>   -5.0915    1.0000 </r>
       <r>   -4.9654    1.0000 </r>
       <r>   -4.9054    1.0000 </r>
       <r>   -4.7018    1.0000 </r>
       <r>   -4.5089    1.0000 </r>
       <r>   -4.4752    1.0000 </r>
       <r>   -4.4284    1.0000 </r>
       <r>   -4.4129    1.0000 </r>
       <r>   -3.7389    1.0000 </r>
       <r>   -3.6867    1.0000 </r>
       <r>   -3.1563    0.5819 </r>
       <r>   -3.0383    0.2650 </r>
       <r>   -2.6905    0.0010 </r>
       <r>   -2.6481    0.0004 </r>
       <r>   -2.3919    0.0000 </r>
       <r>   -2.1939    0.0000 </r>
       <r>   -2.0651    0.0000 </r>
       <r>   -1.6840    0.0000 </r>
       <r>   -1.6157    0.0000 </r>
       <r>   -1.5201    0.0000 </r>
       <r>   -1.4528    0.0000 </r>
       <r>   -1.3983    0.0000 </r>
       <r>   -1.3556    0.0000 </r>
       <r>   -1.2833    0.0000 </r>
       <r>   -1.0347    0.0000 </r>
       <r>   -0.7506    0.0000 </r>
       <r>   -0.6200    0.0000 </r>
       <r>   -0.4590    0.0000 </r>
       <r>   -0.3693    0.0000 </r>
       <r>   -0.0560    0.0000 </r>
       <r>    0.0594    0.0000 </r>
       <r>    0.1303    0.0000 </r>
       <r>    0.1428    0.0000 </r>
       <r>    0.3478    0.0000 </r>
       <r>    0.6445    0.0000 </r>
       <r>    0.6489    0.0000 </r>
       <r>    0.7017    0.0000 </r>
       <r>    0.7742    0.0000 </r>
       <r>    0.9082    0.0000 </r>
       <r>    0.9143    0.0000 </r>
       <r>    0.9352    0.0000 </r>
       <r>    0.9806    0.0000 </r>
       <r>    1.0441    0.0000 </r>
       <r>    1.1106    0.0000 </r>
       <r>    1.1494    0.0000 </r>
       <r>    1.1561    0.0000 </r>
       <r>    1.2161    0.0000 </r>
       <r>    1.3172    0.0000 </r>
       <r>    1.3193    0.0000 </r>
       <r>    1.3249    0.0000 </r>
       <r>    1.4037    0.0000 </r>
       <r>    1.4597    0.0000 </r>
       <r>    1.5513    0.0000 </r>
       <r>    1.5680    0.0000 </r>
       <r>    1.7207    0.0000 </r>
       <r>    1.7255    0.0000 </r>
       <r>    1.7282    0.0000 </r>
       <r>    1.7286    0.0000 </r>
       <r>    1.9133    0.0000 </r>
      </set>
      <set comment="kpoint 2">
       <r>  -23.1265    1.0000 </r>
       <r>  -22.9637    1.0000 </r>
       <r>  -22.9082    1.0000 </r>
       <r>  -22.6206    1.0000 </r>
       <r>  -22.5300    1.0000 </r>
       <r>  -22.4986    1.0000 </r>
       <r>  -22.1653    1.0000 </r>
       <r>  -22.0988    1.0000 </r>
       <r>  -21.9740    1.0000 </r>
       <r>  -21.8952    1.0000 </r>
       <r>  -21.8283    1.0000 </r>
       <r>  -21.7170    1.0000 </r>
       <r>  -21.2915    1.0000 </r>
       <r>  -21.1298    1.0000 </r>
       <r>  -21.0798    1.0000 </r>
       <r>  -20.9766    1.0000 </r>
       <r>  -20.6174    1.0000 </r>
       <r>  -20.5531    1.0000 </r>
       <r>  -20.5064    1.0000 </r>
       <r>  -20.3249    1.0000 </r>
       <r>  -20.2002    1.0000 </r>
       <r>  -20.1451    1.0000 </r>
       <r>  -20.0465    1.0000 </r>
       <r>  -19.9039    1.0000 </r>
       <r>  -19.8837    1.0000 </r>
       <r>  -19.5404    1.0000 </r>
       <r>  -19.5079    1.0000 </r>
       <r>  -19.1311    1.0000 </r>
       <r>  -19.0505    1.0000 </r>
       <r>  -18.8882    1.0000 </r>
       <r>  -18.6791    1.0000 </r>
       <r>  -18.5482    1.0000 </r>
       <r>  -18.5262    1.0000 </r>
       <r>  -18.2827    1.0000 </r>
       <r>  -18.1989    1.0000 </r>
       <r>  -18.1011    1.0000 </r>
       <r>  -18.0435    1.0000 </r>
       <r>  -18.0039    1.0000 </r>
       <r>  -17.8677    1.0000 </r>
       <r>  -17.7798    1.0000 </r>
       <r>  -17.4633    1.0000 </r>
       <r>  -17.4292    1.0000 </r>
       <r>  -17.3279    1.0000 </r>
       <r>  -17.1507    1.0000 </r>
       <r>  -17.0626    1.0000 </r>
       <r>  -16.5946    1.0000 </r>
       <r>  -16.4112    1.0000 </r>
       <r>  -16.2102    1.0000 </r>
       <r>  -16.0695    1.0000 </r>
       <r>  -15.8887    1.0000 </r>
       <r>  -15.8361    1.0000 </r>
       <r>  -15.6351    1.0000 </r>
       <r>  -15.6004    1.0000 </r>
       <r>  -15.3384    1.0000 </r>
       <r>  -15.3106    1.0000 </r>
       <r>  -15.2524    1.0000 </r>
       <r>  -15.1715    1.0000 </r>
       <r>  -15.1445    1.0000 </r>
       <r>  -15.0178    1.0000 </r>
       <r>  -14.9603    1.0000 </r>
       <r>  -14.9566    1.0000 </r>
       <r>  -14.7697    1.0000 </r>
       <r>  -14.5507    1.0000 </r>
       <r>  -14.4385    1.0000 </r>
       <r>  -14.3242    1.0000 </r>
       <r>  -14.1442    1.0000 </r>
       <r>  -13.9794    1.0000 </r>
       <r>  -13.9011    1.0000 </r>
       <r>  -13.3662    1.0000 </r>
       <r>  -13.2293    1.0000 </r>
       <r>  -13.2148    1.0000 </r>
       <r>  -13.1812    1.0000 </r>
       <r>  -12.8965    1.0000 </r>
       <r>  -12.8207    1.0000 </r>
       <r>  -12.7856    1.0000 </r>
       <r>  -12.7661    1.0000 </r>
       <r>  -12.6626    1.0000 </r>
       <r>  -12.5571    1.0000 </r>
       <r>  -12.3933    1.0000 </r>
       <r>  -12.3615    1.0000 </r>
       <r>  -12.1532    1.0000 </r>
       <r>  -12.1330    1.0000 </r>
       <r>  -12.0736    1.0000 </r>
       <r>  -11.9849    1.0000 </r>
       <r>  -11.8105    1.0000 </r>
       <r>  -11.6400    1.0000 </r>
       <r>  -11.4366    1.0000 </r>
       <r>  -11.3587    1.0000 </r>
       <r>  -11.2660    1.0000 </r>
       <r>  -11.1793    1.0000 </r>
       <r>  -11.0371    1.0000 </r>
       <r>  -11.0229    1.0000 </r>
       <r>  -10.9861    1.0000 </r>
       <r>  -10.9444    1.0000 </r>
       <r>  -10.9036    1.0000 </r>
       <r>  -10.8861    1.0000 </r>
       <r>  -10.8755    1.0000 </r>
       <r>  -10.8519    1.0000 </r>
       <r>  -10.8243    1.0000 </r>
       <r>  -10.6436    1.0000 </r>
       <r>  -10.5745    1.0000 </r>
       <r>  -10.4732    1.0000 </r>
       <r>  -10.4567    1.0000 </r>
       <r>  -10.4264    1.0000 </r>
       <r>  -10.3932    1.0000 </r>
       <r>  -10.3659    1.0000 </r>
       <r>  -10.3054    1.0000 </r>
       <r>  -10.1169    1.0000 </r>
       <r>  -10.0931    1.0000 </r>
       <r>  -10.0702    1.0000 </r>
       <r>   -9.9612    1.0000 </r>
       <r>   -9.9608    1.0000 </r>
       <r>   -9.9133    1.0000 </r>
       <r>   -9.8013    1.0000 </r>
       <r>   -9.7185    1.0000 </r>
       <r>   -9.6637    1.0000 </r>
       <r>   -9.6550    1.0000 </r>
       <r>   -9.6089    1.0000 </r>
       <r>   -9.5817    1.0000 </r>
       <r>   -9.5632    1.0000 </r>
       <r>   -9.5155    1.0000 </r>
       <r>   -9.4882    1.0000 </r>
       <r>   -9.4534    1.0000 </r>
       <r>   -9.3432    1.0000 </r>
       <r>   -9.3194    1.0000 </r>
       <r>   -9.2589    1.0000 </r>
       <r>   -9.0719    1.0000 </r>
       <r>   -8.9367    1.0000 </r>
       <r>   -8.8668    1.0000 </r>
       <r>   -8.8225    1.0000 </r>
       <r>   -8.7864    1.0000 </r>
       <r>   -8.7392    1.0000 </r>
       <r>   -8.6880    1.0000 </r>
       <r>   -8.6367    1.0000 </r>
       <r>   -8.5846    1.0000 </r>
       <r>   -8.5556    1.0000 </r>
       <r>   -8.5233    1.0000 </r>
       <r>   -8.4605    1.0000 </r>
       <r>   -8.3813    1.0000 </r>
       <r>   -8.3312    1.0000 </r>
       <r>   -8.2660    1.0000 </r>
       <r>   -8.2190    1.0000 </r>
       <r>   -8.1579    1.0000 </r>
       <r>   -8.1128    1.0000 </r>
       <r>   -8.0684    1.0000 </r>
       <r>   -8.0461    1.0000 </r>
       <r>   -8.0210    1.0000 </r>
       <r>   -7.8902    1.0000 </r>
       <r>   -7.8010    1.0000 </r>
       <r>   -7.7423    1.0000 </r>
       <r>   -7.6892    1.0000 </r>
       <r>   -7.5868    1.0000 </r>
       <r>   -7.5290    1.0000 </r>
       <r>   -7.4839    1.0000 </r>
       <r>   -7.3376    1.0000 </r>
       <r>   -7.3087    1.0000 </r>
       <r>   -7.2693    1.0000 </r>
       <r>   -7.0174    1.0000 </r>
       <r>   -6.9550    1.0000 </r>
       <r>   -6.9243    1.0000 </r>
       <r>   -6.8244    1.0000 </r>
       <r>   -6.7253    1.0000 </r>
       <r>   -6.6739    1.0000 </r>
       <r>   -6.6216    1.0000 </r>
       <r>   -6.5140    1.0000 </r>
       <r>   -6.3209    1.0000 </r>
       <r>   -6.2455    1.0000 </r>
       <r>   -6.1226    1.0000 </r>
       <r>   -6.0905    1.0000 </r>
       <r>   -6.0094    1.0000 </r>
       <r>   -5.9093    1.0000 </r>
       <r>   -5.7962    1.0000 </r>
       <r>   -5.7444    1.0000 </r>
       <r>   -5.6968    1.0000 </r>
       <r>   -5.5992    1.0000 </r>
       <r>   -5.5222    1.0000 </r>
       <r>   -5.1968    1.0000 </r>
       <r>   -5.1342    1.0000 </r>
       <r>   -4.7183    1.0000 </r>
       <r>   -4.6694    1.0000 </r>
       <r>   -4.5473    1.0000 </r>
       <r>   -4.4919    1.0000 </r>
       <r>   -4.4399    1.0000 </r>
       <r>   -3.4756    0.9931 </r>
       <r>   -2.9307    0.0824 </r>
       <r>   -2.4422    0.0000 </r>
       <r>   -2.0800    0.0000 </r>
       <r>   -2.0259    0.0000 </r>
       <r>   -1.5603    0.0000 </r>
       <r>   -1.4533    0.0000 </r>
       <r>   -1.3678    0.0000 </r>
       <r>   -1.3383    0.0000 </r>
       <r>   -1.2968    0.0000 </r>
       <r>   -1.2709    0.0000 </r>
       <r>   -1.0381    0.0000 </r>
       <r>   -1.0025    0.0000 </r>
       <r>   -0.9402    0.0000 </r>
       <r>   -0.8714    0.0000 </r>
       <r>   -0.7742    0.0000 </r>
       <r>   -0.4345    0.0000 </r>
       <r>   -0.1338    0.0000 </r>
       <r>   -0.0729    0.0000 </r>
       <r>    0.0030    0.0000 </r>
       <r>    0.0846    0.0000 </r>
       <r>    0.1278    0.0000 </r>
       <r>    0.2484    0.0000 </r>
       <r>    0.2621    0.0000 </r>
       <r>    0.3125    0.0000 </r>
       <r>    0.3526    0.0000 </r>
       <r>    0.7909    0.0000 </r>
       <r>    0.7973    0.0000 </r>
       <r>    0.8435    0.0000 </r>
       <r>    1.0488    0.0000 </r>
       <r>    1.0551    0.0000 </r>
       <r>    1.1230    0.0000 </r>
       <r>    1.1488    0.0000 </r>
       <r>    1.2204    0.0000 </r>
       <r>    1.2439    0.0000 </r>
       <r>    1.2930    0.0000 </r>
       <r>    1.2993    0.0000 </r>
       <r>    1.3587    0.0000 </r>
       <r>    1.3980    0.0000 </r>
       <r>    1.4348    0.0000 </r>
       <r>    1.4578    0.0000 </r>
       <r>    1.4656    0.0000 </r>
       <r>    1.4677    0.0000 </r>
       <r>    1.5463    0.0000 </r>
       <r>    1.6010    0.0000 </r>
       <r>    1.6358    0.0000 </r>
       <r>    1.6930    0.0000 </r>
       <r>    1.7100    0.0000 </r>
       <r>    1.7672    0.0000 </r>
      </set>
      <set comment="kpoint 3">
       <r>  -22.9685    1.0000 </r>
       <r>  -22.7862    1.0000 </r>
       <r>  -22.6859    1.0000 </r>
       <r>  -22.6685    1.0000 </r>
       <r>  -22.6036    1.0000 </r>
       <r>  -22.5726    1.0000 </r>
       <r>  -22.3293    1.0000 </r>
       <r>  -22.2724    1.0000 </r>
       <r>  -22.2279    1.0000 </r>
       <r>  -22.2143    1.0000 </r>
       <r>  -21.7365    1.0000 </r>
       <r>  -21.6738    1.0000 </r>
       <r>  -21.5920    1.0000 </r>
       <r>  -21.5585    1.0000 </r>
       <r>  -20.9125    1.0000 </r>
       <r>  -20.8608    1.0000 </r>
       <r>  -20.6968    1.0000 </r>
       <r>  -20.6692    1.0000 </r>
       <r>  -19.9106    1.0000 </r>
       <r>  -19.8685    1.0000 </r>
       <r>  -19.6309    1.0000 </r>
       <r>  -19.5939    1.0000 </r>
       <r>  -19.5266    1.0000 </r>
       <r>  -19.5083    1.0000 </r>
       <r>  -19.4381    1.0000 </r>
       <r>  -19.4196    1.0000 </r>
       <r>  -19.3173    1.0000 </r>
       <r>  -19.2984    1.0000 </r>
       <r>  -19.0995    1.0000 </r>
       <r>  -19.0777    1.0000 </r>
       <r>  -18.9648    1.0000 </r>
       <r>  -18.9346    1.0000 </r>
       <r>  -18.6238    1.0000 </r>
       <r>  -18.5872    1.0000 </r>
       <r>  -18.5080    1.0000 </r>
       <r>  -18.4767    1.0000 </r>
       <r>  -18.2843    1.0000 </r>
       <r>  -18.2674    1.0000 </r>
       <r>  -18.1572    1.0000 </r>
       <r>  -18.1322    1.0000 </r>
       <r>  -17.7295    1.0000 </r>
       <r>  -17.7079    1.0000 </r>
       <r>  -17.6567    1.0000 </r>
       <r>  -17.6486    1.0000 </r>
       <r>  -16.9414    1.0000 </r>
       <r>  -16.8937    1.0000 </r>
       <r>  -16.2925    1.0000 </r>
       <r>  -16.2732    1.0000 </r>
       <r>  -16.0746    1.0000 </r>
       <r>  -16.0370    1.0000 </r>
       <r>  -15.9311    1.0000 </r>
       <r>  -15.8950    1.0000 </r>
       <r>  -15.2801    1.0000 </r>
       <r>  -15.2733    1.0000 </r>
       <r>  -15.0935    1.0000 </r>
       <r>  -15.0710    1.0000 </r>
       <r>  -14.8465    1.0000 </r>
       <r>  -14.8026    1.0000 </r>
       <r>  -14.7215    1.0000 </r>
       <r>  -14.6873    1.0000 </r>
       <r>  -13.9773    1.0000 </r>
       <r>  -13.9558    1.0000 </r>
       <r>  -13.7546    1.0000 </r>
       <r>  -13.7376    1.0000 </r>
       <r>  -13.7173    1.0000 </r>
       <r>  -13.6889    1.0000 </r>
       <r>  -13.6679    1.0000 </r>
       <r>  -13.6125    1.0000 </r>
       <r>  -13.5734    1.0000 </r>
       <r>  -13.5728    1.0000 </r>
       <r>  -13.5655    1.0000 </r>
       <r>  -13.5498    1.0000 </r>
       <r>  -13.4463    1.0000 </r>
       <r>  -13.4190    1.0000 </r>
       <r>  -13.2254    1.0000 </r>
       <r>  -13.1765    1.0000 </r>
       <r>  -12.3662    1.0000 </r>
       <r>  -12.3406    1.0000 </r>
       <r>  -12.1909    1.0000 </r>
       <r>  -12.1629    1.0000 </r>
       <r>  -12.1275    1.0000 </r>
       <r>  -12.1099    1.0000 </r>
       <r>  -11.9667    1.0000 </r>
       <r>  -11.9471    1.0000 </r>
       <r>  -11.8555    1.0000 </r>
       <r>  -11.8487    1.0000 </r>
       <r>  -11.8336    1.0000 </r>
       <r>  -11.8007    1.0000 </r>
       <r>  -11.6737    1.0000 </r>
       <r>  -11.6673    1.0000 </r>
       <r>  -11.2949    1.0000 </r>
       <r>  -11.2621    1.0000 </r>
       <r>  -11.2203    1.0000 </r>
       <r>  -11.2000    1.0000 </r>
       <r>  -11.0232    1.0000 </r>
       <r>  -10.9953    1.0000 </r>
       <r>  -10.7706    1.0000 </r>
       <r>  -10.7312    1.0000 </r>
       <r>  -10.7088    1.0000 </r>
       <r>  -10.6829    1.0000 </r>
       <r>  -10.5532    1.0000 </r>
       <r>  -10.5220    1.0000 </r>
       <r>  -10.5131    1.0000 </r>
       <r>  -10.4938    1.0000 </r>
       <r>  -10.4656    1.0000 </r>
       <r>  -10.4482    1.0000 </r>
       <r>  -10.3067    1.0000 </r>
       <r>  -10.2746    1.0000 </r>
       <r>  -10.2690    1.0000 </r>
       <r>  -10.2496    1.0000 </r>
       <r>  -10.2371    1.0000 </r>
       <r>  -10.1884    1.0000 </r>
       <r>  -10.1229    1.0000 </r>
       <r>  -10.1142    1.0000 </r>
       <r>  -10.0662    1.0000 </r>
       <r>  -10.0365    1.0000 </r>
       <r>  -10.0242    1.0000 </r>
       <r>  -10.0028    1.0000 </r>
       <r>   -9.7423    1.0000 </r>
       <r>   -9.7353    1.0000 </r>
       <r>   -9.3866    1.0000 </r>
       <r>   -9.3562    1.0000 </r>
       <r>   -9.3543    1.0000 </r>
[...]
       <r>   -22.6843    14.6768     7.0126 </r>
       <r>   -22.5872    16.6857     8.6323 </r>
       <r>   -22.4901    16.2946    10.2141 </r>
       <r>   -22.3931    13.9602    11.5692 </r>
       <r>   -22.2960    12.5612    12.7886 </r>
       <r>   -22.1989    13.0877    14.0590 </r>
       <r>   -22.1018    14.1479    15.4324 </r>
       <r>   -22.0048    14.5956    16.8492 </r>
       <r>   -21.9077    14.4114    18.2481 </r>
       <r>   -21.8106    13.8510    19.5927 </r>
       <r>   -21.7136    13.0341    20.8579 </r>
       <r>   -21.6165    12.0963    22.0321 </r>
       <r>   -21.5194    11.4032    23.1390 </r>
       <r>   -21.4223    11.3936    24.2450 </r>
       <r>   -21.3253    12.3049    25.4395 </r>
       <r>   -21.2282    14.1046    26.8086 </r>
       <r>   -21.1311    16.0989    28.3714 </r>
       <r>   -21.0341    16.7823    30.0005 </r>
       <r>   -20.9370    15.2177    31.4777 </r>
       <r>   -20.8399    12.6317    32.7039 </r>
       <r>   -20.7428    11.4462    33.8150 </r>
       <r>   -20.6458    12.4943    35.0278 </r>
       <r>   -20.5487    13.9991    36.3867 </r>
       <r>   -20.4516    14.0243    37.7481 </r>
       <r>   -20.3546    13.0400    39.0139 </r>
       <r>   -20.2575    12.8217    40.2585 </r>
       <r>   -20.1604    13.9187    41.6096 </r>
       <r>   -20.0633    15.2764    43.0925 </r>
       <r>   -19.9663    15.7358    44.6200 </r>
       <r>   -19.8692    14.7974    46.0564 </r>
       <r>   -19.7721    13.0408    47.3223 </r>
       <r>   -19.6751    12.7872    48.5636 </r>
       <r>   -19.5780    15.2270    50.0417 </r>
       <r>   -19.4809    17.3855    51.7293 </r>
       <r>   -19.3838    16.1621    53.2982 </r>
       <r>   -19.2868    13.2556    54.5849 </r>
       <r>   -19.1897    12.1974    55.7690 </r>
       <r>   -19.0926    13.2908    57.0591 </r>
       <r>   -18.9956    14.1523    58.4329 </r>
       <r>   -18.8985    13.4005    59.7337 </r>
       <r>   -18.8014    12.3731    60.9348 </r>
       <r>   -18.7043    13.5044    62.2457 </r>
       <r>   -18.6073    16.6670    63.8636 </r>
       <r>   -18.5102    18.5175    65.6611 </r>
       <r>   -18.4131    17.4146    67.3516 </r>
       <r>   -18.3161    16.0560    68.9101 </r>
       <r>   -18.2190    16.7704    70.5381 </r>
       <r>   -18.1219    17.9044    72.2761 </r>
       <r>   -18.0248    17.0312    73.9293 </r>
       <r>   -17.9278    14.5972    75.3463 </r>
       <r>   -17.8307    12.8166    76.5904 </r>
       <r>   -17.7336    12.3876    77.7929 </r>
       <r>   -17.6366    12.1777    78.9750 </r>
       <r>   -17.5395    11.7676    80.1173 </r>
       <r>   -17.4424    11.7339    81.2563 </r>
       <r>   -17.3453    11.8048    82.4022 </r>
       <r>   -17.2483    11.5991    83.5282 </r>
       <r>   -17.1512    11.7644    84.6702 </r>
       <r>   -17.0541    12.2132    85.8557 </r>
       <r>   -16.9571    11.7440    86.9957 </r>
       <r>   -16.8600    10.3558    88.0010 </r>
       <r>   -16.7629     9.8150    88.9537 </r>
       <r>   -16.6658    11.2806    90.0488 </r>
       <r>   -16.5688    13.6078    91.3697 </r>
       <r>   -16.4717    15.1320    92.8386 </r>
       <r>   -16.3746    15.7300    94.3655 </r>
       <r>   -16.2776    16.1324    95.9315 </r>
       <r>   -16.1805    16.7695    97.5594 </r>
       <r>   -16.0834    17.4662    99.2548 </r>
       <r>   -15.9863    17.4543   100.9491 </r>
       <r>   -15.8893    16.0961   102.5116 </r>
       <r>   -15.7922    13.7368   103.8451 </r>
       <r>   -15.6951    11.6948   104.9803 </r>
       <r>   -15.5981    10.9084   106.0392 </r>
       <r>   -15.5010    11.6592   107.1710 </r>
       <r>   -15.4039    14.7894   108.6066 </r>
       <r>   -15.3068    19.7501   110.5238 </r>
       <r>   -15.2098    23.3172   112.7872 </r>
       <r>   -15.1127    23.5170   115.0700 </r>
       <r>   -15.0156    21.5410   117.1611 </r>
       <r>   -14.9186    18.8794   118.9937 </r>
       <r>   -14.8215    15.9658   120.5435 </r>
       <r>   -14.7244    13.1453   121.8196 </r>
       <r>   -14.6273    10.9542   122.8829 </r>
       <r>   -14.5303     9.9166   123.8455 </r>
       <r>   -14.4332     9.8443   124.8011 </r>
       <r>   -14.3361     9.9465   125.7667 </r>
       <r>   -14.2391    10.2935   126.7659 </r>
       <r>   -14.1420    11.6007   127.8920 </r>
       <r>   -14.0449    13.6458   129.2166 </r>
       <r>   -13.9478    15.3315   130.7048 </r>
       <r>   -13.8508    16.2486   132.2821 </r>
       <r>   -13.7537    17.3162   133.9630 </r>
       <r>   -13.6566    18.8397   135.7918 </r>
       <r>   -13.5596    19.5834   137.6928 </r>
       <r>   -13.4625    19.2250   139.5590 </r>
       <r>   -13.3654    19.0991   141.4130 </r>
       <r>   -13.2683    19.5543   143.3111 </r>
       <r>   -13.1713    18.7027   145.1266 </r>
       <r>   -13.0742    15.5830   146.6393 </r>
       <r>   -12.9771    12.8829   147.8899 </r>
       <r>   -12.8801    13.2104   149.1722 </r>
       <r>   -12.7830    15.0241   150.6306 </r>
       <r>   -12.6859    15.3034   152.1162 </r>
       <r>   -12.5888    13.8794   153.4635 </r>
       <r>   -12.4918    13.0417   154.7294 </r>
       <r>   -12.3947    14.1276   156.1008 </r>
       <r>   -12.2976    16.6492   157.7170 </r>
       <r>   -12.2006    20.2975   159.6873 </r>
       <r>   -12.1035    24.2212   162.0385 </r>
       <r>   -12.0064    26.1038   164.5724 </r>
       <r>   -11.9093    25.3056   167.0289 </r>
       <r>   -11.8123    22.9491   169.2566 </r>
       <r>   -11.7152    19.3897   171.1388 </r>
       <r>   -11.6181    15.3406   172.6279 </r>
       <r>   -11.5211    12.9057   173.8807 </r>
       <r>   -11.4240    13.7445   175.2149 </r>
       <r>   -11.3269    17.2686   176.8911 </r>
       <r>   -11.2298    21.2489   178.9538 </r>
       <r>   -11.1328    24.6347   181.3451 </r>
       <r>   -11.0357    28.5252   184.1141 </r>
       <r>   -10.9386    32.9091   187.3087 </r>
       <r>   -10.8416    35.2074   190.7263 </r>
       <r>   -10.7445    34.3904   194.0646 </r>
       <r>   -10.6474    33.4549   197.3121 </r>
       <r>   -10.5503    35.5814   200.7661 </r>
       <r>   -10.4533    39.4796   204.5984 </r>
       <r>   -10.3562    40.7915   208.5581 </r>
       <r>   -10.2591    38.2470   212.2708 </r>
       <r>   -10.1621    35.1798   215.6857 </r>
       <r>   -10.0650    33.8620   218.9728 </r>
       <r>    -9.9679    32.6304   222.1403 </r>
       <r>    -9.8708    30.7200   225.1223 </r>
       <r>    -9.7738    31.0775   228.1390 </r>
       <r>    -9.6767    35.7755   231.6118 </r>
       <r>    -9.5796    42.4277   235.7303 </r>
       <r>    -9.4826    46.8267   240.2759 </r>
       <r>    -9.3855    46.6011   244.7995 </r>
       <r>    -9.2884    41.5344   248.8313 </r>
       <r>    -9.1913    33.6599   252.0987 </r>
       <r>    -9.0943    27.6139   254.7793 </r>
       <r>    -8.9972    26.9402   257.3944 </r>
       <r>    -8.9001    30.6970   260.3742 </r>
       <r>    -8.8031    35.4004   263.8106 </r>
       <r>    -8.7060    38.1283   267.5117 </r>
       <r>    -8.6089    37.7119   271.1725 </r>
       <r>    -8.5118    34.8534   274.5557 </r>
       <r>    -8.4148    31.6672   277.6297 </r>
       <r>    -8.3177    30.0494   280.5467 </r>
       <r>    -8.2206    29.8617   283.4454 </r>
       <r>    -8.1236    29.3338   286.2929 </r>
       <r>    -8.0265    27.2034   288.9335 </r>
       <r>    -7.9294    24.6341   291.3248 </r>
       <r>    -7.8323    24.5571   293.7086 </r>
       <r>    -7.7353    27.5520   296.3831 </r>
       <r>    -7.6382    30.5341   299.3471 </r>
       <r>    -7.5411    31.0876   302.3648 </r>
       <r>    -7.4441    30.1061   305.2873 </r>
       <r>    -7.3470    29.1206   308.1140 </r>
       <r>    -7.2499    27.6605   310.7991 </r>
       <r>    -7.1528    25.3031   313.2553 </r>
       <r>    -7.0558    23.5581   315.5421 </r>
       <r>    -6.9587    23.5256   317.8258 </r>
       <r>    -6.8616    24.8245   320.2355 </r>
       <r>    -6.7646    26.7338   322.8306 </r>
       <r>    -6.6675    27.4888   325.4990 </r>
       <r>    -6.5704    25.0709   327.9327 </r>
       <r>    -6.4733    20.7702   329.9489 </r>
       <r>    -6.3763    18.2104   331.7166 </r>
       <r>    -6.2792    18.4737   333.5098 </r>
       <r>    -6.1821    20.0686   335.4579 </r>
       <r>    -6.0851    22.3156   337.6241 </r>
       <r>    -5.9880    24.8458   340.0359 </r>
       <r>    -5.8909    26.0629   342.5659 </r>
       <r>    -5.7938    25.0064   344.9933 </r>
       <r>    -5.6968    22.3962   347.1674 </r>
       <r>    -5.5997    18.7532   348.9878 </r>
       <r>    -5.5026    14.1481   350.3611 </r>
       <r>    -5.4056    10.1806   351.3494 </r>
       <r>    -5.3085     9.4332   352.2651 </r>
       <r>    -5.2114    11.5779   353.3890 </r>
       <r>    -5.1143    12.7905   354.6306 </r>
       <r>    -5.0173    10.9951   355.6979 </r>
       <r>    -4.9202     8.3630   356.5097 </r>
       <r>    -4.8231     7.7208   357.2591 </r>
       <r>    -4.7261     9.6766   358.1985 </r>
       <r>    -4.6290    12.9690   359.4574 </r>
       <r>    -4.5319    15.6865   360.9801 </r>
       <r>    -4.4348    15.7472   362.5087 </r>
       <r>    -4.3378    12.2765   363.7004 </r>
       <r>    -4.2407     7.4544   364.4240 </r>
       <r>    -4.1436     4.1626   364.8281 </r>
       <r>    -4.0466     2.8317   365.1029 </r>
       <r>    -3.9495     2.4566   365.3414 </r>
       <r>    -3.8524     2.5395   365.5879 </r>
       <r>    -3.7553     3.0592   365.8849 </r>
       <r>    -3.6583     3.6753   366.2417 </r>
       <r>    -3.5612     3.9706   366.6271 </r>
       <r>    -3.4641     3.8262   366.9985 </r>
       <r>    -3.3671     3.2153   367.3106 </r>
       <r>    -3.2700     2.6200   367.5649 </r>
       <r>    -3.1729     2.8268   367.8393 </r>
       <r>    -3.0758     3.8049   368.2087 </r>
       <r>    -2.9788     4.7486   368.6696 </r>
       <r>    -2.8817     5.1027   369.1650 </r>
       <r>    -2.7846     5.2694   369.6765 </r>
       <r>    -2.6876     5.9368   370.2528 </r>
       <r>    -2.5905     6.8546   370.9182 </r>
       <r>    -2.4934     7.3010   371.6269 </r>
       <r>    -2.3963     6.9587   372.3024 </r>
       <r>    -2.2993     6.2394   372.9080 </r>
       <r>    -2.2022     6.3614   373.5256 </r>
       <r>    -2.1051     7.5655   374.2599 </r>
       <r>    -2.0081     7.9654   375.0332 </r>
       <r>    -1.9110     6.4377   375.6581 </r>
       <r>    -1.8139     5.1319   376.1562 </r>
       <r>    -1.7168     7.0475   376.8403 </r>
       <r>    -1.6198    12.4329   378.0472 </r>
       <r>    -1.5227    18.6065   379.8534 </r>
       <r>    -1.4256    22.6691   382.0539 </r>
       <r>    -1.3286    23.3484   384.3204 </r>
       <r>    -1.2315    21.2575   386.3839 </r>
       <r>    -1.1344    19.1486   388.2427 </r>
       <r>    -1.0373    18.9203   390.0793 </r>
       <r>    -0.9403    18.6177   391.8865 </r>
       <r>    -0.8432    16.2945   393.4683 </r>
       <r>    -0.7461    13.2514   394.7546 </r>
       <r>    -0.6491    11.4938   395.8703 </r>
       <r>    -0.5520    11.4351   396.9803 </r>
       <r>    -0.4549    11.8000   398.1258 </r>
       <r>    -0.3578    11.2090   399.2139 </r>
       <r>    -0.2608    10.8043   400.2626 </r>
       <r>    -0.1637    13.1425   401.5384 </r>
       <r>    -0.0666    17.7283   403.2593 </r>
       <r>     0.0304    21.3026   405.3272 </r>
       <r>     0.1275    22.3338   407.4952 </r>
       <r>     0.2246    21.8825   409.6193 </r>
       <r>     0.3217    20.9486   411.6528 </r>
       <r>     0.4187    19.6529   413.5606 </r>
       <r>     0.5158    19.0366   415.4085 </r>
       <r>     0.6129    20.8930   417.4366 </r>
       <r>     0.7099    24.8441   419.8482 </r>
       <r>     0.8070    27.9979   422.5660 </r>
       <r>     0.9041    29.0038   425.3815 </r>
       <r>     1.0012    30.6910   428.3607 </r>
       <r>     1.0982    36.2872   431.8832 </r>
       <r>     1.1953    44.3429   436.1876 </r>
       <r>     1.2924    50.3425   441.0744 </r>
       <r>     1.3894    51.9795   446.1201 </r>
       <r>     1.4865    49.7109   450.9457 </r>
       <r>     1.5836    44.1695   455.2333 </r>
       <r>     1.6807    36.0455   458.7322 </r>
       <r>     1.7777    26.2484   461.2802 </r>
       <r>     1.8748    16.0669   462.8398 </r>
       <r>     1.9719     7.8228   463.5992 </r>
       <r>     2.0689     2.9851   463.8890 </r>
       <r>     2.1660     0.8971   463.9761 </r>
       <r>     2.2631     0.2074   463.9962 </r>
       <r>     2.3602     0.0348   463.9996 </r>
       <r>     2.4572     0.0040   464.0000 </r>
       <r>     2.5543     0.0003   464.0000 </r>
       <r>     2.6514     0.0000   464.0000 </r>
       <r>     2.7485     0.0000   464.0000 </r>
       <r>     2.8455     0.0000   464.0000 </r>
       <r>     2.9426     0.0000   464.0000 </r>
       <r>     3.0397     0.0000   464.0000 </r>
       <r>     3.1367     0.0000   464.0000 </r>
       <r>     3.2338     0.0000   464.0000 </r>
       <r>     3.3309     0.0000   464.0000 </r>
       <r>     3.4280     0.0000   464.0000 </r>
       <r>     3.5250     0.0000   464.0000 </r>
       <r>     3.6221     0.0000   464.0000 </r>
       <r>     3.7192     0.0000   464.0000 </r>
       <r>     3.8162     0.0000   464.0000 </r>
       <r>     3.9133     0.0000   464.0000 </r>
      </set>
     </set>
    </array>
   </total>
  </dos>
 </calculation>
 <structure name="finalpos" >
  <crystal>
   <varray name="basis" >
    <v>      28.05000000       0.00000000       0.00000000 </v>
    <v>       0.00000000       8.10000000       0.00000000 </v>
    <v>       0.00000000       0.00000000      33.50000000 </v>
   </varray>
   <i name="volume">   7611.36750000 </i>
   <varray name="rec_basis" >
    <v>       0.03565062       0.00000000       0.00000000 </v>
    <v>       0.00000000       0.12345679       0.00000000 </v>
    <v>       0.00000000       0.00000000       0.02985075 </v>
   </varray>
  </crystal>
  <varray name="positions" >
   <v>       0.61442424       0.36748889       0.24656716 </v>
   <v>       0.61577540       0.53922840       0.24507463 </v>
   <v>       0.65837790       0.28282593       0.24805970 </v>
   <v>       0.65898752       0.61871358       0.24567164 </v>
   <v>       0.70259180       0.36629383       0.25522388 </v>
   <v>       0.70311586       0.53606790       0.25343284 </v>
   <v>       0.74656684       0.28431111       0.25611940 </v>
   <v>       0.74693048       0.61957778       0.25253731 </v>
   <v>       0.79206774       0.36807160       0.25641791 </v>
   <v>       0.79180036       0.53785185       0.25373134 </v>
   <v>       0.83663102       0.28645556       0.25074627 </v>
   <v>       0.83600000       0.61967407       0.24477612 </v>
   <v>       0.88121925       0.36854691       0.24447761 </v>
   <v>       0.87956506       0.53910988       0.24208955 </v>
   <v>       0.92437077       0.28537654       0.23283582 </v>
   <v>       0.92217112       0.62093210       0.22776119 </v>
   <v>       0.96705526       0.36891481       0.22537313 </v>
   <v>       0.96629947       0.53795185       0.22149254 </v>
   <v>       0.00853907       0.28722099       0.21014925 </v>
   <v>       0.00689012       0.61887160       0.20537313 </v>
   <v>       0.05117861       0.36969630       0.20029851 </v>
   <v>       0.05029020       0.53674938       0.19761194 </v>
   <v>       0.09353405       0.28455802       0.18865672 </v>
   <v>       0.09232692       0.61833827       0.18388060 </v>
   <v>       0.13579715       0.36532963       0.17850746 </v>
   <v>       0.13542103       0.53515185       0.17582090 </v>
   <v>       0.17858752       0.28574321       0.16985075 </v>
   <v>       0.17832442       0.61604568       0.16626866 </v>
   <v>       0.22297255       0.36614568       0.16955224 </v>
   <v>       0.22240820       0.53442716       0.16656716 </v>
   <v>       0.26683244       0.28545679       0.16805970 </v>
   <v>       0.26658111       0.61780123       0.16626866 </v>
   <v>       0.31039251       0.36810864       0.17432836 </v>
   <v>       0.31071337       0.53890494       0.17402985 </v>
   <v>       0.35427914       0.28610741       0.17910448 </v>
   <v>       0.35495971       0.61955432       0.17791045 </v>
   <v>       0.39596435       0.36747407       0.19313433 </v>
   <v>       0.39602496       0.54004444       0.19194030 </v>
   <v>       0.43857754       0.28495309       0.19880597 </v>
   <v>       0.43898396       0.61892222       0.19880597 </v>
   <v>       0.48011765       0.36313951       0.21343284 </v>
   <v>       0.47994296       0.53593704       0.21343284 </v>
   <v>       0.52406061       0.28326543       0.21970149 </v>
   <v>       0.52331907       0.61768148       0.22089552 </v>
   <v>       0.56308734       0.36482593       0.23582090 </v>
   <v>       0.56289483       0.53486667       0.23552239 </v>
   <v>       0.61874866       0.86106543       0.22656716 </v>
   <v>       0.61844920       0.03319667       0.22865672 </v>
   <v>       0.66056684       0.78399136       0.23701493 </v>
   <v>       0.65932264       0.12058481       0.24000000 </v>
   <v>       0.70349020       0.86958642       0.24119403 </v>
   <v>       0.70289840       0.03683617       0.24179104 </v>
   <v>       0.74705526       0.78734074       0.24567164 </v>
   <v>       0.74709447       0.11811802       0.24835821 </v>
   <v>       0.79173619       0.86811111       0.24298507 </v>
   <v>       0.79101604       0.03671938       0.24388060 </v>
   <v>       0.83505882       0.78423457       0.23671642 </v>
   <v>       0.83498396       0.11865432       0.24298507 </v>
   <v>       0.87698039       0.86817654       0.22805970 </v>
   <v>       0.87729055       0.03913370       0.23134328 </v>
   <v>       0.91893761       0.78431481       0.21880597 </v>
   <v>       0.92122995       0.11968617       0.22388060 </v>
   <v>       0.96106952       0.86765679       0.20597015 </v>
   <v>       0.96155437       0.03691000       0.20835821 </v>
   <v>       0.00403950       0.78455802       0.19671642 </v>
   <v>       0.00564053       0.12058198       0.20149254 </v>
   <v>       0.04649840       0.86918272       0.18358209 </v>
   <v>       0.04562424       0.03781370       0.18537313 </v>
   <v>       0.08949733       0.78540494       0.17582090 </v>
   <v>       0.09055009       0.11893593       0.17970149 </v>
   <v>       0.13232014       0.86732222       0.16537313 </v>
   <v>       0.13292157       0.03707444       0.16716418 </v>
   <v>       0.17718004       0.78559012       0.16149254 </v>
   <v>       0.17802531       0.11918654       0.16298507 </v>
   <v>       0.22221390       0.86732346       0.15791045 </v>
   <v>       0.22296328       0.03697926       0.15880597 </v>
   <v>       0.26666845       0.78572593       0.16059701 </v>
   <v>       0.26748663       0.11655691       0.16119403 </v>
   <v>       0.31206381       0.86730123       0.16208955 </v>
   <v>       0.31263102       0.03629296       0.16179104 </v>
   <v>       0.35626168       0.78475185       0.17074627 </v>
   <v>       0.35589127       0.11973877       0.17164179 </v>
   <v>       0.39981105       0.86641605       0.17701493 </v>
   <v>       0.40014260       0.03661210       0.17641791 </v>
   <v>       0.44204991       0.78741358       0.18955224 </v>
   <v>       0.44216043       0.11878963       0.18955224 </v>
   <v>       0.48547237       0.86502716       0.19582090 </v>
   <v>       0.48538681       0.03701914       0.19582090 </v>
   <v>       0.52694831       0.77827778       0.20955224 </v>
   <v>       0.52663815       0.11821889       0.21074627 </v>
   <v>       0.56917647       0.86171605       0.21462687 </v>
   <v>       0.56971480       0.03254852       0.21582090 </v>
  </varray>
 </structure>
</modeling>
