unknown system                          
            1
    28.050000    0.000000    0.000000
     0.000000    8.100000    0.000000
     0.000000    0.000000   33.500000
   C 
    92
Direct configuration=     1
   0.61442424  0.36748889  0.24656716
   0.61577540  0.53922840  0.24507463
   0.65837790  0.28282593  0.24805970
   0.65898752  0.61871358  0.24567164
   0.70259180  0.36629383  0.25522388
   0.70311586  0.53606790  0.25343284
   0.74656684  0.28431111  0.25611940
   0.74693048  0.61957778  0.25253731
   0.79206774  0.36807160  0.25641791
   0.79180036  0.53785185  0.25373134
   0.83663102  0.28645556  0.25074627
   0.83600000  0.61967407  0.24477612
   0.88121925  0.36854691  0.24447761
   0.87956506  0.53910988  0.24208955
   0.92437077  0.28537654  0.23283582
   0.92217112  0.62093210  0.22776119
   0.96705526  0.36891481  0.22537313
   0.96629947  0.53795185  0.22149254
   0.00853907  0.28722099  0.21014925
   0.00689012  0.61887160  0.20537313
   0.05117861  0.36969630  0.20029851
   0.05029020  0.53674938  0.19761194
   0.09353405  0.28455802  0.18865672
   0.09232692  0.61833827  0.18388060
   0.13579715  0.36532963  0.17850746
   0.13542103  0.53515185  0.17582090
   0.17858752  0.28574321  0.16985075
   0.17832442  0.61604568  0.16626866
   0.22297255  0.36614568  0.16955224
   0.22240820  0.53442716  0.16656716
   0.26683244  0.28545679  0.16805970
   0.26658111  0.61780123  0.16626866
   0.31039251  0.36810864  0.17432836
   0.31071337  0.53890494  0.17402985
   0.35427914  0.28610741  0.17910448
   0.35495971  0.61955432  0.17791045
   0.39596435  0.36747407  0.19313433
   0.39602496  0.54004444  0.19194030
   0.43857754  0.28495309  0.19880597
   0.43898396  0.61892222  0.19880597
   0.48011765  0.36313951  0.21343284
   0.47994296  0.53593704  0.21343284
   0.52406061  0.28326543  0.21970149
   0.52331907  0.61768148  0.22089552
   0.56308734  0.36482593  0.23582090
   0.56289483  0.53486667  0.23552239
   0.61874866  0.86106543  0.22656716
   0.61844920  0.03319667  0.22865672
   0.66056684  0.78399136  0.23701493
   0.65932264  0.12058481  0.24000000
   0.70349020  0.86958642  0.24119403
   0.70289840  0.03683617  0.24179104
   0.74705526  0.78734074  0.24567164
   0.74709447  0.11811802  0.24835821
   0.79173619  0.86811111  0.24298507
   0.79101604  0.03671938  0.24388060
   0.83505882  0.78423457  0.23671642
   0.83498396  0.11865432  0.24298507
   0.87698039  0.86817654  0.22805970
   0.87729055  0.03913370  0.23134328
   0.91893761  0.78431481  0.21880597
   0.92122995  0.11968617  0.22388060
   0.96106952  0.86765679  0.20597015
   0.96155437  0.03691000  0.20835821
   0.00403950  0.78455802  0.19671642
   0.00564053  0.12058198  0.20149254
   0.04649840  0.86918272  0.18358209
   0.04562424  0.03781370  0.18537313
   0.08949733  0.78540494  0.17582090
   0.09055009  0.11893593  0.17970149
   0.13232014  0.86732222  0.16537313
   0.13292157  0.03707444  0.16716418
   0.17718004  0.78559012  0.16149254
   0.17802531  0.11918654  0.16298507
   0.22221390  0.86732346  0.15791045
   0.22296328  0.03697926  0.15880597
   0.26666845  0.78572593  0.16059701
   0.26748663  0.11655691  0.16119403
   0.31206381  0.86730123  0.16208955
   0.31263102  0.03629296  0.16179104
   0.35626168  0.78475185  0.17074627
   0.35589127  0.11973877  0.17164179
   0.39981105  0.86641605  0.17701493
   0.40014260  0.03661210  0.17641791
   0.44204991  0.78741358  0.18955224
   0.44216043  0.11878963  0.18955224
   0.48547237  0.86502716  0.19582090
   0.48538681  0.03701914  0.19582090
   0.52694831  0.77827778  0.20955224
   0.52663815  0.11821889  0.21074627
   0.56917647  0.86171605  0.21462687
   0.56971480  0.03254852  0.21582090
