  92  92   0   0
  0.8273226E+02  0.2805000E-08  0.8100000E-09  0.3350000E-08  0.5000000E-15
   1.0000000000000000E-004
  CAR 
 unknown system                          
      3.78902279    -25.28348325  301     -3.15815199      1.00000000
    -25.283  0.0000E+00  0.0000E+00
    -25.187  0.0000E+00  0.0000E+00
    -25.090  0.0000E+00  0.0000E+00
    -24.993  0.0000E+00  0.0000E+00
    -24.896  0.0000E+00  0.0000E+00
    -24.799  0.0000E+00  0.0000E+00
    -24.702  0.0000E+00  0.0000E+00
    -24.605  0.0000E+00  0.0000E+00
    -24.508  0.0000E+00  0.0000E+00
    -24.411  0.4010E-14  0.3886E-15
    -24.314  0.8260E-12  0.8044E-13
    -24.217  0.1074E-09  0.1049E-10
    -24.121  0.8847E-08  0.8678E-09
    -24.024  0.4634E-06  0.4578E-07
    -23.927  0.1550E-04  0.1548E-05
    -23.830  0.3325E-03  0.3376E-04
    -23.733  0.4601E-02  0.4796E-03
    -23.636  0.4138E-01  0.4490E-02
    -23.539  0.2443E+00  0.2816E-01
    -23.442  0.9610E+00  0.1213E+00
    -23.345  0.2592E+01  0.3725E+00
    -23.248  0.5055E+01  0.8624E+00
    -23.151  0.7762E+01  0.1615E+01
    -23.055  0.1023E+02  0.2606E+01
    -22.958  0.1204E+02  0.3773E+01
    -22.861  0.1310E+02  0.5043E+01
    -22.764  0.1432E+02  0.6430E+01
    -22.667  0.1600E+02  0.7981E+01
    -22.570  0.1643E+02  0.9573E+01
    -22.473  0.1444E+02  0.1097E+02
    -22.376  0.1168E+02  0.1210E+02
    -22.279  0.1067E+02  0.1314E+02
    -22.182  0.1193E+02  0.1429E+02
    -22.086  0.1383E+02  0.1563E+02
    -21.989  0.1472E+02  0.1706E+02
    -21.892  0.1430E+02  0.1845E+02
    -21.795  0.1318E+02  0.1972E+02
    -21.698  0.1231E+02  0.2092E+02
    -21.601  0.1212E+02  0.2209E+02
    -21.504  0.1223E+02  0.2327E+02
    -21.407  0.1260E+02  0.2450E+02
    -21.310  0.1347E+02  0.2580E+02
    -21.213  0.1443E+02  0.2720E+02
    -21.116  0.1504E+02  0.2866E+02
    -21.020  0.1528E+02  0.3014E+02
    -20.923  0.1463E+02  0.3156E+02
    -20.826  0.1291E+02  0.3281E+02
    -20.729  0.1166E+02  0.3394E+02
    -20.632  0.1209E+02  0.3511E+02
    -20.535  0.1316E+02  0.3638E+02
    -20.438  0.1332E+02  0.3767E+02
    -20.341  0.1279E+02  0.3891E+02
    -20.244  0.1299E+02  0.4017E+02
    -20.147  0.1439E+02  0.4157E+02
    -20.050  0.1599E+02  0.4312E+02
    -19.954  0.1647E+02  0.4471E+02
    -19.857  0.1527E+02  0.4619E+02
    -19.760  0.1336E+02  0.4749E+02
    -19.663  0.1293E+02  0.4874E+02
    -19.566  0.1471E+02  0.5017E+02
    -19.469  0.1626E+02  0.5174E+02
    -19.372  0.1544E+02  0.5324E+02
    -19.275  0.1365E+02  0.5456E+02
    -19.178  0.1338E+02  0.5586E+02
    -19.081  0.1445E+02  0.5726E+02
    -18.984  0.1471E+02  0.5868E+02
    -18.888  0.1320E+02  0.5996E+02
    -18.791  0.1169E+02  0.6109E+02
    -18.694  0.1273E+02  0.6233E+02
    -18.597  0.1583E+02  0.6386E+02
    -18.500  0.1781E+02  0.6559E+02
    -18.403  0.1747E+02  0.6728E+02
    -18.306  0.1697E+02  0.6893E+02
    -18.209  0.1770E+02  0.7064E+02
    -18.112  0.1804E+02  0.7239E+02
    -18.015  0.1628E+02  0.7397E+02
    -17.918  0.1354E+02  0.7528E+02
    -17.822  0.1215E+02  0.7646E+02
    -17.725  0.1230E+02  0.7765E+02
    -17.628  0.1237E+02  0.7885E+02
    -17.531  0.1202E+02  0.8001E+02
    -17.434  0.1199E+02  0.8118E+02
    -17.337  0.1195E+02  0.8233E+02
    -17.240  0.1160E+02  0.8346E+02
    -17.143  0.1162E+02  0.8458E+02
    -17.046  0.1203E+02  0.8575E+02
    -16.949  0.1166E+02  0.8688E+02
    -16.852  0.1027E+02  0.8788E+02
    -16.756  0.9511E+01  0.8880E+02
    -16.659  0.1090E+02  0.8985E+02
    -16.562  0.1351E+02  0.9116E+02
    -16.465  0.1529E+02  0.9264E+02
    -16.368  0.1584E+02  0.9418E+02
    -16.271  0.1618E+02  0.9575E+02
    -16.174  0.1683E+02  0.9738E+02
    -16.077  0.1732E+02  0.9906E+02
    -15.980  0.1693E+02  0.1007E+03
    -15.883  0.1563E+02  0.1022E+03
    -15.786  0.1393E+02  0.1036E+03
    -15.690  0.1248E+02  0.1048E+03
    -15.593  0.1183E+02  0.1059E+03
    -15.496  0.1236E+02  0.1071E+03
    -15.399  0.1502E+02  0.1086E+03
    -15.302  0.1969E+02  0.1105E+03
    -15.205  0.2337E+02  0.1127E+03
    -15.108  0.2358E+02  0.1150E+03
    -15.011  0.2126E+02  0.1171E+03
    -14.914  0.1839E+02  0.1189E+03
    -14.817  0.1561E+02  0.1204E+03
    -14.720  0.1295E+02  0.1216E+03
    -14.624  0.1082E+02  0.1227E+03
    -14.527  0.9894E+01  0.1236E+03
    -14.430  0.1001E+02  0.1246E+03
    -14.333  0.1029E+02  0.1256E+03
    -14.236  0.1069E+02  0.1267E+03
    -14.139  0.1191E+02  0.1278E+03
    -14.042  0.1392E+02  0.1292E+03
    -13.945  0.1589E+02  0.1307E+03
    -13.848  0.1703E+02  0.1323E+03
    -13.751  0.1738E+02  0.1340E+03
    -13.654  0.1763E+02  0.1357E+03
    -13.558  0.1820E+02  0.1375E+03
    -13.461  0.1892E+02  0.1393E+03
    -13.364  0.1913E+02  0.1412E+03
    -13.267  0.1866E+02  0.1430E+03
    -13.170  0.1762E+02  0.1447E+03
    -13.073  0.1566E+02  0.1462E+03
    -12.976  0.1366E+02  0.1475E+03
    -12.879  0.1357E+02  0.1489E+03
    -12.782  0.1482E+02  0.1503E+03
    -12.685  0.1520E+02  0.1518E+03
    -12.588  0.1449E+02  0.1532E+03
    -12.492  0.1426E+02  0.1546E+03
    -12.395  0.1532E+02  0.1560E+03
    -12.298  0.1746E+02  0.1577E+03
    -12.201  0.2057E+02  0.1597E+03
    -12.104  0.2381E+02  0.1620E+03
    -12.007  0.2502E+02  0.1645E+03
    -11.910  0.2374E+02  0.1668E+03
    -11.813  0.2154E+02  0.1688E+03
    -11.716  0.1911E+02  0.1707E+03
    -11.619  0.1636E+02  0.1723E+03
    -11.522  0.1462E+02  0.1737E+03
    -11.426  0.1553E+02  0.1752E+03
    -11.329  0.1844E+02  0.1770E+03
    -11.232  0.2157E+02  0.1791E+03
    -11.135  0.2472E+02  0.1815E+03
    -11.038  0.2835E+02  0.1842E+03
    -10.941  0.3183E+02  0.1873E+03
    -10.844  0.3398E+02  0.1906E+03
    -10.747  0.3411E+02  0.1939E+03
    -10.650  0.3349E+02  0.1972E+03
    -10.553  0.3463E+02  0.2005E+03
    -10.457  0.3743E+02  0.2041E+03
    -10.360  0.3902E+02  0.2079E+03
    -10.263  0.3774E+02  0.2116E+03
    -10.166  0.3523E+02  0.2150E+03
    -10.069  0.3404E+02  0.2183E+03
     -9.972  0.3431E+02  0.2216E+03
     -9.875  0.3458E+02  0.2250E+03
     -9.778  0.3496E+02  0.2284E+03
     -9.681  0.3682E+02  0.2319E+03
     -9.584  0.3988E+02  0.2358E+03
     -9.487  0.4201E+02  0.2399E+03
     -9.391  0.4183E+02  0.2439E+03
     -9.294  0.3902E+02  0.2477E+03
     -9.197  0.3395E+02  0.2510E+03
     -9.100  0.2947E+02  0.2538E+03
     -9.003  0.2885E+02  0.2566E+03
     -8.906  0.3178E+02  0.2597E+03
     -8.809  0.3560E+02  0.2632E+03
     -8.712  0.3820E+02  0.2669E+03
     -8.615  0.3861E+02  0.2706E+03
     -8.518  0.3683E+02  0.2742E+03
     -8.421  0.3352E+02  0.2774E+03
     -8.325  0.2972E+02  0.2803E+03
     -8.228  0.2665E+02  0.2829E+03
     -8.131  0.2535E+02  0.2853E+03
     -8.034  0.2553E+02  0.2878E+03
     -7.937  0.2623E+02  0.2904E+03
     -7.840  0.2745E+02  0.2930E+03
     -7.743  0.2916E+02  0.2958E+03
     -7.646  0.3002E+02  0.2988E+03
     -7.549  0.2945E+02  0.3016E+03
     -7.452  0.2865E+02  0.3044E+03
     -7.355  0.2831E+02  0.3071E+03
     -7.259  0.2760E+02  0.3098E+03
     -7.162  0.2602E+02  0.3123E+03
     -7.065  0.2466E+02  0.3147E+03
     -6.968  0.2453E+02  0.3171E+03
     -6.871  0.2501E+02  0.3195E+03
     -6.774  0.2524E+02  0.3220E+03
     -6.677  0.2516E+02  0.3244E+03
     -6.580  0.2451E+02  0.3268E+03
     -6.483  0.2284E+02  0.3290E+03
     -6.386  0.2088E+02  0.3310E+03
     -6.289  0.1977E+02  0.3329E+03
     -6.193  0.1961E+02  0.3348E+03
     -6.096  0.2038E+02  0.3368E+03
     -5.999  0.2220E+02  0.3390E+03
     -5.902  0.2402E+02  0.3413E+03
     -5.805  0.2453E+02  0.3437E+03
     -5.708  0.2351E+02  0.3459E+03
     -5.611  0.2098E+02  0.3480E+03
     -5.514  0.1687E+02  0.3496E+03
     -5.417  0.1219E+02  0.3508E+03
     -5.320  0.9438E+01  0.3517E+03
     -5.223  0.1017E+02  0.3527E+03
     -5.127  0.1238E+02  0.3539E+03
     -5.030  0.1256E+02  0.3551E+03
     -4.933  0.1047E+02  0.3561E+03
     -4.836  0.8856E+01  0.3570E+03
     -4.739  0.9506E+01  0.3579E+03
     -4.642  0.1192E+02  0.3591E+03
     -4.545  0.1459E+02  0.3605E+03
     -4.448  0.1560E+02  0.3620E+03
     -4.351  0.1342E+02  0.3633E+03
     -4.254  0.9047E+01  0.3642E+03
     -4.157  0.5397E+01  0.3647E+03
     -4.061  0.3664E+01  0.3650E+03
     -3.964  0.2880E+01  0.3653E+03
     -3.867  0.2469E+01  0.3656E+03
     -3.770  0.2731E+01  0.3658E+03
     -3.673  0.3505E+01  0.3662E+03
     -3.576  0.4123E+01  0.3666E+03
     -3.479  0.4130E+01  0.3670E+03
     -3.382  0.3514E+01  0.3673E+03
     -3.285  0.2943E+01  0.3676E+03
     -3.188  0.3169E+01  0.3679E+03
     -3.091  0.3926E+01  0.3683E+03
     -2.995  0.4482E+01  0.3687E+03
     -2.898  0.4707E+01  0.3692E+03
     -2.801  0.5093E+01  0.3697E+03
     -2.704  0.6180E+01  0.3703E+03
     -2.607  0.7633E+01  0.3710E+03
     -2.510  0.8335E+01  0.3718E+03
     -2.413  0.7745E+01  0.3726E+03
     -2.316  0.6801E+01  0.3732E+03
     -2.219  0.6902E+01  0.3739E+03
     -2.122  0.7667E+01  0.3746E+03
     -2.025  0.7256E+01  0.3753E+03
     -1.929  0.5710E+01  0.3759E+03
     -1.832  0.5753E+01  0.3764E+03
     -1.735  0.9391E+01  0.3773E+03
     -1.638  0.1538E+02  0.3788E+03
     -1.541  0.2050E+02  0.3808E+03
     -1.444  0.2245E+02  0.3830E+03
     -1.347  0.2136E+02  0.3851E+03
     -1.250  0.1926E+02  0.3869E+03
     -1.153  0.1830E+02  0.3887E+03
     -1.056  0.1851E+02  0.3905E+03
     -0.959  0.1802E+02  0.3922E+03
     -0.863  0.1593E+02  0.3938E+03
     -0.766  0.1355E+02  0.3951E+03
     -0.669  0.1237E+02  0.3963E+03
     -0.572  0.1229E+02  0.3975E+03
     -0.475  0.1219E+02  0.3987E+03
     -0.378  0.1175E+02  0.3998E+03
     -0.281  0.1206E+02  0.4010E+03
     -0.184  0.1401E+02  0.4023E+03
     -0.087  0.1688E+02  0.4040E+03
      0.010  0.1897E+02  0.4058E+03
      0.107  0.1979E+02  0.4077E+03
      0.203  0.2059E+02  0.4097E+03
      0.300  0.2146E+02  0.4118E+03
      0.397  0.2079E+02  0.4138E+03
      0.494  0.1932E+02  0.4157E+03
      0.591  0.2022E+02  0.4177E+03
      0.688  0.2423E+02  0.4200E+03
      0.785  0.2846E+02  0.4228E+03
      0.882  0.3060E+02  0.4257E+03
      0.979  0.3200E+02  0.4288E+03
      1.076  0.3491E+02  0.4322E+03
      1.172  0.3943E+02  0.4360E+03
      1.269  0.4480E+02  0.4404E+03
      1.366  0.4965E+02  0.4452E+03
      1.463  0.5126E+02  0.4502E+03
      1.560  0.4764E+02  0.4548E+03
      1.657  0.3937E+02  0.4586E+03
      1.754  0.2835E+02  0.4613E+03
      1.851  0.1682E+02  0.4630E+03
      1.948  0.7608E+01  0.4637E+03
      2.045  0.2459E+01  0.4639E+03
      2.142  0.5453E+00  0.4640E+03
      2.238  0.8115E-01  0.4640E+03
      2.335  0.8008E-02  0.4640E+03
      2.432  0.5202E-03  0.4640E+03
      2.529  0.2212E-04  0.4640E+03
      2.626  0.6121E-06  0.4640E+03
      2.723  0.1097E-07  0.4640E+03
      2.820  0.1266E-09  0.4640E+03
      2.917  0.9354E-12  0.4640E+03
      3.014  0.4010E-14  0.4640E+03
      3.111  0.0000E+00  0.4640E+03
      3.208  0.0000E+00  0.4640E+03
      3.304  0.0000E+00  0.4640E+03
      3.401  0.0000E+00  0.4640E+03
      3.498  0.0000E+00  0.4640E+03
      3.595  0.0000E+00  0.4640E+03
      3.692  0.0000E+00  0.4640E+03
      3.789  0.0000E+00  0.4640E+03
