 vasp.6.5.0 16Dec24 (build Feb 19 2025 19:45:31) complex                         
 executed on              LinuxNV date 2025.10.25  11:26:45
 running    2 mpi-ranks, on    1 nodes
 distrk:  each k-point on    2 cores,    1 groups
 distr:  one band on NCORE=   1 cores,    2 groups
 Offloading initialized ...    2 GPUs detected


--------------------------------------------------------------------------------------------------------


 INCAR:
   ISTART = 0            (Not Read existing wavefunction
   ISPIN = 1            (Non-Spin polarised DFT, Default\=1)
   ICHARG = 2            (The initial guess charge density is generated by superposition of atomic charge density)
   LREAL = Auto         (Projection operators: automatic)
   ENCUT = 500          (Cut-off energy for plane wave basis set, in eV)
   LWAVE = .FALSE.       (Write WAVECAR or not)
   LCHARG = .FALSE.       (Write CHGCAR or not)
   PREC = Accurate   (Precision level)
   KGAMMA = .TRUE.
   ALGO = Normal
   NSW = 0           (Default: NSW \= 0)
   IBRION = -1           (Ions are not moved)
   ISMEAR = 0
   EDIFF = 1E-06        (SCF energy convergence
   NELM = 150          (Max electronic SCF steps)

 POTCAR:    PAW_PBE C 08Apr2002                   
 POTCAR:    PAW_PBE C 08Apr2002                   
   SHA256 =  253f7b50bb8d59471dbedb8285d89021f4a42ed1a2c5d38a03a736e69125dd95 C/POTCAR              
   COPYR  = (c) Copyright 08Apr2002 Georg Kresse                                                    
   COPYR  = This file is part of the software VASP. Any use, copying, and all other rights are regul
   COPYR  = If you do not have a valid VASP license, you may not use, copy or distribute this file. 
   VRHFIN =C: s2p2                                                                                  
   LEXCH  = PE                                                                                      
   EATOM  =   147.1560 eV,   10.8157 Ry                                                             
                                                                                                    
   TITEL  = PAW_PBE C 08Apr2002                                                                     
   LULTRA =        F    use ultrasoft PP ?                                                          
   IUNSCR =        1    unscreen: 0-lin 1-nonlin 2-no                                               
   RPACOR =    1.200    partial core radius                                                         
   POMASS =   12.011; ZVAL   =    4.000    mass and valenz                                          
   RCORE  =    1.500    outmost cutoff radius                                                       
   RWIGS  =    1.630; RWIGS  =    0.863    wigner-seitz radius (au A)                               
   ENMAX  =  400.000; ENMIN  =  300.000 eV                                                          
   ICORE  =        2    local potential                                                             
   LCOR   =        T    correct aug charges                                                         
   LPAW   =        T    paw PP                                                                      
   EAUG   =  644.873                                                                                
   DEXC   =    0.000                                                                                
   RMAX   =    1.529    core radius for proj-oper                                                   
   RAUG   =    1.300    factor for augmentation sphere                                              
   RDEP   =    1.501    radius for radial grids                                                     
   RDEPT  =    1.300    core radius for aug-charge                                                  
                                                                                                    
   Atomic configuration                                                                             
    4 entries                                                                                       
     n  l   j            E        occ.                                                              
     1  0  0.50      -273.3789   2.0000                                                             
     2  0  0.50       -13.7508   2.0000                                                             
     2  1  0.50        -5.2854   2.0000                                                             
     3  2  1.50        -5.4423   0.0000                                                             
   Description                                                                                      
     l       E           TYP  RCUT    TYP  RCUT                                                     
     0    -13.7508458     23  1.200                                                                 
     0     -8.2022199     23  1.200                                                                 
     1     -5.2854383     23  1.500                                                                 
     1     34.0145650     23  1.500                                                                 
     2     -5.4423304      7  1.500                                                                 
  local pseudopotential read in
  partial core-charges read in
  partial kinetic energy density read in
  atomic valenz-charges read in
  non local Contribution for L=            0  read in
    real space projection operators read in
  non local Contribution for L=            0  read in
    real space projection operators read in
  non local Contribution for L=            1  read in
    real space projection operators read in
  non local Contribution for L=            1  read in
    real space projection operators read in
    PAW grid and wavefunctions read in
 
   number of l-projection  operators is LMAX  =            4
   number of lm-projection operators is LMMAX =            8
 
 Optimization of the real space projectors (new method)

 maximal supplied QI-value         = 25.13
 optimisation between [QCUT,QGAM] = [ 11.31, 22.87] = [ 35.82,146.48] Ry 
 Optimized for a Real-space Cutoff    1.03 Angstroem

   l    n(q)    QCUT    max X(q) W(low)/X(q) W(high)/X(q)  e(spline) 
   0      7    11.310   115.676    0.20E-03    0.90E-03    0.20E-06
   0      7    11.310    87.132    0.20E-03    0.89E-03    0.19E-06
   1      6    11.310     4.429    0.16E-03    0.28E-03    0.12E-06
   1      6    11.310     2.733    0.12E-03    0.21E-03    0.99E-07
  PAW_PBE C 08Apr2002                   :
 energy of atom  1       EATOM= -147.1560
 kinetic energy error for atom=    0.0076 (will be added to EATOM!!)
 
 
 POSCAR:  C
  positions in cartesian coordinates
  No initial velocities read in


 exchange-correlation table for PE
   RHO(1)=    0.500       N(1)  =     2000
   RHO(2)=  100.500       N(2)  =     4000
 


--------------------------------------------------------------------------------------------------------


 ion  position               nearest neighbor table
   1  0.012  0.101  0.528-   2 1.40   3 1.42  45 1.50  46 2.00
   2  0.011  0.272  0.523-   4 1.37   1 1.40  46 1.40  45 2.02
   3  0.054  0.020  0.516-  50 1.37   5 1.40   1 1.42
   4  0.048  0.358  0.506-  49 1.36   2 1.37   6 1.47
   5  0.097  0.102  0.507-   3 1.40   7 1.41   6 1.42
   6  0.095  0.276  0.502-   8 1.40   5 1.42   4 1.47
   7  0.139  0.018  0.498-   9 1.37  54 1.39   5 1.41
   8  0.135  0.363  0.490-  53 1.37   6 1.40  10 1.49
   9  0.180  0.105  0.487-  10 1.35   7 1.37  11 1.46
  10  0.180  0.269  0.482-   9 1.35  12 1.40   8 1.49
  11  0.222  0.016  0.475-  58 1.38  13 1.40   9 1.46
  12  0.220  0.345  0.465-  57 1.39  10 1.40  14 1.40
  13  0.264  0.100  0.464-  14 1.35  11 1.40  15 1.46
  14  0.264  0.265  0.457-  13 1.35  12 1.40  16 1.48
  15  0.309  0.013  0.462-  62 1.37  17 1.42  13 1.46
  16  0.309  0.353  0.448-  61 1.33  18 1.41  14 1.48
  17  0.353  0.100  0.457-  19 1.39  18 1.40  15 1.42
  18  0.353  0.271  0.450-  17 1.40  20 1.41  16 1.41
  19  0.396  0.020  0.464-  17 1.39  21 1.41  66 1.42
  20  0.397  0.354  0.456-  65 1.38  18 1.41  22 1.45
  21  0.440  0.105  0.467-  22 1.37  19 1.41  23 1.41
  22  0.443  0.271  0.461-  21 1.37  24 1.41  20 1.45
  23  0.481  0.022  0.480-  21 1.41  70 1.42  25 1.42
  24  0.487  0.355  0.463-  69 1.37  22 1.41  26 1.46
  25  0.526  0.103  0.484-  26 1.37  27 1.42  23 1.42
  26  0.529  0.269  0.477-  25 1.37  28 1.40  24 1.46
  27  0.566  0.025  0.503-  74 1.37  25 1.42  29 1.46
  28  0.571  0.349  0.490-  73 1.36  26 1.40  30 1.43
  29  0.609  0.105  0.516-  30 1.37  31 1.40  27 1.46
  30  0.612  0.269  0.506-  29 1.37  32 1.39  28 1.43
  31  0.650  0.023  0.529-  78 1.34  29 1.40  33 1.45
  32  0.654  0.353  0.515-  30 1.39  77 1.40  34 1.44
  33  0.696  0.104  0.534-  34 1.36  35 1.38  31 1.45
  34  0.697  0.269  0.527-  33 1.36  36 1.40  32 1.44
  35  0.738  0.024  0.545-  33 1.38  82 1.39  37 1.42
  36  0.740  0.353  0.530-  38 1.39  81 1.39  34 1.40
  37  0.781  0.113  0.547-  38 1.37  35 1.42  39 1.48
  38  0.783  0.279  0.540-  37 1.37  36 1.39  40 1.44
  39  0.828  0.031  0.549-  86 1.37  41 1.47  37 1.48
  40  0.829  0.360  0.536-  85 1.36  38 1.44  42 1.47
  41  0.875  0.112  0.548-  42 1.37  43 1.38  39 1.47
  42  0.875  0.278  0.540-  41 1.37  44 1.42  40 1.47
  43  0.918  0.025  0.546-  90 1.35  41 1.38  45 1.40
  44  0.919  0.364  0.535-  89 1.34  46 1.42  42 1.42
  45  0.961  0.110  0.541-  46 1.37  43 1.40   1 1.50   2 2.02
  46  0.963  0.277  0.535-  45 1.37   2 1.40  44 1.42   1 2.00
  47  0.009  0.609  0.508-  48 1.35  49 1.36  91 1.46  92 2.06
  48  0.010  0.774  0.514-  47 1.35  50 1.38  92 1.45  91 1.93
  49  0.049  0.522  0.498-  47 1.36   4 1.36  51 1.38
  50  0.053  0.854  0.508-   3 1.37  48 1.38  52 1.44
  51  0.091  0.605  0.490-  52 1.35  49 1.38  53 1.40
  52  0.096  0.768  0.497-  51 1.35  54 1.37  50 1.44
  53  0.132  0.524  0.477-   8 1.37  51 1.40  55 1.46
  54  0.137  0.851  0.489-  52 1.37   7 1.39  56 1.42
  55  0.177  0.603  0.466-  56 1.36  57 1.41  53 1.46
  56  0.179  0.767  0.474-  55 1.36  58 1.37  54 1.42
  57  0.220  0.516  0.462-  12 1.39  59 1.40  55 1.41
  58  0.221  0.847  0.469-  56 1.37  11 1.38  60 1.42
  59  0.264  0.596  0.459-  60 1.39  57 1.40  61 1.45
  60  0.265  0.767  0.461-  62 1.37  59 1.39  58 1.42
  61  0.310  0.517  0.450-  16 1.33  63 1.40  59 1.45
  62  0.308  0.844  0.463-  15 1.37  60 1.37  64 1.39
  63  0.353  0.599  0.451-  64 1.37  61 1.40  65 1.43
  64  0.352  0.761  0.463-  63 1.37  62 1.39  66 1.40
  65  0.399  0.523  0.455-  20 1.38  67 1.38  63 1.43
  66  0.393  0.848  0.472-  64 1.40  19 1.42  68 1.45
  67  0.439  0.598  0.470-  65 1.38  68 1.38  69 1.39
  68  0.438  0.763  0.480-  67 1.38  70 1.40  66 1.45
  69  0.484  0.522  0.469-  24 1.37  67 1.39  71 1.40
  70  0.480  0.850  0.486-  72 1.38  68 1.40  23 1.42
  71  0.526  0.603  0.482-  69 1.40  72 1.40  73 1.45
  72  0.524  0.772  0.491-  70 1.38  71 1.40  74 1.44
  73  0.569  0.516  0.492-  28 1.36  75 1.43  71 1.45
  74  0.565  0.856  0.505-  27 1.37  76 1.39  72 1.44
  75  0.609  0.602  0.508-  77 1.38  76 1.39  73 1.43
  76  0.607  0.771  0.515-  75 1.39  74 1.39  78 1.51
  77  0.653  0.526  0.515-  75 1.38  32 1.40  79 1.47
  78  0.651  0.858  0.531-  31 1.34  80 1.40  76 1.51
  79  0.697  0.609  0.526-  81 1.40  80 1.40  77 1.47
  80  0.695  0.779  0.533-  78 1.40  82 1.40  79 1.40
  81  0.741  0.524  0.526-  36 1.39  79 1.40  83 1.43
  82  0.739  0.853  0.542-  35 1.39  80 1.40  84 1.40
  83  0.785  0.613  0.528-  84 1.40  85 1.40  81 1.43
  84  0.784  0.778  0.540-  83 1.40  82 1.40  86 1.44
  85  0.828  0.526  0.531-  40 1.36  83 1.40  87 1.44
  86  0.829  0.865  0.542-  39 1.37  88 1.40  84 1.44
  87  0.872  0.612  0.532-  88 1.38  85 1.44  89 1.44
  88  0.872  0.781  0.536-  87 1.38  86 1.40  90 1.48
  89  0.917  0.526  0.527-  44 1.34  91 1.42  87 1.44
  90  0.919  0.862  0.537-  43 1.35  92 1.38  88 1.48
  91  0.960  0.612  0.523-  92 1.38  89 1.42  47 1.46  48 1.93
  92  0.960  0.783  0.526-  90 1.38  91 1.38  48 1.45  47 2.06
 
  LATTYP: Found a simple orthorhombic cell.
 ALAT       =     8.1000000000
 B/A-ratio  =     3.4629629630
 C/A-ratio  =     4.1358024691
  
  Lattice vectors:
  
 A1 = (   0.0000000000,  -8.1000000000,   0.0000000000)
 A2 = (  28.0500000000,   0.0000000000,   0.0000000000)
 A3 = (   0.0000000000,   0.0000000000,  33.5000000000)


Analysis of symmetry for initial positions (statically):
=====================================================================
 Subroutine PRICEL returns:
 Original cell was already a primitive cell.
 

 Routine SETGRP: Setting up the symmetry group for a 
 simple orthorhombic supercell.


 Subroutine GETGRP returns: Found  1 space group operations
 (whereof  1 operations were pure point group operations)
 out of a pool of  8 trial point group operations.


The static configuration has the point symmetry C_1 .


Analysis of symmetry for dynamics (positions and initial velocities):
=====================================================================
 Subroutine PRICEL returns:
 Original cell was already a primitive cell.
 

 Routine SETGRP: Setting up the symmetry group for a 
 simple orthorhombic supercell.


 Subroutine GETGRP returns: Found  1 space group operations
 (whereof  1 operations were pure point group operations)
 out of a pool of  8 trial point group operations.


The dynamic configuration has the point symmetry C_1 .


 Subroutine INISYM returns: Found  1 space group operations
 (whereof  1 operations are pure point group operations),
 and found     1 'primitive' translations


----------------------------------------------------------------------------------------

                                     Primitive cell                                     

  volume of cell :    7611.3675

  direct lattice vectors                    reciprocal lattice vectors
    28.050000000  0.000000000  0.000000000     0.035650624  0.000000000  0.000000000
     0.000000000  8.100000000  0.000000000     0.000000000  0.123456790  0.000000000
     0.000000000  0.000000000 33.500000000     0.000000000  0.000000000  0.029850746

  length of vectors
    28.050000000  8.100000000 33.500000000     0.035650624  0.123456790  0.029850746

  position of ions in fractional coordinates (direct lattice)
     0.011832870  0.100829136  0.527504478
     0.010758752  0.272203704  0.522656716
     0.054309447  0.019838889  0.515734328
     0.048306595  0.357749383  0.506397015
     0.096735472  0.102329506  0.506844776
     0.094708378  0.275904938  0.502340299
     0.139454545  0.018408272  0.497982090
     0.135385740  0.362867901  0.490089552
     0.179613191  0.104996543  0.487411940
     0.179879501  0.269460494  0.481585075
     0.222157576  0.016208395  0.474653731
     0.220362567  0.344543210  0.464967164
     0.263853476  0.100054074  0.463913433
     0.263788592  0.264851852  0.457080597
     0.309163636  0.012786543  0.461710448
     0.308831373  0.352881481  0.447719403
     0.352706239  0.100009877  0.457200000
     0.353193583  0.270929630  0.450280597
     0.395803922  0.020295802  0.464435821
     0.397016043  0.353582716  0.455982090
     0.439540107  0.104707160  0.467017910
     0.442745098  0.271488889  0.461035821
     0.481290553  0.022483086  0.479704478
     0.486613191  0.354930864  0.463286567
     0.526046346  0.103252840  0.484110448
     0.529479501  0.269217284  0.476513433
     0.565547237  0.024907284  0.502838806
     0.570520499  0.349120988  0.490316418
     0.609354724  0.105257531  0.515701493
     0.611664884  0.269154321  0.506277612
     0.650310160  0.023166914  0.528913433
     0.653522282  0.353267901  0.515170149
     0.696085561  0.104292963  0.534322388
     0.696556150  0.268508642  0.526501493
     0.737882353  0.024380741  0.544555224
     0.739707665  0.352917284  0.530319403
     0.781490196  0.113262593  0.547188060
     0.782994652  0.279358025  0.539617910
     0.828427807  0.030566296  0.549194030
     0.828745098  0.360161728  0.536256716
     0.875379679  0.111824691  0.548035821
     0.875265597  0.278176543  0.540468657
     0.917825312  0.025333086  0.546038806
     0.919155080  0.363758025  0.535014925
     0.961073084  0.109642716  0.541289552
     0.963008913  0.277133333  0.535226866
     0.009322852  0.608997531  0.507859701
     0.009858075  0.773722222  0.513549254
     0.048844920  0.521635802  0.497826866
     0.052731194  0.853509877  0.508023881
     0.090767914  0.604500000  0.489859701
     0.095679144  0.768075309  0.496695522
     0.132090196  0.523596296  0.477400000
     0.137318004  0.850729630  0.488767164
     0.176763636  0.602776543  0.465973134
     0.178556863  0.767417284  0.474465672
     0.220048485  0.516085185  0.462361194
     0.221168627  0.847302469  0.469429851
     0.264054545  0.595954321  0.458838806
     0.265021747  0.766943210  0.460874627
     0.309503743  0.517309877  0.450149254
     0.308163636  0.844396296  0.463301493
     0.353419964  0.599444444  0.450591045
     0.351537255  0.760558025  0.462865672
     0.399062389  0.523161728  0.455002985
     0.393361854  0.848107407  0.471788060
     0.439401070  0.597781481  0.470319403
     0.437757576  0.763141975  0.480367164
     0.483946524  0.522188889  0.469477612
     0.480313725  0.849729630  0.486023881
     0.525597148  0.602893827  0.481585075
     0.523547237  0.771756790  0.490889552
     0.569311943  0.516392593  0.491737313
     0.565429590  0.855911111  0.505480597
     0.609265597  0.601518519  0.508376119
     0.607226381  0.770918519  0.514776119
     0.652748663  0.525511111  0.514570149
     0.651058824  0.857782716  0.530579104
     0.697133690  0.608549383  0.526391045
     0.695219251  0.778943210  0.533008955
     0.740516934  0.523558025  0.525525373
     0.738923351  0.852528395  0.542095522
     0.784541889  0.612997531  0.527997015
     0.783846702  0.777682716  0.540349254
     0.827515152  0.525823457  0.530567164
     0.828570410  0.864682716  0.541650746
     0.872253119  0.611696296  0.531558209
     0.871893048  0.780890123  0.536358209
     0.916762923  0.525945679  0.527125373
     0.918983957  0.862064198  0.537495522
     0.960470588  0.612317284  0.523098507
     0.960081996  0.782560494  0.525570149

  ion indices of the primitive-cell ions
   primitive index   ion index
                 1           1
                 2           2
                 3           3
                 4           4
                 5           5
                 6           6
                 7           7
                 8           8
                 9           9
                10          10
                11          11
                12          12
                13          13
                14          14
                15          15
                16          16
                17          17
                18          18
                19          19
                20          20
                21          21
                22          22
                23          23
                24          24
                25          25
                26          26
                27          27
                28          28
                29          29
                30          30
                31          31
                32          32
                33          33
                34          34
                35          35
                36          36
                37          37
                38          38
                39          39
                40          40
                41          41
                42          42
                43          43
                44          44
                45          45
                46          46
                47          47
                48          48
                49          49
                50          50
                51          51
                52          52
                53          53
                54          54
                55          55
                56          56
                57          57
                58          58
                59          59
                60          60
                61          61
                62          62
                63          63
                64          64
                65          65
                66          66
                67          67
                68          68
                69          69
                70          70
                71          71
                72          72
                73          73
                74          74
                75          75
                76          76
                77          77
                78          78
                79          79
                80          80
                81          81
                82          82
                83          83
                84          84
                85          85
                86          86
                87          87
                88          88
                89          89
                90          90
                91          91
                92          92

----------------------------------------------------------------------------------------

 
 
 KPOINTS: K-Spacing Value to Generate K-Mesh: 0.03

Automatic generation of k-mesh.
 Grid dimensions read from file:
 generate k-points for:    1    4    1

 Generating k-lattice:

  Cartesian coordinates                     Fractional coordinates (reciprocal lattice)
     0.035650624  0.000000000  0.000000000     1.000000000  0.000000000  0.000000000
     0.000000000  0.030864198  0.000000000     0.000000000  0.250000000  0.000000000
     0.000000000  0.000000000  0.029850746     0.000000000  0.000000000  1.000000000

  Length of vectors
     0.035650624  0.030864198  0.029850746

  Shift w.r.t. Gamma in fractional coordinates (k-lattice)
     0.000000000  0.000000000  0.000000000

 
 Subroutine IBZKPT returns following result:
 ===========================================
 
 Found      3 irreducible k-points:
 
 Following reciprocal coordinates:
            Coordinates               Weight
  0.000000  0.000000  0.000000      1.000000
  0.000000  0.250000  0.000000      2.000000
  0.000000  0.500000  0.000000      1.000000
 
 Following cartesian coordinates:
            Coordinates               Weight
  0.000000  0.000000  0.000000      1.000000
  0.000000  0.030864  0.000000      2.000000
  0.000000  0.061728  0.000000      1.000000
 


--------------------------------------------------------------------------------------------------------




 Dimension of arrays:
   k-points           NKPTS =      3   k-points in BZ     NKDIM =      3   number of bands    NBANDS=    232
   number of dos      NEDOS =    301   number of ions     NIONS =     92
   non local maximal  LDIM  =      4   non local SUM 2l+1 LMDIM =      8
   total plane-waves  NPLWV = ******
   max r-space proj   IRMAX =   1967   max aug-charges    IRDMAX=   5083
   dimension x,y,z NGX =   210 NGY =   60 NGZ =  250
   dimension x,y,z NGXF=   420 NGYF=  120 NGZF=  500
   support grid    NGXF=   420 NGYF=  120 NGZF=  500
   ions per type =              92
   NGX,Y,Z   is equivalent  to a cutoff of  12.45, 12.31, 12.41 a.u.
   NGXF,Y,Z  is equivalent  to a cutoff of  24.89, 24.63, 24.81 a.u.

 SYSTEM =  unknown system                          
 POSCAR =   C                                      

 Startparameter for this run:
   NWRITE =      2    write-flag & timer
   PREC   = accura    normal or accurate (medium, high low for compatibility)
   ISTART =      0    job   : 0-new  1-cont  2-samecut
   ICHARG =      2    charge: 1-file 2-atom 10-const
   ISPIN  =      1    spin polarized calculation?
   LNONCOLLINEAR =      F non collinear calculations
   LSORBIT =      F    spin-orbit coupling
   INIWAV =      1    electr: 0-lowe 1-rand  2-diag
   LASPH  =      F    aspherical Exc in radial PAW
 Electronic Relaxation 1
   ENCUT  =  500.0 eV  36.75 Ry    6.06 a.u.  51.14 14.77 61.08*2*pi/ulx,y,z
   ENINI  =  500.0     initial cutoff
   ENAUG  =  644.9 eV  augmentation charge cutoff
   NELM   =    150;   NELMIN=  2; NELMDL= -5     # of ELM steps 
   EDIFF  = 0.1E-05   stopping-criterion for ELM
   LREAL  =      T    real-space projection
   NLSPLINE    = F    spline interpolate recip. space projectors
   LCOMPAT=      F    compatible to vasp.4.4
   GGA_COMPAT  = T    GGA compatible to vasp.4.4-vasp.4.6
   LMAXPAW     = -100 max onsite density
   LMAXMIX     =    2 max onsite mixed and CHGCAR
   VOSKOWN=      0    Vosko Wilk Nusair interpolation
   ROPT   =   -0.00025
 Ionic relaxation
   EDIFFG = 0.1E-04   stopping-criterion for IOM
   NSW    =      0    number of steps for IOM
   NBLOCK =      1;   KBLOCK =      1    inner block; outer block 
   IBRION =     -1    ionic relax: 0-MD 1-quasi-New 2-CG
   NFREE  =      0    steps in history (QN), initial steepest desc. (CG)
   ISIF   =      2    stress and relaxation
   IWAVPR =     10    prediction:  0-non 1-charg 2-wave 3-comb
   ISYM   =      2    0-nonsym 1-usesym 2-fastsym
   LCORR  =      T    Harris-Foulkes like correction to forces

   POTIM  = 0.5000    time-step for ionic-motion
   TEIN   =    0.0    initial temperature
   TEBEG  =    0.0;   TEEND  =   0.0 temperature during run
   SMASS  =  -3.00    Nose mass-parameter (am)
   estimated Nose-frequenzy (Omega)   =  0.10E-29 period in steps = 0.13E+47 mass=  -0.180E-25a.u.
   SCALEE = 1.0000    scale energy and forces
   NPACO  =    256;   APACO  = 10.0  distance and # of slots for P.C.
   PSTRESS=    0.0 pullay stress

  Mass of Ions in am
   POMASS =  12.01
  Ionic Valenz
   ZVAL   =   4.00
  Atomic Wigner-Seitz radii
   RWIGS  =  -1.00
  virtual crystal weights 
   VCA    =   1.00
   NELECT =     368.0000    total number of electrons
   NUPDOWN=      -1.0000    fix difference up-down

 DOS related values:
   EMIN   =  10.00;   EMAX   =-10.00  energy-range for DOS
   EFERMI =   0.00;   METHOD = LEGACY      
   ISMEAR =     0;   SIGMA  =   0.20  broadening in eV -4-tet -1-fermi 0-gaus
   EFERMI_NEDOS =   21; number of points for ismear=-14 and -15

 Electronic relaxation 2 (details)
   IALGO  =     38    algorithm
   LDIAG  =      T    sub-space diagonalisation (order eigenvalues)
   LSUBROT=      F    optimize rotation matrix (better conditioning)
   TURBO    =      0    0=normal 1=particle mesh
   IRESTART =      0    0=no restart 2=restart with 2 vectors
   NREBOOT  =      0    no. of reboots
   NMIN     =      0    reboot dimension
   EREF     =   0.00    reference energy to select bands
   IMIX   =      4    mixing-type and parameters
     AMIX     =   0.40;   BMIX     =  1.00
     AMIX_MAG =   1.60;   BMIX_MAG =  1.00
     AMIN     =   0.10
     WC   =   100.;   INIMIX=   1;  MIXPRE=   1;  MAXMIX= -45

 Intra band minimization:
   WEIMIN = 0.0000     energy-eigenvalue tresh-hold
   EBREAK =  0.11E-08  absolut break condition
   DEPER  =   0.30     relativ break condition  

   TIME   =   0.40     timestep for ELM

  volume/ion in A,a.u.               =      82.73       558.30
  Fermi-wavevector in a.u.,A,eV,Ry     =   0.596398  1.127030  4.839472  0.355691
  Thomas-Fermi vector in A             =   1.646729
 
 Write flags
   LWAVE        =      F    write WAVECAR
   LDOWNSAMPLE  =      F    k-point downsampling of WAVECAR
   LCHARG       =      F    write CHGCAR
   LVTOT        =      F    write LOCPOT, total local potential
   LVHAR        =      F    write LOCPOT, Hartree potential only
   WRT_POTENTIAL= false  ! write potential to hdf5 file
   LELF         =      F    write electronic localiz. function (ELF)
   LORBIT       =      0    0 simple, 1 ext, 2 COOP (PROOUT), +10 PAW based schemes


 Python interface
   PLUGINS active      =      F    recompile with -DPLUGINS to activate
 
 Dipole corrections
   LMONO      =      F    monopole corrections only (constant potential shift)
   LDIPOL     =      F    correct potential (dipole corrections)
   IDIPOL     =      0    1-x, 2-y, 3-z, 4-all directions 
   EPSILON    =  1.0000000 bulk dielectric constant
   LVACPOTAV  =      F  vacuum potentials using an averaging scheme for the charge density
   VACPOTFLAT =  0.1000000 required flatness to determine vacuum potential
 
Coulomb truncation method
  LTRUNCATE          =      F  Coulomb kernel truncation to be used
  IDIMENSIONALITY    =      3  Dimensionality of cutoff (0 molecules / 2 surfaces)
  ISURFACE           =     -1  Direction of surface normal
  LCOARSEN           =      F  Coarsen the charge grid before padding, preferred

 
 Exchange correlation treatment:
   GGA     = PE    functional components
   XC_C    = 1    coefficients multiplying the functional components
   LIBXC   =     F    Libxc                    
   VOSKOWN =     0    Vosko Wilk Nusair interpolation
   LHFCALC =     F    Hartree Fock is set to
   LHFONE  =     F    Hartree Fock one center treatment
   AEXX    =    0.0000 exact exchange contribution

 Parameters of functionals:
   PE:
     No parameter
 
 Van der Waals corrections
   IVDW    =     0    specifies the selected vdW correction

 Linear response parameters
   LEPSILON=     F    determine dielectric tensor
   LRPA    =     F    only Hartree local field effects (RPA)
   LNABLA  =     F    use nabla operator in PAW spheres
   LVEL    =     F    velocity operator in full k-point grid
   CSHIFT  =0.1000    complex shift for real part using Kramers Kronig
   OMEGAMAX=  -1.0    maximum frequency
   DEG_THRESHOLD= 0.2000000E-02 threshold for treating states as degnerate
   RTIME   =   -0.100 relaxation time in fs
  (WPLASMAI=    0.000 imaginary part of plasma frequency in eV, 0.658/RTIME)
   DFIELD  = 0.0000000 0.0000000 0.0000000 field for delta impulse in time
 
  Optional k-point grid parameters
   LKPOINTS_OPT  =     F    use optional k-point grid
   KPOINTS_OPT_MODE=     1    mode for optional k-point grid
 
 Orbital magnetization related:
   ORBITALMAG=     F  switch on orbital magnetization
   LCHIMAG   =     F  perturbation theory with respect to B field
   DQ        =  0.001000  dq finite difference perturbation B field
   LLRAUG    =     F  two centre corrections for induced B field
   LBONE     =     F  B-component reconstruction in AE one-centre
   LVGVCALC  =     T  calculate vGv susceptibility
   LVGVAPPL  =     F  apply vGv susceptibility instead of pGv for G=0

 Random number generation:
   RANDOM_GENERATOR = DEFAULT
   PCG_SEED         = not used


--------------------------------------------------------------------------------------------------------


 Static calculation
 charge density and potential will be updated during run
 non-spin polarized calculation
 Variant of blocked Davidson
 Davidson routine will perform the subspace rotation
 perform sub-space diagonalisation
    after iterative eigenvector-optimisation
 modified Broyden-mixing scheme, WC =      100.0
 initial mixing is a Kerker type mixing with AMIX =  0.4000 and BMIX =      1.0000
 Hartree-type preconditioning will be used
 using additional bands            48
 real space projection scheme for non local part
 use partial core corrections
 calculate Harris-corrections to forces 
   (improved forces if not selfconsistent)
 use gradient corrections 
 use of overlap-Matrix (Vanderbilt PP)
 Gauss-broadening in eV      SIGMA  =   0.20


--------------------------------------------------------------------------------------------------------


  energy-cutoff  :      500.00
  volume of cell :     7611.37
      direct lattice vectors                 reciprocal lattice vectors
    28.050000000  0.000000000  0.000000000     0.035650624  0.000000000  0.000000000
     0.000000000  8.100000000  0.000000000     0.000000000  0.123456790  0.000000000
     0.000000000  0.000000000 33.500000000     0.000000000  0.000000000  0.029850746

  length of vectors
    28.050000000  8.100000000 33.500000000     0.035650624  0.123456790  0.029850746


 
 k-points in units of 2pi/SCALE and weight: K-Spacing Value to Generate K-Mesh: 0.03
   0.00000000  0.00000000  0.00000000       0.250
   0.00000000  0.03086420  0.00000000       0.500
   0.00000000  0.06172840  0.00000000       0.250
 
 k-points in reciprocal lattice and weights: K-Spacing Value to Generate K-Mesh: 0.03
   0.00000000  0.00000000  0.00000000       0.250
   0.00000000  0.25000000  0.00000000       0.500
   0.00000000  0.50000000  0.00000000       0.250
 
 position of ions in fractional coordinates (direct lattice) 
   0.01183287  0.10082914  0.52750448
   0.01075875  0.27220370  0.52265672
   0.05430945  0.01983889  0.51573433
   0.04830660  0.35774938  0.50639701
   0.09673547  0.10232951  0.50684478
   0.09470838  0.27590494  0.50234030
   0.13945455  0.01840827  0.49798209
   0.13538574  0.36286790  0.49008955
   0.17961319  0.10499654  0.48741194
   0.17987950  0.26946049  0.48158507
   0.22215758  0.01620840  0.47465373
   0.22036257  0.34454321  0.46496716
   0.26385348  0.10005407  0.46391343
   0.26378859  0.26485185  0.45708060
   0.30916364  0.01278654  0.46171045
   0.30883137  0.35288148  0.44771940
   0.35270624  0.10000988  0.45720000
   0.35319358  0.27092963  0.45028060
   0.39580392  0.02029580  0.46443582
   0.39701604  0.35358272  0.45598209
   0.43954011  0.10470716  0.46701791
   0.44274510  0.27148889  0.46103582
   0.48129055  0.02248309  0.47970448
   0.48661319  0.35493086  0.46328657
   0.52604635  0.10325284  0.48411045
   0.52947950  0.26921728  0.47651343
   0.56554724  0.02490728  0.50283881
   0.57052050  0.34912099  0.49031642
   0.60935472  0.10525753  0.51570149
   0.61166488  0.26915432  0.50627761
   0.65031016  0.02316691  0.52891343
   0.65352228  0.35326790  0.51517015
   0.69608556  0.10429296  0.53432239
   0.69655615  0.26850864  0.52650149
   0.73788235  0.02438074  0.54455522
   0.73970766  0.35291728  0.53031940
   0.78149020  0.11326259  0.54718806
   0.78299465  0.27935802  0.53961791
   0.82842781  0.03056630  0.54919403
   0.82874510  0.36016173  0.53625672
   0.87537968  0.11182469  0.54803582
   0.87526560  0.27817654  0.54046866
   0.91782531  0.02533309  0.54603881
   0.91915508  0.36375802  0.53501493
   0.96107308  0.10964272  0.54128955
   0.96300891  0.27713333  0.53522687
   0.00932285  0.60899753  0.50785970
   0.00985807  0.77372222  0.51354925
   0.04884492  0.52163580  0.49782687
   0.05273119  0.85350988  0.50802388
   0.09076791  0.60450000  0.48985970
   0.09567914  0.76807531  0.49669552
   0.13209020  0.52359630  0.47740000
   0.13731800  0.85072963  0.48876716
   0.17676364  0.60277654  0.46597313
   0.17855686  0.76741728  0.47446567
   0.22004848  0.51608519  0.46236119
   0.22116863  0.84730247  0.46942985
   0.26405455  0.59595432  0.45883881
   0.26502175  0.76694321  0.46087463
   0.30950374  0.51730988  0.45014925
   0.30816364  0.84439630  0.46330149
   0.35341996  0.59944444  0.45059104
   0.35153725  0.76055802  0.46286567
   0.39906239  0.52316173  0.45500299
   0.39336185  0.84810741  0.47178806
   0.43940107  0.59778148  0.47031940
   0.43775758  0.76314198  0.48036716
   0.48394652  0.52218889  0.46947761
   0.48031373  0.84972963  0.48602388
   0.52559715  0.60289383  0.48158507
   0.52354724  0.77175679  0.49088955
   0.56931194  0.51639259  0.49173731
   0.56542959  0.85591111  0.50548060
   0.60926560  0.60151852  0.50837612
   0.60722638  0.77091852  0.51477612
   0.65274866  0.52551111  0.51457015
   0.65105882  0.85778272  0.53057910
   0.69713369  0.60854938  0.52639104
   0.69521925  0.77894321  0.53300896
   0.74051693  0.52355802  0.52552537
   0.73892335  0.85252840  0.54209552
   0.78454189  0.61299753  0.52799701
   0.78384670  0.77768272  0.54034925
   0.82751515  0.52582346  0.53056716
   0.82857041  0.86468272  0.54165075
   0.87225312  0.61169630  0.53155821
   0.87189305  0.78089012  0.53635821
   0.91676292  0.52594568  0.52712537
   0.91898396  0.86206420  0.53749552
   0.96047059  0.61231728  0.52309851
   0.96008200  0.78256049  0.52557015
 
 position of ions in cartesian coordinates  (Angst):
   0.33191200  0.81671600 17.67140000
   0.30178300  2.20485000 17.50900000
   1.52338000  0.16069500 17.27710000
   1.35500000  2.89777000 16.96430000
   2.71343000  0.82886900 16.97930000
   2.65657000  2.23483000 16.82840000
   3.91170000  0.14910700 16.68240000
   3.79757000  2.93923000 16.41800000
   5.03815000  0.85047200 16.32830000
   5.04562000  2.18263000 16.13310000
   6.23152000  0.13128800 15.90090000
   6.18117000  2.79080000 15.57640000
   7.40109000  0.81043800 15.54110000
   7.39927000  2.14530000 15.31220000
   8.67204000  0.10357100 15.46730000
   8.66272000  2.85834000 14.99860000
   9.89341000  0.81008000 15.31620000
   9.90708000  2.19453000 15.08440000
  11.10230000  0.16439600 15.55860000
  11.13630000  2.86402000 15.27540000
  12.32910000  0.84812800 15.64510000
  12.41900000  2.19906000 15.44470000
  13.50020000  0.18211300 16.07010000
  13.64950000  2.87494000 15.52010000
  14.75560000  0.83634800 16.21770000
  14.85190000  2.18066000 15.96320000
  15.86360000  0.20174900 16.84510000
  16.00310000  2.82788000 16.42560000
  17.09240000  0.85258600 17.27600000
  17.15720000  2.18015000 16.96030000
  18.24120000  0.18765200 17.71860000
  18.33130000  2.86147000 17.25820000
  19.52520000  0.84477300 17.89980000
  19.53840000  2.17492000 17.63780000
  20.69760000  0.19748400 18.24260000
  20.74880000  2.85863000 17.76570000
  21.92080000  0.91742700 18.33080000
  21.96300000  2.26280000 18.07720000
  23.23740000  0.24758700 18.39800000
  23.24630000  2.91731000 17.96460000
  24.55440000  0.90578000 18.35920000
  24.55120000  2.25323000 18.10570000
  25.74500000  0.20519800 18.29230000
  25.78230000  2.94644000 17.92300000
  26.95810000  0.88810600 18.13320000
  27.01240000  2.24478000 17.93010000
   0.26150600  4.93288000 17.01330000
   0.27651900  6.26715000 17.20390000
   1.37010000  4.22525000 16.67720000
   1.47911000  6.91343000 17.01880000
   2.54604000  4.89645000 16.41030000
   2.68380000  6.22141000 16.63930000
   3.70513000  4.24113000 15.99290000
   3.85177000  6.89091000 16.37370000
   4.95822000  4.88249000 15.61010000
   5.00852000  6.21608000 15.89460000
   6.17236000  4.18029000 15.48910000
   6.20378000  6.86315000 15.72590000
   7.40673000  4.82723000 15.37110000
   7.43386000  6.21224000 15.43930000
   8.68158000  4.19021000 15.08000000
   8.64399000  6.83961000 15.52060000
   9.91343000  4.85550000 15.09480000
   9.86062000  6.16052000 15.50600000
  11.19370000  4.23761000 15.24260000
  11.03380000  6.86967000 15.80490000
  12.32520000  4.84203000 15.75570000
  12.27910000  6.18145000 16.09230000
  13.57470000  4.22973000 15.72750000
  13.47280000  6.88281000 16.28180000
  14.74300000  4.88344000 16.13310000
  14.68550000  6.25123000 16.44480000
  15.96920000  4.18278000 16.47320000
  15.86030000  6.93288000 16.93360000
  17.08990000  4.87230000 17.03060000
  17.03270000  6.24444000 17.24500000
  18.30960000  4.25664000 17.23810000
  18.26220000  6.94804000 17.77440000
  19.55460000  4.92925000 17.63410000
  19.50090000  6.30944000 17.85580000
  20.77150000  4.24082000 17.60510000
  20.72680000  6.90548000 18.16020000
  22.00640000  4.96528000 17.68790000
  21.98690000  6.29923000 18.10170000
  23.21180000  4.25917000 17.77400000
  23.24140000  7.00393000 18.14530000
  24.46670000  4.95474000 17.80720000
  24.45660000  6.32521000 17.96800000
  25.71520000  4.26016000 17.65870000
  25.77750000  6.98272000 18.00610000
  26.94120000  4.95977000 17.52380000
  26.93030000  6.33874000 17.60660000
 


--------------------------------------------------------------------------------------------------------


 k-point     1 :   0.0000 0.0000 0.0000  plane waves:  193173
 k-point     2 :   0.0000 0.2500 0.0000  plane waves:  193166
 k-point     3 :   0.0000 0.5000 0.0000  plane waves:  193226

 maximum and minimum number of plane-waves per node :    193226   193166

 maximum number of plane-waves:    193226
 maximum index in each direction: 
   IXMAX=   51   IYMAX=   14   IZMAX=   61
   IXMIN=  -51   IYMIN=  -15   IZMIN=  -61


 serial   3D FFT for wavefunctions
 parallel 3D FFT for charge:
    minimum data exchange during FFTs selected (reduces bandwidth)


 total amount of memory used by VASP MPI-rank0  2294514. kBytes
=======================================================================

   base                                    :      30000. kBytes
   nonlr-proj                              :      15080. kBytes
   fftplans                                :     436558. kBytes
   grid                                    :     732614. kBytes
   one-center                              :        282. kBytes
   wavefun                                 :    1079980. kBytes
 
     INWAV:  cpu time      0.0000: real time      0.0000
 Broyden mixing: mesh for mixing (old mesh)
   NGX =103   NGY = 29   NGZ =123
  (NGX  =420   NGY  =120   NGZ  =500)
  gives a total of 367401 points

 initial charge density was supplied:
 charge density of overlapping atoms calculated
 number of electron     368.0000000 magnetization 
 keeping initial charge density in first step


--------------------------------------------------------------------------------------------------------


 Maximum index for non-local projection operator          1875
 Maximum index for augmentation-charges          2386 (set IRDMAX)


--------------------------------------------------------------------------------------------------------


 First call to EWALD:  gamma=   0.090
 Maximum number of real-space cells   2x   6x   2
 Maximum number of reciprocal cells   4x   1x   4

    FEWALD:  cpu time      0.1589: real time      0.1589


--------------------------------------- Ionic step        1  -------------------------------------------




--------------------------------------- Iteration      1(   1)  ---------------------------------------


    POTLOK:  cpu time      0.4208: real time      0.4407
    SETDIJ:  cpu time      0.0398: real time      0.0398
     EDDAV:  cpu time     11.1857: real time     11.1925
       DOS:  cpu time      0.0008: real time      0.0008
    --------------------------------------------
      LOOP:  cpu time     11.6471: real time     11.6738

 eigenvalue-minimisations  :  1736
 total energy-change (2. order) : 0.3624563E+04  (-0.1198833E+05)
 number of electron     368.0000000 magnetization 
 augmentation part      368.0000000 magnetization 

 Free energy of the ion-electron system (eV)
  ---------------------------------------------------
  alpha Z        PSCENC =        91.34886789
  Ewald energy   TEWEN  =    120255.53910630
  -Hartree energ DENC   =   -129575.21946267
  -exchange      EXHF   =         0.00000000
  -V(xc)+E(xc)   XCENC  =      1221.78320870
  PAW double counting   =      9984.02826696   -10036.41360137
  entropy T*S    EENTRO =        -0.87646112
  eigenvalues    EBANDS =     -1853.28213042
  atomic energy  EATOM  =     13537.65479391
  Solvation  Ediel_sol  =         0.00000000
  ---------------------------------------------------
  free energy    TOTEN  =      3624.56258819 eV

  energy without entropy =     3625.43904931  energy(sigma->0) =     3625.00081875


--------------------------------------------------------------------------------------------------------




--------------------------------------- Iteration      1(   2)  ---------------------------------------


     EDDAV:  cpu time     13.0493: real time     13.0540
       DOS:  cpu time      0.0007: real time      0.0007
    --------------------------------------------
      LOOP:  cpu time     13.0500: real time     13.0547

 eigenvalue-minimisations  :  2136
 total energy-change (2. order) :-0.3452001E+04  (-0.3193809E+04)
 number of electron     368.0000000 magnetization 
 augmentation part      368.0000000 magnetization 

 Free energy of the ion-electron system (eV)
  ---------------------------------------------------
  alpha Z        PSCENC =        91.34886789
  Ewald energy   TEWEN  =    120255.53910630
  -Hartree energ DENC   =   -129575.21946267
  -exchange      EXHF   =         0.00000000
  -V(xc)+E(xc)   XCENC  =      1221.78320870
  PAW double counting   =      9984.02826696   -10036.41360137
  entropy T*S    EENTRO =        -0.16183531
  eigenvalues    EBANDS =     -5305.99793597
  atomic energy  EATOM  =     13537.65479391
  Solvation  Ediel_sol  =         0.00000000
  ---------------------------------------------------
  free energy    TOTEN  =       172.56140844 eV

  energy without entropy =      172.72324375  energy(sigma->0) =      172.64232609


--------------------------------------------------------------------------------------------------------




--------------------------------------- Iteration      1(   3)  ---------------------------------------


     EDDAV:  cpu time     11.3365: real time     11.3406
       DOS:  cpu time      0.0006: real time      0.0006
    --------------------------------------------
      LOOP:  cpu time     11.3371: real time     11.3413

 eigenvalue-minimisations  :  1800
 total energy-change (2. order) :-0.1007173E+04  (-0.9855379E+03)
 number of electron     368.0000000 magnetization 
 augmentation part      368.0000000 magnetization 

 Free energy of the ion-electron system (eV)
  ---------------------------------------------------
  alpha Z        PSCENC =        91.34886789
  Ewald energy   TEWEN  =    120255.53910630
  -Hartree energ DENC   =   -129575.21946267
  -exchange      EXHF   =         0.00000000
  -V(xc)+E(xc)   XCENC  =      1221.78320870
  PAW double counting   =      9984.02826696   -10036.41360137
  entropy T*S    EENTRO =        -0.05513634
  eigenvalues    EBANDS =     -6313.27713646
  atomic energy  EATOM  =     13537.65479391
  Solvation  Ediel_sol  =         0.00000000
  ---------------------------------------------------
  free energy    TOTEN  =      -834.61109307 eV

  energy without entropy =     -834.55595674  energy(sigma->0) =     -834.58352491


--------------------------------------------------------------------------------------------------------




--------------------------------------- Iteration      1(   4)  ---------------------------------------


     EDDAV:  cpu time     10.9286: real time     10.9324
       DOS:  cpu time      0.0007: real time      0.0007
    --------------------------------------------
      LOOP:  cpu time     10.9293: real time     10.9331

 eigenvalue-minimisations  :  1720
 total energy-change (2. order) :-0.6179530E+02  (-0.6069813E+02)
 number of electron     368.0000000 magnetization 
 augmentation part      368.0000000 magnetization 

 Free energy of the ion-electron system (eV)
  ---------------------------------------------------
  alpha Z        PSCENC =        91.34886789
  Ewald energy   TEWEN  =    120255.53910630
  -Hartree energ DENC   =   -129575.21946267
  -exchange      EXHF   =         0.00000000
  -V(xc)+E(xc)   XCENC  =      1221.78320870
  PAW double counting   =      9984.02826696   -10036.41360137
  entropy T*S    EENTRO =        -0.06337134
  eigenvalues    EBANDS =     -6375.06420460
  atomic energy  EATOM  =     13537.65479391
  Solvation  Ediel_sol  =         0.00000000
  ---------------------------------------------------
  free energy    TOTEN  =      -896.40639622 eV

  energy without entropy =     -896.34302488  energy(sigma->0) =     -896.37471055


--------------------------------------------------------------------------------------------------------




--------------------------------------- Iteration      1(   5)  ---------------------------------------


     EDDAV:  cpu time     11.1866: real time     11.1908
       DOS:  cpu time      0.0007: real time      0.0007
    CHARGE:  cpu time      1.2089: real time      1.2114
    MIXING:  cpu time      0.2756: real time      0.2757
    --------------------------------------------
      LOOP:  cpu time     12.6717: real time     12.6785

 eigenvalue-minimisations  :  1776
 total energy-change (2. order) :-0.1569643E+01  (-0.1546674E+01)
 number of electron     367.9999994 magnetization 
 augmentation part       10.1722941 magnetization 

 Broyden mixing:
  rms(total) = 0.45618E+01    rms(broyden)= 0.45612E+01
  rms(prec ) = 0.46794E+01
  weight for this iteration     100.00

 Free energy of the ion-electron system (eV)
  ---------------------------------------------------
  alpha Z        PSCENC =        91.34886789
  Ewald energy   TEWEN  =    120255.53910630
  -Hartree energ DENC   =   -129575.21946267
  -exchange      EXHF   =         0.00000000
  -V(xc)+E(xc)   XCENC  =      1221.78320870
  PAW double counting   =      9984.02826696   -10036.41360137
  entropy T*S    EENTRO =        -0.06351206
  eigenvalues    EBANDS =     -6376.63370678
  atomic energy  EATOM  =     13537.65479391
  Solvation  Ediel_sol  =         0.00000000
  ---------------------------------------------------
  free energy    TOTEN  =      -897.97603911 eV

  energy without entropy =     -897.91252705  energy(sigma->0) =     -897.94428308


--------------------------------------------------------------------------------------------------------




--------------------------------------- Iteration      1(   6)  ---------------------------------------


    POTLOK:  cpu time      0.3215: real time      0.3215
    SETDIJ:  cpu time      0.0405: real time      0.0405
     EDDAV:  cpu time     10.2908: real time     10.2946
       DOS:  cpu time      0.0007: real time      0.0007
    CHARGE:  cpu time      1.1581: real time      1.1615
    MIXING:  cpu time      0.2780: real time      0.2783
    --------------------------------------------
      LOOP:  cpu time     12.0897: real time     12.0972

 eigenvalue-minimisations  :  1592
 total energy-change (2. order) : 0.4989848E+02  (-0.4773251E+01)
 number of electron     367.9999994 magnetization 
 augmentation part        9.7461653 magnetization 

 Broyden mixing:
  rms(total) = 0.26790E+01    rms(broyden)= 0.26789E+01
  rms(prec ) = 0.27372E+01
  weight for this iteration     100.00

 eigenvalues of (default mixing * dielectric matrix)
  average eigenvalue GAMMA=   2.1804
  2.1804

 Free energy of the ion-electron system (eV)
  ---------------------------------------------------
  alpha Z        PSCENC =        91.34886789
  Ewald energy   TEWEN  =    120255.53910630
  -Hartree energ DENC   =   -130148.05909049
  -exchange      EXHF   =         0.00000000
  -V(xc)+E(xc)   XCENC  =      1245.17801650
  PAW double counting   =     18970.98109672   -19031.01492893
  entropy T*S    EENTRO =        -0.06941153
  eigenvalues    EBANDS =     -5769.63601124
  atomic energy  EATOM  =     13537.65479391
  Solvation  Ediel_sol  =         0.00000000
  ---------------------------------------------------
  free energy    TOTEN  =      -848.07756087 eV

  energy without entropy =     -848.00814935  energy(sigma->0) =     -848.04285511


--------------------------------------------------------------------------------------------------------




--------------------------------------- Iteration      1(   7)  ---------------------------------------


    POTLOK:  cpu time      0.3210: real time      0.3210
    SETDIJ:  cpu time      0.0403: real time      0.0403
     EDDAV:  cpu time     10.1186: real time     10.1220
       DOS:  cpu time      0.0007: real time      0.0007
    CHARGE:  cpu time      1.1552: real time      1.1563
    MIXING:  cpu time      0.2788: real time      0.2804
    --------------------------------------------
      LOOP:  cpu time     11.9145: real time     11.9208

 eigenvalue-minimisations  :  1560
 total energy-change (2. order) : 0.1853092E+02  (-0.6564976E+01)
 number of electron     367.9999994 magnetization 
 augmentation part        9.1886948 magnetization 

 Broyden mixing:
  rms(total) = 0.73764E+00    rms(broyden)= 0.73737E+00
  rms(prec ) = 0.74741E+00
  weight for this iteration     100.00

 eigenvalues of (default mixing * dielectric matrix)
  average eigenvalue GAMMA=   2.1804
  2.1804  2.1804

 Free energy of the ion-electron system (eV)
  ---------------------------------------------------
  alpha Z        PSCENC =        91.34886789
  Ewald energy   TEWEN  =    120255.53910630
  -Hartree energ DENC   =   -130914.65069628
  -exchange      EXHF   =         0.00000000
  -V(xc)+E(xc)   XCENC  =      1276.31627688
  PAW double counting   =     36643.77904336   -36710.73990705
  entropy T*S    EENTRO =        -0.07790077
  eigenvalues    EBANDS =     -5008.71622378
  atomic energy  EATOM  =     13537.65479391
  Solvation  Ediel_sol  =         0.00000000
  ---------------------------------------------------
  free energy    TOTEN  =      -829.54663954 eV

  energy without entropy =     -829.46873877  energy(sigma->0) =     -829.50768916


--------------------------------------------------------------------------------------------------------




--------------------------------------- Iteration      1(   8)  ---------------------------------------


    POTLOK:  cpu time      0.3214: real time      0.3214
    SETDIJ:  cpu time      0.0403: real time      0.0403
     EDDAV:  cpu time     10.3163: real time     10.3199
       DOS:  cpu time      0.0008: real time      0.0008
    CHARGE:  cpu time      1.1596: real time      1.1593
    MIXING:  cpu time      0.2809: real time      0.2825
    --------------------------------------------
      LOOP:  cpu time     12.1192: real time     12.1241

 eigenvalue-minimisations  :  1600
 total energy-change (2. order) : 0.2852160E+00  (-0.2478379E+00)
 number of electron     367.9999994 magnetization 
 augmentation part        9.1725524 magnetization 

 Broyden mixing:
  rms(total) = 0.10356E+00    rms(broyden)= 0.10353E+00
  rms(prec ) = 0.12550E+00
  weight for this iteration     100.00

 eigenvalues of (default mixing * dielectric matrix)
  average eigenvalue GAMMA=   1.8465
  1.1749  2.4247  1.9399

 Free energy of the ion-electron system (eV)
  ---------------------------------------------------
  alpha Z        PSCENC =        91.34886789
  Ewald energy   TEWEN  =    120255.53910630
  -Hartree energ DENC   =   -131007.19738509
  -exchange      EXHF   =         0.00000000
  -V(xc)+E(xc)   XCENC  =      1276.11607890
  PAW double counting   =     40877.43914353   -40941.77345960
  entropy T*S    EENTRO =        -0.07591644
  eigenvalues    EBANDS =     -4918.31265293
  atomic energy  EATOM  =     13537.65479391
  Solvation  Ediel_sol  =         0.00000000
  ---------------------------------------------------
  free energy    TOTEN  =      -829.26142353 eV

  energy without entropy =     -829.18550710  energy(sigma->0) =     -829.22346531


--------------------------------------------------------------------------------------------------------




--------------------------------------- Iteration      1(   9)  ---------------------------------------


    POTLOK:  cpu time      0.3213: real time      0.3214
    SETDIJ:  cpu time      0.0404: real time      0.0404
     EDDAV:  cpu time     10.6059: real time     10.6096
       DOS:  cpu time      0.0007: real time      0.0007
    CHARGE:  cpu time      1.1552: real time      1.1550
    MIXING:  cpu time      0.2850: real time      0.2867
    --------------------------------------------
      LOOP:  cpu time     12.4085: real time     12.4137

 eigenvalue-minimisations  :  1656
 total energy-change (2. order) : 0.1078585E+00  (-0.2681007E-01)
 number of electron     367.9999994 magnetization 
 augmentation part        9.1500408 magnetization 

 Broyden mixing:
  rms(total) = 0.57624E-01    rms(broyden)= 0.57616E-01
  rms(prec ) = 0.79265E-01
  weight for this iteration     100.00

 eigenvalues of (default mixing * dielectric matrix)
  average eigenvalue GAMMA=   1.6626
  2.1927  2.1927  1.0064  1.2587

 Free energy of the ion-electron system (eV)
  ---------------------------------------------------
  alpha Z        PSCENC =        91.34886789
  Ewald energy   TEWEN  =    120255.53910630
  -Hartree energ DENC   =   -131076.63712886
  -exchange      EXHF   =         0.00000000
  -V(xc)+E(xc)   XCENC  =      1277.49226183
  PAW double counting   =     41476.73268792   -41541.08849951
  entropy T*S    EENTRO =        -0.07549036
  eigenvalues    EBANDS =     -4850.12016416
  atomic energy  EATOM  =     13537.65479391
  Solvation  Ediel_sol  =         0.00000000
  ---------------------------------------------------
  free energy    TOTEN  =      -829.15356504 eV

  energy without entropy =     -829.07807468  energy(sigma->0) =     -829.11581986


--------------------------------------------------------------------------------------------------------




--------------------------------------- Iteration      1(  10)  ---------------------------------------


    POTLOK:  cpu time      0.3213: real time      0.3213
    SETDIJ:  cpu time      0.0402: real time      0.0402
     EDDAV:  cpu time     10.9495: real time     10.9566
       DOS:  cpu time      0.0007: real time      0.0007
    CHARGE:  cpu time      1.1531: real time      1.1556
    MIXING:  cpu time      0.2893: real time      0.2914
    --------------------------------------------
      LOOP:  cpu time     12.7540: real time     12.7658

 eigenvalue-minimisations  :  1728
 total energy-change (2. order) : 0.3599124E-01  (-0.4749392E-02)
 number of electron     367.9999994 magnetization 
 augmentation part        9.1397391 magnetization 

 Broyden mixing:
  rms(total) = 0.37974E-01    rms(broyden)= 0.37971E-01
  rms(prec ) = 0.57846E-01
  weight for this iteration     100.00

 eigenvalues of (default mixing * dielectric matrix)
  average eigenvalue GAMMA=   1.6925
  2.4109  2.4109  1.5476  1.2446  0.8487

 Free energy of the ion-electron system (eV)
  ---------------------------------------------------
  alpha Z        PSCENC =        91.34886789
  Ewald energy   TEWEN  =    120255.53910630
  -Hartree energ DENC   =   -131122.06410625
  -exchange      EXHF   =         0.00000000
  -V(xc)+E(xc)   XCENC  =      1277.82691504
  PAW double counting   =     41288.45958939   -41352.70417902
  entropy T*S    EENTRO =        -0.07557161
  eigenvalues    EBANDS =     -4805.10298945
  atomic energy  EATOM  =     13537.65479391
  Solvation  Ediel_sol  =         0.00000000
  ---------------------------------------------------
  free energy    TOTEN  =      -829.11757380 eV

  energy without entropy =     -829.04200219  energy(sigma->0) =     -829.07978800


--------------------------------------------------------------------------------------------------------




--------------------------------------- Iteration      1(  11)  ---------------------------------------


    POTLOK:  cpu time      0.3212: real time      0.3213
    SETDIJ:  cpu time      0.0404: real time      0.0404
     EDDAV:  cpu time     10.1059: real time     10.1110
       DOS:  cpu time      0.0008: real time      0.0008
    CHARGE:  cpu time      1.1642: real time      1.1646
    MIXING:  cpu time      0.3000: real time      0.3000
    --------------------------------------------
      LOOP:  cpu time     11.9325: real time     11.9381

 eigenvalue-minimisations  :  1560
 total energy-change (2. order) : 0.3133090E-01  (-0.2095362E-02)
 number of electron     367.9999994 magnetization 
 augmentation part        9.1354505 magnetization 

 Broyden mixing:
  rms(total) = 0.24567E-01    rms(broyden)= 0.24565E-01
  rms(prec ) = 0.39102E-01
  weight for this iteration     100.00

 eigenvalues of (default mixing * dielectric matrix)
  average eigenvalue GAMMA=   1.7646
  2.9640  2.5502  1.9108  0.9523  1.1052  1.1052

 Free energy of the ion-electron system (eV)
  ---------------------------------------------------
  alpha Z        PSCENC =        91.34886789
  Ewald energy   TEWEN  =    120255.53910630
  -Hartree energ DENC   =   -131185.58706980
  -exchange      EXHF   =         0.00000000
  -V(xc)+E(xc)   XCENC  =      1278.35842432
  PAW double counting   =     41194.60272473   -41258.73001293
  entropy T*S    EENTRO =        -0.07579028
  eigenvalues    EBANDS =     -4742.19728705
  atomic energy  EATOM  =     13537.65479391
  Solvation  Ediel_sol  =         0.00000000
  ---------------------------------------------------
  free energy    TOTEN  =      -829.08624290 eV

  energy without entropy =     -829.01045262  energy(sigma->0) =     -829.04834776


--------------------------------------------------------------------------------------------------------




--------------------------------------- Iteration      1(  12)  ---------------------------------------


    POTLOK:  cpu time      0.3190: real time      0.3191
    SETDIJ:  cpu time      0.0405: real time      0.0405
     EDDAV:  cpu time      9.9756: real time      9.9791
       DOS:  cpu time      0.0007: real time      0.0007
    CHARGE:  cpu time      1.1527: real time      1.1566
    MIXING:  cpu time      0.3065: real time      0.3066
    --------------------------------------------
      LOOP:  cpu time     11.7950: real time     11.8026

 eigenvalue-minimisations  :  1536
 total energy-change (2. order) : 0.5931756E-02  (-0.2552122E-02)
 number of electron     367.9999994 magnetization 
 augmentation part        9.1281074 magnetization 

 Broyden mixing:
  rms(total) = 0.15681E-01    rms(broyden)= 0.15677E-01
  rms(prec ) = 0.23926E-01
  weight for this iteration     100.00

 eigenvalues of (default mixing * dielectric matrix)
  average eigenvalue GAMMA=   2.0521
  4.7715  2.2957  2.2957  1.9206  1.0080  1.0366  1.0366

 Free energy of the ion-electron system (eV)
  ---------------------------------------------------
  alpha Z        PSCENC =        91.34886789
  Ewald energy   TEWEN  =    120255.53910630
  -Hartree energ DENC   =   -131253.44717662
  -exchange      EXHF   =         0.00000000
  -V(xc)+E(xc)   XCENC  =      1279.01306762
  PAW double counting   =     41237.39898429   -41301.50119447
  entropy T*S    EENTRO =        -0.07576545
  eigenvalues    EBANDS =     -4675.01099462
  atomic energy  EATOM  =     13537.65479391
  Solvation  Ediel_sol  =         0.00000000
  ---------------------------------------------------
  free energy    TOTEN  =      -829.08031114 eV

  energy without entropy =     -829.00454570  energy(sigma->0) =     -829.04242842


--------------------------------------------------------------------------------------------------------




--------------------------------------- Iteration      1(  13)  ---------------------------------------


    POTLOK:  cpu time      0.3219: real time      0.3218
    SETDIJ:  cpu time      0.0402: real time      0.0402
     EDDAV:  cpu time      9.9773: real time      9.9810
       DOS:  cpu time      0.0007: real time      0.0007
    CHARGE:  cpu time      1.1543: real time      1.1556
    MIXING:  cpu time      0.3149: real time      0.3150
    --------------------------------------------
      LOOP:  cpu time     11.8094: real time     11.8144

 eigenvalue-minimisations  :  1536
 total energy-change (2. order) :-0.1238484E-01  (-0.1003535E-02)
 number of electron     367.9999994 magnetization 
 augmentation part        9.1248812 magnetization 

 Broyden mixing:
  rms(total) = 0.83635E-02    rms(broyden)= 0.83609E-02
  rms(prec ) = 0.12015E-01
  weight for this iteration     100.00

 eigenvalues of (default mixing * dielectric matrix)
  average eigenvalue GAMMA=   2.0529
  5.4353  2.4515  2.2923  1.9999  1.1681  1.1681  0.9275  0.9801

 Free energy of the ion-electron system (eV)
  ---------------------------------------------------
  alpha Z        PSCENC =        91.34886789
  Ewald energy   TEWEN  =    120255.53910630
  -Hartree energ DENC   =   -131307.64202546
  -exchange      EXHF   =         0.00000000
  -V(xc)+E(xc)   XCENC  =      1279.25356736
  PAW double counting   =     41205.91422507   -41270.01699753
  entropy T*S    EENTRO =        -0.07575482
  eigenvalues    EBANDS =     -4621.06847871
  atomic energy  EATOM  =     13537.65479391
  Solvation  Ediel_sol  =         0.00000000
  ---------------------------------------------------
  free energy    TOTEN  =      -829.09269599 eV

  energy without entropy =     -829.01694116  energy(sigma->0) =     -829.05481857


--------------------------------------------------------------------------------------------------------




--------------------------------------- Iteration      1(  14)  ---------------------------------------


    POTLOK:  cpu time      0.3219: real time      0.3219
    SETDIJ:  cpu time      0.0402: real time      0.0402
     EDDAV:  cpu time     10.3159: real time     10.3197
       DOS:  cpu time      0.0007: real time      0.0007
    CHARGE:  cpu time      1.1581: real time      1.1602
    MIXING:  cpu time      0.3210: real time      0.3225
    --------------------------------------------
      LOOP:  cpu time     12.1579: real time     12.1652

 eigenvalue-minimisations  :  1600
 total energy-change (2. order) :-0.1488048E-01  (-0.1077475E-03)
 number of electron     367.9999994 magnetization 
 augmentation part        9.1243724 magnetization 

 Broyden mixing:
  rms(total) = 0.60551E-02    rms(broyden)= 0.60547E-02
  rms(prec ) = 0.83824E-02
  weight for this iteration     100.00

 eigenvalues of (default mixing * dielectric matrix)
  average eigenvalue GAMMA=   2.1777
  6.2210  2.7129  2.7129  1.8485  1.8485  1.2483  1.1249  0.9411  0.9411

 Free energy of the ion-electron system (eV)
  ---------------------------------------------------
  alpha Z        PSCENC =        91.34886789
  Ewald energy   TEWEN  =    120255.53910630
  -Hartree energ DENC   =   -131320.95880264
  -exchange      EXHF   =         0.00000000
  -V(xc)+E(xc)   XCENC  =      1279.24843687
  PAW double counting   =     41185.57467926   -41249.68177192
  entropy T*S    EENTRO =        -0.07577097
  eigenvalues    EBANDS =     -4607.75711516
  atomic energy  EATOM  =     13537.65479391
  Solvation  Ediel_sol  =         0.00000000
  ---------------------------------------------------
  free energy    TOTEN  =      -829.10757647 eV

  energy without entropy =     -829.03180549  energy(sigma->0) =     -829.06969098


--------------------------------------------------------------------------------------------------------




--------------------------------------- Iteration      1(  15)  ---------------------------------------


    POTLOK:  cpu time      0.3221: real time      0.3221
    SETDIJ:  cpu time      0.0403: real time      0.0403
     EDDAV:  cpu time     10.0224: real time     10.0262
       DOS:  cpu time      0.0007: real time      0.0007
    CHARGE:  cpu time      1.1525: real time      1.1561
    MIXING:  cpu time      0.3318: real time      0.3318
    --------------------------------------------
      LOOP:  cpu time     11.8699: real time     11.8772

 eigenvalue-minimisations  :  1544
 total energy-change (2. order) :-0.2165733E-01  (-0.2050796E-03)
 number of electron     367.9999994 magnetization 
 augmentation part        9.1238065 magnetization 

 Broyden mixing:
  rms(total) = 0.31893E-02    rms(broyden)= 0.31888E-02
  rms(prec ) = 0.43575E-02
  weight for this iteration     100.00

 eigenvalues of (default mixing * dielectric matrix)
  average eigenvalue GAMMA=   2.2153
  7.0483  3.4176  2.1827  2.1827  1.6747  1.3453  1.3453  0.9514  0.9514  1.0531

 Free energy of the ion-electron system (eV)
  ---------------------------------------------------
  alpha Z        PSCENC =        91.34886789
  Ewald energy   TEWEN  =    120255.53910630
  -Hartree energ DENC   =   -131332.83612166
  -exchange      EXHF   =         0.00000000
  -V(xc)+E(xc)   XCENC  =      1279.24314340
  PAW double counting   =     41207.07301978   -41271.18241763
  entropy T*S    EENTRO =        -0.07577594
  eigenvalues    EBANDS =     -4595.89384985
  atomic energy  EATOM  =     13537.65479391
  Solvation  Ediel_sol  =         0.00000000
  ---------------------------------------------------
  free energy    TOTEN  =      -829.12923380 eV

  energy without entropy =     -829.05345786  energy(sigma->0) =     -829.09134583


--------------------------------------------------------------------------------------------------------




--------------------------------------- Iteration      1(  16)  ---------------------------------------


    POTLOK:  cpu time      0.3221: real time      0.3221
    SETDIJ:  cpu time      0.0403: real time      0.0403
     EDDAV:  cpu time     10.4770: real time     10.4812
       DOS:  cpu time      0.0008: real time      0.0008
    CHARGE:  cpu time      1.1641: real time      1.1687
    MIXING:  cpu time      0.3406: real time      0.3406
    --------------------------------------------
      LOOP:  cpu time     12.3448: real time     12.3536

 eigenvalue-minimisations  :  1632
 total energy-change (2. order) :-0.7984047E-02  (-0.4057686E-04)
 number of electron     367.9999994 magnetization 
 augmentation part        9.1237159 magnetization 

 Broyden mixing:
  rms(total) = 0.23126E-02    rms(broyden)= 0.23125E-02
  rms(prec ) = 0.29294E-02
  weight for this iteration     100.00

 eigenvalues of (default mixing * dielectric matrix)
  average eigenvalue GAMMA=   2.3229
  7.7980  4.0129  2.4281  2.4281  1.8714  1.4990  1.4990  1.0069  1.0069  1.0008
  1.0008

 Free energy of the ion-electron system (eV)
  ---------------------------------------------------
  alpha Z        PSCENC =        91.34886789
  Ewald energy   TEWEN  =    120255.53910630
  -Hartree energ DENC   =   -131336.74533107
  -exchange      EXHF   =         0.00000000
  -V(xc)+E(xc)   XCENC  =      1279.22103798
  PAW double counting   =     41190.82394185   -41254.93478009
  entropy T*S    EENTRO =        -0.07576371
  eigenvalues    EBANDS =     -4591.96909089
  atomic energy  EATOM  =     13537.65479391
  Solvation  Ediel_sol  =         0.00000000
  ---------------------------------------------------
  free energy    TOTEN  =      -829.13721784 eV

  energy without entropy =     -829.06145413  energy(sigma->0) =     -829.09933599


--------------------------------------------------------------------------------------------------------




--------------------------------------- Iteration      1(  17)  ---------------------------------------


    POTLOK:  cpu time      0.3198: real time      0.3199
    SETDIJ:  cpu time      0.0405: real time      0.0405
     EDDAV:  cpu time     10.0969: real time     10.1005
       DOS:  cpu time      0.0008: real time      0.0008
    CHARGE:  cpu time      1.1571: real time      1.1603
    MIXING:  cpu time      0.3508: real time      0.3508
    --------------------------------------------
      LOOP:  cpu time     11.9659: real time     11.9728

 eigenvalue-minimisations  :  1560
 total energy-change (2. order) :-0.6114723E-02  (-0.4282886E-04)
 number of electron     367.9999994 magnetization 
 augmentation part        9.1236678 magnetization 

 Broyden mixing:
  rms(total) = 0.11813E-02    rms(broyden)= 0.11812E-02
  rms(prec ) = 0.14946E-02
  weight for this iteration     100.00

 eigenvalues of (default mixing * dielectric matrix)
  average eigenvalue GAMMA=   2.3423
  8.3569  4.4756  2.4135  2.2370  2.2370  1.4028  1.4028  1.4880  1.1924  0.9636
  0.9636  0.9739

 Free energy of the ion-electron system (eV)
  ---------------------------------------------------
  alpha Z        PSCENC =        91.34886789
  Ewald energy   TEWEN  =    120255.53910630
  -Hartree energ DENC   =   -131339.22419633
  -exchange      EXHF   =         0.00000000
  -V(xc)+E(xc)   XCENC  =      1279.21755073
  PAW double counting   =     41199.65525111   -41263.76053333
  entropy T*S    EENTRO =        -0.07577371
  eigenvalues    EBANDS =     -4589.49839913
  atomic energy  EATOM  =     13537.65479391
  Solvation  Ediel_sol  =         0.00000000
  ---------------------------------------------------
  free energy    TOTEN  =      -829.14333257 eV

  energy without entropy =     -829.06755885  energy(sigma->0) =     -829.10544571


--------------------------------------------------------------------------------------------------------




--------------------------------------- Iteration      1(  18)  ---------------------------------------


    POTLOK:  cpu time      0.3218: real time      0.3218
    SETDIJ:  cpu time      0.0405: real time      0.0405
     EDDAV:  cpu time     10.8686: real time     10.8725
       DOS:  cpu time      0.0007: real time      0.0007
    CHARGE:  cpu time      1.1553: real time      1.1557
    MIXING:  cpu time      0.3632: real time      0.3631
    --------------------------------------------
      LOOP:  cpu time     12.7502: real time     12.7544

 eigenvalue-minimisations  :  1712
 total energy-change (2. order) :-0.1929970E-02  (-0.7968221E-05)
 number of electron     367.9999994 magnetization 
 augmentation part        9.1235168 magnetization 

 Broyden mixing:
  rms(total) = 0.68137E-03    rms(broyden)= 0.68127E-03
  rms(prec ) = 0.88181E-03
  weight for this iteration     100.00

 eigenvalues of (default mixing * dielectric matrix)
  average eigenvalue GAMMA=   2.4005
  8.8892  4.9630  2.8827  2.5973  1.7937  1.7937  1.5336  1.5336  0.9601  0.9601
  0.9847  1.1576  1.1576

 Free energy of the ion-electron system (eV)
  ---------------------------------------------------
  alpha Z        PSCENC =        91.34886789
  Ewald energy   TEWEN  =    120255.53910630
  -Hartree energ DENC   =   -131340.17467968
  -exchange      EXHF   =         0.00000000
  -V(xc)+E(xc)   XCENC  =      1279.22013017
  PAW double counting   =     41198.06056873   -41262.16768605
  entropy T*S    EENTRO =        -0.07577964
  eigenvalues    EBANDS =     -4588.55058416
  atomic energy  EATOM  =     13537.65479391
  Solvation  Ediel_sol  =         0.00000000
  ---------------------------------------------------
  free energy    TOTEN  =      -829.14526254 eV

  energy without entropy =     -829.06948290  energy(sigma->0) =     -829.10737272


--------------------------------------------------------------------------------------------------------




--------------------------------------- Iteration      1(  19)  ---------------------------------------


    POTLOK:  cpu time      0.3219: real time      0.3219
    SETDIJ:  cpu time      0.0403: real time      0.0404
     EDDAV:  cpu time     10.1387: real time     10.1432
       DOS:  cpu time      0.0007: real time      0.0007
    CHARGE:  cpu time      1.1527: real time      1.1567
    MIXING:  cpu time      0.3731: real time      0.3730
    --------------------------------------------
      LOOP:  cpu time     12.0275: real time     12.0360

 eigenvalue-minimisations  :  1568
 total energy-change (2. order) :-0.1286248E-02  (-0.5704147E-05)
 number of electron     367.9999994 magnetization 
 augmentation part        9.1236066 magnetization 

 Broyden mixing:
  rms(total) = 0.40760E-03    rms(broyden)= 0.40758E-03
  rms(prec ) = 0.49164E-03
  weight for this iteration     100.00

 eigenvalues of (default mixing * dielectric matrix)
  average eigenvalue GAMMA=   2.3870
  8.9463  5.5010  3.1275  2.3441  2.1037  2.1037  1.4987  1.4987  1.2371  1.2371
  0.9501  0.9501  0.9287  0.9906

 Free energy of the ion-electron system (eV)
  ---------------------------------------------------
  alpha Z        PSCENC =        91.34886789
  Ewald energy   TEWEN  =    120255.53910630
  -Hartree energ DENC   =   -131340.41109851
  -exchange      EXHF   =         0.00000000
  -V(xc)+E(xc)   XCENC  =      1279.21405858
  PAW double counting   =     41195.34235208   -41259.44671094
  entropy T*S    EENTRO =        -0.07577414
  eigenvalues    EBANDS =     -4588.31214395
  atomic energy  EATOM  =     13537.65479391
  Solvation  Ediel_sol  =         0.00000000
  ---------------------------------------------------
  free energy    TOTEN  =      -829.14654878 eV

  energy without entropy =     -829.07077464  energy(sigma->0) =     -829.10866171


--------------------------------------------------------------------------------------------------------




--------------------------------------- Iteration      1(  20)  ---------------------------------------


    POTLOK:  cpu time      0.3219: real time      0.3219
    SETDIJ:  cpu time      0.0402: real time      0.0402
     EDDAV:  cpu time      9.3445: real time      9.3477
       DOS:  cpu time      0.0008: real time      0.0008
    CHARGE:  cpu time      1.1561: real time      1.1576
    MIXING:  cpu time      0.3843: real time      0.3851
    --------------------------------------------
      LOOP:  cpu time     11.2478: real time     11.2533

 eigenvalue-minimisations  :  1400
 total energy-change (2. order) :-0.3512028E-03  (-0.6764034E-06)
 number of electron     367.9999994 magnetization 
 augmentation part        9.1235736 magnetization 

 Broyden mixing:
  rms(total) = 0.24768E-03    rms(broyden)= 0.24767E-03
  rms(prec ) = 0.30001E-03
  weight for this iteration     100.00

 eigenvalues of (default mixing * dielectric matrix)
  average eigenvalue GAMMA=   2.4440
  9.1854  5.8857  3.6852  2.5495  2.5495  1.8741  1.5823  1.5823  1.5134  1.2410
  1.1425  0.9604  0.9604  0.9745  0.9745

 Free energy of the ion-electron system (eV)
  ---------------------------------------------------
  alpha Z        PSCENC =        91.34886789
  Ewald energy   TEWEN  =    120255.53910630
  -Hartree energ DENC   =   -131340.62564192
  -exchange      EXHF   =         0.00000000
  -V(xc)+E(xc)   XCENC  =      1279.21538042
  PAW double counting   =     41196.54360590   -41260.64863791
  entropy T*S    EENTRO =        -0.07577526
  eigenvalues    EBANDS =     -4588.09859932
  atomic energy  EATOM  =     13537.65479391
  Solvation  Ediel_sol  =         0.00000000
  ---------------------------------------------------
  free energy    TOTEN  =      -829.14689999 eV

  energy without entropy =     -829.07112473  energy(sigma->0) =     -829.10901236


--------------------------------------------------------------------------------------------------------




--------------------------------------- Iteration      1(  21)  ---------------------------------------


    POTLOK:  cpu time      0.3201: real time      0.3201
    SETDIJ:  cpu time      0.0401: real time      0.0401
     EDDAV:  cpu time      8.7357: real time      8.7385
       DOS:  cpu time      0.0008: real time      0.0008
    CHARGE:  cpu time      1.1646: real time      1.1668
    MIXING:  cpu time      0.3968: real time      0.3988
    --------------------------------------------
      LOOP:  cpu time     10.6581: real time     10.6651

 eigenvalue-minimisations  :  1280
 total energy-change (2. order) :-0.2640454E-03  (-0.3875527E-06)
 number of electron     367.9999994 magnetization 
 augmentation part        9.1235559 magnetization 

 Broyden mixing:
  rms(total) = 0.11321E-03    rms(broyden)= 0.11320E-03
  rms(prec ) = 0.13554E-03
  weight for this iteration     100.00

 eigenvalues of (default mixing * dielectric matrix)
  average eigenvalue GAMMA=   2.4078
  9.2042  6.2049  3.9023  2.6561  2.4292  2.0045  1.8415  1.5311  1.5311  1.2020
  1.2020  1.0499  0.9522  0.9522  0.9307  0.9307

 Free energy of the ion-electron system (eV)
  ---------------------------------------------------
  alpha Z        PSCENC =        91.34886789
  Ewald energy   TEWEN  =    120255.53910630
  -Hartree energ DENC   =   -131340.75051412
  -exchange      EXHF   =         0.00000000
  -V(xc)+E(xc)   XCENC  =      1279.21539321
  PAW double counting   =     41195.73603707   -41259.84202229
  entropy T*S    EENTRO =        -0.07577707
  eigenvalues    EBANDS =     -4587.97304892
  atomic energy  EATOM  =     13537.65479391
  Solvation  Ediel_sol  =         0.00000000
  ---------------------------------------------------
  free energy    TOTEN  =      -829.14716403 eV

  energy without entropy =     -829.07138696  energy(sigma->0) =     -829.10927550


[...]
   -.621E+01 0.413E+01 0.201E+03   0.598E+01 -.459E+01 -.201E+03   0.123E+00 -.568E+00 0.859E+00   -.189E-06 -.103E-05 0.168E-05
   -.153E+02 0.270E+00 0.830E+02   0.152E+02 -.101E+01 -.828E+02   -.222E+00 -.591E+00 0.766E+00   0.368E-06 0.395E-05 0.652E-08
   -.128E+02 0.193E+02 0.134E+03   0.137E+02 -.198E+02 -.134E+03   0.961E+00 -.185E+00 -.173E+01   0.714E-06 0.232E-05 0.346E-06
   -.123E+02 0.133E+02 0.958E+02   0.128E+02 -.138E+02 -.960E+02   0.606E+00 -.740E+00 0.620E+00   -.183E-05 0.171E-05 -.814E-06
   -.179E+02 -.499E+01 0.150E+03   0.172E+02 0.574E+01 -.150E+03   -.110E+01 -.371E+00 -.525E+00   -.177E-05 -.261E-05 -.394E-06
   -.456E+01 -.566E+01 0.247E+02   0.427E+01 0.536E+01 -.244E+02   0.703E+00 -.623E+00 -.271E+00   -.253E-05 -.152E-05 -.655E-06
   -.518E+02 0.150E+02 0.216E+03   0.529E+02 -.158E+02 -.217E+03   -.396E+00 -.611E+00 0.184E+01   -.239E-05 0.382E-05 -.123E-05
   -.182E+02 0.166E+02 0.709E+02   0.179E+02 -.172E+02 -.714E+02   0.265E-01 -.150E-01 0.119E+01   -.924E-06 0.880E-06 -.111E-05
   -.318E+02 -.503E+01 0.152E+03   0.309E+02 0.553E+01 -.152E+03   -.446E+00 -.330E-01 0.205E-01   0.221E-05 -.186E-06 -.631E-06
   0.751E+01 -.168E+02 -.497E+02   -.693E+01 0.177E+02 0.503E+02   0.608E+00 -.527E+00 0.171E+00   -.136E-05 -.737E-06 0.392E-06
   -.267E+02 0.141E+02 0.766E+02   0.272E+02 -.149E+02 -.767E+02   0.673E-01 0.375E+00 -.289E+00   0.214E-05 0.576E-06 -.475E-06
   0.288E+02 0.107E+02 -.102E+03   -.301E+02 -.112E+02 0.102E+03   -.527E+00 -.605E-01 -.133E+01   0.880E-06 0.399E-05 -.105E-06
   -.159E+01 -.665E+01 0.117E+02   0.142E+01 0.678E+01 -.120E+02   -.381E+00 0.314E+00 0.342E+00   -.216E-05 0.174E-06 -.911E-06
   0.250E+02 -.187E+02 -.147E+03   -.242E+02 0.200E+02 0.147E+03   0.352E+00 0.292E+00 0.178E+00   0.117E-05 0.137E-05 0.146E-05
   -.132E+02 0.345E+01 -.990E+01   0.140E+02 -.300E+01 0.997E+01   0.395E+00 -.527E-01 -.196E+00   -.231E-05 -.258E-05 -.955E-06
   0.223E+02 0.966E+01 -.124E+03   -.235E+02 -.104E+02 0.124E+03   -.119E+01 0.338E+00 0.182E+00   0.523E-07 0.190E-05 0.834E-06
   0.996E+01 -.137E+02 -.450E+02   -.108E+02 0.146E+02 0.448E+02   0.163E+00 0.803E+00 0.126E+00   0.176E-05 -.297E-05 0.144E-05
   0.607E+01 -.408E+01 -.197E+03   -.511E+01 0.347E+01 0.198E+03   0.463E+00 0.584E+00 -.618E+00   -.752E-05 -.187E-05 -.987E-06
   0.770E+00 0.240E+01 -.449E+02   -.101E+01 -.206E+01 0.446E+02   0.550E+00 0.119E+01 -.256E+00   -.248E-05 -.133E-05 -.519E-06
   -.641E+01 0.113E+02 -.194E+03   0.732E+01 -.123E+02 0.194E+03   0.135E+01 -.733E+00 0.723E-01   -.869E-05 0.302E-05 -.813E-06
   -.149E+02 -.140E+02 -.117E+03   0.160E+02 0.143E+02 0.117E+03   0.246E+00 -.656E+00 -.528E+00   -.803E-05 0.264E-05 -.163E-05
   -.294E+01 -.213E+02 -.201E+03   0.259E+01 0.227E+02 0.201E+03   0.103E+00 -.212E+00 -.968E+00   0.235E-05 -.106E-05 -.182E-06
   -.121E+02 0.252E+02 -.640E+02   0.126E+02 -.268E+02 0.639E+02   -.320E+00 -.142E+00 0.425E+00   -.140E-05 0.329E-05 -.139E-05
   0.268E+01 0.695E+01 -.196E+03   -.453E+01 -.696E+01 0.196E+03   -.115E+01 -.170E+00 -.136E+00   0.887E-05 -.111E-05 0.495E-06
   0.899E+00 -.167E+02 -.108E+03   -.123E+01 0.174E+02 0.108E+03   -.953E+00 0.418E+00 0.463E+00   0.732E-05 0.122E-05 -.452E-06
   -.313E+02 0.427E+01 -.209E+03   0.320E+02 -.401E+01 0.209E+03   0.146E+01 0.994E+00 -.708E+00   -.688E-06 -.463E-05 0.494E-06
   -.222E+02 0.448E+01 -.945E+02   0.224E+02 -.593E+01 0.946E+02   -.165E+00 -.121E+01 -.311E+00   0.424E-05 0.465E-05 -.209E-05
   -.391E+02 0.617E+02 -.208E+03   0.364E+02 -.627E+02 0.210E+03   0.197E+01 0.793E+00 -.153E+01   0.192E-05 0.271E-05 0.448E-06
   -.173E+02 -.725E+02 -.143E+03   0.133E+02 0.749E+02 0.144E+03   -.530E+00 -.180E+01 -.670E+00   0.592E-05 0.419E-05 -.143E-05
   0.381E+02 0.630E+02 0.589E+02   -.365E+02 -.649E+02 -.602E+02   -.224E+01 0.147E+01 0.158E+01   0.145E-04 0.488E-05 -.244E-05
   0.168E+02 -.721E+02 -.132E+02   -.131E+02 0.749E+02 0.120E+02   -.872E+00 -.934E+00 0.254E+00   0.100E-04 -.914E-05 -.377E-05
   0.415E+02 0.146E+02 0.995E+02   -.417E+02 -.148E+02 -.100E+03   -.110E+01 0.726E+00 0.127E+01   0.639E-06 0.634E-05 0.215E-06
   0.106E+02 -.446E+01 -.157E+02   -.100E+02 0.423E+01 0.156E+02   -.245E+00 -.744E-01 0.907E+00   -.732E-06 -.705E-05 -.528E-06
   0.274E+02 0.859E+01 0.834E+02   -.269E+02 -.870E+01 -.839E+02   0.843E+00 -.980E-01 -.827E+00   -.946E-05 0.336E-05 0.149E-05
   0.104E+02 -.143E+02 -.120E+02   -.116E+02 0.151E+02 0.127E+02   -.182E+01 0.579E+00 -.958E+00   -.345E-05 -.580E-05 -.187E-05
   0.295E+02 0.456E+00 0.162E+03   -.286E+02 -.265E+00 -.163E+03   0.121E+01 -.654E+00 0.178E+01   -.659E-05 0.290E-05 0.499E-06
   0.378E+01 -.126E+01 0.228E+02   -.272E+01 0.168E+01 -.234E+02   0.472E+00 -.873E-01 0.118E+01   -.186E-05 -.994E-06 0.507E-06
   0.455E+02 0.158E+02 0.197E+03   -.465E+02 -.168E+02 -.198E+03   -.604E+00 -.345E+00 0.214E+01   -.203E-06 0.478E-05 -.249E-06
   0.270E+02 -.105E+02 0.782E+02   -.279E+02 0.107E+02 -.777E+02   -.367E+00 0.477E+00 -.776E+00   0.659E-06 0.256E-05 -.888E-06
   0.238E+02 -.307E+00 0.135E+03   -.241E+02 -.196E+00 -.135E+03   0.132E+00 0.213E+00 -.629E+00   -.148E-05 -.420E-05 0.978E-07
   0.802E+01 0.278E+01 0.799E+02   -.702E+01 -.250E+01 -.799E+02   0.591E+00 0.901E+00 0.171E+00   -.303E-05 -.949E-06 0.332E-06
   0.635E+01 0.154E+02 0.112E+03   -.553E+01 -.153E+02 -.112E+03   0.495E+00 0.634E+00 -.149E+01   0.141E-06 0.241E-05 0.424E-06
   0.206E+02 -.709E+01 0.127E+03   -.220E+02 0.639E+01 -.128E+03   -.756E+00 -.587E+00 0.167E+01   0.186E-05 0.382E-05 0.162E-05
   0.170E+02 -.191E+02 0.192E+03   -.182E+02 0.204E+02 -.192E+03   -.664E+00 0.246E+00 -.212E+00   0.677E-06 -.423E-06 0.961E-06
   0.203E+00 0.281E+01 0.515E+02   0.613E+00 -.268E+01 -.511E+02   0.932E-01 0.632E+00 -.903E+00   -.164E-05 -.257E-05 0.716E-06
   -.133E+02 0.262E+01 0.225E+03   0.142E+02 -.282E+01 -.225E+03   -.870E-01 0.664E+00 0.229E+01   -.125E-05 0.145E-05 0.250E-05
   -.562E+01 -.399E+01 0.557E+02   0.582E+01 0.382E+01 -.556E+02   0.241E+00 0.122E+01 -.316E+00   -.779E-05 -.736E-06 -.121E-06
   -.187E+02 -.163E+02 0.191E+03   0.179E+02 0.161E+02 -.192E+03   -.175E+01 -.739E+00 0.141E+01   0.205E-05 0.876E-06 0.182E-05
   -.340E+01 -.241E+01 -.187E+02   0.449E+01 0.273E+01 0.192E+02   0.107E+01 0.797E-01 -.470E+00   -.355E-05 -.181E-06 -.192E-06
   -.432E+01 0.661E+01 0.365E+02   0.452E+01 -.624E+01 -.356E+02   0.384E+00 0.958E+00 -.142E+01   0.684E-06 -.273E-05 -.131E-05
   0.187E+02 -.708E+01 -.722E+02   -.199E+02 0.781E+01 0.721E+02   -.384E+00 0.349E+00 -.130E+01   0.344E-05 -.446E-05 0.964E-07
   -.303E+02 -.134E+02 0.135E+03   0.307E+02 0.136E+02 -.135E+03   0.447E+00 -.318E+00 0.392E+00   -.523E-05 0.145E-05 -.133E-05
   0.122E+02 -.648E+01 -.465E+02   -.127E+02 0.771E+01 0.465E+02   -.733E-01 0.622E+00 -.296E+00   0.504E-06 -.830E-06 0.665E-06
   -.364E+02 -.591E+00 0.932E+02   0.374E+02 0.931E+00 -.927E+02   0.555E+00 0.198E+00 0.935E+00   -.356E-05 0.447E-06 -.122E-05
   -.164E+02 -.198E+01 -.719E+01   0.178E+02 0.126E+01 0.728E+01   0.134E+00 -.681E+00 0.437E+00   -.315E-05 0.122E-05 0.123E-06
   -.169E+02 -.229E+02 0.668E+02   0.165E+02 0.243E+02 -.674E+02   -.112E+00 0.926E+00 0.467E+00   0.153E-05 -.358E-05 -.444E-06
   0.182E+02 0.132E+02 -.777E+02   -.190E+02 -.136E+02 0.780E+02   -.299E+00 -.515E+00 -.108E+01   -.467E-05 0.562E-06 -.656E-06
   0.953E+01 0.135E+01 -.271E+02   -.107E+02 -.993E+00 0.275E+02   0.504E+00 0.728E+00 -.105E+01   -.199E-05 -.285E-05 -.125E-05
   0.598E+00 -.674E+01 -.844E+02   0.106E+01 0.719E+01 0.846E+02   0.286E+00 0.992E-01 0.122E+01   -.277E-05 -.234E-05 0.162E-06
   -.184E+02 -.153E+02 0.141E+01   0.203E+02 0.154E+02 -.154E+01   0.432E+00 -.951E+00 0.136E+01   -.451E-05 -.191E-05 -.109E-05
   0.468E+02 0.308E+02 -.171E+03   -.490E+02 -.327E+02 0.172E+03   -.283E+00 -.786E+00 -.208E+01   0.303E-05 0.349E-05 0.177E-05
   0.150E+02 0.811E+01 -.630E+02   -.162E+02 -.816E+01 0.632E+02   -.108E+01 -.623E-01 -.173E+01   0.930E-07 0.254E-05 -.366E-07
   0.164E+02 0.185E+01 -.111E+03   -.163E+02 -.279E+01 0.110E+03   0.288E+00 -.150E+01 0.126E+01   0.110E-05 0.291E-05 0.181E-05
   -.973E+01 -.620E+01 0.184E+02   0.104E+02 0.648E+01 -.188E+02   -.274E+00 0.811E+00 0.854E+00   0.919E-06 -.486E-05 -.528E-06
   0.645E+01 0.149E+02 -.172E+03   -.622E+01 -.145E+02 0.173E+03   -.558E-01 0.138E+01 -.283E+00   -.428E-05 0.239E-05 0.624E-07
   -.338E+01 -.409E+01 0.365E+02   0.262E+01 0.431E+01 -.370E+02   -.204E+00 -.105E+01 0.184E+01   -.296E-06 -.794E-06 -.113E-05
   -.771E+01 -.329E+01 -.134E+03   0.849E+01 0.303E+01 0.134E+03   -.319E+00 -.305E+00 -.191E+01   -.437E-05 -.898E-06 -.103E-05
   -.992E+01 -.803E+01 -.263E+01   0.105E+02 0.884E+01 0.240E+01   0.107E+01 0.492E+00 -.124E+00   -.195E-06 0.222E-05 -.214E-05
   -.149E+01 0.967E+01 -.103E+03   0.773E+00 -.959E+01 0.103E+03   -.270E+00 -.973E+00 0.103E+01   0.650E-07 -.476E-05 -.970E-06
   -.839E+01 0.893E+01 -.331E+02   0.832E+01 -.917E+01 0.331E+02   0.178E+00 -.832E-01 -.772E+00   0.286E-05 -.295E-05 -.179E-05
   -.145E+02 -.131E+02 -.686E+02   0.159E+02 0.132E+02 0.682E+02   0.920E+00 -.374E+00 0.320E+00   0.452E-05 0.892E-07 -.838E-06
   -.708E+01 -.744E+01 0.390E+01   0.716E+01 0.913E+01 -.527E+01   0.765E+00 0.110E+01 0.168E+01   0.196E-05 -.563E-05 -.391E-06
   -.173E+02 0.151E+02 -.116E+03   0.158E+02 -.163E+02 0.116E+03   -.464E+00 -.497E+00 -.823E+00   0.180E-05 0.371E-05 0.138E-05
   -.335E+01 0.655E+02 -.476E+02   -.406E+00 -.677E+02 0.488E+02   0.195E+00 0.131E+01 -.182E+01   0.952E-05 0.956E-06 -.276E-05
   -.905E+01 -.680E+02 -.499E+02   0.646E+01 0.693E+02 0.500E+02   0.144E+01 -.222E+01 0.634E+00   0.900E-05 -.295E-05 -.212E-05
 -----------------------------------------------------------------------------------------------
   0.141E+00 0.832E+00 -.148E+01   0.422E-12 0.497E-12 0.298E-12   -.821E-01 -.860E+00 0.146E+01   -.508E-05 0.514E-05 -.247E-04
 
 
 POSITION                                       TOTAL-FORCE (eV/Angst)
 -----------------------------------------------------------------------------------
      0.33191      0.81672     17.67140         2.387216      0.531212     -0.324160
      0.30178      2.20485     17.50900         2.695648     -0.161936     -0.705000
      1.52338      0.16070     17.27710        -1.729846      0.339776      0.602330
      1.35500      2.89777     16.96430         2.182470     -2.545301     -0.037082
      2.71343      0.82887     16.97930         0.016643      1.965765      0.369257
      2.65657      2.23483     16.82840        -1.183645     -0.696308      0.533939
      3.91170      0.14911     16.68240        -1.236493     -0.436080     -0.427916
      3.79757      2.93923     16.41800         1.677071     -2.342484     -1.701994
      5.03815      0.85047     16.32830         2.585882     -2.054920     -0.940831
      5.04562      2.18263     16.13310        -1.731291      2.436115      0.282291
      6.23152      0.13129     15.90090        -1.033290      1.014519      0.399081
      6.18117      2.79080     15.57640         0.110062      0.989274      0.054612
      7.40109      0.81044     15.54110         2.098446     -1.759041      0.054325
      7.39927      2.14530     15.31220         1.092333      1.547813     -0.256548
      8.67204      0.10357     15.46730        -1.080336      2.133838     -0.182431
      8.66272      2.85834     14.99860        -1.196056     -3.241786      0.797425
      9.89341      0.81008     15.31620        -0.633035      0.295989     -0.139455
      9.90708      2.19453     15.08440        -0.103747     -1.028287      0.406750
     11.10230      0.16440     15.55860        -0.276709     -1.334749      0.925253
     11.13630      2.86402     15.27540         1.821260     -0.666473     -1.507624
     12.32910      0.84813     15.64510         1.072004     -1.230215      0.494352
     12.41900      2.19906     15.44470        -1.842203      0.378578     -0.630482
     13.50020      0.18211     16.07010         0.417721     -0.922992      0.050616
     13.64950      2.87494     15.52010         0.692224     -1.421205      1.137683
     14.75560      0.83635     16.21770        -0.257407     -0.552046      0.689975
     14.85190      2.18066     15.96320        -1.323739      0.461794     -0.567474
     15.86360      0.20175     16.84510         1.186749      0.303779      0.777275
     16.00310      2.82788     16.42560         0.548828     -0.354645     -0.380140
     17.09240      0.85259     17.27600        -1.787051     -0.579639     -1.403953
     17.15720      2.18015     16.96030        -0.552539      0.446130      0.031002
     18.24120      0.18765     17.71860         1.175494      1.582021      0.505715
     18.33130      2.86147     17.25820         1.147112      0.398875     -0.125828
     19.52520      0.84477     17.89980        -2.480936     -0.431683      0.079464
     19.53840      2.17492     17.63780        -0.701921      1.652884     -0.063910
     20.69760      0.19748     18.24260         1.431967     -0.023552      0.132784
     20.74880      2.85863     17.76570         0.314318      1.532712     -0.576092
     21.92080      0.91743     18.33080         2.257921     -1.646874      0.286842
     21.96300      2.26280     18.07720         1.290756     -0.372369     -0.196543
     23.23740      0.24759     18.39800        -0.256501      1.262628     -0.274454
     23.24630      2.91731     17.96460         0.217846     -1.761693      0.325112
     24.55440      0.90578     18.35920        -2.990644     -0.175049      0.219821
     24.55120      2.25323     18.10570        -1.285152      1.101899      0.402869
     25.74500      0.20520     18.29230         2.205658      1.262048     -0.147100
     25.78230      2.94644     17.92300         0.093799     -2.658046     -0.253461
     26.95810      0.88811     18.13320        -0.719426     -0.201541      0.208386
     27.01240      2.24478     17.93010        -4.515317      0.694370      0.970783
      0.26151      4.93288     17.01330        -0.578029     -0.427560      0.268294
      0.27652      6.26715     17.20390         2.745591      1.844408     -0.939448
      1.37010      4.22525     16.67720        -1.320747      0.435836      0.579190
      1.47911      6.91343     17.01880         0.361999     -0.301082      0.782733
      2.54604      4.89645     16.41030         1.305321     -0.201108     -1.323488
      2.68380      6.22141     16.63930        -3.079834      1.358870     -0.262748
      3.70513      4.24113     15.99290         2.132873     -0.463105      0.299938
      3.85177      6.89091     16.37370         1.529259      0.333706      0.575447
      4.95822      4.88249     15.61010        -1.636044     -1.329674      1.518305
      5.00852      6.21608     15.89460        -1.267856      0.666567     -0.338910
      6.17236      4.18029     15.48910        -0.138860     -0.289377     -0.695562
      6.20378      6.86315     15.72590         1.584762      1.180086      0.155587
      7.40673      4.82723     15.37110         1.318261      0.681404     -1.291453
      7.43386      6.21224     15.43930        -2.097707     -1.285248      0.772754
      8.68158      4.19021     15.08000        -1.818325      1.532379     -0.002958
      8.64399      6.83961     15.52060         0.908681      0.764547     -0.442593
      9.91343      4.85550     15.09480         0.849100      0.462192      1.652737
      9.86062      6.16052     15.50600         0.442094      1.051154     -0.266985
     11.19370      4.23761     15.24260        -2.528513     -0.955009      0.080479
     11.03380      6.86967     15.80490         2.159375      0.400030     -0.003644
     12.32520      4.84203     15.75570         0.583424      1.329572     -0.507710
     12.27910      6.18145     16.09230        -1.597194      1.077811     -1.308515
     13.57470      4.22973     15.72750         0.819751     -0.087652      0.169869
     13.47280      6.88281     16.28180        -0.584583      1.853434     -0.204150
     14.74300      4.88344     16.13310         1.548161      0.538977      1.385650
     14.68550      6.25123     16.44480         1.535352     -1.400173      0.524322
     15.96920      4.18278     16.47320        -0.551125      2.259893     -0.102098
     15.86030      6.93288     16.93360        -1.025301     -0.888429     -0.743536
     17.08990      4.87230     17.03060        -0.645743      1.080117     -0.640123
     17.03270      6.24444     17.24500         1.943536      0.551228      1.425691
     18.30960      4.25664     17.23810         2.359338     -0.835739      1.224895
     18.26220      6.94804     17.77440        -2.493227     -2.702981     -1.743952
     19.55460      4.92925     17.63410        -2.278237     -0.104535     -1.475945
     19.50090      6.30944     17.85580         0.412565     -2.445724      0.465312
     20.77150      4.24082     17.60510         0.391578      1.084112      0.444986
     20.72680      6.90548     18.16020         0.174741      1.710828      0.254482
     22.00640      4.96528     17.68790        -0.956961     -0.827940      1.343756
     21.98690      6.29923     18.10170         0.462696     -0.559138     -1.467152
     23.21180      4.25917     17.77400         1.601540      1.299543     -0.353621
     23.24140      7.00393     18.14530        -0.992438     -0.896630      0.980214
     24.46670      4.95474     17.80720         0.107272     -0.321347     -0.684540
     24.45660      6.32521     17.96800         2.313696     -0.295599     -0.103252
     25.71520      4.26016     17.65870         0.839594      2.797532      0.302822
     25.77750      6.98272     18.00610        -1.921981     -1.647000     -0.266253
     26.94120      4.95977     17.52380        -3.562813     -0.807747     -0.660207
     26.93030      6.33874     17.60660        -1.157192     -0.954531      0.725916
 -----------------------------------------------------------------------------------
    total drift:                                0.058484     -0.028634     -0.029073


--------------------------------------------------------------------------------------------------------



  FREE ENERGIE OF THE ION-ELECTRON SYSTEM (eV)
  ---------------------------------------------------
  free  energy   TOTEN  =      -829.14727796 eV

  energy  without entropy=     -829.07150198  energy(sigma->0) =     -829.10938997
 


--------------------------------------------------------------------------------------------------------


    POTLOK:  cpu time      0.4535: real time      0.4535


--------------------------------------------------------------------------------------------------------


     LOOP+:  cpu time    334.0875: real time    334.2899
    4ORBIT:  cpu time      0.0000: real time      0.0000

 total amount of memory used by VASP MPI-rank0  2294514. kBytes
=======================================================================

   base                                    :      30000. kBytes
   nonlr-proj                              :      15080. kBytes
   fftplans                                :     436558. kBytes
   grid                                    :     732614. kBytes
   one-center                              :        282. kBytes
   wavefun                                 :    1079980. kBytes
 
  
  
 General timing and accounting informations for this job:
 ========================================================
  
                  Total CPU time used (sec):      367.464
                            User time (sec):      359.123
                          System time (sec):        8.341
                         Elapsed time (sec):      367.775
  
                   Maximum memory used (kb):     3729968.
                   Average memory used (kb):          N/A
  
                          Minor page faults:      3178873
                          Major page faults:         5013
                 Voluntary context switches:         9930
