unknown system                          
            1
    28.050000    0.000000    0.000000
     0.000000    8.100000    0.000000
     0.000000    0.000000   33.500000
   C 
    92
Direct configuration=     1
   0.01183287  0.10082914  0.52750448
   0.01075875  0.27220370  0.52265672
   0.05430945  0.01983889  0.51573433
   0.04830660  0.35774938  0.50639701
   0.09673547  0.10232951  0.50684478
   0.09470838  0.27590494  0.50234030
   0.13945455  0.01840827  0.49798209
   0.13538574  0.36286790  0.49008955
   0.17961319  0.10499654  0.48741194
   0.17987950  0.26946049  0.48158507
   0.22215758  0.01620840  0.47465373
   0.22036257  0.34454321  0.46496716
   0.26385348  0.10005407  0.46391343
   0.26378859  0.26485185  0.45708060
   0.30916364  0.01278654  0.46171045
   0.30883137  0.35288148  0.44771940
   0.35270624  0.10000988  0.45720000
   0.35319358  0.27092963  0.45028060
   0.39580392  0.02029580  0.46443582
   0.39701604  0.35358272  0.45598209
   0.43954011  0.10470716  0.46701791
   0.44274510  0.27148889  0.46103582
   0.48129055  0.02248309  0.47970448
   0.48661319  0.35493086  0.46328657
   0.52604635  0.10325284  0.48411045
   0.52947950  0.26921728  0.47651343
   0.56554724  0.02490728  0.50283881
   0.57052050  0.34912099  0.49031642
   0.60935472  0.10525753  0.51570149
   0.61166488  0.26915432  0.50627761
   0.65031016  0.02316691  0.52891343
   0.65352228  0.35326790  0.51517015
   0.69608556  0.10429296  0.53432239
   0.69655615  0.26850864  0.52650149
   0.73788235  0.02438074  0.54455522
   0.73970766  0.35291728  0.53031940
   0.78149020  0.11326259  0.54718806
   0.78299465  0.27935802  0.53961791
   0.82842781  0.03056630  0.54919403
   0.82874510  0.36016173  0.53625672
   0.87537968  0.11182469  0.54803582
   0.87526560  0.27817654  0.54046866
   0.91782531  0.02533309  0.54603881
   0.91915508  0.36375802  0.53501493
   0.96107308  0.10964272  0.54128955
   0.96300891  0.27713333  0.53522687
   0.00932285  0.60899753  0.50785970
   0.00985807  0.77372222  0.51354925
   0.04884492  0.52163580  0.49782687
   0.05273119  0.85350988  0.50802388
   0.09076791  0.60450000  0.48985970
   0.09567914  0.76807531  0.49669552
   0.13209020  0.52359630  0.47740000
   0.13731800  0.85072963  0.48876716
   0.17676364  0.60277654  0.46597313
   0.17855686  0.76741728  0.47446567
   0.22004848  0.51608519  0.46236119
   0.22116863  0.84730247  0.46942985
   0.26405455  0.59595432  0.45883881
   0.26502175  0.76694321  0.46087463
   0.30950374  0.51730988  0.45014925
   0.30816364  0.84439630  0.46330149
   0.35341996  0.59944444  0.45059104
   0.35153725  0.76055802  0.46286567
   0.39906239  0.52316173  0.45500299
   0.39336185  0.84810741  0.47178806
   0.43940107  0.59778148  0.47031940
   0.43775758  0.76314198  0.48036716
   0.48394652  0.52218889  0.46947761
   0.48031373  0.84972963  0.48602388
   0.52559715  0.60289383  0.48158507
   0.52354724  0.77175679  0.49088955
   0.56931194  0.51639259  0.49173731
   0.56542959  0.85591111  0.50548060
   0.60926560  0.60151852  0.50837612
   0.60722638  0.77091852  0.51477612
   0.65274866  0.52551111  0.51457015
   0.65105882  0.85778272  0.53057910
   0.69713369  0.60854938  0.52639104
   0.69521925  0.77894321  0.53300896
   0.74051693  0.52355802  0.52552537
   0.73892335  0.85252840  0.54209552
   0.78454189  0.61299753  0.52799701
   0.78384670  0.77768272  0.54034925
   0.82751515  0.52582346  0.53056716
   0.82857041  0.86468272  0.54165075
   0.87225312  0.61169630  0.53155821
   0.87189305  0.78089012  0.53635821
   0.91676292  0.52594568  0.52712537
   0.91898396  0.86206420  0.53749552
   0.96047059  0.61231728  0.52309851
   0.96008200  0.78256049  0.52557015
