  92  92   0   0
  0.8273226E+02  0.2805000E-08  0.8100000E-09  0.3350000E-08  0.5000000E-15
   1.0000000000000000E-004
  CAR 
 unknown system                          
      3.91068074    -25.20994170  301     -3.15435474      1.00000000
    -25.210  0.0000E+00  0.0000E+00
    -25.113  0.0000E+00  0.0000E+00
    -25.016  0.0000E+00  0.0000E+00
    -24.919  0.0000E+00  0.0000E+00
    -24.822  0.0000E+00  0.0000E+00
    -24.725  0.0000E+00  0.0000E+00
    -24.628  0.0000E+00  0.0000E+00
    -24.530  0.0000E+00  0.0000E+00
    -24.433  0.0000E+00  0.0000E+00
    -24.336  0.4289E-14  0.4163E-15
    -24.239  0.8770E-12  0.8554E-13
    -24.142  0.1132E-09  0.1107E-10
    -24.045  0.9235E-08  0.9075E-09
    -23.948  0.4781E-06  0.4731E-07
    -23.851  0.1579E-04  0.1580E-05
    -23.754  0.3352E-03  0.3412E-04
    -23.657  0.4625E-02  0.4830E-03
    -23.560  0.4208E-01  0.4567E-02
    -23.463  0.2572E+00  0.2953E-01
    -23.366  0.1079E+01  0.1343E+00
    -23.269  0.3181E+01  0.4430E+00
    -23.171  0.6746E+01  0.1098E+01
    -23.074  0.1057E+02  0.2124E+01
    -22.977  0.1274E+02  0.3360E+01
    -22.880  0.1284E+02  0.4606E+01
    -22.783  0.1274E+02  0.5843E+01
    -22.686  0.1396E+02  0.7198E+01
    -22.589  0.1521E+02  0.8674E+01
    -22.492  0.1491E+02  0.1012E+02
    -22.395  0.1413E+02  0.1149E+02
    -22.298  0.1428E+02  0.1288E+02
    -22.201  0.1471E+02  0.1431E+02
    -22.104  0.1451E+02  0.1571E+02
    -22.007  0.1400E+02  0.1707E+02
    -21.910  0.1363E+02  0.1840E+02
    -21.813  0.1338E+02  0.1969E+02
    -21.715  0.1335E+02  0.2099E+02
    -21.618  0.1318E+02  0.2227E+02
    -21.521  0.1222E+02  0.2346E+02
    -21.424  0.1103E+02  0.2453E+02
    -21.327  0.1115E+02  0.2561E+02
    -21.230  0.1320E+02  0.2689E+02
    -21.133  0.1586E+02  0.2843E+02
    -21.036  0.1680E+02  0.3006E+02
    -20.939  0.1526E+02  0.3154E+02
    -20.842  0.1312E+02  0.3282E+02
    -20.745  0.1241E+02  0.3402E+02
    -20.648  0.1297E+02  0.3528E+02
    -20.551  0.1345E+02  0.3659E+02
    -20.454  0.1323E+02  0.3787E+02
    -20.357  0.1286E+02  0.3912E+02
    -20.259  0.1326E+02  0.4040E+02
    -20.162  0.1438E+02  0.4180E+02
    -20.065  0.1533E+02  0.4329E+02
    -19.968  0.1541E+02  0.4478E+02
    -19.871  0.1454E+02  0.4620E+02
    -19.774  0.1359E+02  0.4752E+02
    -19.677  0.1427E+02  0.4890E+02
    -19.580  0.1624E+02  0.5048E+02
    -19.483  0.1645E+02  0.5207E+02
    -19.386  0.1402E+02  0.5343E+02
    -19.289  0.1197E+02  0.5460E+02
    -19.192  0.1239E+02  0.5580E+02
    -19.095  0.1381E+02  0.5714E+02
    -18.998  0.1425E+02  0.5852E+02
    -18.900  0.1375E+02  0.5986E+02
    -18.803  0.1348E+02  0.6117E+02
    -18.706  0.1440E+02  0.6256E+02
    -18.609  0.1634E+02  0.6415E+02
    -18.512  0.1758E+02  0.6586E+02
    -18.415  0.1715E+02  0.6752E+02
    -18.318  0.1650E+02  0.6912E+02
    -18.221  0.1692E+02  0.7076E+02
    -18.124  0.1707E+02  0.7242E+02
    -18.027  0.1556E+02  0.7393E+02
    -17.930  0.1360E+02  0.7525E+02
    -17.833  0.1300E+02  0.7651E+02
    -17.736  0.1337E+02  0.7781E+02
    -17.639  0.1310E+02  0.7908E+02
    -17.542  0.1206E+02  0.8025E+02
    -17.444  0.1137E+02  0.8136E+02
    -17.347  0.1138E+02  0.8246E+02
    -17.250  0.1145E+02  0.8357E+02
    -17.153  0.1128E+02  0.8467E+02
    -17.056  0.1106E+02  0.8574E+02
    -16.959  0.1080E+02  0.8679E+02
    -16.862  0.1053E+02  0.8781E+02
    -16.765  0.1066E+02  0.8885E+02
    -16.668  0.1184E+02  0.9000E+02
    -16.571  0.1399E+02  0.9135E+02
    -16.474  0.1565E+02  0.9287E+02
    -16.377  0.1575E+02  0.9440E+02
    -16.280  0.1563E+02  0.9592E+02
    -16.183  0.1642E+02  0.9751E+02
    -16.085  0.1645E+02  0.9911E+02
    -15.988  0.1463E+02  0.1005E+03
    -15.891  0.1315E+02  0.1018E+03
    -15.794  0.1353E+02  0.1031E+03
    -15.697  0.1413E+02  0.1045E+03
    -15.600  0.1383E+02  0.1058E+03
    -15.503  0.1397E+02  0.1072E+03
    -15.406  0.1590E+02  0.1087E+03
    -15.309  0.1859E+02  0.1105E+03
    -15.212  0.2019E+02  0.1125E+03
    -15.115  0.2087E+02  0.1145E+03
    -15.018  0.2136E+02  0.1166E+03
    -14.921  0.2088E+02  0.1186E+03
    -14.824  0.1854E+02  0.1204E+03
    -14.727  0.1467E+02  0.1218E+03
    -14.629  0.1068E+02  0.1229E+03
    -14.532  0.8281E+01  0.1237E+03
    -14.435  0.8148E+01  0.1245E+03
    -14.338  0.9321E+01  0.1254E+03
    -14.241  0.1052E+02  0.1264E+03
    -14.144  0.1191E+02  0.1276E+03
    -14.047  0.1404E+02  0.1289E+03
    -13.950  0.1627E+02  0.1305E+03
    -13.853  0.1793E+02  0.1322E+03
    -13.756  0.1900E+02  0.1341E+03
    -13.659  0.1925E+02  0.1360E+03
    -13.562  0.1849E+02  0.1378E+03
    -13.465  0.1758E+02  0.1395E+03
    -13.368  0.1728E+02  0.1411E+03
    -13.270  0.1715E+02  0.1428E+03
    -13.173  0.1673E+02  0.1444E+03
    -13.076  0.1619E+02  0.1460E+03
    -12.979  0.1575E+02  0.1475E+03
    -12.882  0.1559E+02  0.1490E+03
    -12.785  0.1551E+02  0.1505E+03
    -12.688  0.1468E+02  0.1520E+03
    -12.591  0.1330E+02  0.1533E+03
    -12.494  0.1280E+02  0.1545E+03
    -12.397  0.1407E+02  0.1559E+03
    -12.300  0.1690E+02  0.1575E+03
    -12.203  0.2092E+02  0.1595E+03
    -12.106  0.2465E+02  0.1619E+03
    -12.009  0.2530E+02  0.1644E+03
    -11.912  0.2261E+02  0.1666E+03
    -11.814  0.1975E+02  0.1685E+03
    -11.717  0.1847E+02  0.1703E+03
    -11.620  0.1748E+02  0.1720E+03
    -11.523  0.1604E+02  0.1735E+03
    -11.426  0.1575E+02  0.1751E+03
    -11.329  0.1767E+02  0.1768E+03
    -11.232  0.2084E+02  0.1788E+03
    -11.135  0.2443E+02  0.1812E+03
    -11.038  0.2845E+02  0.1839E+03
    -10.941  0.3213E+02  0.1871E+03
    -10.844  0.3404E+02  0.1904E+03
    -10.747  0.3397E+02  0.1937E+03
    -10.650  0.3366E+02  0.1969E+03
    -10.553  0.3503E+02  0.2003E+03
    -10.455  0.3741E+02  0.2040E+03
    -10.358  0.3844E+02  0.2077E+03
    -10.261  0.3755E+02  0.2113E+03
    -10.164  0.3652E+02  0.2149E+03
    -10.067  0.3573E+02  0.2184E+03
     -9.970  0.3373E+02  0.2216E+03
     -9.873  0.3144E+02  0.2247E+03
     -9.776  0.3212E+02  0.2278E+03
     -9.679  0.3640E+02  0.2313E+03
     -9.582  0.4112E+02  0.2353E+03
     -9.485  0.4344E+02  0.2395E+03
     -9.388  0.4267E+02  0.2437E+03
     -9.291  0.3897E+02  0.2475E+03
     -9.194  0.3349E+02  0.2507E+03
     -9.097  0.2913E+02  0.2535E+03
     -8.999  0.2878E+02  0.2563E+03
     -8.902  0.3229E+02  0.2595E+03
     -8.805  0.3665E+02  0.2630E+03
     -8.708  0.3892E+02  0.2668E+03
     -8.611  0.3807E+02  0.2705E+03
     -8.514  0.3499E+02  0.2739E+03
     -8.417  0.3126E+02  0.2769E+03
     -8.320  0.2830E+02  0.2797E+03
     -8.223  0.2720E+02  0.2823E+03
     -8.126  0.2766E+02  0.2850E+03
     -8.029  0.2796E+02  0.2877E+03
     -7.932  0.2722E+02  0.2904E+03
     -7.835  0.2642E+02  0.2929E+03
     -7.738  0.2676E+02  0.2955E+03
     -7.640  0.2801E+02  0.2982E+03
     -7.543  0.2942E+02  0.3011E+03
     -7.446  0.3049E+02  0.3041E+03
     -7.349  0.3020E+02  0.3070E+03
     -7.252  0.2815E+02  0.3097E+03
     -7.155  0.2597E+02  0.3122E+03
     -7.058  0.2537E+02  0.3147E+03
     -6.961  0.2603E+02  0.3172E+03
     -6.864  0.2668E+02  0.3198E+03
     -6.767  0.2651E+02  0.3224E+03
     -6.670  0.2525E+02  0.3248E+03
     -6.573  0.2335E+02  0.3271E+03
     -6.476  0.2157E+02  0.3292E+03
     -6.379  0.2048E+02  0.3312E+03
     -6.282  0.2037E+02  0.3332E+03
     -6.184  0.2097E+02  0.3352E+03
     -6.087  0.2229E+02  0.3374E+03
     -5.990  0.2446E+02  0.3397E+03
     -5.893  0.2626E+02  0.3423E+03
     -5.796  0.2588E+02  0.3448E+03
     -5.699  0.2285E+02  0.3470E+03
     -5.602  0.1824E+02  0.3488E+03
     -5.505  0.1353E+02  0.3501E+03
     -5.408  0.1016E+02  0.3511E+03
     -5.311  0.9512E+01  0.3520E+03
     -5.214  0.1137E+02  0.3531E+03
     -5.117  0.1269E+02  0.3544E+03
     -5.020  0.1116E+02  0.3554E+03
     -4.923  0.8838E+01  0.3563E+03
     -4.826  0.8779E+01  0.3571E+03
     -4.728  0.1073E+02  0.3582E+03
     -4.631  0.1292E+02  0.3594E+03
     -4.534  0.1467E+02  0.3609E+03
     -4.437  0.1513E+02  0.3623E+03
     -4.340  0.1294E+02  0.3636E+03
     -4.243  0.8765E+01  0.3644E+03
     -4.146  0.5064E+01  0.3649E+03
     -4.049  0.2968E+01  0.3652E+03
     -3.952  0.1967E+01  0.3654E+03
     -3.855  0.1731E+01  0.3656E+03
     -3.758  0.2498E+01  0.3658E+03
     -3.661  0.4003E+01  0.3662E+03
     -3.564  0.5031E+01  0.3667E+03
     -3.467  0.4526E+01  0.3671E+03
     -3.369  0.3121E+01  0.3674E+03
     -3.272  0.2411E+01  0.3677E+03
     -3.175  0.2716E+01  0.3679E+03
     -3.078  0.3023E+01  0.3682E+03
     -2.981  0.3006E+01  0.3685E+03
     -2.884  0.3421E+01  0.3689E+03
     -2.787  0.4488E+01  0.3693E+03
     -2.690  0.5786E+01  0.3699E+03
     -2.593  0.7367E+01  0.3706E+03
     -2.496  0.8854E+01  0.3714E+03
     -2.399  0.8923E+01  0.3723E+03
     -2.302  0.7625E+01  0.3730E+03
     -2.205  0.6783E+01  0.3737E+03
     -2.108  0.7102E+01  0.3744E+03
     -2.011  0.7362E+01  0.3751E+03
     -1.913  0.6581E+01  0.3757E+03
     -1.816  0.5651E+01  0.3763E+03
     -1.719  0.6531E+01  0.3769E+03
     -1.622  0.1036E+02  0.3779E+03
     -1.525  0.1619E+02  0.3795E+03
     -1.428  0.2113E+02  0.3815E+03
     -1.331  0.2279E+02  0.3838E+03
     -1.234  0.2169E+02  0.3859E+03
     -1.137  0.2013E+02  0.3878E+03
     -1.040  0.1919E+02  0.3897E+03
     -0.943  0.1815E+02  0.3914E+03
     -0.846  0.1627E+02  0.3930E+03
     -0.749  0.1377E+02  0.3944E+03
     -0.652  0.1203E+02  0.3955E+03
     -0.554  0.1226E+02  0.3967E+03
     -0.457  0.1310E+02  0.3980E+03
     -0.360  0.1235E+02  0.3992E+03
     -0.263  0.1122E+02  0.4003E+03
     -0.166  0.1283E+02  0.4015E+03
     -0.069  0.1707E+02  0.4032E+03
      0.028  0.2064E+02  0.4052E+03
      0.125  0.2136E+02  0.4073E+03
      0.222  0.2064E+02  0.4093E+03
      0.319  0.2051E+02  0.4112E+03
      0.416  0.2057E+02  0.4132E+03
      0.513  0.2027E+02  0.4152E+03
      0.610  0.2126E+02  0.4173E+03
      0.707  0.2437E+02  0.4196E+03
      0.804  0.2781E+02  0.4223E+03
      0.902  0.3004E+02  0.4253E+03
      0.999  0.3254E+02  0.4284E+03
      1.096  0.3736E+02  0.4320E+03
      1.193  0.4353E+02  0.4363E+03
      1.290  0.4870E+02  0.4410E+03
      1.387  0.5128E+02  0.4460E+03
      1.484  0.5017E+02  0.4508E+03
      1.581  0.4502E+02  0.4552E+03
      1.678  0.3666E+02  0.4588E+03
      1.775  0.2639E+02  0.4613E+03
      1.872  0.1588E+02  0.4629E+03
      1.969  0.7613E+01  0.4636E+03
      2.066  0.2881E+01  0.4639E+03
      2.163  0.8675E+00  0.4640E+03
      2.261  0.2023E+00  0.4640E+03
      2.358  0.3426E-01  0.4640E+03
      2.455  0.3962E-02  0.4640E+03
      2.552  0.3009E-03  0.4640E+03
      2.649  0.1469E-04  0.4640E+03
      2.746  0.4560E-06  0.4640E+03
      2.843  0.8958E-08  0.4640E+03
      2.940  0.1110E-09  0.4640E+03
      3.037  0.8658E-12  0.4640E+03
      3.134  0.4575E-14  0.4640E+03
      3.231  0.0000E+00  0.4640E+03
      3.328  0.0000E+00  0.4640E+03
      3.425  0.0000E+00  0.4640E+03
      3.522  0.0000E+00  0.4640E+03
      3.619  0.0000E+00  0.4640E+03
      3.717  0.0000E+00  0.4640E+03
      3.814  0.0000E+00  0.4640E+03
      3.911  0.0000E+00  0.4640E+03
