       N       E                     dE             d eps       ncg     rms          rms(c)
DAV:   1     0.372468232669E+04    0.37247E+04   -0.11907E+05  1720   0.105E+03
DAV:   2     0.188980672101E+03   -0.35357E+04   -0.32760E+04  2152   0.239E+02
DAV:   3    -0.836273632601E+03   -0.10253E+04   -0.10020E+04  1792   0.135E+02
DAV:   4    -0.898597799347E+03   -0.62324E+02   -0.61359E+02  1720   0.430E+01
DAV:   5    -0.900109735510E+03   -0.15119E+01   -0.14919E+01  1792   0.652E+00    0.461E+01
DAV:   6    -0.849129203859E+03    0.50981E+02   -0.48749E+01  1592   0.128E+01    0.271E+01
DAV:   7    -0.830135005898E+03    0.18994E+02   -0.67038E+01  1552   0.146E+01    0.746E+00
DAV:   8    -0.829828563421E+03    0.30644E+00   -0.24533E+00  1584   0.340E+00    0.102E+00
DAV:   9    -0.829716395377E+03    0.11217E+00   -0.28701E-01  1632   0.104E+00    0.580E-01
DAV:  10    -0.829678133645E+03    0.38262E-01   -0.46901E-02  1752   0.442E-01    0.366E-01
DAV:  11    -0.829646870550E+03    0.31263E-01   -0.23189E-02  1560   0.251E-01    0.246E-01
DAV:  12    -0.829641472059E+03    0.53985E-02   -0.23892E-02  1536   0.230E-01    0.153E-01
DAV:  13    -0.829653224437E+03   -0.11752E-01   -0.90266E-03  1560   0.155E-01    0.853E-02
DAV:  14    -0.829673043500E+03   -0.19819E-01   -0.15846E-03  1584   0.782E-02    0.568E-02
DAV:  15    -0.829692752057E+03   -0.19709E-01   -0.17880E-03  1584   0.654E-02    0.299E-02
DAV:  16    -0.829701213760E+03   -0.84617E-02   -0.47667E-04  1600   0.373E-02    0.222E-02
DAV:  17    -0.829705989118E+03   -0.47754E-02   -0.28529E-04  1568   0.230E-02    0.119E-02
DAV:  18    -0.829708200019E+03   -0.22109E-02   -0.93767E-05  1632   0.144E-02    0.595E-03
DAV:  19    -0.829709197639E+03   -0.99762E-03   -0.33932E-05  1392   0.882E-03    0.385E-03
DAV:  20    -0.829709523354E+03   -0.32572E-03   -0.47725E-06  1368   0.354E-03    0.243E-03
DAV:  21    -0.829709749655E+03   -0.22630E-03   -0.31538E-06  1272   0.282E-03    0.111E-03
DAV:  22    -0.829709797882E+03   -0.48227E-04   -0.23095E-07  1072   0.111E-03    0.796E-04
DAV:  23    -0.829709839136E+03   -0.41254E-04   -0.33101E-07   936   0.104E-03    0.549E-04
DAV:  24    -0.829709851572E+03   -0.12436E-04   -0.91006E-08   984   0.571E-04    0.318E-04
DAV:  25    -0.829709857253E+03   -0.56811E-05   -0.43851E-08   912   0.521E-04    0.223E-04
DAV:  26    -0.829709861303E+03   -0.40501E-05   -0.33206E-08   928   0.301E-04    0.163E-04
DAV:  27    -0.829709862552E+03   -0.12485E-05   -0.84609E-09   936   0.234E-04    0.971E-05
DAV:  28    -0.829709864621E+03   -0.20692E-05   -0.77388E-09   936   0.162E-04    0.938E-05
DAV:  29    -0.829709864861E+03   -0.24046E-06   -0.19665E-09   960   0.992E-05
   1 F= -.82970986E+03 E0= -.82967977E+03  d E =-.601835E-01
