 vasp.6.5.0 16Dec24 (build Feb 19 2025 19:45:31) complex                         
 executed on              LinuxNV date 2025.10.25  14:31:38
 running    2 mpi-ranks, on    1 nodes
 distrk:  each k-point on    2 cores,    1 groups
 distr:  one band on NCORE=   1 cores,    2 groups
 Offloading initialized ...    2 GPUs detected


--------------------------------------------------------------------------------------------------------


 INCAR:
   ISTART = 0            (Not Read existing wavefunction
   ISPIN = 1            (Non-Spin polarised DFT, Default\=1)
   ICHARG = 2            (The initial guess charge density is generated by superposition of atomic charge density)
   LREAL = Auto         (Projection operators: automatic)
   ENCUT = 500          (Cut-off energy for plane wave basis set, in eV)
   LWAVE = .FALSE.       (Write WAVECAR or not)
   LCHARG = .FALSE.       (Write CHGCAR or not)
   PREC = Accurate   (Precision level)
   KGAMMA = .TRUE.
   ALGO = Normal
   NSW = 0           (Default: NSW \= 0)
   IBRION = -1           (Ions are not moved)
   ISMEAR = 0
   EDIFF = 1E-06        (SCF energy convergence
   NELM = 150          (Max electronic SCF steps)

 POTCAR:    PAW_PBE C 08Apr2002                   
 POTCAR:    PAW_PBE C 08Apr2002                   
   SHA256 =  253f7b50bb8d59471dbedb8285d89021f4a42ed1a2c5d38a03a736e69125dd95 C/POTCAR              
   COPYR  = (c) Copyright 08Apr2002 Georg Kresse                                                    
   COPYR  = This file is part of the software VASP. Any use, copying, and all other rights are regul
   COPYR  = If you do not have a valid VASP license, you may not use, copy or distribute this file. 
   VRHFIN =C: s2p2                                                                                  
   LEXCH  = PE                                                                                      
   EATOM  =   147.1560 eV,   10.8157 Ry                                                             
                                                                                                    
   TITEL  = PAW_PBE C 08Apr2002                                                                     
   LULTRA =        F    use ultrasoft PP ?                                                          
   IUNSCR =        1    unscreen: 0-lin 1-nonlin 2-no                                               
   RPACOR =    1.200    partial core radius                                                         
   POMASS =   12.011; ZVAL   =    4.000    mass and valenz                                          
   RCORE  =    1.500    outmost cutoff radius                                                       
   RWIGS  =    1.630; RWIGS  =    0.863    wigner-seitz radius (au A)                               
   ENMAX  =  400.000; ENMIN  =  300.000 eV                                                          
   ICORE  =        2    local potential                                                             
   LCOR   =        T    correct aug charges                                                         
   LPAW   =        T    paw PP                                                                      
   EAUG   =  644.873                                                                                
   DEXC   =    0.000                                                                                
   RMAX   =    1.529    core radius for proj-oper                                                   
   RAUG   =    1.300    factor for augmentation sphere                                              
   RDEP   =    1.501    radius for radial grids                                                     
   RDEPT  =    1.300    core radius for aug-charge                                                  
                                                                                                    
   Atomic configuration                                                                             
    4 entries                                                                                       
     n  l   j            E        occ.                                                              
     1  0  0.50      -273.3789   2.0000                                                             
     2  0  0.50       -13.7508   2.0000                                                             
     2  1  0.50        -5.2854   2.0000                                                             
     3  2  1.50        -5.4423   0.0000                                                             
   Description                                                                                      
     l       E           TYP  RCUT    TYP  RCUT                                                     
     0    -13.7508458     23  1.200                                                                 
     0     -8.2022199     23  1.200                                                                 
     1     -5.2854383     23  1.500                                                                 
     1     34.0145650     23  1.500                                                                 
     2     -5.4423304      7  1.500                                                                 
  local pseudopotential read in
  partial core-charges read in
  partial kinetic energy density read in
  atomic valenz-charges read in
  non local Contribution for L=            0  read in
    real space projection operators read in
  non local Contribution for L=            0  read in
    real space projection operators read in
  non local Contribution for L=            1  read in
    real space projection operators read in
  non local Contribution for L=            1  read in
    real space projection operators read in
    PAW grid and wavefunctions read in
 
   number of l-projection  operators is LMAX  =            4
   number of lm-projection operators is LMMAX =            8
 
 Optimization of the real space projectors (new method)

 maximal supplied QI-value         = 25.13
 optimisation between [QCUT,QGAM] = [ 11.31, 22.87] = [ 35.82,146.48] Ry 
 Optimized for a Real-space Cutoff    1.03 Angstroem

   l    n(q)    QCUT    max X(q) W(low)/X(q) W(high)/X(q)  e(spline) 
   0      7    11.310   115.676    0.20E-03    0.90E-03    0.20E-06
   0      7    11.310    87.132    0.20E-03    0.89E-03    0.19E-06
   1      6    11.310     4.429    0.16E-03    0.28E-03    0.12E-06
   1      6    11.310     2.733    0.12E-03    0.21E-03    0.99E-07
  PAW_PBE C 08Apr2002                   :
 energy of atom  1       EATOM= -147.1560
 kinetic energy error for atom=    0.0076 (will be added to EATOM!!)
 
 
 POSCAR:  C
  positions in cartesian coordinates
  No initial velocities read in


 exchange-correlation table for PE
   RHO(1)=    0.500       N(1)  =     2000
   RHO(2)=  100.500       N(2)  =     4000
 


--------------------------------------------------------------------------------------------------------


 ion  position               nearest neighbor table
   1  0.010  0.098  0.554-   3 1.37   2 1.40  45 1.53
   2  0.008  0.270  0.551-   4 1.37   1 1.40  46 1.49  45 1.99
   3  0.052  0.016  0.551-  50 1.37   1 1.37   5 1.45
   4  0.051  0.350  0.544-   2 1.37  49 1.39   6 1.46
   5  0.098  0.097  0.545-   6 1.39   7 1.44   3 1.45
   6  0.097  0.268  0.543-   5 1.39   8 1.43   4 1.46
   7  0.142  0.016  0.535-  54 1.32   9 1.38   5 1.44
   8  0.141  0.350  0.536-  53 1.37  10 1.42   6 1.43
   9  0.183  0.101  0.526-  10 1.34   7 1.38  11 1.45
  10  0.184  0.267  0.526-   9 1.34   8 1.42  12 1.43
  11  0.227  0.014  0.516-  58 1.36  13 1.41   9 1.45
  12  0.228  0.348  0.515-  57 1.39  14 1.40  10 1.43
  13  0.268  0.100  0.505-  14 1.37  11 1.41  15 1.42
  14  0.270  0.270  0.506-  13 1.37  12 1.40  16 1.41
  15  0.309  0.019  0.490-  62 1.37  17 1.41  13 1.42
  16  0.311  0.350  0.491-  61 1.35  18 1.39  14 1.41
  17  0.353  0.099  0.482-  18 1.36  19 1.38  15 1.41
  18  0.352  0.266  0.479-  17 1.36  16 1.39  20 1.45
  19  0.394  0.022  0.469-  21 1.36  66 1.37  17 1.38
  20  0.394  0.354  0.465-  22 1.36  65 1.38  18 1.45
  21  0.435  0.106  0.463-  19 1.36  22 1.37  23 1.41
  22  0.436  0.274  0.465-  20 1.36  21 1.37  24 1.42
  23  0.479  0.024  0.459-  25 1.36  70 1.39  21 1.41
  24  0.481  0.355  0.461-  69 1.37  26 1.37  22 1.42
  25  0.522  0.099  0.465-  23 1.36  26 1.40  27 1.42
  26  0.523  0.272  0.464-  24 1.37  25 1.40  28 1.42
  27  0.568  0.023  0.464-  74 1.37  25 1.42  29 1.42
  28  0.567  0.360  0.463-  73 1.33  26 1.42  30 1.44
  29  0.612  0.109  0.467-  30 1.35  31 1.41  27 1.42
  30  0.611  0.275  0.470-  29 1.35  32 1.39  28 1.44
  31  0.655  0.026  0.476-  78 1.35  33 1.41  29 1.41
  32  0.653  0.361  0.476-  77 1.36  30 1.39  34 1.42
  33  0.697  0.109  0.487-  34 1.34  31 1.41  35 1.41
  34  0.694  0.273  0.489-  33 1.34  32 1.42  36 1.45
  35  0.740  0.026  0.495-  82 1.32  33 1.41  37 1.47
  36  0.739  0.357  0.496-  81 1.39  34 1.45  38 1.47
  37  0.782  0.111  0.512-  38 1.32  39 1.43  35 1.47
  38  0.782  0.275  0.512-  37 1.32  40 1.39  36 1.47
  39  0.824  0.024  0.523-  86 1.38  37 1.43  41 1.47
  40  0.824  0.363  0.520-  85 1.35  38 1.39  42 1.47
  41  0.869  0.109  0.534-  42 1.38  43 1.45  39 1.47
  42  0.868  0.279  0.532-  41 1.38  44 1.41  40 1.47
  43  0.913  0.021  0.541-  90 1.36  45 1.41  41 1.45
  44  0.913  0.353  0.534-  89 1.39  46 1.39  42 1.41
  45  0.955  0.105  0.549-  46 1.38  43 1.41   1 1.53   2 1.99
  46  0.955  0.275  0.545-  45 1.38  44 1.39   2 1.49
  47  0.008  0.599  0.538-  49 1.37  48 1.38  91 1.44  92 2.04
  48  0.009  0.769  0.538-  47 1.38  50 1.41  92 1.47  91 1.98
  49  0.051  0.520  0.539-  47 1.37  51 1.38   4 1.39
  50  0.053  0.850  0.544-   3 1.37  52 1.38  48 1.41
  51  0.095  0.599  0.537-  52 1.36  49 1.38  53 1.46
  52  0.094  0.766  0.537-  51 1.36  50 1.38  54 1.48
  53  0.141  0.520  0.534-   8 1.37  55 1.39  51 1.46
  54  0.140  0.853  0.531-   7 1.32  56 1.45  52 1.48
  55  0.183  0.598  0.521-  56 1.38  53 1.39  57 1.43
  56  0.183  0.768  0.518-  58 1.38  55 1.38  54 1.45
  57  0.227  0.518  0.511-  12 1.39  59 1.40  55 1.43
  58  0.225  0.848  0.509-  11 1.36  56 1.38  60 1.39
  59  0.265  0.599  0.493-  60 1.35  57 1.40  61 1.44
  60  0.264  0.765  0.493-  59 1.35  58 1.39  62 1.41
  61  0.309  0.513  0.483-  16 1.35  63 1.39  59 1.44
  62  0.306  0.851  0.484-  15 1.37  60 1.41  64 1.42
  63  0.349  0.601  0.472-  61 1.39  64 1.40  65 1.43
  64  0.349  0.773  0.471-  63 1.40  66 1.42  62 1.42
  65  0.394  0.524  0.463-  20 1.38  67 1.39  63 1.43
  66  0.392  0.857  0.461-  19 1.37  68 1.42  64 1.42
  67  0.437  0.603  0.455-  68 1.38  65 1.39  69 1.40
  68  0.436  0.773  0.456-  67 1.38  66 1.42  70 1.43
  69  0.481  0.522  0.454-  24 1.37  67 1.40  71 1.41
  70  0.481  0.853  0.456-  23 1.39  72 1.42  68 1.43
  71  0.525  0.605  0.451-  72 1.38  69 1.41  73 1.45
  72  0.526  0.776  0.452-  71 1.38  74 1.41  70 1.42
  73  0.570  0.523  0.459-  28 1.33  75 1.40  71 1.45
  74  0.571  0.859  0.455-  27 1.37  76 1.40  72 1.41
  75  0.613  0.607  0.464-  76 1.37  73 1.40  77 1.41
  76  0.614  0.776  0.460-  75 1.37  74 1.40  78 1.41
  77  0.656  0.529  0.475-  32 1.36  79 1.40  75 1.41
  78  0.656  0.861  0.471-  31 1.35  76 1.41  80 1.45
  79  0.700  0.608  0.477-  80 1.38  77 1.40  81 1.42
  80  0.700  0.778  0.479-  79 1.38  82 1.42  78 1.45
  81  0.742  0.525  0.489-  36 1.39  79 1.42  83 1.45
  82  0.742  0.864  0.491-  35 1.32  80 1.42  84 1.44
  83  0.786  0.614  0.499-  84 1.34  85 1.43  81 1.45
  84  0.787  0.778  0.494-  83 1.34  82 1.44  86 1.45
  85  0.826  0.527  0.514-  40 1.35  87 1.42  83 1.43
  86  0.827  0.860  0.513-  39 1.38  88 1.43  84 1.45
  87  0.870  0.610  0.520-  88 1.35  85 1.42  89 1.43
  88  0.871  0.776  0.520-  87 1.35  90 1.39  86 1.43
  89  0.914  0.522  0.528-  44 1.39  91 1.40  87 1.43
  90  0.913  0.858  0.531-  43 1.36  88 1.39  92 1.41
  91  0.957  0.604  0.533-  92 1.39  89 1.40  47 1.44  48 1.98
  92  0.956  0.775  0.537-  91 1.39  90 1.41  48 1.47  47 2.04
 
  LATTYP: Found a simple orthorhombic cell.
 ALAT       =     8.1000000000
 B/A-ratio  =     3.4629629630
 C/A-ratio  =     4.1358024691
  
  Lattice vectors:
  
 A1 = (   0.0000000000,  -8.1000000000,   0.0000000000)
 A2 = (  28.0500000000,   0.0000000000,   0.0000000000)
 A3 = (   0.0000000000,   0.0000000000,  33.5000000000)


Analysis of symmetry for initial positions (statically):
=====================================================================
 Subroutine PRICEL returns:
 Original cell was already a primitive cell.
 

 Routine SETGRP: Setting up the symmetry group for a 
 simple orthorhombic supercell.


 Subroutine GETGRP returns: Found  1 space group operations
 (whereof  1 operations were pure point group operations)
 out of a pool of  8 trial point group operations.


The static configuration has the point symmetry C_1 .


Analysis of symmetry for dynamics (positions and initial velocities):
=====================================================================
 Subroutine PRICEL returns:
 Original cell was already a primitive cell.
 

 Routine SETGRP: Setting up the symmetry group for a 
 simple orthorhombic supercell.


 Subroutine GETGRP returns: Found  1 space group operations
 (whereof  1 operations were pure point group operations)
 out of a pool of  8 trial point group operations.


The dynamic configuration has the point symmetry C_1 .


 Subroutine INISYM returns: Found  1 space group operations
 (whereof  1 operations are pure point group operations),
 and found     1 'primitive' translations


----------------------------------------------------------------------------------------

                                     Primitive cell                                     

  volume of cell :    7611.3675

  direct lattice vectors                    reciprocal lattice vectors
    28.050000000  0.000000000  0.000000000     0.035650624  0.000000000  0.000000000
     0.000000000  8.100000000  0.000000000     0.000000000  0.123456790  0.000000000
     0.000000000  0.000000000 33.500000000     0.000000000  0.000000000  0.029850746

  length of vectors
    28.050000000  8.100000000 33.500000000     0.035650624  0.123456790  0.029850746

  position of ions in fractional coordinates (direct lattice)
     0.009773405  0.098348272  0.553979104
     0.008094545  0.270202469  0.550671642
     0.052325847  0.016329630  0.550850746
     0.050701248  0.349769136  0.544391045
     0.097837790  0.097320000  0.545068657
     0.097154724  0.268129630  0.543182090
     0.141680927  0.015844444  0.534531343
     0.141236007  0.350393827  0.535710448
     0.183275223  0.100987284  0.526017910
     0.184096970  0.266804938  0.525773134
     0.226699465  0.014259383  0.515564179
     0.227578253  0.347972840  0.515426866
     0.268497683  0.100438148  0.505310448
     0.270279857  0.269561728  0.505516418
     0.309163636  0.018678025  0.489570149
     0.311423173  0.349916049  0.491250746
     0.352728699  0.099031358  0.482182090
     0.352083066  0.266059259  0.479394030
     0.393757576  0.022418395  0.469155224
     0.393515152  0.353512346  0.464588060
     0.435147950  0.105910617  0.463065672
     0.436431373  0.274475309  0.465137313
     0.479404635  0.024044198  0.458898507
     0.481051693  0.355477778  0.460704478
     0.522295900  0.099057284  0.464576119
     0.523475936  0.272275309  0.464062687
     0.567843137  0.023239012  0.463552239
     0.567190731  0.359709877  0.462528358
     0.611885918  0.109484321  0.467244776
     0.611311943  0.275370370  0.470077612
     0.654809269  0.026373951  0.476005970
     0.653376114  0.361356790  0.476262687
     0.697026738  0.108678642  0.487071642
     0.694256684  0.273104938  0.489191045
     0.740067736  0.025774691  0.495474627
     0.739208556  0.356922222  0.496468657
     0.782167558  0.111455679  0.511534328
     0.782135472  0.274562963  0.511907463
     0.824427807  0.024017654  0.522970149
     0.823693405  0.362744444  0.519982090
     0.868798574  0.109365556  0.534050746
     0.867907308  0.279145679  0.532373134
     0.912848485  0.020675802  0.540901493
     0.913197861  0.353346914  0.534182090
     0.955493761  0.105401852  0.549346269
     0.955468806  0.274958025  0.544638806
     0.008188806  0.598904938  0.537826866
     0.008716292  0.769256790  0.537692537
     0.051249911  0.519825926  0.539113433
     0.052561497  0.849829630  0.543925373
     0.094750089  0.598861728  0.536862687
     0.094467380  0.766276543  0.536829851
     0.141282353  0.519748148  0.533543284
     0.140370053  0.853438272  0.530641791
     0.182818538  0.597848148  0.521492537
     0.183397861  0.768096296  0.518191045
     0.226806774  0.518244444  0.511137313
     0.225383244  0.848146914  0.509301493
     0.265428164  0.598645679  0.493346269
     0.263819608  0.765038272  0.492528358
     0.308959358  0.513281481  0.483188060
     0.306032442  0.851444444  0.483528358
     0.349238503  0.600625926  0.471838806
     0.348924421  0.773385185  0.471050746
     0.394057041  0.524043210  0.463355224
     0.391932264  0.856951852  0.461385075
     0.436848485  0.602714815  0.454692537
     0.435836007  0.772890123  0.456450746
     0.481044563  0.522409877  0.454065672
     0.481297683  0.853412346  0.455519403
     0.525101604  0.605055556  0.450782090
     0.526488414  0.775697531  0.451800000
     0.569775401  0.522514815  0.459068657
     0.570566845  0.858640741  0.454531343
     0.612695187  0.607440741  0.464391045
     0.613775401  0.775737037  0.460447761
     0.655953654  0.529177778  0.474528358
     0.655629234  0.861186420  0.471101493
     0.700114082  0.607939506  0.477244776
     0.700167558  0.777718519  0.479429851
     0.742481283  0.525098765  0.489205970
     0.741839572  0.864081481  0.491125373
     0.785864528  0.613704938  0.498608955
     0.786584670  0.778396296  0.494441791
     0.826477718  0.527111111  0.513791045
     0.827037433  0.859567901  0.512734328
     0.870392157  0.609892593  0.519940299
     0.870912656  0.776209877  0.520367164
     0.913504456  0.522486420  0.527841791
     0.912688057  0.857741975  0.530710448
     0.957090909  0.604127160  0.533373134
     0.956324421  0.775274074  0.536626866

  ion indices of the primitive-cell ions
   primitive index   ion index
                 1           1
                 2           2
                 3           3
                 4           4
                 5           5
                 6           6
                 7           7
                 8           8
                 9           9
                10          10
                11          11
                12          12
                13          13
                14          14
                15          15
                16          16
                17          17
                18          18
                19          19
                20          20
                21          21
                22          22
                23          23
                24          24
                25          25
                26          26
                27          27
                28          28
                29          29
                30          30
                31          31
                32          32
                33          33
                34          34
                35          35
                36          36
                37          37
                38          38
                39          39
                40          40
                41          41
                42          42
                43          43
                44          44
                45          45
                46          46
                47          47
                48          48
                49          49
                50          50
                51          51
                52          52
                53          53
                54          54
                55          55
                56          56
                57          57
                58          58
                59          59
                60          60
                61          61
                62          62
                63          63
                64          64
                65          65
                66          66
                67          67
                68          68
                69          69
                70          70
                71          71
                72          72
                73          73
                74          74
                75          75
                76          76
                77          77
                78          78
                79          79
                80          80
                81          81
                82          82
                83          83
                84          84
                85          85
                86          86
                87          87
                88          88
                89          89
                90          90
                91          91
                92          92

----------------------------------------------------------------------------------------

 
 
 KPOINTS: K-Spacing Value to Generate K-Mesh: 0.03

Automatic generation of k-mesh.
 Grid dimensions read from file:
 generate k-points for:    1    4    1

 Generating k-lattice:

  Cartesian coordinates                     Fractional coordinates (reciprocal lattice)
     0.035650624  0.000000000  0.000000000     1.000000000  0.000000000  0.000000000
     0.000000000  0.030864198  0.000000000     0.000000000  0.250000000  0.000000000
     0.000000000  0.000000000  0.029850746     0.000000000  0.000000000  1.000000000

  Length of vectors
     0.035650624  0.030864198  0.029850746

  Shift w.r.t. Gamma in fractional coordinates (k-lattice)
     0.000000000  0.000000000  0.000000000

 
 Subroutine IBZKPT returns following result:
 ===========================================
 
 Found      3 irreducible k-points:
 
 Following reciprocal coordinates:
            Coordinates               Weight
  0.000000  0.000000  0.000000      1.000000
  0.000000  0.250000  0.000000      2.000000
  0.000000  0.500000  0.000000      1.000000
 
 Following cartesian coordinates:
            Coordinates               Weight
  0.000000  0.000000  0.000000      1.000000
  0.000000  0.030864  0.000000      2.000000
  0.000000  0.061728  0.000000      1.000000
 


--------------------------------------------------------------------------------------------------------




 Dimension of arrays:
   k-points           NKPTS =      3   k-points in BZ     NKDIM =      3   number of bands    NBANDS=    232
   number of dos      NEDOS =    301   number of ions     NIONS =     92
   non local maximal  LDIM  =      4   non local SUM 2l+1 LMDIM =      8
   total plane-waves  NPLWV = ******
   max r-space proj   IRMAX =   1967   max aug-charges    IRDMAX=   5083
   dimension x,y,z NGX =   210 NGY =   60 NGZ =  250
   dimension x,y,z NGXF=   420 NGYF=  120 NGZF=  500
   support grid    NGXF=   420 NGYF=  120 NGZF=  500
   ions per type =              92
   NGX,Y,Z   is equivalent  to a cutoff of  12.45, 12.31, 12.41 a.u.
   NGXF,Y,Z  is equivalent  to a cutoff of  24.89, 24.63, 24.81 a.u.

 SYSTEM =  unknown system                          
 POSCAR =   C                                      

 Startparameter for this run:
   NWRITE =      2    write-flag & timer
   PREC   = accura    normal or accurate (medium, high low for compatibility)
   ISTART =      0    job   : 0-new  1-cont  2-samecut
   ICHARG =      2    charge: 1-file 2-atom 10-const
   ISPIN  =      1    spin polarized calculation?
   LNONCOLLINEAR =      F non collinear calculations
   LSORBIT =      F    spin-orbit coupling
   INIWAV =      1    electr: 0-lowe 1-rand  2-diag
   LASPH  =      F    aspherical Exc in radial PAW
 Electronic Relaxation 1
   ENCUT  =  500.0 eV  36.75 Ry    6.06 a.u.  51.14 14.77 61.08*2*pi/ulx,y,z
   ENINI  =  500.0     initial cutoff
   ENAUG  =  644.9 eV  augmentation charge cutoff
   NELM   =    150;   NELMIN=  2; NELMDL= -5     # of ELM steps 
   EDIFF  = 0.1E-05   stopping-criterion for ELM
   LREAL  =      T    real-space projection
   NLSPLINE    = F    spline interpolate recip. space projectors
   LCOMPAT=      F    compatible to vasp.4.4
   GGA_COMPAT  = T    GGA compatible to vasp.4.4-vasp.4.6
   LMAXPAW     = -100 max onsite density
   LMAXMIX     =    2 max onsite mixed and CHGCAR
   VOSKOWN=      0    Vosko Wilk Nusair interpolation
   ROPT   =   -0.00025
 Ionic relaxation
   EDIFFG = 0.1E-04   stopping-criterion for IOM
   NSW    =      0    number of steps for IOM
   NBLOCK =      1;   KBLOCK =      1    inner block; outer block 
   IBRION =     -1    ionic relax: 0-MD 1-quasi-New 2-CG
   NFREE  =      0    steps in history (QN), initial steepest desc. (CG)
   ISIF   =      2    stress and relaxation
   IWAVPR =     10    prediction:  0-non 1-charg 2-wave 3-comb
   ISYM   =      2    0-nonsym 1-usesym 2-fastsym
   LCORR  =      T    Harris-Foulkes like correction to forces

   POTIM  = 0.5000    time-step for ionic-motion
   TEIN   =    0.0    initial temperature
   TEBEG  =    0.0;   TEEND  =   0.0 temperature during run
   SMASS  =  -3.00    Nose mass-parameter (am)
   estimated Nose-frequenzy (Omega)   =  0.10E-29 period in steps = 0.13E+47 mass=  -0.180E-25a.u.
   SCALEE = 1.0000    scale energy and forces
   NPACO  =    256;   APACO  = 10.0  distance and # of slots for P.C.
   PSTRESS=    0.0 pullay stress

  Mass of Ions in am
   POMASS =  12.01
  Ionic Valenz
   ZVAL   =   4.00
  Atomic Wigner-Seitz radii
   RWIGS  =  -1.00
  virtual crystal weights 
   VCA    =   1.00
   NELECT =     368.0000    total number of electrons
   NUPDOWN=      -1.0000    fix difference up-down

 DOS related values:
   EMIN   =  10.00;   EMAX   =-10.00  energy-range for DOS
   EFERMI =   0.00;   METHOD = LEGACY      
   ISMEAR =     0;   SIGMA  =   0.20  broadening in eV -4-tet -1-fermi 0-gaus
   EFERMI_NEDOS =   21; number of points for ismear=-14 and -15

 Electronic relaxation 2 (details)
   IALGO  =     38    algorithm
   LDIAG  =      T    sub-space diagonalisation (order eigenvalues)
   LSUBROT=      F    optimize rotation matrix (better conditioning)
   TURBO    =      0    0=normal 1=particle mesh
   IRESTART =      0    0=no restart 2=restart with 2 vectors
   NREBOOT  =      0    no. of reboots
   NMIN     =      0    reboot dimension
   EREF     =   0.00    reference energy to select bands
   IMIX   =      4    mixing-type and parameters
     AMIX     =   0.40;   BMIX     =  1.00
     AMIX_MAG =   1.60;   BMIX_MAG =  1.00
     AMIN     =   0.10
     WC   =   100.;   INIMIX=   1;  MIXPRE=   1;  MAXMIX= -45

 Intra band minimization:
   WEIMIN = 0.0000     energy-eigenvalue tresh-hold
   EBREAK =  0.11E-08  absolut break condition
   DEPER  =   0.30     relativ break condition  

   TIME   =   0.40     timestep for ELM

  volume/ion in A,a.u.               =      82.73       558.30
  Fermi-wavevector in a.u.,A,eV,Ry     =   0.596398  1.127030  4.839472  0.355691
  Thomas-Fermi vector in A             =   1.646729
 
 Write flags
   LWAVE        =      F    write WAVECAR
   LDOWNSAMPLE  =      F    k-point downsampling of WAVECAR
   LCHARG       =      F    write CHGCAR
   LVTOT        =      F    write LOCPOT, total local potential
   LVHAR        =      F    write LOCPOT, Hartree potential only
   WRT_POTENTIAL= false  ! write potential to hdf5 file
   LELF         =      F    write electronic localiz. function (ELF)
   LORBIT       =      0    0 simple, 1 ext, 2 COOP (PROOUT), +10 PAW based schemes


 Python interface
   PLUGINS active      =      F    recompile with -DPLUGINS to activate
 
 Dipole corrections
   LMONO      =      F    monopole corrections only (constant potential shift)
   LDIPOL     =      F    correct potential (dipole corrections)
   IDIPOL     =      0    1-x, 2-y, 3-z, 4-all directions 
   EPSILON    =  1.0000000 bulk dielectric constant
   LVACPOTAV  =      F  vacuum potentials using an averaging scheme for the charge density
   VACPOTFLAT =  0.1000000 required flatness to determine vacuum potential
 
Coulomb truncation method
  LTRUNCATE          =      F  Coulomb kernel truncation to be used
  IDIMENSIONALITY    =      3  Dimensionality of cutoff (0 molecules / 2 surfaces)
  ISURFACE           =     -1  Direction of surface normal
  LCOARSEN           =      F  Coarsen the charge grid before padding, preferred

 
 Exchange correlation treatment:
   GGA     = PE    functional components
   XC_C    = 1    coefficients multiplying the functional components
   LIBXC   =     F    Libxc                    
   VOSKOWN =     0    Vosko Wilk Nusair interpolation
   LHFCALC =     F    Hartree Fock is set to
   LHFONE  =     F    Hartree Fock one center treatment
   AEXX    =    0.0000 exact exchange contribution

 Parameters of functionals:
   PE:
     No parameter
 
 Van der Waals corrections
   IVDW    =     0    specifies the selected vdW correction

 Linear response parameters
   LEPSILON=     F    determine dielectric tensor
   LRPA    =     F    only Hartree local field effects (RPA)
   LNABLA  =     F    use nabla operator in PAW spheres
   LVEL    =     F    velocity operator in full k-point grid
   CSHIFT  =0.1000    complex shift for real part using Kramers Kronig
   OMEGAMAX=  -1.0    maximum frequency
   DEG_THRESHOLD= 0.2000000E-02 threshold for treating states as degnerate
   RTIME   =   -0.100 relaxation time in fs
  (WPLASMAI=    0.000 imaginary part of plasma frequency in eV, 0.658/RTIME)
   DFIELD  = 0.0000000 0.0000000 0.0000000 field for delta impulse in time
 
  Optional k-point grid parameters
   LKPOINTS_OPT  =     F    use optional k-point grid
   KPOINTS_OPT_MODE=     1    mode for optional k-point grid
 
 Orbital magnetization related:
   ORBITALMAG=     F  switch on orbital magnetization
   LCHIMAG   =     F  perturbation theory with respect to B field
   DQ        =  0.001000  dq finite difference perturbation B field
   LLRAUG    =     F  two centre corrections for induced B field
   LBONE     =     F  B-component reconstruction in AE one-centre
   LVGVCALC  =     T  calculate vGv susceptibility
   LVGVAPPL  =     F  apply vGv susceptibility instead of pGv for G=0

 Random number generation:
   RANDOM_GENERATOR = DEFAULT
   PCG_SEED         = not used


--------------------------------------------------------------------------------------------------------


 Static calculation
 charge density and potential will be updated during run
 non-spin polarized calculation
 Variant of blocked Davidson
 Davidson routine will perform the subspace rotation
 perform sub-space diagonalisation
    after iterative eigenvector-optimisation
 modified Broyden-mixing scheme, WC =      100.0
 initial mixing is a Kerker type mixing with AMIX =  0.4000 and BMIX =      1.0000
 Hartree-type preconditioning will be used
 using additional bands            48
 real space projection scheme for non local part
 use partial core corrections
 calculate Harris-corrections to forces 
   (improved forces if not selfconsistent)
 use gradient corrections 
 use of overlap-Matrix (Vanderbilt PP)
 Gauss-broadening in eV      SIGMA  =   0.20


--------------------------------------------------------------------------------------------------------


  energy-cutoff  :      500.00
  volume of cell :     7611.37
      direct lattice vectors                 reciprocal lattice vectors
    28.050000000  0.000000000  0.000000000     0.035650624  0.000000000  0.000000000
     0.000000000  8.100000000  0.000000000     0.000000000  0.123456790  0.000000000
     0.000000000  0.000000000 33.500000000     0.000000000  0.000000000  0.029850746

  length of vectors
    28.050000000  8.100000000 33.500000000     0.035650624  0.123456790  0.029850746


 
 k-points in units of 2pi/SCALE and weight: K-Spacing Value to Generate K-Mesh: 0.03
   0.00000000  0.00000000  0.00000000       0.250
   0.00000000  0.03086420  0.00000000       0.500
   0.00000000  0.06172840  0.00000000       0.250
 
 k-points in reciprocal lattice and weights: K-Spacing Value to Generate K-Mesh: 0.03
   0.00000000  0.00000000  0.00000000       0.250
   0.00000000  0.25000000  0.00000000       0.500
   0.00000000  0.50000000  0.00000000       0.250
 
 position of ions in fractional coordinates (direct lattice) 
   0.00977340  0.09834827  0.55397910
   0.00809455  0.27020247  0.55067164
   0.05232585  0.01632963  0.55085075
   0.05070125  0.34976914  0.54439104
   0.09783779  0.09732000  0.54506866
   0.09715472  0.26812963  0.54318209
   0.14168093  0.01584444  0.53453134
   0.14123601  0.35039383  0.53571045
   0.18327522  0.10098728  0.52601791
   0.18409697  0.26680494  0.52577313
   0.22669947  0.01425938  0.51556418
   0.22757825  0.34797284  0.51542687
   0.26849768  0.10043815  0.50531045
   0.27027986  0.26956173  0.50551642
   0.30916364  0.01867802  0.48957015
   0.31142317  0.34991605  0.49125075
   0.35272870  0.09903136  0.48218209
   0.35208307  0.26605926  0.47939403
   0.39375758  0.02241840  0.46915522
   0.39351515  0.35351235  0.46458806
   0.43514795  0.10591062  0.46306567
   0.43643137  0.27447531  0.46513731
   0.47940463  0.02404420  0.45889851
   0.48105169  0.35547778  0.46070448
   0.52229590  0.09905728  0.46457612
   0.52347594  0.27227531  0.46406269
   0.56784314  0.02323901  0.46355224
   0.56719073  0.35970988  0.46252836
   0.61188592  0.10948432  0.46724478
   0.61131194  0.27537037  0.47007761
   0.65480927  0.02637395  0.47600597
   0.65337611  0.36135679  0.47626269
   0.69702674  0.10867864  0.48707164
   0.69425668  0.27310494  0.48919104
   0.74006774  0.02577469  0.49547463
   0.73920856  0.35692222  0.49646866
   0.78216756  0.11145568  0.51153433
   0.78213547  0.27456296  0.51190746
   0.82442781  0.02401765  0.52297015
   0.82369340  0.36274444  0.51998209
   0.86879857  0.10936556  0.53405075
   0.86790731  0.27914568  0.53237313
   0.91284848  0.02067580  0.54090149
   0.91319786  0.35334691  0.53418209
   0.95549376  0.10540185  0.54934627
   0.95546881  0.27495802  0.54463881
   0.00818881  0.59890494  0.53782687
   0.00871629  0.76925679  0.53769254
   0.05124991  0.51982593  0.53911343
   0.05256150  0.84982963  0.54392537
   0.09475009  0.59886173  0.53686269
   0.09446738  0.76627654  0.53682985
   0.14128235  0.51974815  0.53354328
   0.14037005  0.85343827  0.53064179
   0.18281854  0.59784815  0.52149254
   0.18339786  0.76809630  0.51819104
   0.22680677  0.51824444  0.51113731
   0.22538324  0.84814691  0.50930149
   0.26542816  0.59864568  0.49334627
   0.26381961  0.76503827  0.49252836
   0.30895936  0.51328148  0.48318806
   0.30603244  0.85144444  0.48352836
   0.34923850  0.60062593  0.47183881
   0.34892442  0.77338519  0.47105075
   0.39405704  0.52404321  0.46335522
   0.39193226  0.85695185  0.46138507
   0.43684848  0.60271481  0.45469254
   0.43583601  0.77289012  0.45645075
   0.48104456  0.52240988  0.45406567
   0.48129768  0.85341235  0.45551940
   0.52510160  0.60505556  0.45078209
   0.52648841  0.77569753  0.45180000
   0.56977540  0.52251481  0.45906866
   0.57056684  0.85864074  0.45453134
   0.61269519  0.60744074  0.46439104
   0.61377540  0.77573704  0.46044776
   0.65595365  0.52917778  0.47452836
   0.65562923  0.86118642  0.47110149
   0.70011408  0.60793951  0.47724478
   0.70016756  0.77771852  0.47942985
   0.74248128  0.52509877  0.48920597
   0.74183957  0.86408148  0.49112537
   0.78586453  0.61370494  0.49860896
   0.78658467  0.77839630  0.49444179
   0.82647772  0.52711111  0.51379104
   0.82703743  0.85956790  0.51273433
   0.87039216  0.60989259  0.51994030
   0.87091266  0.77620988  0.52036716
   0.91350446  0.52248642  0.52784179
   0.91268806  0.85774198  0.53071045
   0.95709091  0.60412716  0.53337313
   0.95632442  0.77527407  0.53662687
 
 position of ions in cartesian coordinates  (Angst):
   0.27414400  0.79662100 18.55830000
   0.22705200  2.18864000 18.44750000
   1.46774000  0.13227000 18.45350000
   1.42217000  2.83313000 18.23710000
   2.74435000  0.78829200 18.25980000
   2.72519000  2.17185000 18.19660000
   3.97415000  0.12834000 17.90680000
   3.96167000  2.83819000 17.94630000
   5.14087000  0.81799700 17.62160000
   5.16392000  2.16112000 17.61340000
   6.35892000  0.11550100 17.27140000
   6.38357000  2.81858000 17.26680000
   7.53136000  0.81354900 16.92790000
   7.58135000  2.18345000 16.93480000
   8.67204000  0.15129200 16.40060000
   8.73542000  2.83432000 16.45690000
   9.89404000  0.80215400 16.15310000
   9.87593000  2.15508000 16.05970000
  11.04490000  0.18158900 15.71670000
  11.03810000  2.86345000 15.56370000
  12.20590000  0.85787600 15.51270000
  12.24190000  2.22325000 15.58210000
  13.44730000  0.19475800 15.37310000
  13.49350000  2.87937000 15.43360000
  14.65040000  0.80236400 15.56330000
  14.68350000  2.20543000 15.54610000
  15.92800000  0.18823600 15.52900000
  15.90970000  2.91365000 15.49470000
  17.16340000  0.88682300 15.65270000
  17.14730000  2.23050000 15.74760000
  18.36740000  0.21362900 15.94620000
  18.32720000  2.92699000 15.95480000
  19.55160000  0.88029700 16.31690000
  19.47390000  2.21215000 16.38790000
  20.75890000  0.20877500 16.59840000
  20.73480000  2.89107000 16.63170000
  21.93980000  0.90279100 17.13640000
  21.93890000  2.22396000 17.14890000
  23.12520000  0.19454300 17.51950000
  23.10460000  2.93823000 17.41940000
  24.36980000  0.88586100 17.89070000
  24.34480000  2.26108000 17.83450000
  25.60540000  0.16747400 18.12020000
  25.61520000  2.86211000 17.89510000
  26.80160000  0.85375500 18.40310000
  26.80090000  2.22716000 18.24540000
   0.22969600  4.85113000 18.01720000
   0.24449200  6.23098000 18.01270000
   1.43756000  4.21059000 18.06030000
   1.47435000  6.88362000 18.22150000
   2.65774000  4.85078000 17.98490000
   2.64981000  6.20684000 17.98380000
   3.96297000  4.20996000 17.87370000
   3.93738000  6.91285000 17.77650000
   5.12806000  4.84257000 17.47000000
   5.14431000  6.22158000 17.35940000
   6.36193000  4.19778000 17.12310000
   6.32200000  6.86999000 17.06160000
   7.44526000  4.84903000 16.52710000
   7.40014000  6.19681000 16.49970000
   8.66631000  4.15758000 16.18680000
   8.58421000  6.89670000 16.19820000
   9.79614000  4.86507000 15.80660000
   9.78733000  6.26442000 15.78020000
  11.05330000  4.24475000 15.52240000
  10.99370000  6.94131000 15.45640000
  12.25360000  4.88199000 15.23220000
  12.22520000  6.26041000 15.29110000
  13.49330000  4.23152000 15.21120000
  13.50040000  6.91264000 15.25990000
  14.72910000  4.90095000 15.10120000
  14.76800000  6.28315000 15.13530000
  15.98220000  4.23237000 15.37880000
  16.00440000  6.95499000 15.22680000
  17.18610000  4.92027000 15.55710000
  17.21640000  6.28347000 15.42500000
  18.39950000  4.28634000 15.89670000
  18.39040000  6.97561000 15.78190000
  19.63820000  4.92431000 15.98770000
  19.63970000  6.29952000 16.06090000
  20.82660000  4.25330000 16.38840000
  20.80860000  6.99906000 16.45270000
  22.04350000  4.97101000 16.70340000
  22.06370000  6.30501000 16.56380000
  23.18270000  4.26960000 17.21200000
  23.19840000  6.96250000 17.17660000
  24.41450000  4.94013000 17.41800000
  24.42910000  6.28730000 17.43230000
  25.62380000  4.23214000 17.68270000
  25.60090000  6.94771000 17.77880000
  26.84640000  4.89343000 17.86800000
  26.82490000  6.27972000 17.97700000
 


--------------------------------------------------------------------------------------------------------


 k-point     1 :   0.0000 0.0000 0.0000  plane waves:  193173
 k-point     2 :   0.0000 0.2500 0.0000  plane waves:  193166
 k-point     3 :   0.0000 0.5000 0.0000  plane waves:  193226

 maximum and minimum number of plane-waves per node :    193226   193166

 maximum number of plane-waves:    193226
 maximum index in each direction: 
   IXMAX=   51   IYMAX=   14   IZMAX=   61
   IXMIN=  -51   IYMIN=  -15   IZMIN=  -61


 serial   3D FFT for wavefunctions
 parallel 3D FFT for charge:
    minimum data exchange during FFTs selected (reduces bandwidth)


 total amount of memory used by VASP MPI-rank0  2294511. kBytes
=======================================================================

   base                                    :      30000. kBytes
   nonlr-proj                              :      15077. kBytes
   fftplans                                :     436558. kBytes
   grid                                    :     732614. kBytes
   one-center                              :        282. kBytes
   wavefun                                 :    1079980. kBytes
 
     INWAV:  cpu time      0.0000: real time      0.0000
 Broyden mixing: mesh for mixing (old mesh)
   NGX =103   NGY = 29   NGZ =123
  (NGX  =420   NGY  =120   NGZ  =500)
  gives a total of 367401 points

 initial charge density was supplied:
 charge density of overlapping atoms calculated
 number of electron     368.0000000 magnetization 
 keeping initial charge density in first step


--------------------------------------------------------------------------------------------------------


 Maximum index for non-local projection operator          1873
 Maximum index for augmentation-charges          2382 (set IRDMAX)


--------------------------------------------------------------------------------------------------------


 First call to EWALD:  gamma=   0.090
 Maximum number of real-space cells   2x   6x   2
 Maximum number of reciprocal cells   4x   1x   4

    FEWALD:  cpu time      0.1593: real time      0.1593


--------------------------------------- Ionic step        1  -------------------------------------------




--------------------------------------- Iteration      1(   1)  ---------------------------------------


    POTLOK:  cpu time      0.4190: real time      0.4431
    SETDIJ:  cpu time      0.0413: real time      0.0412
     EDDAV:  cpu time     11.1134: real time     11.1208
       DOS:  cpu time      0.0008: real time      0.0008
    --------------------------------------------
      LOOP:  cpu time     11.5744: real time     11.6059

 eigenvalue-minimisations  :  1720
 total energy-change (2. order) : 0.3724682E+04  (-0.1190738E+05)
 number of electron     368.0000000 magnetization 
 augmentation part      368.0000000 magnetization 

 Free energy of the ion-electron system (eV)
  ---------------------------------------------------
  alpha Z        PSCENC =        91.34886789
  Ewald energy   TEWEN  =    120307.26771490
  -Hartree energ DENC   =   -129603.28528910
  -exchange      EXHF   =         0.00000000
  -V(xc)+E(xc)   XCENC  =      1223.25042528
  PAW double counting   =      9984.02826696   -10036.41360137
  entropy T*S    EENTRO =        -0.86387316
  eigenvalues    EBANDS =     -1778.30497861
  atomic energy  EATOM  =     13537.65479391
  Solvation  Ediel_sol  =         0.00000000
  ---------------------------------------------------
  free energy    TOTEN  =      3724.68232669 eV

  energy without entropy =     3725.54619985  energy(sigma->0) =     3725.11426327


--------------------------------------------------------------------------------------------------------




--------------------------------------- Iteration      1(   2)  ---------------------------------------


     EDDAV:  cpu time     13.1734: real time     13.1814
       DOS:  cpu time      0.0007: real time      0.0007
    --------------------------------------------
      LOOP:  cpu time     13.1741: real time     13.1822

 eigenvalue-minimisations  :  2152
 total energy-change (2. order) :-0.3535702E+04  (-0.3276034E+04)
 number of electron     368.0000000 magnetization 
 augmentation part      368.0000000 magnetization 

 Free energy of the ion-electron system (eV)
  ---------------------------------------------------
  alpha Z        PSCENC =        91.34886789
  Ewald energy   TEWEN  =    120307.26771490
  -Hartree energ DENC   =   -129603.28528910
  -exchange      EXHF   =         0.00000000
  -V(xc)+E(xc)   XCENC  =      1223.25042528
  PAW double counting   =      9984.02826696   -10036.41360137
  entropy T*S    EENTRO =        -0.25134192
  eigenvalues    EBANDS =     -5314.61916445
  atomic energy  EATOM  =     13537.65479391
  Solvation  Ediel_sol  =         0.00000000
  ---------------------------------------------------
  free energy    TOTEN  =       188.98067210 eV

  energy without entropy =      189.23201402  energy(sigma->0) =      189.10634306


--------------------------------------------------------------------------------------------------------




--------------------------------------- Iteration      1(   3)  ---------------------------------------


     EDDAV:  cpu time     11.2899: real time     11.2940
       DOS:  cpu time      0.0007: real time      0.0007
    --------------------------------------------
      LOOP:  cpu time     11.2906: real time     11.2946

 eigenvalue-minimisations  :  1792
 total energy-change (2. order) :-0.1025254E+04  (-0.1001999E+04)
 number of electron     368.0000000 magnetization 
 augmentation part      368.0000000 magnetization 

 Free energy of the ion-electron system (eV)
  ---------------------------------------------------
  alpha Z        PSCENC =        91.34886789
  Ewald energy   TEWEN  =    120307.26771490
  -Hartree energ DENC   =   -129603.28528910
  -exchange      EXHF   =         0.00000000
  -V(xc)+E(xc)   XCENC  =      1223.25042528
  PAW double counting   =      9984.02826696   -10036.41360137
  entropy T*S    EENTRO =        -0.02293197
  eigenvalues    EBANDS =     -6340.10187910
  atomic energy  EATOM  =     13537.65479391
  Solvation  Ediel_sol  =         0.00000000
  ---------------------------------------------------
  free energy    TOTEN  =      -836.27363260 eV

  energy without entropy =     -836.25070063  energy(sigma->0) =     -836.26216661


--------------------------------------------------------------------------------------------------------




--------------------------------------- Iteration      1(   4)  ---------------------------------------


     EDDAV:  cpu time     10.9462: real time     10.9501
       DOS:  cpu time      0.0007: real time      0.0007
    --------------------------------------------
      LOOP:  cpu time     10.9468: real time     10.9507

 eigenvalue-minimisations  :  1720
 total energy-change (2. order) :-0.6232417E+02  (-0.6135899E+02)
 number of electron     368.0000000 magnetization 
 augmentation part      368.0000000 magnetization 

 Free energy of the ion-electron system (eV)
  ---------------------------------------------------
  alpha Z        PSCENC =        91.34886789
  Ewald energy   TEWEN  =    120307.26771490
  -Hartree energ DENC   =   -129603.28528910
  -exchange      EXHF   =         0.00000000
  -V(xc)+E(xc)   XCENC  =      1223.25042528
  PAW double counting   =      9984.02826696   -10036.41360137
  entropy T*S    EENTRO =        -0.06224023
  eigenvalues    EBANDS =     -6402.38673759
  atomic energy  EATOM  =     13537.65479391
  Solvation  Ediel_sol  =         0.00000000
  ---------------------------------------------------
  free energy    TOTEN  =      -898.59779935 eV

  energy without entropy =     -898.53555912  energy(sigma->0) =     -898.56667923


--------------------------------------------------------------------------------------------------------




--------------------------------------- Iteration      1(   5)  ---------------------------------------


     EDDAV:  cpu time     11.2866: real time     11.2923
       DOS:  cpu time      0.0007: real time      0.0007
    CHARGE:  cpu time      1.2081: real time      1.2101
    MIXING:  cpu time      0.2760: real time      0.2760
    --------------------------------------------
      LOOP:  cpu time     12.7714: real time     12.7791

 eigenvalue-minimisations  :  1792
 total energy-change (2. order) :-0.1511936E+01  (-0.1491922E+01)
 number of electron     368.0000006 magnetization 
 augmentation part       10.2404922 magnetization 

 Broyden mixing:
  rms(total) = 0.46070E+01    rms(broyden)= 0.46064E+01
  rms(prec ) = 0.47258E+01
  weight for this iteration     100.00

 Free energy of the ion-electron system (eV)
  ---------------------------------------------------
  alpha Z        PSCENC =        91.34886789
  Ewald energy   TEWEN  =    120307.26771490
  -Hartree energ DENC   =   -129603.28528910
  -exchange      EXHF   =         0.00000000
  -V(xc)+E(xc)   XCENC  =      1223.25042528
  PAW double counting   =      9984.02826696   -10036.41360137
  entropy T*S    EENTRO =        -0.06326652
  eigenvalues    EBANDS =     -6403.89764746
  atomic energy  EATOM  =     13537.65479391
  Solvation  Ediel_sol  =         0.00000000
  ---------------------------------------------------
  free energy    TOTEN  =      -900.10973551 eV

  energy without entropy =     -900.04646899  energy(sigma->0) =     -900.07810225


--------------------------------------------------------------------------------------------------------




--------------------------------------- Iteration      1(   6)  ---------------------------------------


    POTLOK:  cpu time      0.3208: real time      0.3209
    SETDIJ:  cpu time      0.0402: real time      0.0402
     EDDAV:  cpu time     10.3100: real time     10.3137
       DOS:  cpu time      0.0007: real time      0.0007
    CHARGE:  cpu time      1.1573: real time      1.1605
    MIXING:  cpu time      0.2775: real time      0.2794
    --------------------------------------------
      LOOP:  cpu time     12.1065: real time     12.1153

 eigenvalue-minimisations  :  1592
 total energy-change (2. order) : 0.5098053E+02  (-0.4874878E+01)
 number of electron     368.0000007 magnetization 
 augmentation part        9.8077650 magnetization 

 Broyden mixing:
  rms(total) = 0.27070E+01    rms(broyden)= 0.27070E+01
  rms(prec ) = 0.27658E+01
  weight for this iteration     100.00

 eigenvalues of (default mixing * dielectric matrix)
  average eigenvalue GAMMA=   2.1810
  2.1810

 Free energy of the ion-electron system (eV)
  ---------------------------------------------------
  alpha Z        PSCENC =        91.34886789
  Ewald energy   TEWEN  =    120307.26771490
  -Hartree energ DENC   =   -130182.29477536
  -exchange      EXHF   =         0.00000000
  -V(xc)+E(xc)   XCENC  =      1246.87183598
  PAW double counting   =     19077.12658524   -19137.27412986
  entropy T*S    EENTRO =        -0.05905934
  eigenvalues    EBANDS =     -5789.77103723
  atomic energy  EATOM  =     13537.65479391
  Solvation  Ediel_sol  =         0.00000000
  ---------------------------------------------------
  free energy    TOTEN  =      -849.12920386 eV

  energy without entropy =     -849.07014452  energy(sigma->0) =     -849.09967419


--------------------------------------------------------------------------------------------------------




--------------------------------------- Iteration      1(   7)  ---------------------------------------


    POTLOK:  cpu time      0.3204: real time      0.3204
    SETDIJ:  cpu time      0.0401: real time      0.0400
     EDDAV:  cpu time     10.1023: real time     10.1057
       DOS:  cpu time      0.0007: real time      0.0007
    CHARGE:  cpu time      1.1529: real time      1.1563
    MIXING:  cpu time      0.2806: real time      0.2810
    --------------------------------------------
      LOOP:  cpu time     11.8969: real time     11.9042

 eigenvalue-minimisations  :  1552
 total energy-change (2. order) : 0.1899420E+02  (-0.6703834E+01)
 number of electron     368.0000007 magnetization 
 augmentation part        9.2450325 magnetization 

 Broyden mixing:
  rms(total) = 0.74582E+00    rms(broyden)= 0.74554E+00
  rms(prec ) = 0.75570E+00
  weight for this iteration     100.00

 eigenvalues of (default mixing * dielectric matrix)
  average eigenvalue GAMMA=   2.2065
  2.2065  2.2065

 Free energy of the ion-electron system (eV)
  ---------------------------------------------------
  alpha Z        PSCENC =        91.34886789
  Ewald energy   TEWEN  =    120307.26771490
  -Hartree energ DENC   =   -130958.72832351
  -exchange      EXHF   =         0.00000000
  -V(xc)+E(xc)   XCENC  =      1278.35841624
  PAW double counting   =     37047.13749221   -37114.31489153
  entropy T*S    EENTRO =        -0.06229158
  eigenvalues    EBANDS =     -5018.79678442
  atomic energy  EATOM  =     13537.65479391
  Solvation  Ediel_sol  =         0.00000000
  ---------------------------------------------------
  free energy    TOTEN  =      -830.13500590 eV

  energy without entropy =     -830.07271432  energy(sigma->0) =     -830.10386011


--------------------------------------------------------------------------------------------------------




--------------------------------------- Iteration      1(   8)  ---------------------------------------


    POTLOK:  cpu time      0.3200: real time      0.3200
    SETDIJ:  cpu time      0.0401: real time      0.0401
     EDDAV:  cpu time     10.2593: real time     10.2630
       DOS:  cpu time      0.0008: real time      0.0008
    CHARGE:  cpu time      1.1570: real time      1.1582
    MIXING:  cpu time      0.2797: real time      0.2818
    --------------------------------------------
      LOOP:  cpu time     12.0569: real time     12.0639

 eigenvalue-minimisations  :  1584
 total energy-change (2. order) : 0.3064425E+00  (-0.2453271E+00)
 number of electron     368.0000007 magnetization 
 augmentation part        9.2292902 magnetization 

 Broyden mixing:
  rms(total) = 0.10151E+00    rms(broyden)= 0.10148E+00
  rms(prec ) = 0.12409E+00
  weight for this iteration     100.00

 eigenvalues of (default mixing * dielectric matrix)
  average eigenvalue GAMMA=   1.8726
  1.2766  2.4468  1.8943

 Free energy of the ion-electron system (eV)
  ---------------------------------------------------
  alpha Z        PSCENC =        91.34886789
  Ewald energy   TEWEN  =    120307.26771490
  -Hartree energ DENC   =   -131056.06076467
  -exchange      EXHF   =         0.00000000
  -V(xc)+E(xc)   XCENC  =      1278.14809441
  PAW double counting   =     41471.49772892   -41535.94108165
  entropy T*S    EENTRO =        -0.05963944
  eigenvalues    EBANDS =     -4923.68427769
  atomic energy  EATOM  =     13537.65479391
  Solvation  Ediel_sol  =         0.00000000
  ---------------------------------------------------
  free energy    TOTEN  =      -829.82856342 eV

  energy without entropy =     -829.76892398  energy(sigma->0) =     -829.79874370


--------------------------------------------------------------------------------------------------------




--------------------------------------- Iteration      1(   9)  ---------------------------------------


    POTLOK:  cpu time      0.3203: real time      0.3203
    SETDIJ:  cpu time      0.0401: real time      0.0402
     EDDAV:  cpu time     10.5048: real time     10.5084
       DOS:  cpu time      0.0007: real time      0.0007
    CHARGE:  cpu time      1.1570: real time      1.1572
    MIXING:  cpu time      0.2870: real time      0.2870
    --------------------------------------------
      LOOP:  cpu time     12.3100: real time     12.3138

 eigenvalue-minimisations  :  1632
 total energy-change (2. order) : 0.1121680E+00  (-0.2870104E-01)
 number of electron     368.0000007 magnetization 
 augmentation part        9.2045258 magnetization 

 Broyden mixing:
  rms(total) = 0.58023E-01    rms(broyden)= 0.58013E-01
  rms(prec ) = 0.79709E-01
  weight for this iteration     100.00

 eigenvalues of (default mixing * dielectric matrix)
  average eigenvalue GAMMA=   1.6996
  2.2077  2.2077  1.1084  1.2747

 Free energy of the ion-electron system (eV)
  ---------------------------------------------------
  alpha Z        PSCENC =        91.34886789
  Ewald energy   TEWEN  =    120307.26771490
  -Hartree energ DENC   =   -131128.34115484
  -exchange      EXHF   =         0.00000000
  -V(xc)+E(xc)   XCENC  =      1279.63755814
  PAW double counting   =     41991.02868172   -42055.58197608
  entropy T*S    EENTRO =        -0.06005028
  eigenvalues    EBANDS =     -4852.67083074
  atomic energy  EATOM  =     13537.65479391
  Solvation  Ediel_sol  =         0.00000000
  ---------------------------------------------------
  free energy    TOTEN  =      -829.71639538 eV

  energy without entropy =     -829.65634510  energy(sigma->0) =     -829.68637024


--------------------------------------------------------------------------------------------------------




--------------------------------------- Iteration      1(  10)  ---------------------------------------


    POTLOK:  cpu time      0.3203: real time      0.3203
    SETDIJ:  cpu time      0.0401: real time      0.0401
     EDDAV:  cpu time     11.1039: real time     11.1079
       DOS:  cpu time      0.0007: real time      0.0007
    CHARGE:  cpu time      1.1533: real time      1.1553
    MIXING:  cpu time      0.2936: real time      0.2945
    --------------------------------------------
      LOOP:  cpu time     12.9119: real time     12.9188

 eigenvalue-minimisations  :  1752
 total energy-change (2. order) : 0.3826173E-01  (-0.4690121E-02)
 number of electron     368.0000007 magnetization 
 augmentation part        9.1953346 magnetization 

 Broyden mixing:
  rms(total) = 0.36598E-01    rms(broyden)= 0.36596E-01
  rms(prec ) = 0.56485E-01
  weight for this iteration     100.00

 eigenvalues of (default mixing * dielectric matrix)
  average eigenvalue GAMMA=   1.7319
  2.4682  2.4682  1.5598  1.3255  0.8379

 Free energy of the ion-electron system (eV)
  ---------------------------------------------------
  alpha Z        PSCENC =        91.34886789
  Ewald energy   TEWEN  =    120307.26771490
  -Hartree energ DENC   =   -131177.28460165
  -exchange      EXHF   =         0.00000000
  -V(xc)+E(xc)   XCENC  =      1279.92871354
  PAW double counting   =     41740.36134647   -41804.76975403
  entropy T*S    EENTRO =        -0.06015728
  eigenvalues    EBANDS =     -4804.12505739
  atomic energy  EATOM  =     13537.65479391
  Solvation  Ediel_sol  =         0.00000000
  ---------------------------------------------------
  free energy    TOTEN  =      -829.67813364 eV

  energy without entropy =     -829.61797637  energy(sigma->0) =     -829.64805501


--------------------------------------------------------------------------------------------------------




--------------------------------------- Iteration      1(  11)  ---------------------------------------


    POTLOK:  cpu time      0.3203: real time      0.3204
    SETDIJ:  cpu time      0.0400: real time      0.0400
     EDDAV:  cpu time     10.1365: real time     10.1399
       DOS:  cpu time      0.0007: real time      0.0007
    CHARGE:  cpu time      1.1674: real time      1.1677
    MIXING:  cpu time      0.3008: real time      0.3009
    --------------------------------------------
      LOOP:  cpu time     11.9658: real time     11.9696

 eigenvalue-minimisations  :  1560
 total energy-change (2. order) : 0.3126309E-01  (-0.2318926E-02)
 number of electron     368.0000007 magnetization 
 augmentation part        9.1903305 magnetization 

 Broyden mixing:
  rms(total) = 0.24647E-01    rms(broyden)= 0.24645E-01
  rms(prec ) = 0.38501E-01
  weight for this iteration     100.00

 eigenvalues of (default mixing * dielectric matrix)
  average eigenvalue GAMMA=   1.7918
  3.0523  2.5284  1.9214  0.9433  1.1527  1.1527

 Free energy of the ion-electron system (eV)
  ---------------------------------------------------
  alpha Z        PSCENC =        91.34886789
  Ewald energy   TEWEN  =    120307.26771490
  -Hartree energ DENC   =   -131243.15670296
  -exchange      EXHF   =         0.00000000
  -V(xc)+E(xc)   XCENC  =      1280.50587168
  PAW double counting   =     41667.25103568   -41731.55343691
  entropy T*S    EENTRO =        -0.06018130
  eigenvalues    EBANDS =     -4738.90483344
  atomic energy  EATOM  =     13537.65479391
  Solvation  Ediel_sol  =         0.00000000
  ---------------------------------------------------
  free energy    TOTEN  =      -829.64687055 eV

  energy without entropy =     -829.58668926  energy(sigma->0) =     -829.61677990


--------------------------------------------------------------------------------------------------------




--------------------------------------- Iteration      1(  12)  ---------------------------------------


    POTLOK:  cpu time      0.3204: real time      0.3204
    SETDIJ:  cpu time      0.0401: real time      0.0401
     EDDAV:  cpu time     10.0012: real time     10.0043
       DOS:  cpu time      0.0007: real time      0.0007
    CHARGE:  cpu time      1.1533: real time      1.1563
    MIXING:  cpu time      0.3059: real time      0.3076
    --------------------------------------------
      LOOP:  cpu time     11.8217: real time     11.8295

 eigenvalue-minimisations  :  1536
 total energy-change (2. order) : 0.5398491E-02  (-0.2389187E-02)
 number of electron     368.0000007 magnetization 
 augmentation part        9.1829442 magnetization 

 Broyden mixing:
  rms(total) = 0.15346E-01    rms(broyden)= 0.15342E-01
  rms(prec ) = 0.23482E-01
  weight for this iteration     100.00

 eigenvalues of (default mixing * dielectric matrix)
  average eigenvalue GAMMA=   2.0833
  4.9232  2.4308  2.0203  2.0203  0.9297  1.1292  1.1292

 Free energy of the ion-electron system (eV)
  ---------------------------------------------------
  alpha Z        PSCENC =        91.34886789
  Ewald energy   TEWEN  =    120307.26771490
  -Hartree energ DENC   =   -131309.03042721
  -exchange      EXHF   =         0.00000000
  -V(xc)+E(xc)   XCENC  =      1281.14283913
  PAW double counting   =     41724.48368682   -41788.77331538
  entropy T*S    EENTRO =        -0.06022257
  eigenvalues    EBANDS =     -4673.67540956
  atomic energy  EATOM  =     13537.65479391
  Solvation  Ediel_sol  =         0.00000000
  ---------------------------------------------------
  free energy    TOTEN  =      -829.64147206 eV

  energy without entropy =     -829.58124949  energy(sigma->0) =     -829.61136077


--------------------------------------------------------------------------------------------------------




--------------------------------------- Iteration      1(  13)  ---------------------------------------


    POTLOK:  cpu time      0.3200: real time      0.3199
    SETDIJ:  cpu time      0.0399: real time      0.0399
     EDDAV:  cpu time     10.1170: real time     10.1202
       DOS:  cpu time      0.0007: real time      0.0007
    CHARGE:  cpu time      1.1543: real time      1.1556
    MIXING:  cpu time      0.3146: real time      0.3156
    --------------------------------------------
      LOOP:  cpu time     11.9465: real time     11.9520

 eigenvalue-minimisations  :  1560
 total energy-change (2. order) :-0.1175238E-01  (-0.9026619E-03)
 number of electron     368.0000007 magnetization 
 augmentation part        9.1802427 magnetization 

 Broyden mixing:
  rms(total) = 0.85340E-02    rms(broyden)= 0.85318E-02
  rms(prec ) = 0.12133E-01
  weight for this iteration     100.00

 eigenvalues of (default mixing * dielectric matrix)
  average eigenvalue GAMMA=   2.1156
  5.5083  2.5194  2.5194  1.8584  1.2368  1.2368  0.8784  1.1672

 Free energy of the ion-electron system (eV)
  ---------------------------------------------------
  alpha Z        PSCENC =        91.34886789
  Ewald energy   TEWEN  =    120307.26771490
  -Hartree energ DENC   =   -131361.27173998
  -exchange      EXHF   =         0.00000000
  -V(xc)+E(xc)   XCENC  =      1281.34788317
  PAW double counting   =     41680.87994391   -41745.16371932
  entropy T*S    EENTRO =        -0.06012459
  eigenvalues    EBANDS =     -4621.65684432
  atomic energy  EATOM  =     13537.65479391
  Solvation  Ediel_sol  =         0.00000000
  ---------------------------------------------------
  free energy    TOTEN  =      -829.65322444 eV

  energy without entropy =     -829.59309985  energy(sigma->0) =     -829.62316214


--------------------------------------------------------------------------------------------------------




--------------------------------------- Iteration      1(  14)  ---------------------------------------


    POTLOK:  cpu time      0.3210: real time      0.3210
    SETDIJ:  cpu time      0.0401: real time      0.0402
     EDDAV:  cpu time     10.2545: real time     10.2581
       DOS:  cpu time      0.0007: real time      0.0007
    CHARGE:  cpu time      1.1549: real time      1.1556
    MIXING:  cpu time      0.3227: real time      0.3239
    --------------------------------------------
      LOOP:  cpu time     12.0940: real time     12.0994

 eigenvalue-minimisations  :  1584
 total energy-change (2. order) :-0.1981906E-01  (-0.1584635E-03)
 number of electron     368.0000007 magnetization 
 augmentation part        9.1791306 magnetization 

 Broyden mixing:
  rms(total) = 0.56761E-02    rms(broyden)= 0.56755E-02
  rms(prec ) = 0.77592E-02
  weight for this iteration     100.00

 eigenvalues of (default mixing * dielectric matrix)
  average eigenvalue GAMMA=   2.2192
  6.4569  2.8958  2.6278  1.7938  1.7938  1.2599  1.2599  0.9424  0.9424

 Free energy of the ion-electron system (eV)
  ---------------------------------------------------
  alpha Z        PSCENC =        91.34886789
  Ewald energy   TEWEN  =    120307.26771490
  -Hartree energ DENC   =   -131377.78625438
  -exchange      EXHF   =         0.00000000
  -V(xc)+E(xc)   XCENC  =      1281.37676305
  PAW double counting   =     41689.08534274   -41753.38496791
  entropy T*S    EENTRO =        -0.06016784
  eigenvalues    EBANDS =     -4605.17513586
  atomic energy  EATOM  =     13537.65479391
  Solvation  Ediel_sol  =         0.00000000
  ---------------------------------------------------
  free energy    TOTEN  =      -829.67304350 eV

  energy without entropy =     -829.61287566  energy(sigma->0) =     -829.64295958


--------------------------------------------------------------------------------------------------------




--------------------------------------- Iteration      1(  15)  ---------------------------------------


    POTLOK:  cpu time      0.3212: real time      0.3211
    SETDIJ:  cpu time      0.0401: real time      0.0401
     EDDAV:  cpu time     10.2472: real time     10.2506
       DOS:  cpu time      0.0007: real time      0.0008
    CHARGE:  cpu time      1.1554: real time      1.1569
    MIXING:  cpu time      0.3324: real time      0.3324
    --------------------------------------------
      LOOP:  cpu time     12.0971: real time     12.1020

 eigenvalue-minimisations  :  1584
 total energy-change (2. order) :-0.1970856E-01  (-0.1788030E-03)
 number of electron     368.0000007 magnetization 
 augmentation part        9.1788772 magnetization 

 Broyden mixing:
  rms(total) = 0.29935E-02    rms(broyden)= 0.29931E-02
  rms(prec ) = 0.40982E-02
  weight for this iteration     100.00

 eigenvalues of (default mixing * dielectric matrix)
  average eigenvalue GAMMA=   2.2651
  7.1142  3.5379  2.2949  2.2949  1.6957  1.3222  1.3222  1.1688  0.9503  0.9503

 Free energy of the ion-electron system (eV)
  ---------------------------------------------------
  alpha Z        PSCENC =        91.34886789
  Ewald energy   TEWEN  =    120307.26771490
  -Hartree energ DENC   =   -131387.17765016
  -exchange      EXHF   =         0.00000000
  -V(xc)+E(xc)   XCENC  =      1281.34494290
  PAW double counting   =     41688.22684366   -41752.52461348
  entropy T*S    EENTRO =        -0.06020815
  eigenvalues    EBANDS =     -4595.77344351
  atomic energy  EATOM  =     13537.65479391
  Solvation  Ediel_sol  =         0.00000000
  ---------------------------------------------------
  free energy    TOTEN  =      -829.69275206 eV

  energy without entropy =     -829.63254390  energy(sigma->0) =     -829.66264798


--------------------------------------------------------------------------------------------------------




--------------------------------------- Iteration      1(  16)  ---------------------------------------


    POTLOK:  cpu time      0.3199: real time      0.3200
    SETDIJ:  cpu time      0.0401: real time      0.0401
     EDDAV:  cpu time     10.3302: real time     10.3339
       DOS:  cpu time      0.0008: real time      0.0008
    CHARGE:  cpu time      1.1662: real time      1.1671
    MIXING:  cpu time      0.3392: real time      0.3407
    --------------------------------------------
      LOOP:  cpu time     12.1963: real time     12.2025

 eigenvalue-minimisations  :  1600
 total energy-change (2. order) :-0.8461703E-02  (-0.4766723E-04)
 number of electron     368.0000007 magnetization 
 augmentation part        9.1789122 magnetization 

 Broyden mixing:
  rms(total) = 0.22202E-02    rms(broyden)= 0.22201E-02
  rms(prec ) = 0.27585E-02
  weight for this iteration     100.00

 eigenvalues of (default mixing * dielectric matrix)
  average eigenvalue GAMMA=   2.3507
  7.9758  4.0567  2.3780  2.3780  1.9054  1.5188  1.5188  0.9165  1.0060  1.1020
  1.1020

 Free energy of the ion-electron system (eV)
  ---------------------------------------------------
  alpha Z        PSCENC =        91.34886789
  Ewald energy   TEWEN  =    120307.26771490
  -Hartree energ DENC   =   -131390.74212359
  -exchange      EXHF   =         0.00000000
  -V(xc)+E(xc)   XCENC  =      1281.32112820
  PAW double counting   =     41679.25587499   -41743.54921649
  entropy T*S    EENTRO =        -0.06018062
  eigenvalues    EBANDS =     -4592.19807295
  atomic energy  EATOM  =     13537.65479391
  Solvation  Ediel_sol  =         0.00000000
  ---------------------------------------------------
  free energy    TOTEN  =      -829.70121376 eV

  energy without entropy =     -829.64103314  energy(sigma->0) =     -829.67112345


--------------------------------------------------------------------------------------------------------




--------------------------------------- Iteration      1(  17)  ---------------------------------------


    POTLOK:  cpu time      0.3210: real time      0.3210
    SETDIJ:  cpu time      0.0402: real time      0.0402
     EDDAV:  cpu time     10.1591: real time     10.1656
       DOS:  cpu time      0.0007: real time      0.0007
    CHARGE:  cpu time      1.1523: real time      1.1542
    MIXING:  cpu time      0.3502: real time      0.3503
    --------------------------------------------
      LOOP:  cpu time     12.0235: real time     12.0320

 eigenvalue-minimisations  :  1568
 total energy-change (2. order) :-0.4775359E-02  (-0.2852901E-04)
 number of electron     368.0000007 magnetization 
 augmentation part        9.1787376 magnetization 

 Broyden mixing:
  rms(total) = 0.11882E-02    rms(broyden)= 0.11881E-02
  rms(prec ) = 0.14917E-02
  weight for this iteration     100.00

 eigenvalues of (default mixing * dielectric matrix)
  average eigenvalue GAMMA=   2.3936
  8.4289  4.5899  2.5250  2.5250  1.9159  1.7115  1.3916  1.3916  0.9606  0.9606
  1.1613  1.1613

 Free energy of the ion-electron system (eV)
  ---------------------------------------------------
  alpha Z        PSCENC =        91.34886789
  Ewald energy   TEWEN  =    120307.26771490
  -Hartree energ DENC   =   -131393.06965007
  -exchange      EXHF   =         0.00000000
  -V(xc)+E(xc)   XCENC  =      1281.32552675
  PAW double counting   =     41687.07130060   -41751.36390697
  entropy T*S    EENTRO =        -0.06017964
  eigenvalues    EBANDS =     -4589.88045648
  atomic energy  EATOM  =     13537.65479391
  Solvation  Ediel_sol  =         0.00000000
  ---------------------------------------------------
  free energy    TOTEN  =      -829.70598912 eV

  energy without entropy =     -829.64580948  energy(sigma->0) =     -829.67589930


--------------------------------------------------------------------------------------------------------




--------------------------------------- Iteration      1(  18)  ---------------------------------------


    POTLOK:  cpu time      0.3198: real time      0.3198
    SETDIJ:  cpu time      0.0416: real time      0.0416
     EDDAV:  cpu time     10.4914: real time     10.4951
       DOS:  cpu time      0.0008: real time      0.0008
    CHARGE:  cpu time      1.1555: real time      1.1568
    MIXING:  cpu time      0.3621: real time      0.3623
    --------------------------------------------
      LOOP:  cpu time     12.3712: real time     12.3763

 eigenvalue-minimisations  :  1632
 total energy-change (2. order) :-0.2210901E-02  (-0.9376681E-05)
 number of electron     368.0000007 magnetization 
 augmentation part        9.1787134 magnetization 

 Broyden mixing:
  rms(total) = 0.59525E-03    rms(broyden)= 0.59514E-03
  rms(prec ) = 0.77516E-03
  weight for this iteration     100.00

 eigenvalues of (default mixing * dielectric matrix)
  average eigenvalue GAMMA=   2.4255
  8.8461  5.0943  2.9119  2.5074  1.9640  1.5621  1.5621  1.7005  0.9423  0.9423
  1.2047  1.2047  1.0896

 Free energy of the ion-electron system (eV)
  ---------------------------------------------------
  alpha Z        PSCENC =        91.34886789
  Ewald energy   TEWEN  =    120307.26771490
  -Hartree energ DENC   =   -131393.85083513
  -exchange      EXHF   =         0.00000000
  -V(xc)+E(xc)   XCENC  =      1281.32285298
  PAW double counting   =     41683.88781094   -41748.17974435
  entropy T*S    EENTRO =        -0.06018378
  eigenvalues    EBANDS =     -4589.09947737
  atomic energy  EATOM  =     13537.65479391
  Solvation  Ediel_sol  =         0.00000000
  ---------------------------------------------------
  free energy    TOTEN  =      -829.70820002 eV

  energy without entropy =     -829.64801623  energy(sigma->0) =     -829.67810813


--------------------------------------------------------------------------------------------------------




--------------------------------------- Iteration      1(  19)  ---------------------------------------


    POTLOK:  cpu time      0.3210: real time      0.3211
    SETDIJ:  cpu time      0.0402: real time      0.0402
     EDDAV:  cpu time      9.3060: real time      9.3092
       DOS:  cpu time      0.0007: real time      0.0007
    CHARGE:  cpu time      1.1511: real time      1.1545
    MIXING:  cpu time      0.3743: real time      0.3742
    --------------------------------------------
      LOOP:  cpu time     11.1934: real time     11.1998

 eigenvalue-minimisations  :  1392
 total energy-change (2. order) :-0.9976203E-03  (-0.3393249E-05)
 number of electron     368.0000007 magnetization 
 augmentation part        9.1786978 magnetization 

 Broyden mixing:
  rms(total) = 0.38525E-03    rms(broyden)= 0.38522E-03
  rms(prec ) = 0.46454E-03
  weight for this iteration     100.00

 eigenvalues of (default mixing * dielectric matrix)
  average eigenvalue GAMMA=   2.4157
  8.9712  5.4908  3.1267  2.3944  2.3944  1.8778  1.4771  1.4771  1.3055  1.3055
  0.9231  1.0044  1.0044  1.0670

 Free energy of the ion-electron system (eV)
  ---------------------------------------------------
  alpha Z        PSCENC =        91.34886789
  Ewald energy   TEWEN  =    120307.26771490
  -Hartree energ DENC   =   -131394.23060806
  -exchange      EXHF   =         0.00000000
  -V(xc)+E(xc)   XCENC  =      1281.32276944
  PAW double counting   =     41684.22995776   -41748.52096479
  entropy T*S    EENTRO =        -0.06018366
  eigenvalues    EBANDS =     -4588.72154503
  atomic energy  EATOM  =     13537.65479391
  Solvation  Ediel_sol  =         0.00000000
  ---------------------------------------------------
  free energy    TOTEN  =      -829.70919764 eV

  energy without entropy =     -829.64901398  energy(sigma->0) =     -829.67910581


--------------------------------------------------------------------------------------------------------




--------------------------------------- Iteration      1(  20)  ---------------------------------------


    POTLOK:  cpu time      0.3206: real time      0.3206
    SETDIJ:  cpu time      0.0402: real time      0.0403
     EDDAV:  cpu time      9.1976: real time      9.2008
       DOS:  cpu time      0.0008: real time      0.0008
    CHARGE:  cpu time      1.1547: real time      1.1559
    MIXING:  cpu time      0.3871: real time      0.3873
    --------------------------------------------
      LOOP:  cpu time     11.1010: real time     11.1056

 eigenvalue-minimisations  :  1368
 total energy-change (2. order) :-0.3257151E-03  (-0.4772530E-06)
 number of electron     368.0000007 magnetization 
 augmentation part        9.1786797 magnetization 

 Broyden mixing:
  rms(total) = 0.24348E-03    rms(broyden)= 0.24347E-03
  rms(prec ) = 0.29191E-03
  weight for this iteration     100.00

 eigenvalues of (default mixing * dielectric matrix)
  average eigenvalue GAMMA=   2.4612
  9.2328  5.8817  3.6823  2.5790  2.3435  1.9520  1.6612  1.6612  1.3670  1.2586
  1.2586  0.9367  1.0996  1.0018  1.0018

 Free energy of the ion-electron system (eV)
  ---------------------------------------------------
  alpha Z        PSCENC =        91.34886789
  Ewald energy   TEWEN  =    120307.26771490
  -Hartree energ DENC   =   -131394.38103729
  -exchange      EXHF   =         0.00000000
  -V(xc)+E(xc)   XCENC  =      1281.32264087
  PAW double counting   =     41684.67200463   -41748.96343397
  entropy T*S    EENTRO =        -0.06018299
  eigenvalues    EBANDS =     -4588.57089130
  atomic energy  EATOM  =     13537.65479391
  Solvation  Ediel_sol  =         0.00000000
  ---------------------------------------------------
  free energy    TOTEN  =      -829.70952335 eV

  energy without entropy =     -829.64934037  energy(sigma->0) =     -829.67943186


--------------------------------------------------------------------------------------------------------




--------------------------------------- Iteration      1(  21)  ---------------------------------------


    POTLOK:  cpu time      0.3210: real time      0.3210
    SETDIJ:  cpu time      0.0404: real time      0.0404
     EDDAV:  cpu time      8.7156: real time      8.7186
       DOS:  cpu time      0.0007: real time      0.0007
    CHARGE:  cpu time      1.1669: real time      1.1693
    MIXING:  cpu time      0.3978: real time      0.3978
    --------------------------------------------
      LOOP:  cpu time     10.6425: real time     10.6478

 eigenvalue-minimisations  :  1272
 total energy-change (2. order) :-0.2263012E-03  (-0.3153764E-06)
 number of electron     368.0000007 magnetization 
 augmentation part        9.1786844 magnetization 

 Broyden mixing:
  rms(total) = 0.11142E-03    rms(broyden)= 0.11140E-03
  rms(prec ) = 0.13547E-03
  weight for this iteration     100.00

 eigenvalues of (default mixing * dielectric matrix)
  average eigenvalue GAMMA=   2.4127
  9.2011  6.1698  3.8036  2.5367  2.5367  2.0239  1.5674  1.5674  1.6813  1.2144
  1.2144  1.1924  1.0120  1.0120  0.9351  0.9351

 Free energy of the ion-electron system (eV)
  ---------------------------------------------------
  alpha Z        PSCENC =        91.34886789
  Ewald energy   TEWEN  =    120307.26771490
  -Hartree energ DENC   =   -131394.45382919
  -exchange      EXHF   =         0.00000000
  -V(xc)+E(xc)   XCENC  =      1281.32149146
  PAW double counting   =     41683.64348779   -41747.93516990
  entropy T*S    EENTRO =        -0.06018296
  eigenvalues    EBANDS =     -4588.49692355
  atomic energy  EATOM  =     13537.65479391
  Solvation  Ediel_sol  =         0.00000000
  ---------------------------------------------------
  free energy    TOTEN  =      -829.70974966 eV

  energy without entropy =     -829.64956669  energy(sigma->0) =     -829.67965817


[...]
   0.338E+01 -.150E+02 0.414E+02   -.247E+01 0.160E+02 -.417E+02   0.225E+00 0.746E+00 0.113E+00   -.382E-05 -.306E-05 0.224E-05
   0.113E+02 0.331E+01 0.662E+02   -.118E+02 -.394E+01 -.662E+02   -.407E+00 -.304E+00 -.624E+00   0.378E-05 0.510E-05 0.209E-06
   0.395E+02 0.420E+01 0.147E+03   -.412E+02 -.386E+01 -.148E+03   0.268E-01 -.127E+00 0.276E+01   0.501E-05 -.137E-05 0.734E-06
   -.796E+00 0.850E+01 0.102E+03   0.191E+01 -.829E+01 -.103E+03   0.133E+01 -.179E+00 0.746E+00   -.410E-05 -.444E-05 0.251E-05
   -.795E+01 -.111E+02 0.505E+02   0.910E+01 0.115E+02 -.497E+02   0.299E+00 -.622E+00 -.199E+01   0.405E-05 -.459E-05 -.446E-06
   0.896E+01 -.271E+01 0.118E+03   -.103E+02 0.180E+01 -.119E+03   0.578E+00 -.601E+00 0.127E+01   -.544E-05 0.263E-05 0.203E-05
   0.457E+01 0.413E+01 0.821E+02   -.516E+01 -.447E+01 -.824E+02   -.708E+00 0.135E+00 0.444E+00   -.359E-05 0.554E-05 0.378E-06
   -.121E+02 0.657E+01 0.217E+02   0.133E+02 -.587E+01 -.212E+02   0.134E+01 0.175E+01 -.980E+00   -.792E-05 -.307E-05 -.874E-06
   -.140E+02 -.327E+00 0.374E+02   0.148E+02 -.363E+00 -.371E+02   0.181E+00 0.420E+00 -.641E+00   -.395E-05 0.431E-05 -.561E-06
   -.664E+01 -.118E+02 0.584E+02   0.665E+01 0.122E+02 -.580E+02   0.199E+00 0.140E+00 -.132E+01   -.249E-06 -.603E-05 -.111E-05
   -.769E+01 0.191E+02 0.934E+02   0.802E+01 -.217E+02 -.935E+02   0.659E+00 -.103E+01 0.135E+01   0.310E-05 0.718E-05 0.466E-06
   -.126E+02 0.126E+02 0.995E+02   0.125E+02 -.136E+02 -.999E+02   -.403E+00 -.285E+00 0.190E+01   0.471E-05 0.237E-05 0.164E-05
   -.233E+01 -.108E+02 0.453E+02   0.931E+00 0.119E+02 -.448E+02   -.828E-01 0.548E+00 -.126E+01   0.269E-05 0.388E-05 -.539E-06
   -.116E+02 -.972E+01 0.374E+02   0.115E+02 0.105E+02 -.370E+02   -.145E-02 0.240E-01 -.108E+01   0.263E-05 0.109E-05 -.492E-06
   -.195E+02 0.470E+01 0.486E+02   0.202E+02 -.521E+01 -.491E+02   0.568E+00 -.918E+00 0.179E+01   -.540E-05 0.417E-05 -.181E-05
   -.144E+02 0.137E+02 0.693E+01   0.144E+02 -.151E+02 -.701E+01   -.675E+00 -.325E+00 0.383E+00   -.306E-05 -.389E-05 -.136E-05
   -.306E+01 -.218E+02 -.393E+02   0.322E+01 0.240E+02 0.401E+02   0.206E+01 0.965E+00 -.123E+01   -.121E-04 -.808E-05 -.428E-05
   -.191E+02 -.228E+02 0.112E+01   0.203E+02 0.254E+02 -.766E+00   0.402E-01 0.810E+00 0.114E+01   -.488E-05 -.247E-05 -.156E-05
   -.769E+01 0.108E+02 -.115E+02   0.781E+01 -.114E+02 0.115E+02   0.386E+00 0.486E+00 0.660E+00   0.380E-05 -.456E-05 0.247E-05
   0.129E+02 0.241E+02 -.760E+02   -.132E+02 -.269E+02 0.758E+02   -.226E+00 -.113E+01 0.159E-01   -.100E-04 0.787E-05 -.205E-05
   0.209E+02 -.224E+02 -.841E+02   -.225E+02 0.247E+02 0.840E+02   -.538E+00 0.106E+01 -.922E+00   0.720E-05 -.887E-06 0.378E-05
   0.159E+02 -.787E+01 -.134E+03   -.156E+02 0.846E+01 0.135E+03   0.411E+00 0.308E+00 -.141E+01   -.114E-04 -.343E-07 -.112E-05
   0.284E+01 0.125E+02 -.913E+02   -.190E+01 -.136E+02 0.916E+02   0.118E+01 -.615E+00 0.749E+00   -.111E-04 0.726E-05 -.260E-05
   0.196E+02 0.169E+02 -.145E+03   -.198E+02 -.175E+02 0.145E+03   -.103E+01 -.645E+00 0.334E+00   -.247E-05 -.257E-05 0.171E-05
   0.261E+02 -.175E+02 -.136E+03   -.273E+02 0.177E+02 0.136E+03   0.545E+00 -.776E+00 -.983E+00   -.104E-04 0.138E-04 -.199E-05
   0.606E+01 -.218E+01 -.164E+03   -.641E+01 0.305E+01 0.165E+03   -.302E+00 0.128E+01 -.915E+00   0.164E-05 -.149E-04 -.796E-06
   -.110E+02 0.394E+01 -.734E+02   0.106E+02 -.331E+01 0.727E+02   0.348E+00 0.657E+00 0.893E+00   -.318E-05 0.104E-04 -.268E-05
   0.294E+01 0.651E+02 -.200E+03   -.525E+01 -.663E+02 0.201E+03   0.110E+01 0.357E+00 -.816E+00   0.112E-05 -.102E-04 0.467E-06
   -.285E+01 -.655E+02 -.135E+03   0.105E+01 0.663E+02 0.135E+03   0.135E+01 -.206E+01 0.120E+00   0.132E-05 0.941E-05 -.146E-05
   0.193E+02 0.665E+02 -.670E+02   -.165E+02 -.675E+02 0.672E+02   -.105E+01 0.227E+01 -.869E+00   0.124E-04 0.763E-05 -.143E-05
   0.140E+02 -.717E+02 -.453E+02   -.104E+02 0.733E+02 0.449E+02   -.143E+01 -.100E+01 0.172E+01   0.819E-05 -.137E-04 0.169E-06
   0.144E+02 0.101E+02 -.692E+02   -.145E+02 -.116E+02 0.691E+02   -.755E+00 -.439E+00 0.263E+00   -.957E-05 0.121E-04 -.234E-05
   0.194E+02 -.224E+01 -.133E+03   -.207E+02 0.192E+01 0.134E+03   -.120E+01 -.200E+00 -.163E+01   -.649E-05 -.126E-04 -.402E-05
   -.113E+02 0.190E+02 -.825E+02   0.129E+02 -.194E+02 0.822E+02   0.642E+00 0.497E+00 -.938E-01   -.172E-04 0.103E-05 -.545E-06
   -.130E+02 -.162E+02 -.733E+02   0.150E+02 0.169E+02 0.726E+02   0.108E+01 0.709E+00 0.509E+00   -.147E-04 -.404E-05 0.773E-06
   0.461E+00 -.147E+02 -.119E+03   -.157E+01 0.146E+02 0.119E+03   -.873E+00 -.396E+00 -.730E+00   -.389E-06 -.110E-05 -.605E-06
   0.695E+01 0.274E+02 -.702E+02   -.704E+01 -.305E+02 0.703E+02   -.267E+00 -.106E+01 -.443E+00   0.143E-05 0.763E-05 -.647E-07
   -.906E+00 0.112E+02 -.536E+02   0.182E+01 -.110E+02 0.529E+02   0.508E+00 0.668E+00 -.632E-01   0.800E-05 0.589E-07 -.253E-05
   0.245E+02 -.643E+01 -.877E+01   -.263E+02 0.637E+01 0.867E+01   -.955E+00 -.752E-01 0.142E+01   0.136E-04 0.290E-05 -.437E-05
   0.240E+01 -.763E+01 -.423E+02   -.296E+01 0.725E+01 0.429E+02   -.118E+01 -.440E+00 -.428E+00   0.602E-05 -.740E-06 -.202E-05
   0.257E+01 0.371E+01 -.151E+02   -.229E+01 -.382E+01 0.153E+02   -.771E+00 0.180E+00 -.543E+00   0.784E-05 -.419E-05 -.376E-05
   0.199E+02 0.185E+02 0.775E+02   -.190E+02 -.200E+02 -.781E+02   -.135E+00 -.209E+00 0.748E+00   0.153E-05 0.551E-05 -.119E-05
   0.282E+02 -.108E+02 0.929E+02   -.278E+02 0.117E+02 -.936E+02   0.106E+01 0.666E+00 0.883E+00   -.519E-05 -.956E-06 0.184E-05
   0.306E+02 -.104E+02 0.854E+02   -.316E+02 0.113E+02 -.856E+02   -.484E+00 0.115E+01 0.912E+00   -.355E-05 -.590E-05 0.225E-05
   0.224E+02 0.917E+01 0.820E+02   -.222E+02 -.948E+01 -.821E+02   0.925E+00 0.183E+00 -.501E+00   -.930E-05 -.303E-05 0.173E-05
   0.191E+02 0.310E+01 0.107E+03   -.182E+02 -.229E+01 -.108E+03   0.841E+00 0.360E+00 -.472E+00   -.140E-05 -.547E-05 0.776E-06
   0.245E+02 -.619E+01 0.118E+03   -.248E+02 0.591E+01 -.118E+03   -.225E+00 -.643E+00 -.384E+00   0.134E-05 0.103E-05 -.559E-06
   0.243E+02 -.136E+02 0.121E+03   -.252E+02 0.137E+02 -.120E+03   -.102E+01 -.108E+01 -.950E+00   0.901E-05 0.241E-05 -.164E-05
   0.286E+02 0.134E+02 0.174E+03   -.289E+02 -.142E+02 -.175E+03   0.369E+00 -.700E+00 0.189E+01   0.643E-05 0.123E-04 0.128E-05
   0.138E+02 0.506E+01 0.180E+03   -.137E+02 -.451E+01 -.181E+03   -.457E+00 0.391E+00 0.129E+01   0.574E-05 -.173E-05 0.137E-05
   0.117E+02 -.112E+02 0.146E+03   -.112E+02 0.113E+02 -.146E+03   0.596E+00 -.512E-01 -.860E+00   0.876E-06 -.681E-05 0.731E-06
   -.261E-01 -.102E+02 0.155E+03   0.492E+00 0.106E+02 -.155E+03   -.522E-01 -.263E-01 -.527E+00   -.797E-05 -.251E-05 0.246E-05
   0.206E+01 0.142E+02 0.128E+03   -.242E+01 -.143E+02 -.128E+03   -.672E+00 0.668E+00 -.654E+00   -.399E-06 0.419E-05 0.165E-05
   -.103E+02 0.108E+02 0.200E+03   0.111E+02 -.110E+02 -.201E+03   0.336E+00 0.913E-01 0.144E+01   -.118E-05 -.159E-05 0.370E-05
   -.544E+01 -.102E+02 0.175E+03   0.534E+01 0.101E+02 -.175E+03   -.117E+01 -.370E+00 -.285E+00   0.373E-05 0.159E-05 0.196E-05
   -.983E+01 -.187E+02 0.119E+03   0.864E+01 0.207E+02 -.119E+03   -.795E+00 0.513E+00 -.845E+00   0.447E-05 -.225E-05 0.170E-05
   -.184E+02 0.507E+01 0.190E+03   0.185E+02 -.502E+01 -.191E+03   -.100E+01 -.347E+00 0.146E+01   0.110E-05 -.391E-05 0.106E-05
   -.154E+02 0.788E+01 0.946E+02   0.161E+02 -.792E+01 -.947E+02   0.235E+00 0.216E+00 -.237E+00   -.129E-05 -.542E-06 -.645E-06
   -.289E+02 -.707E+01 0.158E+03   0.293E+02 0.716E+01 -.158E+03   -.306E+00 0.297E+00 0.531E+00   -.435E-05 -.348E-05 -.630E-06
   -.161E+02 -.128E+02 0.424E+02   0.158E+02 0.135E+02 -.418E+02   -.430E+00 -.740E+00 -.172E+01   -.544E-05 -.349E-05 -.277E-05
   -.262E+02 0.158E+02 0.927E+02   0.272E+02 -.172E+02 -.926E+02   0.555E+00 -.714E+00 0.125E+00   -.527E-05 0.433E-05 -.171E-05
   -.364E+02 0.121E+02 0.122E+03   0.374E+02 -.122E+02 -.122E+03   -.275E+00 0.339E+00 0.174E+01   -.836E-05 -.819E-06 -.332E-05
   -.204E+02 -.956E+01 0.766E+02   0.197E+02 0.102E+02 -.768E+02   -.490E+00 0.139E+00 -.419E+00   0.894E-06 0.823E-06 -.655E-06
   -.301E+02 -.279E+01 0.711E+02   0.306E+02 0.264E+01 -.709E+02   -.328E+00 0.870E-01 0.178E+00   0.261E-05 0.964E-05 -.188E-05
   -.189E+02 0.187E+02 0.318E+02   0.192E+02 -.211E+02 -.316E+02   0.301E+00 -.111E+01 -.181E+01   -.374E-06 0.506E-05 -.362E-06
   -.160E+02 0.212E+02 0.490E+02   0.156E+02 -.232E+02 -.487E+02   -.176E+00 -.128E+01 -.858E+00   0.481E-05 -.373E-06 0.124E-05
   -.410E+02 -.232E+02 0.130E+03   0.415E+02 0.254E+02 -.132E+03   -.293E+00 0.406E+00 0.352E+01   -.696E-05 -.474E-05 -.247E-05
   0.460E+00 -.984E+01 -.283E+02   -.831E+00 0.111E+02 0.282E+02   0.362E-01 0.453E+00 -.698E+00   -.316E-05 -.272E-05 0.268E-07
   -.412E+01 0.483E+01 -.676E+01   0.352E+01 -.513E+01 0.666E+01   0.518E+00 0.143E+00 -.390E+00   0.911E-07 -.102E-04 -.193E-05
   -.991E+01 0.186E+02 -.106E+02   0.102E+02 -.199E+02 0.104E+02   0.321E+00 -.763E+00 0.159E+00   -.566E-05 0.366E-05 -.172E-05
   -.551E+01 -.180E+02 -.807E+01   0.458E+01 0.189E+02 0.758E+01   -.152E+00 0.164E+00 0.182E-01   0.466E-05 -.713E-05 0.164E-06
   -.129E+02 0.359E+01 -.184E+02   0.130E+02 -.366E+01 0.182E+02   0.969E+00 0.515E+00 0.377E+00   -.336E-05 0.542E-05 -.219E-05
   -.161E+02 -.321E+01 -.413E+02   0.170E+02 0.316E+01 0.408E+02   0.144E+01 -.495E+00 0.177E+01   -.281E-05 -.792E-05 -.198E-05
   -.118E+01 0.641E+02 -.424E+02   -.310E+01 -.651E+02 0.416E+02   0.913E+00 0.129E+01 0.549E+00   0.142E-04 0.652E-05 0.104E-06
   -.261E+01 -.682E+02 -.949E+02   -.483E+00 0.692E+02 0.949E+02   0.139E+01 -.205E+01 -.127E+01   0.811E-05 -.569E-05 -.224E-05
 -----------------------------------------------------------------------------------------------
   -.216E+00 -.861E-01 -.393E+00   0.723E-13 -.952E-12 0.256E-12   0.469E-01 0.272E-01 0.408E+00   0.329E-05 -.181E-05 -.529E-04
 
 
 POSITION                                       TOTAL-FORCE (eV/Angst)
 -----------------------------------------------------------------------------------
      0.27414      0.79662     18.55830        -1.173548      1.533996      0.187702
      0.22705      2.18864     18.44750         1.585653     -0.345414     -0.339791
      1.46774      0.13227     18.45350         1.247826      0.723817     -0.442527
      1.42217      2.83313     18.23710         1.551277     -0.043522      0.170816
      2.74435      0.78829     18.25980        -0.657462      0.722455      0.088542
      2.72519      2.17185     18.19660        -0.842408     -0.277541      0.234907
      3.97415      0.12834     17.90680        -1.945852      2.175502      0.793528
      3.96167      2.83819     17.94630        -0.194876     -0.102914     -0.302622
      5.14087      0.81800     17.62160         2.125726     -2.076683     -0.186269
      5.16392      2.16112     17.61340         0.322293      1.643780      0.660925
      6.35892      0.11550     17.27140        -0.729109      1.906748     -0.329951
      6.38357      2.81858     17.26680        -0.466532      0.977325      0.104891
      7.53136      0.81355     16.92790         0.923763     -0.719035     -0.432641
      7.58135      2.18345     16.93480        -0.571949     -0.401754      0.323143
      8.67204      0.15129     16.40060        -0.610952     -0.087606      0.931255
      8.73542      2.83432     16.45690        -0.777198     -0.755355     -0.369265
      9.89404      0.80215     16.15310        -0.966941      0.008616     -0.446402
      9.87593      2.15508     16.05970         1.143135      1.738520     -0.163588
     11.04490      0.18159     15.71670        -0.922237     -0.934198     -0.581492
     11.03810      2.86345     15.56370        -1.652262      0.221470      1.982257
     12.20590      0.85788     15.51270         2.445133      0.030246      0.410783
     12.24190      2.22325     15.58210         1.457422     -0.278581     -1.182078
     13.44730      0.19476     15.37310        -0.745579     -1.510766      0.547688
     13.49350      2.87937     15.43360        -1.298770     -0.204471      0.169301
     14.65040      0.80236     15.56330         2.507180      2.444945     -0.464914
     14.68350      2.20543     15.54610         0.962291     -0.269283     -0.289857
     15.92800      0.18824     15.52900         0.207656      0.471417     -0.879672
     15.90970      2.91365     15.49470         0.987539     -3.543193      1.189655
     17.16340      0.88682     15.65270        -0.534738     -1.269630      1.421655
     17.14730      2.23050     15.74760        -1.480997      1.662277     -0.734687
     18.36740      0.21363     15.94620        -0.072732      0.819867     -0.745044
     18.32720      2.92699     15.95480         1.303120     -1.423982      1.301250
     19.55160      0.88030     16.31690        -0.604141     -1.761744      0.301611
     19.47390      2.21215     16.38790         2.224859      3.186585     -0.413256
     20.75890      0.20877     16.59840         1.225358      3.457174      1.497852
     20.73480      2.89107     16.63170         0.511013     -0.027769      0.691688
     21.93980      0.90279     17.13640        -0.503957     -3.965753     -0.129593
     21.93890      2.22396     17.14890        -2.132012      3.349521     -0.972776
     23.12520      0.19454     17.51950         0.768586      0.904587     -0.733336
     23.10460      2.93823     17.41940         2.113323     -1.658769      1.001265
     24.36980      0.88586     17.89070        -1.220177     -1.255607      0.280045
     24.34480      2.26108     17.83450        -0.631774     -0.575099     -0.536820
     25.60540      0.16747     18.12020        -0.649130      2.147885     -0.383366
     25.61520      2.86211     17.89510        -0.049311      1.287837      0.222103
     26.80160      0.85375     18.40310        -1.209266     -0.855341     -0.241131
     26.80090      2.22716     18.24540        -0.442793     -1.234236      0.638575
      0.22970      4.85113     18.01720         1.663515      1.212452     -0.672920
      0.24449      6.23098     18.01270         2.142902      0.587695      1.323338
      1.43756      4.21059     18.06030        -0.863878     -1.893014      0.178997
      1.47435      6.88362     18.22150        -2.473945     -0.521983     -0.691935
      2.65774      4.85078     17.98490         2.201209      0.080685     -0.406228
      2.64981      6.20684     17.98380         3.045708      1.365152     -0.155888
      3.96297      4.20996     17.87370        -1.982101     -0.423036     -0.218517
      3.93738      6.91285     17.77650        -0.354715     -4.138818     -0.369311
      5.12806      4.84257     17.47000         1.426197      0.833237     -0.741368
      5.14431      6.22158     17.35940        -2.731159     -0.139069      1.320115
      6.36193      4.19778     17.12310        -1.745228     -0.813981      0.161236
      6.32200      6.86999     17.06160        -0.493788      0.074102     -0.335267
      7.44526      4.84903     16.52710         0.714640     -1.724875      0.141401
      7.40014      6.19681     16.49970         1.448829      1.546093      0.147728
      8.66631      4.15758     16.18680        -1.542257      2.033245      0.735625
      8.58421      6.89670     16.19820         1.155685     -0.123812     -0.585700
      9.79614      4.86507     15.80660         1.785533      1.160939     -1.025120
      9.78733      6.26442     15.78020        -0.486166     -0.924431     -0.372605
     11.05330      4.24475     15.52240        -1.922725     -1.014466     -0.286930
     10.99370      6.94131     15.45640         0.137198     -1.421579      1.204510
     12.25360      4.88199     15.23220        -0.363731      0.943945      0.423623
     12.22520      6.26041     15.29110         1.114832      0.095427     -0.892141
     13.49330      4.23152     15.21120         0.415960      0.350240     -0.401732
     13.50040      6.91264     15.25990        -1.027958      0.533565     -0.546308
     14.72910      4.90095     15.10120         1.170432     -0.062108      0.926659
     14.76800      6.28315     15.13530        -1.260388     -0.485329     -0.265593
     15.98220      4.23237     15.37880        -1.981435      2.504584     -0.978716
     16.00440      6.95499     15.22680        -0.926034     -0.294965      0.786143
     17.18610      4.92027     15.55710         0.874134      0.173280     -0.387587
     17.21640      6.28347     15.42500         0.102484      0.384038      0.027746
     18.39950      4.28634     15.89670        -0.787271     -0.023997     -1.128992
     18.39040      6.97561     15.78190         1.465840     -2.145537      0.248018
     19.63820      4.92431     15.98770         0.708424      0.272108      1.079183
     19.63970      6.29952     16.06090        -1.140545      0.778719     -0.641718
     20.82660      4.25330     16.38840         0.224718     -0.061747      0.356662
     20.80860      6.99906     16.45270         0.634517     -3.547592     -1.569347
     22.04350      4.97101     16.70340        -0.588083     -3.279294     -0.591192
     22.06370      6.30501     16.56380         0.219774      2.590898      2.267893
     23.18270      4.26960     17.21200        -0.332526      1.696180     -0.853121
     23.19840      6.96250     17.17660        -0.088435     -0.158962     -0.489330
     24.41450      4.94013     17.41800         0.619633     -2.078349     -0.073202
     24.42910      6.28730     17.43230        -1.077624      1.033111     -0.466902
     25.62380      4.23214     17.68270         1.131851      0.452212      0.221625
     25.60090      6.94771     17.77880         2.306799     -0.543118      1.270174
     26.84640      4.89343     17.86800        -3.367479      0.293057     -0.260404
     26.82490      6.27972     17.97700        -1.699793     -1.011226     -1.262970
 -----------------------------------------------------------------------------------
    total drift:                               -0.168846     -0.058974      0.015041


--------------------------------------------------------------------------------------------------------



  FREE ENERGIE OF THE ION-ELECTRON SYSTEM (eV)
  ---------------------------------------------------
  free  energy   TOTEN  =      -829.70986486 eV

  energy  without entropy=     -829.64968131  energy(sigma->0) =     -829.67977309
 


--------------------------------------------------------------------------------------------------------


    POTLOK:  cpu time      0.4544: real time      0.4544


--------------------------------------------------------------------------------------------------------


     LOOP+:  cpu time    333.6585: real time    333.8489
    4ORBIT:  cpu time      0.0000: real time      0.0000

 total amount of memory used by VASP MPI-rank0  2294511. kBytes
=======================================================================

   base                                    :      30000. kBytes
   nonlr-proj                              :      15077. kBytes
   fftplans                                :     436558. kBytes
   grid                                    :     732614. kBytes
   one-center                              :        282. kBytes
   wavefun                                 :    1079980. kBytes
 
  
  
 General timing and accounting informations for this job:
 ========================================================
  
                  Total CPU time used (sec):      366.871
                            User time (sec):      358.477
                          System time (sec):        8.394
                         Elapsed time (sec):      367.142
  
                   Maximum memory used (kb):     3734068.
                   Average memory used (kb):          N/A
  
                          Minor page faults:      3179046
                          Major page faults:         5004
                 Voluntary context switches:        10034
