 vasp.6.5.0 16Dec24 (build Feb 19 2025 19:45:31) complex                         
 executed on              LinuxNV date 2025.10.25  11:07:50
 running    2 mpi-ranks, on    1 nodes
 distrk:  each k-point on    2 cores,    1 groups
 distr:  one band on NCORE=   1 cores,    2 groups
 Offloading initialized ...    2 GPUs detected


--------------------------------------------------------------------------------------------------------


 INCAR:
   ISTART = 0            (Not Read existing wavefunction
   ISPIN = 1            (Non-Spin polarised DFT, Default\=1)
   ICHARG = 2            (The initial guess charge density is generated by superposition of atomic charge density)
   LREAL = Auto         (Projection operators: automatic)
   ENCUT = 500          (Cut-off energy for plane wave basis set, in eV)
   LWAVE = .FALSE.       (Write WAVECAR or not)
   LCHARG = .FALSE.       (Write CHGCAR or not)
   PREC = Accurate   (Precision level)
   KGAMMA = .TRUE.
   ALGO = Normal
   NSW = 0           (Default: NSW \= 0)
   IBRION = -1           (Ions are not moved)
   ISMEAR = 0
   EDIFF = 1E-06        (SCF energy convergence
   NELM = 150          (Max electronic SCF steps)

 POTCAR:    PAW_PBE C 08Apr2002                   
 POTCAR:    PAW_PBE C 08Apr2002                   
   SHA256 =  253f7b50bb8d59471dbedb8285d89021f4a42ed1a2c5d38a03a736e69125dd95 C/POTCAR              
   COPYR  = (c) Copyright 08Apr2002 Georg Kresse                                                    
   COPYR  = This file is part of the software VASP. Any use, copying, and all other rights are regul
   COPYR  = If you do not have a valid VASP license, you may not use, copy or distribute this file. 
   VRHFIN =C: s2p2                                                                                  
   LEXCH  = PE                                                                                      
   EATOM  =   147.1560 eV,   10.8157 Ry                                                             
                                                                                                    
   TITEL  = PAW_PBE C 08Apr2002                                                                     
   LULTRA =        F    use ultrasoft PP ?                                                          
   IUNSCR =        1    unscreen: 0-lin 1-nonlin 2-no                                               
   RPACOR =    1.200    partial core radius                                                         
   POMASS =   12.011; ZVAL   =    4.000    mass and valenz                                          
   RCORE  =    1.500    outmost cutoff radius                                                       
   RWIGS  =    1.630; RWIGS  =    0.863    wigner-seitz radius (au A)                               
   ENMAX  =  400.000; ENMIN  =  300.000 eV                                                          
   ICORE  =        2    local potential                                                             
   LCOR   =        T    correct aug charges                                                         
   LPAW   =        T    paw PP                                                                      
   EAUG   =  644.873                                                                                
   DEXC   =    0.000                                                                                
   RMAX   =    1.529    core radius for proj-oper                                                   
   RAUG   =    1.300    factor for augmentation sphere                                              
   RDEP   =    1.501    radius for radial grids                                                     
   RDEPT  =    1.300    core radius for aug-charge                                                  
                                                                                                    
   Atomic configuration                                                                             
    4 entries                                                                                       
     n  l   j            E        occ.                                                              
     1  0  0.50      -273.3789   2.0000                                                             
     2  0  0.50       -13.7508   2.0000                                                             
     2  1  0.50        -5.2854   2.0000                                                             
     3  2  1.50        -5.4423   0.0000                                                             
   Description                                                                                      
     l       E           TYP  RCUT    TYP  RCUT                                                     
     0    -13.7508458     23  1.200                                                                 
     0     -8.2022199     23  1.200                                                                 
     1     -5.2854383     23  1.500                                                                 
     1     34.0145650     23  1.500                                                                 
     2     -5.4423304      7  1.500                                                                 
  local pseudopotential read in
  partial core-charges read in
  partial kinetic energy density read in
  atomic valenz-charges read in
  non local Contribution for L=            0  read in
    real space projection operators read in
  non local Contribution for L=            0  read in
    real space projection operators read in
  non local Contribution for L=            1  read in
    real space projection operators read in
  non local Contribution for L=            1  read in
    real space projection operators read in
    PAW grid and wavefunctions read in
 
   number of l-projection  operators is LMAX  =            4
   number of lm-projection operators is LMMAX =            8
 
 Optimization of the real space projectors (new method)

 maximal supplied QI-value         = 25.13
 optimisation between [QCUT,QGAM] = [ 11.31, 22.87] = [ 35.82,146.48] Ry 
 Optimized for a Real-space Cutoff    1.03 Angstroem

   l    n(q)    QCUT    max X(q) W(low)/X(q) W(high)/X(q)  e(spline) 
   0      7    11.310   115.676    0.20E-03    0.90E-03    0.20E-06
   0      7    11.310    87.132    0.20E-03    0.89E-03    0.19E-06
   1      6    11.310     4.429    0.16E-03    0.28E-03    0.12E-06
   1      6    11.310     2.733    0.12E-03    0.21E-03    0.99E-07
  PAW_PBE C 08Apr2002                   :
 energy of atom  1       EATOM= -147.1560
 kinetic energy error for atom=    0.0076 (will be added to EATOM!!)
 
 
 POSCAR:  C
  positions in cartesian coordinates
  No initial velocities read in


 exchange-correlation table for PE
   RHO(1)=    0.500       N(1)  =     2000
   RHO(2)=  100.500       N(2)  =     4000
 


--------------------------------------------------------------------------------------------------------


 ion  position               nearest neighbor table
   1  0.013  0.115  0.519-   2 1.39   3 1.42  45 1.50  46 1.91
   2  0.014  0.287  0.517-   4 1.35   1 1.39  46 1.47
   3  0.051  0.023  0.501-  50 1.37   5 1.40   1 1.42
   4  0.047  0.357  0.493-   2 1.35  49 1.37   6 1.41
   5  0.093  0.106  0.492-   7 1.40   3 1.40   6 1.40
   6  0.091  0.279  0.489-   5 1.40   4 1.41   8 1.41
   7  0.134  0.030  0.477-   5 1.40   9 1.41  54 1.41
   8  0.131  0.349  0.468-  10 1.40  53 1.41   6 1.41
   9  0.177  0.114  0.472-  10 1.35   7 1.41  11 1.43
  10  0.176  0.279  0.467-   9 1.35  12 1.39   8 1.40
  11  0.221  0.027  0.465-  58 1.35  13 1.43   9 1.43
  12  0.218  0.360  0.456-  57 1.37  10 1.39  14 1.40
  13  0.265  0.113  0.462-  14 1.40  15 1.41  11 1.43
  14  0.263  0.284  0.456-  16 1.36  12 1.40  13 1.40
  15  0.307  0.018  0.468-  62 1.39  13 1.41  17 1.42
  16  0.308  0.349  0.457-  14 1.36  61 1.40  18 1.44
  17  0.352  0.099  0.470-  18 1.40  15 1.42  19 1.43
  18  0.352  0.272  0.469-  17 1.40  20 1.42  16 1.44
  19  0.397  0.018  0.472-  21 1.38  66 1.39  17 1.43
  20  0.398  0.347  0.471-  65 1.39  22 1.40  18 1.42
  21  0.439  0.095  0.483-  19 1.38  23 1.39  22 1.43
  22  0.440  0.272  0.483-  24 1.34  20 1.40  21 1.43
  23  0.483  0.018  0.489-  70 1.37  21 1.39  25 1.47
  24  0.481  0.348  0.491-  22 1.34  26 1.40  69 1.42
  25  0.526  0.100  0.502-  26 1.41  27 1.42  23 1.47
  26  0.524  0.273  0.503-  24 1.40  25 1.41  28 1.44
  27  0.570  0.017  0.510-  74 1.34  25 1.42  29 1.43
  28  0.569  0.351  0.514-  73 1.37  30 1.44  26 1.44
  29  0.612  0.101  0.523-  31 1.35  30 1.39  27 1.43
  30  0.610  0.271  0.529-  29 1.39  32 1.40  28 1.44
  31  0.654  0.024  0.529-  29 1.35  78 1.39  33 1.42
  32  0.653  0.356  0.534-  77 1.36  30 1.40  34 1.45
  33  0.696  0.110  0.541-  34 1.33  31 1.42  35 1.43
  34  0.697  0.273  0.546-  33 1.33  32 1.45  36 1.46
  35  0.740  0.025  0.543-  82 1.34  37 1.42  33 1.43
  36  0.742  0.358  0.551-  81 1.37  38 1.44  34 1.46
  37  0.785  0.104  0.549-  38 1.35  35 1.42  39 1.44
  38  0.787  0.270  0.551-  37 1.35  40 1.42  36 1.44
  39  0.831  0.021  0.547-  86 1.33  37 1.44  41 1.46
  40  0.831  0.354  0.547-  85 1.36  38 1.42  42 1.45
  41  0.877  0.103  0.547-  42 1.33  43 1.45  39 1.46
  42  0.877  0.268  0.545-  41 1.33  40 1.45  44 1.47
  43  0.920  0.019  0.534-  90 1.33  45 1.37  41 1.45
  44  0.921  0.352  0.535-  89 1.34  46 1.38  42 1.47
  45  0.963  0.100  0.532-  43 1.37  46 1.38   1 1.50
  46  0.964  0.270  0.531-  44 1.38  45 1.38   2 1.47   1 1.91
  47  0.002  0.604  0.493-  48 1.39  49 1.41  91 1.41  92 2.01
  48  0.006  0.773  0.500-  50 1.38  47 1.39  92 1.40  91 1.97
  49  0.044  0.519  0.482-   4 1.37  51 1.39  47 1.41
  50  0.048  0.856  0.494-   3 1.37  48 1.38  52 1.39
  51  0.084  0.603  0.469-  49 1.39  53 1.43  52 1.43
  52  0.087  0.776  0.477-  54 1.38  50 1.39  51 1.43
  53  0.127  0.519  0.459-   8 1.41  51 1.43  55 1.47
  54  0.129  0.858  0.471-  52 1.38   7 1.41  56 1.46
  55  0.172  0.608  0.455-  56 1.36  57 1.41  53 1.47
  56  0.173  0.776  0.458-  55 1.36  58 1.43  54 1.46
  57  0.217  0.527  0.450-  12 1.37  55 1.41  59 1.42
  58  0.218  0.862  0.459-  11 1.35  56 1.43  60 1.44
  59  0.262  0.603  0.451-  60 1.42  57 1.42  61 1.43
  60  0.262  0.776  0.456-  62 1.40  59 1.42  58 1.44
  61  0.307  0.520  0.452-  16 1.40  59 1.43  63 1.45
  62  0.307  0.847  0.464-  15 1.39  60 1.40  64 1.42
  63  0.353  0.600  0.457-  64 1.38  61 1.45  65 1.47
  64  0.351  0.771  0.458-  63 1.38  62 1.42  66 1.48
  65  0.398  0.518  0.467-  20 1.39  67 1.45  63 1.47
  66  0.398  0.850  0.464-  19 1.39  68 1.42  64 1.48
  67  0.444  0.602  0.470-  68 1.34  69 1.42  65 1.45
  68  0.442  0.767  0.469-  67 1.34  66 1.42  70 1.46
  69  0.486  0.518  0.482-  67 1.42  24 1.42  71 1.42
  70  0.486  0.853  0.479-  23 1.37  72 1.41  68 1.46
  71  0.529  0.600  0.492-  72 1.38  69 1.42  73 1.44
  72  0.529  0.770  0.489-  71 1.38  70 1.41  74 1.46
  73  0.570  0.518  0.507-  28 1.37  75 1.39  71 1.44
  74  0.572  0.855  0.502-  27 1.34  76 1.39  72 1.46
  75  0.613  0.600  0.514-  73 1.39  77 1.39  76 1.40
  76  0.614  0.772  0.512-  74 1.39  75 1.40  78 1.41
  77  0.654  0.522  0.527-  32 1.36  75 1.39  79 1.41
  78  0.656  0.854  0.524-  80 1.37  31 1.39  76 1.41
  79  0.698  0.603  0.535-  80 1.36  77 1.41  81 1.47
  80  0.697  0.770  0.533-  79 1.36  78 1.37  82 1.42
  81  0.744  0.522  0.543-  36 1.37  83 1.47  79 1.47
  82  0.740  0.859  0.540-  35 1.34  80 1.42  84 1.47
  83  0.789  0.611  0.540-  84 1.34  85 1.46  81 1.47
  84  0.786  0.776  0.540-  83 1.34  86 1.40  82 1.47
  85  0.834  0.520  0.540-  87 1.35  40 1.36  83 1.46
  86  0.830  0.859  0.540-  39 1.33  84 1.40  88 1.49
  87  0.876  0.597  0.536-  85 1.35  88 1.39  89 1.42
  88  0.876  0.769  0.536-  87 1.39  90 1.43  86 1.49
  89  0.920  0.515  0.528-  44 1.34  91 1.38  87 1.42
  90  0.920  0.857  0.529-  43 1.33  92 1.34  88 1.43
  91  0.958  0.604  0.514-  89 1.38  47 1.41  92 1.44  48 1.97
  92  0.960  0.780  0.516-  90 1.34  48 1.40  91 1.44  47 2.01
 
  LATTYP: Found a simple orthorhombic cell.
 ALAT       =     8.1000000000
 B/A-ratio  =     3.4629629630
 C/A-ratio  =     4.1358024691
  
  Lattice vectors:
  
 A1 = (   0.0000000000,  -8.1000000000,   0.0000000000)
 A2 = (  28.0500000000,   0.0000000000,   0.0000000000)
 A3 = (   0.0000000000,   0.0000000000,  33.5000000000)


Analysis of symmetry for initial positions (statically):
=====================================================================
 Subroutine PRICEL returns:
 Original cell was already a primitive cell.
 

 Routine SETGRP: Setting up the symmetry group for a 
 simple orthorhombic supercell.


 Subroutine GETGRP returns: Found  1 space group operations
 (whereof  1 operations were pure point group operations)
 out of a pool of  8 trial point group operations.


The static configuration has the point symmetry C_1 .


Analysis of symmetry for dynamics (positions and initial velocities):
=====================================================================
 Subroutine PRICEL returns:
 Original cell was already a primitive cell.
 

 Routine SETGRP: Setting up the symmetry group for a 
 simple orthorhombic supercell.


 Subroutine GETGRP returns: Found  1 space group operations
 (whereof  1 operations were pure point group operations)
 out of a pool of  8 trial point group operations.


The dynamic configuration has the point symmetry C_1 .


 Subroutine INISYM returns: Found  1 space group operations
 (whereof  1 operations are pure point group operations),
 and found     1 'primitive' translations


----------------------------------------------------------------------------------------

                                     Primitive cell                                     

  volume of cell :    7611.3675

  direct lattice vectors                    reciprocal lattice vectors
    28.050000000  0.000000000  0.000000000     0.035650624  0.000000000  0.000000000
     0.000000000  8.100000000  0.000000000     0.000000000  0.123456790  0.000000000
     0.000000000  0.000000000 33.500000000     0.000000000  0.000000000  0.029850746

  length of vectors
    28.050000000  8.100000000 33.500000000     0.035650624  0.123456790  0.029850746

  position of ions in fractional coordinates (direct lattice)
     0.013315365  0.115146420  0.518611940
     0.013519572  0.287023457  0.516898507
     0.050544029  0.022553457  0.500731343
     0.046879144  0.356651852  0.493217910
     0.092980749  0.106102099  0.492268657
     0.091471658  0.278601235  0.488626866
     0.134003922  0.029652593  0.477447761
     0.130582888  0.349201235  0.468128358
     0.177349020  0.114303210  0.471877612
     0.176281996  0.279381481  0.466841791
     0.220937611  0.026746543  0.464644776
     0.218354724  0.360044444  0.456265672
     0.265150089  0.112779012  0.461713433
     0.263210695  0.284223457  0.455650746
     0.306737255  0.018181481  0.467964179
     0.307968271  0.348792593  0.457116418
     0.351665241  0.099494198  0.469800000
     0.351962923  0.272287654  0.469185075
     0.396716578  0.018374321  0.472047761
     0.397529412  0.346696296  0.471441791
     0.438680927  0.095287037  0.482820896
     0.440106952  0.271737037  0.483477612
     0.482549020  0.017832469  0.488552239
     0.481468806  0.347697531  0.491089552
     0.526114082  0.099761605  0.502361194
     0.524310160  0.273359259  0.503035821
     0.569903743  0.017094568  0.509588060
     0.568513369  0.350891358  0.513794030
     0.611721925  0.101097778  0.523041791
     0.610499109  0.271117284  0.528868657
     0.653921569  0.024456667  0.529211940
     0.653286988  0.356291358  0.534402985
     0.695668449  0.110315185  0.540850746
     0.696666667  0.273402469  0.546373134
     0.740360071  0.024870864  0.543450746
     0.742253119  0.357756790  0.551405970
     0.785058824  0.103622346  0.548791045
     0.787108734  0.270432099  0.550534328
     0.830609626  0.021057654  0.546895522
     0.831365419  0.354265432  0.546528358
     0.876791444  0.103336914  0.546925373
     0.876509804  0.267725926  0.544665672
     0.919957219  0.019169506  0.534238806
     0.921429590  0.352111111  0.534656716
     0.962723708  0.100107407  0.532402985
     0.964270945  0.270400000  0.531220896
     0.002107433  0.604169136  0.493143284
     0.005813904  0.773000000  0.500274627
     0.043530481  0.518790123  0.481504478
     0.048119430  0.856118519  0.493752239
     0.083740820  0.602937037  0.468597015
     0.086800357  0.776066667  0.476761194
     0.127040285  0.518644444  0.459274627
     0.129118360  0.858186420  0.470555224
     0.172427094  0.607875309  0.454573134
     0.173129055  0.775559259  0.458337313
     0.216749376  0.527183951  0.449865672
     0.217571123  0.861995062  0.458543284
     0.262414260  0.602687654  0.451080597
     0.262432799  0.776153086  0.456092537
     0.307395009  0.520422222  0.451522388
     0.306714795  0.847438272  0.464005970
     0.353070588  0.600214815  0.456907463
     0.351499109  0.770854321  0.457907463
     0.398174688  0.517779012  0.466728358
     0.398377897  0.850243210  0.463802985
     0.443657754  0.602412346  0.470310448
     0.442488414  0.767287654  0.468725373
     0.485643494  0.517601235  0.481641791
     0.486431373  0.852876543  0.479483582
     0.528666667  0.600264198  0.491558209
     0.528805704  0.770161728  0.489498507
     0.569989305  0.517598765  0.507343284
     0.572281640  0.854593827  0.501797015
     0.612631016  0.599650617  0.514447761
     0.614110517  0.771893827  0.512029851
     0.654089127  0.521639506  0.527456716
     0.656188948  0.854230864  0.523782090
     0.697508021  0.602956790  0.534946269
     0.697126560  0.770308642  0.532805970
     0.743704100  0.522370370  0.542528358
     0.739746881  0.859418519  0.540447761
     0.789044563  0.611496296  0.539880597
     0.786452763  0.776437037  0.540050746
     0.833679144  0.519751852  0.539808955
     0.830427807  0.858980247  0.540241791
     0.875903743  0.596948148  0.535979104
     0.876345811  0.769151852  0.535835821
     0.919657754  0.514633333  0.527740299
     0.919982175  0.856638272  0.528671642
     0.958221034  0.603508642  0.513889552
     0.959657754  0.780427160  0.516208955

  ion indices of the primitive-cell ions
   primitive index   ion index
                 1           1
                 2           2
                 3           3
                 4           4
                 5           5
                 6           6
                 7           7
                 8           8
                 9           9
                10          10
                11          11
                12          12
                13          13
                14          14
                15          15
                16          16
                17          17
                18          18
                19          19
                20          20
                21          21
                22          22
                23          23
                24          24
                25          25
                26          26
                27          27
                28          28
                29          29
                30          30
                31          31
                32          32
                33          33
                34          34
                35          35
                36          36
                37          37
                38          38
                39          39
                40          40
                41          41
                42          42
                43          43
                44          44
                45          45
                46          46
                47          47
                48          48
                49          49
                50          50
                51          51
                52          52
                53          53
                54          54
                55          55
                56          56
                57          57
                58          58
                59          59
                60          60
                61          61
                62          62
                63          63
                64          64
                65          65
                66          66
                67          67
                68          68
                69          69
                70          70
                71          71
                72          72
                73          73
                74          74
                75          75
                76          76
                77          77
                78          78
                79          79
                80          80
                81          81
                82          82
                83          83
                84          84
                85          85
                86          86
                87          87
                88          88
                89          89
                90          90
                91          91
                92          92

----------------------------------------------------------------------------------------

 
 
 KPOINTS: K-Spacing Value to Generate K-Mesh: 0.03

Automatic generation of k-mesh.
 Grid dimensions read from file:
 generate k-points for:    1    4    1

 Generating k-lattice:

  Cartesian coordinates                     Fractional coordinates (reciprocal lattice)
     0.035650624  0.000000000  0.000000000     1.000000000  0.000000000  0.000000000
     0.000000000  0.030864198  0.000000000     0.000000000  0.250000000  0.000000000
     0.000000000  0.000000000  0.029850746     0.000000000  0.000000000  1.000000000

  Length of vectors
     0.035650624  0.030864198  0.029850746

  Shift w.r.t. Gamma in fractional coordinates (k-lattice)
     0.000000000  0.000000000  0.000000000

 
 Subroutine IBZKPT returns following result:
 ===========================================
 
 Found      3 irreducible k-points:
 
 Following reciprocal coordinates:
            Coordinates               Weight
  0.000000  0.000000  0.000000      1.000000
  0.000000  0.250000  0.000000      2.000000
  0.000000  0.500000  0.000000      1.000000
 
 Following cartesian coordinates:
            Coordinates               Weight
  0.000000  0.000000  0.000000      1.000000
  0.000000  0.030864  0.000000      2.000000
  0.000000  0.061728  0.000000      1.000000
 


--------------------------------------------------------------------------------------------------------




 Dimension of arrays:
   k-points           NKPTS =      3   k-points in BZ     NKDIM =      3   number of bands    NBANDS=    232
   number of dos      NEDOS =    301   number of ions     NIONS =     92
   non local maximal  LDIM  =      4   non local SUM 2l+1 LMDIM =      8
   total plane-waves  NPLWV = ******
   max r-space proj   IRMAX =   1967   max aug-charges    IRDMAX=   5083
   dimension x,y,z NGX =   210 NGY =   60 NGZ =  250
   dimension x,y,z NGXF=   420 NGYF=  120 NGZF=  500
   support grid    NGXF=   420 NGYF=  120 NGZF=  500
   ions per type =              92
   NGX,Y,Z   is equivalent  to a cutoff of  12.45, 12.31, 12.41 a.u.
   NGXF,Y,Z  is equivalent  to a cutoff of  24.89, 24.63, 24.81 a.u.

 SYSTEM =  unknown system                          
 POSCAR =   C                                      

 Startparameter for this run:
   NWRITE =      2    write-flag & timer
   PREC   = accura    normal or accurate (medium, high low for compatibility)
   ISTART =      0    job   : 0-new  1-cont  2-samecut
   ICHARG =      2    charge: 1-file 2-atom 10-const
   ISPIN  =      1    spin polarized calculation?
   LNONCOLLINEAR =      F non collinear calculations
   LSORBIT =      F    spin-orbit coupling
   INIWAV =      1    electr: 0-lowe 1-rand  2-diag
   LASPH  =      F    aspherical Exc in radial PAW
 Electronic Relaxation 1
   ENCUT  =  500.0 eV  36.75 Ry    6.06 a.u.  51.14 14.77 61.08*2*pi/ulx,y,z
   ENINI  =  500.0     initial cutoff
   ENAUG  =  644.9 eV  augmentation charge cutoff
   NELM   =    150;   NELMIN=  2; NELMDL= -5     # of ELM steps 
   EDIFF  = 0.1E-05   stopping-criterion for ELM
   LREAL  =      T    real-space projection
   NLSPLINE    = F    spline interpolate recip. space projectors
   LCOMPAT=      F    compatible to vasp.4.4
   GGA_COMPAT  = T    GGA compatible to vasp.4.4-vasp.4.6
   LMAXPAW     = -100 max onsite density
   LMAXMIX     =    2 max onsite mixed and CHGCAR
   VOSKOWN=      0    Vosko Wilk Nusair interpolation
   ROPT   =   -0.00025
 Ionic relaxation
   EDIFFG = 0.1E-04   stopping-criterion for IOM
   NSW    =      0    number of steps for IOM
   NBLOCK =      1;   KBLOCK =      1    inner block; outer block 
   IBRION =     -1    ionic relax: 0-MD 1-quasi-New 2-CG
   NFREE  =      0    steps in history (QN), initial steepest desc. (CG)
   ISIF   =      2    stress and relaxation
   IWAVPR =     10    prediction:  0-non 1-charg 2-wave 3-comb
   ISYM   =      2    0-nonsym 1-usesym 2-fastsym
   LCORR  =      T    Harris-Foulkes like correction to forces

   POTIM  = 0.5000    time-step for ionic-motion
   TEIN   =    0.0    initial temperature
   TEBEG  =    0.0;   TEEND  =   0.0 temperature during run
   SMASS  =  -3.00    Nose mass-parameter (am)
   estimated Nose-frequenzy (Omega)   =  0.10E-29 period in steps = 0.13E+47 mass=  -0.180E-25a.u.
   SCALEE = 1.0000    scale energy and forces
   NPACO  =    256;   APACO  = 10.0  distance and # of slots for P.C.
   PSTRESS=    0.0 pullay stress

  Mass of Ions in am
   POMASS =  12.01
  Ionic Valenz
   ZVAL   =   4.00
  Atomic Wigner-Seitz radii
   RWIGS  =  -1.00
  virtual crystal weights 
   VCA    =   1.00
   NELECT =     368.0000    total number of electrons
   NUPDOWN=      -1.0000    fix difference up-down

 DOS related values:
   EMIN   =  10.00;   EMAX   =-10.00  energy-range for DOS
   EFERMI =   0.00;   METHOD = LEGACY      
   ISMEAR =     0;   SIGMA  =   0.20  broadening in eV -4-tet -1-fermi 0-gaus
   EFERMI_NEDOS =   21; number of points for ismear=-14 and -15

 Electronic relaxation 2 (details)
   IALGO  =     38    algorithm
   LDIAG  =      T    sub-space diagonalisation (order eigenvalues)
   LSUBROT=      F    optimize rotation matrix (better conditioning)
   TURBO    =      0    0=normal 1=particle mesh
   IRESTART =      0    0=no restart 2=restart with 2 vectors
   NREBOOT  =      0    no. of reboots
   NMIN     =      0    reboot dimension
   EREF     =   0.00    reference energy to select bands
   IMIX   =      4    mixing-type and parameters
     AMIX     =   0.40;   BMIX     =  1.00
     AMIX_MAG =   1.60;   BMIX_MAG =  1.00
     AMIN     =   0.10
     WC   =   100.;   INIMIX=   1;  MIXPRE=   1;  MAXMIX= -45

 Intra band minimization:
   WEIMIN = 0.0000     energy-eigenvalue tresh-hold
   EBREAK =  0.11E-08  absolut break condition
   DEPER  =   0.30     relativ break condition  

   TIME   =   0.40     timestep for ELM

  volume/ion in A,a.u.               =      82.73       558.30
  Fermi-wavevector in a.u.,A,eV,Ry     =   0.596398  1.127030  4.839472  0.355691
  Thomas-Fermi vector in A             =   1.646729
 
 Write flags
   LWAVE        =      F    write WAVECAR
   LDOWNSAMPLE  =      F    k-point downsampling of WAVECAR
   LCHARG       =      F    write CHGCAR
   LVTOT        =      F    write LOCPOT, total local potential
   LVHAR        =      F    write LOCPOT, Hartree potential only
   WRT_POTENTIAL= false  ! write potential to hdf5 file
   LELF         =      F    write electronic localiz. function (ELF)
   LORBIT       =      0    0 simple, 1 ext, 2 COOP (PROOUT), +10 PAW based schemes


 Python interface
   PLUGINS active      =      F    recompile with -DPLUGINS to activate
 
 Dipole corrections
   LMONO      =      F    monopole corrections only (constant potential shift)
   LDIPOL     =      F    correct potential (dipole corrections)
   IDIPOL     =      0    1-x, 2-y, 3-z, 4-all directions 
   EPSILON    =  1.0000000 bulk dielectric constant
   LVACPOTAV  =      F  vacuum potentials using an averaging scheme for the charge density
   VACPOTFLAT =  0.1000000 required flatness to determine vacuum potential
 
Coulomb truncation method
  LTRUNCATE          =      F  Coulomb kernel truncation to be used
  IDIMENSIONALITY    =      3  Dimensionality of cutoff (0 molecules / 2 surfaces)
  ISURFACE           =     -1  Direction of surface normal
  LCOARSEN           =      F  Coarsen the charge grid before padding, preferred

 
 Exchange correlation treatment:
   GGA     = PE    functional components
   XC_C    = 1    coefficients multiplying the functional components
   LIBXC   =     F    Libxc                    
   VOSKOWN =     0    Vosko Wilk Nusair interpolation
   LHFCALC =     F    Hartree Fock is set to
   LHFONE  =     F    Hartree Fock one center treatment
   AEXX    =    0.0000 exact exchange contribution

 Parameters of functionals:
   PE:
     No parameter
 
 Van der Waals corrections
   IVDW    =     0    specifies the selected vdW correction

 Linear response parameters
   LEPSILON=     F    determine dielectric tensor
   LRPA    =     F    only Hartree local field effects (RPA)
   LNABLA  =     F    use nabla operator in PAW spheres
   LVEL    =     F    velocity operator in full k-point grid
   CSHIFT  =0.1000    complex shift for real part using Kramers Kronig
   OMEGAMAX=  -1.0    maximum frequency
   DEG_THRESHOLD= 0.2000000E-02 threshold for treating states as degnerate
   RTIME   =   -0.100 relaxation time in fs
  (WPLASMAI=    0.000 imaginary part of plasma frequency in eV, 0.658/RTIME)
   DFIELD  = 0.0000000 0.0000000 0.0000000 field for delta impulse in time
 
  Optional k-point grid parameters
   LKPOINTS_OPT  =     F    use optional k-point grid
   KPOINTS_OPT_MODE=     1    mode for optional k-point grid
 
 Orbital magnetization related:
   ORBITALMAG=     F  switch on orbital magnetization
   LCHIMAG   =     F  perturbation theory with respect to B field
   DQ        =  0.001000  dq finite difference perturbation B field
   LLRAUG    =     F  two centre corrections for induced B field
   LBONE     =     F  B-component reconstruction in AE one-centre
   LVGVCALC  =     T  calculate vGv susceptibility
   LVGVAPPL  =     F  apply vGv susceptibility instead of pGv for G=0

 Random number generation:
   RANDOM_GENERATOR = DEFAULT
   PCG_SEED         = not used


--------------------------------------------------------------------------------------------------------


 Static calculation
 charge density and potential will be updated during run
 non-spin polarized calculation
 Variant of blocked Davidson
 Davidson routine will perform the subspace rotation
 perform sub-space diagonalisation
    after iterative eigenvector-optimisation
 modified Broyden-mixing scheme, WC =      100.0
 initial mixing is a Kerker type mixing with AMIX =  0.4000 and BMIX =      1.0000
 Hartree-type preconditioning will be used
 using additional bands            48
 real space projection scheme for non local part
 use partial core corrections
 calculate Harris-corrections to forces 
   (improved forces if not selfconsistent)
 use gradient corrections 
 use of overlap-Matrix (Vanderbilt PP)
 Gauss-broadening in eV      SIGMA  =   0.20


--------------------------------------------------------------------------------------------------------


  energy-cutoff  :      500.00
  volume of cell :     7611.37
      direct lattice vectors                 reciprocal lattice vectors
    28.050000000  0.000000000  0.000000000     0.035650624  0.000000000  0.000000000
     0.000000000  8.100000000  0.000000000     0.000000000  0.123456790  0.000000000
     0.000000000  0.000000000 33.500000000     0.000000000  0.000000000  0.029850746

  length of vectors
    28.050000000  8.100000000 33.500000000     0.035650624  0.123456790  0.029850746


 
 k-points in units of 2pi/SCALE and weight: K-Spacing Value to Generate K-Mesh: 0.03
   0.00000000  0.00000000  0.00000000       0.250
   0.00000000  0.03086420  0.00000000       0.500
   0.00000000  0.06172840  0.00000000       0.250
 
 k-points in reciprocal lattice and weights: K-Spacing Value to Generate K-Mesh: 0.03
   0.00000000  0.00000000  0.00000000       0.250
   0.00000000  0.25000000  0.00000000       0.500
   0.00000000  0.50000000  0.00000000       0.250
 
 position of ions in fractional coordinates (direct lattice) 
   0.01331537  0.11514642  0.51861194
   0.01351957  0.28702346  0.51689851
   0.05054403  0.02255346  0.50073134
   0.04687914  0.35665185  0.49321791
   0.09298075  0.10610210  0.49226866
   0.09147166  0.27860123  0.48862687
   0.13400392  0.02965259  0.47744776
   0.13058289  0.34920123  0.46812836
   0.17734902  0.11430321  0.47187761
   0.17628200  0.27938148  0.46684179
   0.22093761  0.02674654  0.46464478
   0.21835472  0.36004444  0.45626567
   0.26515009  0.11277901  0.46171343
   0.26321070  0.28422346  0.45565075
   0.30673725  0.01818148  0.46796418
   0.30796827  0.34879259  0.45711642
   0.35166524  0.09949420  0.46980000
   0.35196292  0.27228765  0.46918507
   0.39671658  0.01837432  0.47204776
   0.39752941  0.34669630  0.47144179
   0.43868093  0.09528704  0.48282090
   0.44010695  0.27173704  0.48347761
   0.48254902  0.01783247  0.48855224
   0.48146881  0.34769753  0.49108955
   0.52611408  0.09976160  0.50236119
   0.52431016  0.27335926  0.50303582
   0.56990374  0.01709457  0.50958806
   0.56851337  0.35089136  0.51379403
   0.61172193  0.10109778  0.52304179
   0.61049911  0.27111728  0.52886866
   0.65392157  0.02445667  0.52921194
   0.65328699  0.35629136  0.53440299
   0.69566845  0.11031519  0.54085075
   0.69666667  0.27340247  0.54637313
   0.74036007  0.02487086  0.54345075
   0.74225312  0.35775679  0.55140597
   0.78505882  0.10362235  0.54879104
   0.78710873  0.27043210  0.55053433
   0.83060963  0.02105765  0.54689552
   0.83136542  0.35426543  0.54652836
   0.87679144  0.10333691  0.54692537
   0.87650980  0.26772593  0.54466567
   0.91995722  0.01916951  0.53423881
   0.92142959  0.35211111  0.53465672
   0.96272371  0.10010741  0.53240299
   0.96427094  0.27040000  0.53122090
   0.00210743  0.60416914  0.49314328
   0.00581390  0.77300000  0.50027463
   0.04353048  0.51879012  0.48150448
   0.04811943  0.85611852  0.49375224
   0.08374082  0.60293704  0.46859701
   0.08680036  0.77606667  0.47676119
   0.12704029  0.51864444  0.45927463
   0.12911836  0.85818642  0.47055522
   0.17242709  0.60787531  0.45457313
   0.17312906  0.77555926  0.45833731
   0.21674938  0.52718395  0.44986567
   0.21757112  0.86199506  0.45854328
   0.26241426  0.60268765  0.45108060
   0.26243280  0.77615309  0.45609254
   0.30739501  0.52042222  0.45152239
   0.30671480  0.84743827  0.46400597
   0.35307059  0.60021481  0.45690746
   0.35149911  0.77085432  0.45790746
   0.39817469  0.51777901  0.46672836
   0.39837790  0.85024321  0.46380299
   0.44365775  0.60241235  0.47031045
   0.44248841  0.76728765  0.46872537
   0.48564349  0.51760123  0.48164179
   0.48643137  0.85287654  0.47948358
   0.52866667  0.60026420  0.49155821
   0.52880570  0.77016173  0.48949851
   0.56998930  0.51759877  0.50734328
   0.57228164  0.85459383  0.50179701
   0.61263102  0.59965062  0.51444776
   0.61411052  0.77189383  0.51202985
   0.65408913  0.52163951  0.52745672
   0.65618895  0.85423086  0.52378209
   0.69750802  0.60295679  0.53494627
   0.69712656  0.77030864  0.53280597
   0.74370410  0.52237037  0.54252836
   0.73974688  0.85941852  0.54044776
   0.78904456  0.61149630  0.53988060
   0.78645276  0.77643704  0.54005075
   0.83367914  0.51975185  0.53980896
   0.83042781  0.85898025  0.54024179
   0.87590374  0.59694815  0.53597910
   0.87634581  0.76915185  0.53583582
   0.91965775  0.51463333  0.52774030
   0.91998217  0.85663827  0.52867164
   0.95822103  0.60350864  0.51388955
   0.95965775  0.78042716  0.51620896
 
 position of ions in cartesian coordinates  (Angst):
   0.37349600  0.93268600 17.37350000
   0.37922400  2.32489000 17.31610000
   1.41776000  0.18268300 16.77450000
   1.31496000  2.88888000 16.52280000
   2.60811000  0.85942700 16.49100000
   2.56578000  2.25667000 16.36900000
   3.75881000  0.24018600 15.99450000
   3.66285000  2.82853000 15.68230000
   4.97464000  0.92585600 15.80790000
   4.94471000  2.26299000 15.63920000
   6.19730000  0.21664700 15.56560000
   6.12485000  2.91636000 15.28490000
   7.43746000  0.91351000 15.46740000
   7.38306000  2.30221000 15.26430000
   8.60398000  0.14727000 15.67680000
   8.63851000  2.82522000 15.31340000
   9.86421000  0.80590300 15.73830000
   9.87256000  2.20553000 15.71770000
  11.12790000  0.14883200 15.81360000
  11.15070000  2.80824000 15.79330000
  12.30500000  0.77182500 16.17450000
  12.34500000  2.20107000 16.19650000
  13.53550000  0.14444300 16.36650000
  13.50520000  2.81635000 16.45150000
  14.75750000  0.80806900 16.82910000
  14.70690000  2.21421000 16.85170000
  15.98580000  0.13846600 17.07120000
  15.94680000  2.84222000 17.21210000
  17.15880000  0.81889200 17.52190000
  17.12450000  2.19605000 17.71710000
  18.34250000  0.19809900 17.72860000
  18.32470000  2.88596000 17.90250000
  19.51350000  0.89355300 18.11850000
  19.54150000  2.21456000 18.30350000
  20.76710000  0.20145400 18.20560000
  20.82020000  2.89783000 18.47210000
  22.02090000  0.83934100 18.38450000
  22.07840000  2.19050000 18.44290000
  23.29860000  0.17056700 18.32100000
  23.31980000  2.86955000 18.30870000
  24.59400000  0.83702900 18.32200000
  24.58610000  2.16858000 18.24630000
  25.80480000  0.15527300 17.89700000
  25.84610000  2.85210000 17.91100000
  27.00440000  0.81087000 17.83550000
  27.04780000  2.19024000 17.79590000
   0.05911350  4.89377000 16.52030000
   0.16308000  6.26130000 16.75920000
   1.22103000  4.20220000 16.13040000
   1.34975000  6.93456000 16.54070000
   2.34893000  4.88379000 15.69800000
   2.43475000  6.28614000 15.97150000
   3.56348000  4.20102000 15.38570000
   3.62177000  6.95131000 15.76360000
   4.83658000  4.92379000 15.22820000
   4.85627000  6.28203000 15.35430000
   6.07982000  4.27019000 15.07050000
   6.10287000  6.98216000 15.36120000
   7.36072000  4.88177000 15.11120000
   7.36124000  6.28684000 15.27910000
   8.62243000  4.21542000 15.12600000
   8.60335000  6.86425000 15.54420000
   9.90363000  4.86174000 15.30640000
   9.85955000  6.24392000 15.33990000
  11.16880000  4.19401000 15.63540000
  11.17450000  6.88697000 15.53740000
  12.44460000  4.87954000 15.75540000
  12.41180000  6.21503000 15.70230000
  13.62230000  4.19257000 16.13500000
  13.64440000  6.90830000 16.06270000
  14.82910000  4.86214000 16.46720000
  14.83300000  6.23831000 16.39820000
  15.98820000  4.19255000 16.99600000
  16.05250000  6.92221000 16.81020000
  17.18430000  4.85717000 17.23400000
  17.22580000  6.25234000 17.15300000
  18.34720000  4.22528000 17.66980000
  18.40610000  6.91927000 17.54670000
  19.56510000  4.88395000 17.92070000
  19.55440000  6.23950000 17.84900000
  20.86090000  4.23120000 18.17470000
  20.74990000  6.96129000 18.10500000
  22.13270000  4.95312000 18.08600000
  22.06000000  6.28914000 18.09170000
  23.38470000  4.20999000 18.08360000
  23.29350000  6.95774000 18.09810000
  24.56910000  4.83528000 17.95530000
  24.58150000  6.23013000 17.95050000
  25.79640000  4.16853000 17.67930000
  25.80550000  6.93877000 17.71050000
  26.87810000  4.88842000 17.21530000
  26.91840000  6.32146000 17.29300000
 


--------------------------------------------------------------------------------------------------------


 k-point     1 :   0.0000 0.0000 0.0000  plane waves:  193173
 k-point     2 :   0.0000 0.2500 0.0000  plane waves:  193166
 k-point     3 :   0.0000 0.5000 0.0000  plane waves:  193226

 maximum and minimum number of plane-waves per node :    193226   193166

 maximum number of plane-waves:    193226
 maximum index in each direction: 
   IXMAX=   51   IYMAX=   14   IZMAX=   61
   IXMIN=  -51   IYMIN=  -15   IZMIN=  -61


 serial   3D FFT for wavefunctions
 parallel 3D FFT for charge:
    minimum data exchange during FFTs selected (reduces bandwidth)


 total amount of memory used by VASP MPI-rank0  2294522. kBytes
=======================================================================

   base                                    :      30000. kBytes
   nonlr-proj                              :      15088. kBytes
   fftplans                                :     436558. kBytes
   grid                                    :     732614. kBytes
   one-center                              :        282. kBytes
   wavefun                                 :    1079980. kBytes
 
     INWAV:  cpu time      0.0000: real time      0.0000
 Broyden mixing: mesh for mixing (old mesh)
   NGX =103   NGY = 29   NGZ =123
  (NGX  =420   NGY  =120   NGZ  =500)
  gives a total of 367401 points

 initial charge density was supplied:
 charge density of overlapping atoms calculated
 number of electron     368.0000000 magnetization 
 keeping initial charge density in first step


--------------------------------------------------------------------------------------------------------


 Maximum index for non-local projection operator          1874
 Maximum index for augmentation-charges          2382 (set IRDMAX)


--------------------------------------------------------------------------------------------------------


 First call to EWALD:  gamma=   0.090
 Maximum number of real-space cells   2x   6x   2
 Maximum number of reciprocal cells   4x   1x   4

    FEWALD:  cpu time      0.1596: real time      0.1597


--------------------------------------- Ionic step        1  -------------------------------------------




--------------------------------------- Iteration      1(   1)  ---------------------------------------


    POTLOK:  cpu time      0.4197: real time      0.4421
    SETDIJ:  cpu time      0.0418: real time      0.0418
     EDDAV:  cpu time     11.1314: real time     11.1385
       DOS:  cpu time      0.0008: real time      0.0008
    --------------------------------------------
      LOOP:  cpu time     11.5937: real time     11.6232

 eigenvalue-minimisations  :  1728
 total energy-change (2. order) : 0.3627318E+04  (-0.1197805E+05)
 number of electron     368.0000000 magnetization 
 augmentation part      368.0000000 magnetization 

 Free energy of the ion-electron system (eV)
  ---------------------------------------------------
  alpha Z        PSCENC =        91.34886789
  Ewald energy   TEWEN  =    119851.45163292
  -Hartree energ DENC   =   -129177.20763007
  -exchange      EXHF   =         0.00000000
  -V(xc)+E(xc)   XCENC  =      1221.36895687
  PAW double counting   =      9984.02826696   -10036.41360137
  entropy T*S    EENTRO =        -0.87858471
  eigenvalues    EBANDS =     -1844.03518239
  atomic energy  EATOM  =     13537.65479391
  Solvation  Ediel_sol  =         0.00000000
  ---------------------------------------------------
  free energy    TOTEN  =      3627.31752001 eV

  energy without entropy =     3628.19610472  energy(sigma->0) =     3627.75681237


--------------------------------------------------------------------------------------------------------




--------------------------------------- Iteration      1(   2)  ---------------------------------------


     EDDAV:  cpu time     13.0409: real time     13.0522
       DOS:  cpu time      0.0007: real time      0.0007
    --------------------------------------------
      LOOP:  cpu time     13.0416: real time     13.0529

 eigenvalue-minimisations  :  2136
 total energy-change (2. order) :-0.3451521E+04  (-0.3194056E+04)
 number of electron     368.0000000 magnetization 
 augmentation part      368.0000000 magnetization 

 Free energy of the ion-electron system (eV)
  ---------------------------------------------------
  alpha Z        PSCENC =        91.34886789
  Ewald energy   TEWEN  =    119851.45163292
  -Hartree energ DENC   =   -129177.20763007
  -exchange      EXHF   =         0.00000000
  -V(xc)+E(xc)   XCENC  =      1221.36895687
  PAW double counting   =      9984.02826696   -10036.41360137
  entropy T*S    EENTRO =        -0.22147353
  eigenvalues    EBANDS =     -5296.21341802
  atomic energy  EATOM  =     13537.65479391
  Solvation  Ediel_sol  =         0.00000000
  ---------------------------------------------------
  free energy    TOTEN  =       175.79639557 eV

  energy without entropy =      176.01786910  energy(sigma->0) =      175.90713233


--------------------------------------------------------------------------------------------------------




--------------------------------------- Iteration      1(   3)  ---------------------------------------


     EDDAV:  cpu time     11.3585: real time     11.3626
       DOS:  cpu time      0.0007: real time      0.0007
    --------------------------------------------
      LOOP:  cpu time     11.3592: real time     11.3633

 eigenvalue-minimisations  :  1800
 total energy-change (2. order) :-0.1008779E+04  (-0.9881994E+03)
 number of electron     368.0000000 magnetization 
 augmentation part      368.0000000 magnetization 

 Free energy of the ion-electron system (eV)
  ---------------------------------------------------
  alpha Z        PSCENC =        91.34886789
  Ewald energy   TEWEN  =    119851.45163292
  -Hartree energ DENC   =   -129177.20763007
  -exchange      EXHF   =         0.00000000
  -V(xc)+E(xc)   XCENC  =      1221.36895687
  PAW double counting   =      9984.02826696   -10036.41360137
  entropy T*S    EENTRO =        -0.03500352
  eigenvalues    EBANDS =     -6305.17936781
  atomic energy  EATOM  =     13537.65479391
  Solvation  Ediel_sol  =         0.00000000
  ---------------------------------------------------
  free energy    TOTEN  =      -832.98308421 eV

  energy without entropy =     -832.94808069  energy(sigma->0) =     -832.96558245


--------------------------------------------------------------------------------------------------------




--------------------------------------- Iteration      1(   4)  ---------------------------------------


     EDDAV:  cpu time     10.9147: real time     10.9187
       DOS:  cpu time      0.0007: real time      0.0007
    --------------------------------------------
      LOOP:  cpu time     10.9154: real time     10.9194

 eigenvalue-minimisations  :  1712
 total energy-change (2. order) :-0.6241693E+02  (-0.6130011E+02)
 number of electron     368.0000000 magnetization 
 augmentation part      368.0000000 magnetization 

 Free energy of the ion-electron system (eV)
  ---------------------------------------------------
  alpha Z        PSCENC =        91.34886789
  Ewald energy   TEWEN  =    119851.45163292
  -Hartree energ DENC   =   -129177.20763007
  -exchange      EXHF   =         0.00000000
  -V(xc)+E(xc)   XCENC  =      1221.36895687
  PAW double counting   =      9984.02826696   -10036.41360137
  entropy T*S    EENTRO =        -0.06861845
  eigenvalues    EBANDS =     -6367.56268573
  atomic energy  EATOM  =     13537.65479391
  Solvation  Ediel_sol  =         0.00000000
  ---------------------------------------------------
  free energy    TOTEN  =      -895.40001706 eV

  energy without entropy =     -895.33139861  energy(sigma->0) =     -895.36570784


--------------------------------------------------------------------------------------------------------




--------------------------------------- Iteration      1(   5)  ---------------------------------------


     EDDAV:  cpu time     11.1765: real time     11.1807
       DOS:  cpu time      0.0007: real time      0.0007
    CHARGE:  cpu time      1.2065: real time      1.2103
    MIXING:  cpu time      0.2743: real time      0.2743
    --------------------------------------------
      LOOP:  cpu time     12.6579: real time     12.6660

 eigenvalue-minimisations  :  1768
 total energy-change (2. order) :-0.1591514E+01  (-0.1564880E+01)
 number of electron     367.9999999 magnetization 
 augmentation part       10.1530552 magnetization 

 Broyden mixing:
  rms(total) = 0.45520E+01    rms(broyden)= 0.45514E+01
  rms(prec ) = 0.46694E+01
  weight for this iteration     100.00

 Free energy of the ion-electron system (eV)
  ---------------------------------------------------
  alpha Z        PSCENC =        91.34886789
  Ewald energy   TEWEN  =    119851.45163292
  -Hartree energ DENC   =   -129177.20763007
  -exchange      EXHF   =         0.00000000
  -V(xc)+E(xc)   XCENC  =      1221.36895687
  PAW double counting   =      9984.02826696   -10036.41360137
  entropy T*S    EENTRO =        -0.06899730
  eigenvalues    EBANDS =     -6369.15382069
  atomic energy  EATOM  =     13537.65479391
  Solvation  Ediel_sol  =         0.00000000
  ---------------------------------------------------
  free energy    TOTEN  =      -896.99153088 eV

  energy without entropy =     -896.92253358  energy(sigma->0) =     -896.95703223


--------------------------------------------------------------------------------------------------------




--------------------------------------- Iteration      1(   6)  ---------------------------------------


    POTLOK:  cpu time      0.3217: real time      0.3218
    SETDIJ:  cpu time      0.0407: real time      0.0407
     EDDAV:  cpu time     10.2313: real time     10.2349
       DOS:  cpu time      0.0008: real time      0.0008
    CHARGE:  cpu time      1.1567: real time      1.1609
    MIXING:  cpu time      0.2775: real time      0.2778
    --------------------------------------------
      LOOP:  cpu time     12.0287: real time     12.0368

 eigenvalue-minimisations  :  1576
 total energy-change (2. order) : 0.4964221E+02  (-0.4747434E+01)
 number of electron     367.9999999 magnetization 
 augmentation part        9.7296903 magnetization 

 Broyden mixing:
  rms(total) = 0.26736E+01    rms(broyden)= 0.26735E+01
  rms(prec ) = 0.27316E+01
  weight for this iteration     100.00

 eigenvalues of (default mixing * dielectric matrix)
  average eigenvalue GAMMA=   2.1809
  2.1809

 Free energy of the ion-electron system (eV)
  ---------------------------------------------------
  alpha Z        PSCENC =        91.34886789
  Ewald energy   TEWEN  =    119851.45163292
  -Hartree energ DENC   =   -129747.83547752
  -exchange      EXHF   =         0.00000000
  -V(xc)+E(xc)   XCENC  =      1244.70917119
  PAW double counting   =     18943.35825297   -19003.36449505
  entropy T*S    EENTRO =        -0.07897157
  eigenvalues    EBANDS =     -5764.59309951
  atomic energy  EATOM  =     13537.65479391
  Solvation  Ediel_sol  =         0.00000000
  ---------------------------------------------------
  free energy    TOTEN  =      -847.34932478 eV

  energy without entropy =     -847.27035320  energy(sigma->0) =     -847.30983899


--------------------------------------------------------------------------------------------------------




--------------------------------------- Iteration      1(   7)  ---------------------------------------


    POTLOK:  cpu time      0.3218: real time      0.3217
    SETDIJ:  cpu time      0.0401: real time      0.0402
     EDDAV:  cpu time     10.1847: real time     10.1884
       DOS:  cpu time      0.0007: real time      0.0007
    CHARGE:  cpu time      1.1571: real time      1.1579
    MIXING:  cpu time      0.2793: real time      0.2807
    --------------------------------------------
      LOOP:  cpu time     11.9838: real time     11.9895

 eigenvalue-minimisations  :  1568
 total energy-change (2. order) : 0.1842838E+02  (-0.6551515E+01)
 number of electron     367.9999998 magnetization 
 augmentation part        9.1742262 magnetization 

 Broyden mixing:
  rms(total) = 0.73724E+00    rms(broyden)= 0.73697E+00
  rms(prec ) = 0.74701E+00
  weight for this iteration     100.00

 eigenvalues of (default mixing * dielectric matrix)
  average eigenvalue GAMMA=   2.1772
  2.1772  2.1772

 Free energy of the ion-electron system (eV)
  ---------------------------------------------------
  alpha Z        PSCENC =        91.34886789
  Ewald energy   TEWEN  =    119851.45163292
  -Hartree energ DENC   =   -130511.50125525
  -exchange      EXHF   =         0.00000000
  -V(xc)+E(xc)   XCENC  =      1275.77905478
  PAW double counting   =     36552.57514110   -36619.48528219
  entropy T*S    EENTRO =        -0.08836515
  eigenvalues    EBANDS =     -5006.65552938
  atomic energy  EATOM  =     13537.65479391
  Solvation  Ediel_sol  =         0.00000000
  ---------------------------------------------------
  free energy    TOTEN  =      -828.92094138 eV

  energy without entropy =     -828.83257623  energy(sigma->0) =     -828.87675881


--------------------------------------------------------------------------------------------------------




--------------------------------------- Iteration      1(   8)  ---------------------------------------


    POTLOK:  cpu time      0.3214: real time      0.3214
    SETDIJ:  cpu time      0.0403: real time      0.0402
     EDDAV:  cpu time     10.3037: real time     10.3074
       DOS:  cpu time      0.0007: real time      0.0007
    CHARGE:  cpu time      1.1549: real time      1.1561
    MIXING:  cpu time      0.2835: real time      0.2835
    --------------------------------------------
      LOOP:  cpu time     12.1045: real time     12.1094

 eigenvalue-minimisations  :  1592
 total energy-change (2. order) : 0.2882185E+00  (-0.2425636E+00)
 number of electron     367.9999999 magnetization 
 augmentation part        9.1582400 magnetization 

 Broyden mixing:
  rms(total) = 0.10580E+00    rms(broyden)= 0.10577E+00
  rms(prec ) = 0.12754E+00
  weight for this iteration     100.00

 eigenvalues of (default mixing * dielectric matrix)
  average eigenvalue GAMMA=   1.8546
  1.2178  2.4365  1.9094

 Free energy of the ion-electron system (eV)
  ---------------------------------------------------
  alpha Z        PSCENC =        91.34886789
  Ewald energy   TEWEN  =    119851.45163292
  -Hartree energ DENC   =   -130603.21364732
  -exchange      EXHF   =         0.00000000
  -V(xc)+E(xc)   XCENC  =      1275.56363135
  PAW double counting   =     40747.87619888   -40812.17220569
  entropy T*S    EENTRO =        -0.08436893
  eigenvalues    EBANDS =     -4917.05762585
  atomic energy  EATOM  =     13537.65479391
  Solvation  Ediel_sol  =         0.00000000
  ---------------------------------------------------
  free energy    TOTEN  =      -828.63272284 eV

  energy without entropy =     -828.54835390  energy(sigma->0) =     -828.59053837


--------------------------------------------------------------------------------------------------------




--------------------------------------- Iteration      1(   9)  ---------------------------------------


    POTLOK:  cpu time      0.3193: real time      0.3193
    SETDIJ:  cpu time      0.0401: real time      0.0401
     EDDAV:  cpu time     10.5502: real time     10.5538
       DOS:  cpu time      0.0007: real time      0.0007
    CHARGE:  cpu time      1.1538: real time      1.1552
    MIXING:  cpu time      0.2874: real time      0.2875
    --------------------------------------------
      LOOP:  cpu time     12.3515: real time     12.3567

 eigenvalue-minimisations  :  1640
 total energy-change (2. order) : 0.1126217E+00  (-0.2780920E-01)
 number of electron     367.9999999 magnetization 
 augmentation part        9.1354232 magnetization 

 Broyden mixing:
  rms(total) = 0.58329E-01    rms(broyden)= 0.58320E-01
  rms(prec ) = 0.79568E-01
  weight for this iteration     100.00

 eigenvalues of (default mixing * dielectric matrix)
  average eigenvalue GAMMA=   1.6802
  2.2011  2.2011  1.1593  1.1593

 Free energy of the ion-electron system (eV)
  ---------------------------------------------------
  alpha Z        PSCENC =        91.34886789
  Ewald energy   TEWEN  =    119851.45163292
  -Hartree energ DENC   =   -130674.97427514
  -exchange      EXHF   =         0.00000000
  -V(xc)+E(xc)   XCENC  =      1277.00068794
  PAW double counting   =     41372.88953475   -41437.21421895
  entropy T*S    EENTRO =        -0.08499622
  eigenvalues    EBANDS =     -4846.59212819
  atomic energy  EATOM  =     13537.65479391
  Solvation  Ediel_sol  =         0.00000000
  ---------------------------------------------------
  free energy    TOTEN  =      -828.52010110 eV

  energy without entropy =     -828.43510488  energy(sigma->0) =     -828.47760299


--------------------------------------------------------------------------------------------------------




--------------------------------------- Iteration      1(  10)  ---------------------------------------


    POTLOK:  cpu time      0.3211: real time      0.3211
    SETDIJ:  cpu time      0.0402: real time      0.0403
     EDDAV:  cpu time     10.9795: real time     10.9835
       DOS:  cpu time      0.0008: real time      0.0008
    CHARGE:  cpu time      1.1553: real time      1.1561
    MIXING:  cpu time      0.2936: real time      0.2937
    --------------------------------------------
      LOOP:  cpu time     12.7905: real time     12.7954

 eigenvalue-minimisations  :  1728
 total energy-change (2. order) : 0.3680190E-01  (-0.5153982E-02)
 number of electron     367.9999999 magnetization 
 augmentation part        9.1254890 magnetization 

 Broyden mixing:
  rms(total) = 0.36911E-01    rms(broyden)= 0.36908E-01
  rms(prec ) = 0.56439E-01
  weight for this iteration     100.00

 eigenvalues of (default mixing * dielectric matrix)
  average eigenvalue GAMMA=   1.6964
  2.4283  2.4283  1.4941  1.3147  0.8167

 Free energy of the ion-electron system (eV)
  ---------------------------------------------------
  alpha Z        PSCENC =        91.34886789
  Ewald energy   TEWEN  =    119851.45163292
  -Hartree energ DENC   =   -130722.54128578
  -exchange      EXHF   =         0.00000000
  -V(xc)+E(xc)   XCENC  =      1277.30638109
  PAW double counting   =     41153.70726486   -41217.89269263
  entropy T*S    EENTRO =        -0.08534458
  eigenvalues    EBANDS =     -4799.43291688
  atomic energy  EATOM  =     13537.65479391
  Solvation  Ediel_sol  =         0.00000000
  ---------------------------------------------------
  free energy    TOTEN  =      -828.48329920 eV

  energy without entropy =     -828.39795462  energy(sigma->0) =     -828.44062691


--------------------------------------------------------------------------------------------------------




--------------------------------------- Iteration      1(  11)  ---------------------------------------


    POTLOK:  cpu time      0.3213: real time      0.3213
    SETDIJ:  cpu time      0.0402: real time      0.0402
     EDDAV:  cpu time     10.0916: real time     10.0969
       DOS:  cpu time      0.0008: real time      0.0008
    CHARGE:  cpu time      1.1668: real time      1.1683
    MIXING:  cpu time      0.2966: real time      0.2968
    --------------------------------------------
      LOOP:  cpu time     11.9173: real time     11.9243

 eigenvalue-minimisations  :  1552
 total energy-change (2. order) : 0.2862062E-01  (-0.1896146E-02)
 number of electron     367.9999999 magnetization 
 augmentation part        9.1212223 magnetization 

 Broyden mixing:
  rms(total) = 0.25470E-01    rms(broyden)= 0.25468E-01
  rms(prec ) = 0.39643E-01
  weight for this iteration     100.00

 eigenvalues of (default mixing * dielectric matrix)
  average eigenvalue GAMMA=   1.7786
  3.0074  2.5296  1.9203  0.9483  1.1331  1.1331

 Free energy of the ion-electron system (eV)
  ---------------------------------------------------
  alpha Z        PSCENC =        91.34886789
  Ewald energy   TEWEN  =    119851.45163292
  -Hartree energ DENC   =   -130781.91548622
  -exchange      EXHF   =         0.00000000
  -V(xc)+E(xc)   XCENC  =      1277.81152265
  PAW double counting   =     41073.41357215   -41137.49263825
  entropy T*S    EENTRO =        -0.08534743
  eigenvalues    EBANDS =     -4740.64159619
  atomic energy  EATOM  =     13537.65479391
  Solvation  Ediel_sol  =         0.00000000
  ---------------------------------------------------
  free energy    TOTEN  =      -828.45467859 eV

  energy without entropy =     -828.36933115  energy(sigma->0) =     -828.41200487


--------------------------------------------------------------------------------------------------------




--------------------------------------- Iteration      1(  12)  ---------------------------------------


    POTLOK:  cpu time      0.3176: real time      0.3191
    SETDIJ:  cpu time      0.0401: real time      0.0401
     EDDAV:  cpu time     10.1681: real time     10.1720
       DOS:  cpu time      0.0007: real time      0.0007
    CHARGE:  cpu time      1.1535: real time      1.1569
    MIXING:  cpu time      0.3048: real time      0.3049
    --------------------------------------------
      LOOP:  cpu time     11.9848: real time     11.9937

 eigenvalue-minimisations  :  1568
 total energy-change (2. order) : 0.5810171E-02  (-0.2785911E-02)
 number of electron     367.9999999 magnetization 
 augmentation part        9.1134389 magnetization 

 Broyden mixing:
  rms(total) = 0.15512E-01    rms(broyden)= 0.15507E-01
  rms(prec ) = 0.23565E-01
  weight for this iteration     100.00

 eigenvalues of (default mixing * dielectric matrix)
  average eigenvalue GAMMA=   2.0576
  4.8012  2.4006  2.0358  2.0358  0.9597  1.0850  1.0850

 Free energy of the ion-electron system (eV)
  ---------------------------------------------------
  alpha Z        PSCENC =        91.34886789
  Ewald energy   TEWEN  =    119851.45163292
  -Hartree energ DENC   =   -130851.52979610
  -exchange      EXHF   =         0.00000000
  -V(xc)+E(xc)   XCENC  =      1278.49805012
  PAW double counting   =     41125.81659859   -41189.87960473
  entropy T*S    EENTRO =        -0.08536073
  eigenvalues    EBANDS =     -4671.72405027
  atomic energy  EATOM  =     13537.65479391
  Solvation  Ediel_sol  =         0.00000000
  ---------------------------------------------------
  free energy    TOTEN  =      -828.44886841 eV

  energy without entropy =     -828.36350769  energy(sigma->0) =     -828.40618805


--------------------------------------------------------------------------------------------------------




--------------------------------------- Iteration      1(  13)  ---------------------------------------


    POTLOK:  cpu time      0.3214: real time      0.3216
    SETDIJ:  cpu time      0.0403: real time      0.0403
     EDDAV:  cpu time      9.9947: real time     10.0000
       DOS:  cpu time      0.0008: real time      0.0008
    CHARGE:  cpu time      1.1549: real time      1.1583
    MIXING:  cpu time      0.3135: real time      0.3155
    --------------------------------------------
      LOOP:  cpu time     11.8255: real time     11.8365

 eigenvalue-minimisations  :  1536
 total energy-change (2. order) :-0.1256484E-01  (-0.9053162E-03)
 number of electron     367.9999999 magnetization 
 augmentation part        9.1105799 magnetization 

 Broyden mixing:
  rms(total) = 0.86338E-02    rms(broyden)= 0.86313E-02
  rms(prec ) = 0.12241E-01
  weight for this iteration     100.00

 eigenvalues of (default mixing * dielectric matrix)
  average eigenvalue GAMMA=   2.0565
  5.3602  2.4320  2.4320  1.8903  1.1646  1.1646  0.8770  1.1316

 Free energy of the ion-electron system (eV)
  ---------------------------------------------------
  alpha Z        PSCENC =        91.34886789
  Ewald energy   TEWEN  =    119851.45163292
  -Hartree energ DENC   =   -130902.89267161
  -exchange      EXHF   =         0.00000000
  -V(xc)+E(xc)   XCENC  =      1278.70361030
  PAW double counting   =     41080.28465493   -41144.34299922
  entropy T*S    EENTRO =        -0.08533001
  eigenvalues    EBANDS =     -4620.58399235
  atomic energy  EATOM  =     13537.65479391
  Solvation  Ediel_sol  =         0.00000000
  ---------------------------------------------------
  free energy    TOTEN  =      -828.46143325 eV

  energy without entropy =     -828.37610324  energy(sigma->0) =     -828.41876824


--------------------------------------------------------------------------------------------------------




--------------------------------------- Iteration      1(  14)  ---------------------------------------


    POTLOK:  cpu time      0.3210: real time      0.3210
    SETDIJ:  cpu time      0.0402: real time      0.0403
     EDDAV:  cpu time     10.2898: real time     10.2934
       DOS:  cpu time      0.0007: real time      0.0007
    CHARGE:  cpu time      1.1566: real time      1.1569
    MIXING:  cpu time      0.3218: real time      0.3228
    --------------------------------------------
      LOOP:  cpu time     12.1301: real time     12.1350

 eigenvalue-minimisations  :  1592
 total energy-change (2. order) :-0.1540798E-01  (-0.1164364E-03)
 number of electron     367.9999999 magnetization 
 augmentation part        9.1097590 magnetization 

 Broyden mixing:
  rms(total) = 0.61057E-02    rms(broyden)= 0.61053E-02
  rms(prec ) = 0.83782E-02
  weight for this iteration     100.00

 eigenvalues of (default mixing * dielectric matrix)
  average eigenvalue GAMMA=   2.1748
  6.2482  2.7165  2.7165  1.7804  1.7804  1.2265  1.2265  0.9390  0.9390

 Free energy of the ion-electron system (eV)
  ---------------------------------------------------
  alpha Z        PSCENC =        91.34886789
  Ewald energy   TEWEN  =    119851.45163292
  -Hartree energ DENC   =   -130917.27392977
  -exchange      EXHF   =         0.00000000
  -V(xc)+E(xc)   XCENC  =      1278.72271467
  PAW double counting   =     41078.95992865   -41143.02725571
  entropy T*S    EENTRO =        -0.08531758
  eigenvalues    EBANDS =     -4606.22827620
  atomic energy  EATOM  =     13537.65479391
  Solvation  Ediel_sol  =         0.00000000
  ---------------------------------------------------
  free energy    TOTEN  =      -828.47684123 eV

  energy without entropy =     -828.39152364  energy(sigma->0) =     -828.43418243


--------------------------------------------------------------------------------------------------------




--------------------------------------- Iteration      1(  15)  ---------------------------------------


    POTLOK:  cpu time      0.3219: real time      0.3219
    SETDIJ:  cpu time      0.0405: real time      0.0405
     EDDAV:  cpu time     10.0085: real time     10.0123
       DOS:  cpu time      0.0007: real time      0.0007
    CHARGE:  cpu time      1.1544: real time      1.1565
    MIXING:  cpu time      0.3309: real time      0.3326
    --------------------------------------------
      LOOP:  cpu time     11.8569: real time     11.8646

 eigenvalue-minimisations  :  1536
 total energy-change (2. order) :-0.2047540E-01  (-0.1800374E-03)
 number of electron     367.9999999 magnetization 
 augmentation part        9.1093616 magnetization 

 Broyden mixing:
  rms(total) = 0.30721E-02    rms(broyden)= 0.30717E-02
  rms(prec ) = 0.43045E-02
  weight for this iteration     100.00

 eigenvalues of (default mixing * dielectric matrix)
  average eigenvalue GAMMA=   2.2085
  6.9814  3.3886  2.2501  2.2501  1.5960  1.2481  1.2481  1.2490  0.9365  0.9365

 Free energy of the ion-electron system (eV)
  ---------------------------------------------------
  alpha Z        PSCENC =        91.34886789
  Ewald energy   TEWEN  =    119851.45163292
  -Hartree energ DENC   =   -130928.45986972
  -exchange      EXHF   =         0.00000000
  -V(xc)+E(xc)   XCENC  =      1278.70570755
  PAW double counting   =     41088.31625352   -41152.38421688
  entropy T*S    EENTRO =        -0.08535875
  eigenvalues    EBANDS =     -4595.04512706
  atomic energy  EATOM  =     13537.65479391
  Solvation  Ediel_sol  =         0.00000000
  ---------------------------------------------------
  free energy    TOTEN  =      -828.49731663 eV

  energy without entropy =     -828.41195788  energy(sigma->0) =     -828.45463725


--------------------------------------------------------------------------------------------------------




--------------------------------------- Iteration      1(  16)  ---------------------------------------


    POTLOK:  cpu time      0.3200: real time      0.3200
    SETDIJ:  cpu time      0.0403: real time      0.0403
     EDDAV:  cpu time     10.4524: real time     10.4580
       DOS:  cpu time      0.0008: real time      0.0008
    CHARGE:  cpu time      1.1623: real time      1.1653
    MIXING:  cpu time      0.3400: real time      0.3416
    --------------------------------------------
      LOOP:  cpu time     12.3157: real time     12.3259

 eigenvalue-minimisations  :  1624
 total energy-change (2. order) :-0.8532052E-02  (-0.4423728E-04)
 number of electron     367.9999999 magnetization 
 augmentation part        9.1093696 magnetization 

 Broyden mixing:
  rms(total) = 0.23478E-02    rms(broyden)= 0.23477E-02
  rms(prec ) = 0.29764E-02
  weight for this iteration     100.00

 eigenvalues of (default mixing * dielectric matrix)
  average eigenvalue GAMMA=   2.3068
  7.7256  3.9038  2.3988  2.3988  1.8239  1.5479  1.5479  1.0444  1.0444  1.0040
  0.9355

 Free energy of the ion-electron system (eV)
  ---------------------------------------------------
  alpha Z        PSCENC =        91.34886789
  Ewald energy   TEWEN  =    119851.45163292
  -Hartree energ DENC   =   -130932.16204605
  -exchange      EXHF   =         0.00000000
  -V(xc)+E(xc)   XCENC  =      1278.67948014
  PAW double counting   =     41075.70022191   -41139.76605782
  entropy T*S    EENTRO =        -0.08535610
  eigenvalues    EBANDS =     -4591.32738547
  atomic energy  EATOM  =     13537.65479391
  Solvation  Ediel_sol  =         0.00000000
  ---------------------------------------------------
  free energy    TOTEN  =      -828.50584868 eV

  energy without entropy =     -828.42049258  energy(sigma->0) =     -828.46317063


--------------------------------------------------------------------------------------------------------




--------------------------------------- Iteration      1(  17)  ---------------------------------------


    POTLOK:  cpu time      0.3196: real time      0.3197
    SETDIJ:  cpu time      0.0402: real time      0.0402
     EDDAV:  cpu time     10.2873: real time     10.2910
       DOS:  cpu time      0.0007: real time      0.0007
    CHARGE:  cpu time      1.1568: real time      1.1569
    MIXING:  cpu time      0.3480: real time      0.3503
    --------------------------------------------
      LOOP:  cpu time     12.1527: real time     12.1589

 eigenvalue-minimisations  :  1592
 total energy-change (2. order) :-0.5875242E-02  (-0.3864521E-04)
 number of electron     367.9999999 magnetization 
 augmentation part        9.1092235 magnetization 

 Broyden mixing:
  rms(total) = 0.12623E-02    rms(broyden)= 0.12622E-02
  rms(prec ) = 0.15875E-02
  weight for this iteration     100.00

 eigenvalues of (default mixing * dielectric matrix)
  average eigenvalue GAMMA=   2.3323
  8.3341  4.4592  2.3871  2.2207  2.2207  1.4593  1.4593  1.2833  1.2833  0.9732
  0.9534  0.9534

 Free energy of the ion-electron system (eV)
  ---------------------------------------------------
  alpha Z        PSCENC =        91.34886789
  Ewald energy   TEWEN  =    119851.45163292
  -Hartree energ DENC   =   -130934.95115273
  -exchange      EXHF   =         0.00000000
  -V(xc)+E(xc)   XCENC  =      1278.68158804
  PAW double counting   =     41082.64371851   -41146.70742687
  entropy T*S    EENTRO =        -0.08536052
  eigenvalues    EBANDS =     -4588.54838507
  atomic energy  EATOM  =     13537.65479391
  Solvation  Ediel_sol  =         0.00000000
  ---------------------------------------------------
  free energy    TOTEN  =      -828.51172392 eV

  energy without entropy =     -828.42636340  energy(sigma->0) =     -828.46904366


--------------------------------------------------------------------------------------------------------




--------------------------------------- Iteration      1(  18)  ---------------------------------------


    POTLOK:  cpu time      0.3219: real time      0.3219
    SETDIJ:  cpu time      0.0406: real time      0.0406
     EDDAV:  cpu time     10.4873: real time     10.4912
       DOS:  cpu time      0.0007: real time      0.0007
    CHARGE:  cpu time      1.1533: real time      1.1570
    MIXING:  cpu time      0.3618: real time      0.3618
    --------------------------------------------
      LOOP:  cpu time     12.3657: real time     12.3733

 eigenvalue-minimisations  :  1632
 total energy-change (2. order) :-0.2079863E-02  (-0.8595011E-05)
 number of electron     367.9999999 magnetization 
 augmentation part        9.1090939 magnetization 

 Broyden mixing:
  rms(total) = 0.75493E-03    rms(broyden)= 0.75486E-03
  rms(prec ) = 0.95473E-03
  weight for this iteration     100.00

 eigenvalues of (default mixing * dielectric matrix)
  average eigenvalue GAMMA=   2.3741
  8.7711  4.8176  2.6832  2.6832  1.7811  1.7811  1.5795  1.5795  1.1364  1.1364
  0.9491  0.9491  1.0158

 Free energy of the ion-electron system (eV)
  ---------------------------------------------------
  alpha Z        PSCENC =        91.34886789
  Ewald energy   TEWEN  =    119851.45163292
  -Hartree energ DENC   =   -130935.87563371
  -exchange      EXHF   =         0.00000000
  -V(xc)+E(xc)   XCENC  =      1278.68290669
  PAW double counting   =     41083.30533471   -41147.37020736
  entropy T*S    EENTRO =        -0.08536052
  eigenvalues    EBANDS =     -4587.62613832
  atomic energy  EATOM  =     13537.65479391
  Solvation  Ediel_sol  =         0.00000000
  ---------------------------------------------------
  free energy    TOTEN  =      -828.51380378 eV

  energy without entropy =     -828.42844327  energy(sigma->0) =     -828.47112353


--------------------------------------------------------------------------------------------------------




--------------------------------------- Iteration      1(  19)  ---------------------------------------


    POTLOK:  cpu time      0.3196: real time      0.3197
    SETDIJ:  cpu time      0.0402: real time      0.0402
     EDDAV:  cpu time     10.1146: real time     10.1200
       DOS:  cpu time      0.0007: real time      0.0008
    CHARGE:  cpu time      1.1520: real time      1.1545
    MIXING:  cpu time      0.3723: real time      0.3723
    --------------------------------------------
      LOOP:  cpu time     11.9994: real time     12.0074

 eigenvalue-minimisations  :  1560
 total energy-change (2. order) :-0.1329210E-02  (-0.5187171E-05)
 number of electron     367.9999999 magnetization 
 augmentation part        9.1091619 magnetization 

 Broyden mixing:
  rms(total) = 0.42861E-03    rms(broyden)= 0.42857E-03
  rms(prec ) = 0.52021E-03
  weight for this iteration     100.00

 eigenvalues of (default mixing * dielectric matrix)
  average eigenvalue GAMMA=   2.3755
  8.9434  5.4102  3.1018  2.3394  2.2073  1.9077  1.5156  1.5156  1.2448  1.2448
  1.0404  0.9446  0.9446  0.8964

 Free energy of the ion-electron system (eV)
  ---------------------------------------------------
  alpha Z        PSCENC =        91.34886789
  Ewald energy   TEWEN  =    119851.45163292
  -Hartree energ DENC   =   -130936.22520745
  -exchange      EXHF   =         0.00000000
  -V(xc)+E(xc)   XCENC  =      1278.67837518
  PAW double counting   =     41080.31627866   -41144.37859875
  entropy T*S    EENTRO =        -0.08535345
  eigenvalues    EBANDS =     -4587.27592190
  atomic energy  EATOM  =     13537.65479391
  Solvation  Ediel_sol  =         0.00000000
  ---------------------------------------------------
  free energy    TOTEN  =      -828.51513299 eV

  energy without entropy =     -828.42977954  energy(sigma->0) =     -828.47245627


--------------------------------------------------------------------------------------------------------




--------------------------------------- Iteration      1(  20)  ---------------------------------------


    POTLOK:  cpu time      0.3216: real time      0.3217
    SETDIJ:  cpu time      0.0402: real time      0.0401
     EDDAV:  cpu time      9.2786: real time      9.2819
       DOS:  cpu time      0.0007: real time      0.0007
    CHARGE:  cpu time      1.1570: real time      1.1569
    MIXING:  cpu time      0.3853: real time      0.3854
    --------------------------------------------
      LOOP:  cpu time     11.1835: real time     11.1867

 eigenvalue-minimisations  :  1384
 total energy-change (2. order) :-0.4003188E-03  (-0.8918310E-06)
 number of electron     367.9999999 magnetization 
 augmentation part        9.1091340 magnetization 

 Broyden mixing:
  rms(total) = 0.31624E-03    rms(broyden)= 0.31623E-03
  rms(prec ) = 0.36516E-03
  weight for this iteration     100.00

 eigenvalues of (default mixing * dielectric matrix)
  average eigenvalue GAMMA=   2.4250
  9.2038  5.7372  3.5837  2.6224  2.1849  2.0942  1.5920  1.5920  1.3640  1.3640
  0.9567  0.9567  0.9913  1.0661  1.0661

 Free energy of the ion-electron system (eV)
  ---------------------------------------------------
  alpha Z        PSCENC =        91.34886789
  Ewald energy   TEWEN  =    119851.45163292
  -Hartree energ DENC   =   -130936.42618240
  -exchange      EXHF   =         0.00000000
  -V(xc)+E(xc)   XCENC  =      1278.67913176
  PAW double counting   =     41081.30379686   -41145.36650762
  entropy T*S    EENTRO =        -0.08535577
  eigenvalues    EBANDS =     -4587.07571086
  atomic energy  EATOM  =     13537.65479391
  Solvation  Ediel_sol  =         0.00000000
  ---------------------------------------------------
  free energy    TOTEN  =      -828.51553331 eV

  energy without entropy =     -828.43017754  energy(sigma->0) =     -828.47285543


--------------------------------------------------------------------------------------------------------




--------------------------------------- Iteration      1(  21)  ---------------------------------------


    POTLOK:  cpu time      0.3201: real time      0.3200
    SETDIJ:  cpu time      0.0402: real time      0.0402
     EDDAV:  cpu time      8.8355: real time      8.8386
       DOS:  cpu time      0.0008: real time      0.0008
    CHARGE:  cpu time      1.1670: real time      1.1687
    MIXING:  cpu time      0.3975: real time      0.3974
    --------------------------------------------
      LOOP:  cpu time     10.7611: real time     10.7658

 eigenvalue-minimisations  :  1296
 total energy-change (2. order) :-0.2635173E-03  (-0.3863241E-06)
 number of electron     367.9999999 magnetization 
 augmentation part        9.1091377 magnetization 

 Broyden mixing:
  rms(total) = 0.13673E-03    rms(broyden)= 0.13671E-03
  rms(prec ) = 0.16250E-03
  weight for this iteration     100.00

 eigenvalues of (default mixing * dielectric matrix)
  average eigenvalue GAMMA=   2.3825
  9.1468  6.0950  3.6787  2.5122  2.5122  2.0168  1.5763  1.5763  1.5781  1.2933
  1.1642  1.1642  0.9335  0.9335  0.9693  0.9693

 Free energy of the ion-electron system (eV)
  ---------------------------------------------------
  alpha Z        PSCENC =        91.34886789
  Ewald energy   TEWEN  =    119851.45163292
  -Hartree energ DENC   =   -130936.50413042
  -exchange      EXHF   =         0.00000000
  -V(xc)+E(xc)   XCENC  =      1278.67782147
  PAW double counting   =     41080.32901353   -41144.39217114
  entropy T*S    EENTRO =        -0.08535820
  eigenvalues    EBANDS =     -4586.99626679
  atomic energy  EATOM  =     13537.65479391
  Solvation  Ediel_sol  =         0.00000000
  ---------------------------------------------------
  free energy    TOTEN  =      -828.51579683 eV

  energy without entropy =     -828.43043863  energy(sigma->0) =     -828.47311773


[...]
   0.359E+01 -.185E+02 0.115E+02   -.402E+01 0.179E+02 -.106E+02   -.404E-01 -.984E+00 -.227E+01   0.910E-06 0.237E-05 -.123E-06
   0.278E+01 -.388E+01 0.523E+02   -.374E+01 0.317E+01 -.526E+02   -.373E-01 -.300E+00 0.972E-01   0.441E-05 0.197E-05 0.145E-05
   -.274E+01 0.600E+01 0.667E+02   0.258E+01 -.507E+01 -.677E+02   -.841E+00 0.152E+01 0.133E+01   0.340E-05 -.271E-05 0.142E-05
   0.399E+01 0.386E+01 -.106E+02   -.376E+01 -.230E+01 0.112E+02   0.810E+00 0.110E+01 -.232E+00   -.141E-05 0.248E-05 -.210E-06
   0.130E+02 -.384E+00 -.962E+01   -.147E+02 -.206E+01 0.982E+01   -.103E+01 -.135E+01 -.561E+00   -.142E-05 -.679E-06 -.511E-06
   -.822E+01 -.109E+02 0.410E+01   0.946E+01 0.113E+02 -.371E+01   0.785E+00 -.300E+00 -.128E+00   -.574E-05 0.137E-05 -.123E-05
   -.896E+00 -.454E+01 -.244E+02   0.238E+01 0.665E+01 0.248E+02   0.141E+01 0.125E+01 -.792E+00   -.568E-05 -.174E-05 -.114E-05
   0.170E+02 0.120E+02 -.457E+02   -.178E+02 -.114E+02 0.460E+02   -.769E+00 0.890E-01 -.727E+00   -.622E-05 0.105E-05 -.987E-06
   0.929E+01 -.933E+01 -.499E+02   -.850E+01 0.826E+01 0.505E+02   0.580E+00 -.141E+01 0.503E+00   -.698E-05 0.121E-05 -.145E-05
   0.137E+02 -.171E+02 -.334E+02   -.139E+02 0.185E+02 0.337E+02   -.325E+00 0.913E+00 -.324E+00   -.665E-05 0.299E-05 -.100E-05
   0.210E+02 0.159E+02 -.710E+02   -.209E+02 -.165E+02 0.710E+02   -.949E+00 0.673E+00 0.200E+00   -.777E-05 -.125E-05 -.128E-05
   0.325E+02 0.330E+01 -.744E+02   -.340E+02 -.271E+01 0.741E+02   -.647E+00 0.367E+00 0.557E+00   -.860E-05 0.690E-06 -.129E-05
   0.449E+02 -.794E+01 -.163E+03   -.457E+02 0.772E+01 0.164E+03   -.541E+00 -.520E-01 -.256E+01   -.547E-05 0.156E-05 0.169E-05
   -.130E-01 -.957E+00 -.719E+02   0.120E+01 0.334E+00 0.720E+02   0.677E+00 -.461E+00 0.136E+00   0.597E-05 0.111E-05 0.991E-06
   0.105E+02 0.750E+01 -.123E+03   -.947E+01 -.824E+01 0.123E+03   -.305E+00 -.362E+00 0.121E+01   0.354E-05 0.677E-06 0.118E-05
   0.117E+02 0.168E+02 -.130E+03   -.115E+02 -.183E+02 0.130E+03   0.910E+00 -.995E+00 0.179E+00   0.142E-04 -.252E-05 0.186E-05
   0.169E+02 -.260E+02 -.206E+03   -.168E+02 0.283E+02 0.207E+03   -.228E+00 0.594E+00 -.122E+01   0.109E-04 0.171E-05 0.208E-05
   0.401E+01 -.159E+02 -.116E+03   -.457E+01 0.170E+02 0.116E+03   0.271E+00 -.885E-01 0.701E+00   0.110E-04 -.662E-06 -.179E-06
   0.141E+02 0.615E+01 -.225E+03   -.139E+02 -.677E+01 0.226E+03   -.284E+00 -.438E+00 -.183E+01   0.111E-04 0.689E-06 -.992E-06
   -.149E+01 0.173E+02 -.158E+03   0.213E+01 -.185E+02 0.159E+03   0.829E+00 0.207E-01 -.280E+00   0.368E-07 0.240E-05 -.174E-05
   -.140E+01 -.180E+02 -.176E+03   0.963E+00 0.193E+02 0.176E+03   -.383E+00 0.898E+00 0.421E+00   0.118E-05 -.264E-05 -.195E-05
   -.119E+02 -.190E+02 -.157E+03   0.120E+02 0.210E+02 0.157E+03   0.168E+00 0.370E+00 -.215E-01   -.526E-05 0.120E-05 -.145E-05
   -.610E+01 0.117E+02 -.148E+03   0.632E+01 -.130E+02 0.149E+03   0.639E+00 -.522E+00 -.359E+00   -.274E-05 0.264E-05 -.211E-05
   -.229E+02 0.267E+02 -.205E+03   0.229E+02 -.285E+02 0.206E+03   -.573E+00 -.463E+00 -.203E+01   -.337E-06 0.131E-05 -.174E-05
   -.201E+02 -.242E+02 -.160E+03   0.204E+02 0.260E+02 0.160E+03   0.295E+00 0.897E+00 0.137E+00   -.210E-05 0.100E-05 -.115E-05
   -.121E+02 -.993E+01 -.953E+02   0.104E+02 0.117E+02 0.950E+02   0.120E+01 0.117E+01 0.218E+01   -.264E-05 -.677E-06 -.556E-06
   -.177E+02 0.793E+01 -.117E+03   0.172E+02 -.984E+01 0.117E+03   -.433E+00 -.352E+00 0.452E+00   -.431E-05 0.337E-05 -.604E-06
   -.524E+02 0.671E+02 -.171E+03   0.516E+02 -.686E+02 0.173E+03   0.189E+01 0.311E+01 -.217E+01   -.598E-05 -.116E-05 0.617E-06
   -.421E+02 -.619E+02 -.162E+03   0.388E+02 0.636E+02 0.164E+03   0.496E+00 -.672E+00 -.142E+01   -.377E-05 0.152E-05 0.678E-06
   0.453E+02 0.614E+02 0.141E+03   -.421E+02 -.632E+02 -.143E+03   0.301E+00 0.212E+01 0.192E+01   0.249E-05 0.191E-05 -.187E-05
   0.748E+01 -.637E+02 0.335E+02   -.363E+01 0.651E+02 -.360E+02   -.113E+01 -.127E+01 0.630E+00   0.458E-06 0.133E-05 -.151E-06
   0.579E+02 0.871E+01 0.154E+03   -.586E+02 -.849E+01 -.154E+03   -.127E+01 0.429E+00 -.114E+00   -.197E-05 -.441E-05 -.239E-07
   0.157E+02 -.218E+01 0.167E+01   -.162E+02 0.195E+01 -.103E+01   -.104E+01 0.510E-01 -.572E+00   -.201E-05 0.577E-06 0.481E-06
   0.388E+02 -.530E+01 0.199E+03   -.378E+02 0.611E+01 -.199E+03   0.735E+00 0.437E+00 0.483E+00   -.828E-05 0.167E-06 0.159E-05
   0.202E+02 0.241E+01 0.994E+02   -.205E+02 -.391E+01 -.999E+02   0.154E+00 -.363E+00 -.360E+00   -.581E-05 0.254E-05 0.247E-05
   0.330E+02 -.727E+01 0.221E+03   -.326E+02 0.738E+01 -.221E+03   0.772E+00 0.654E+00 0.756E+00   0.150E-06 -.719E-06 -.778E-06
   0.518E+01 0.485E+01 0.964E+02   -.322E+01 -.447E+01 -.966E+02   0.140E+01 0.357E+00 -.619E+00   -.136E-05 0.128E-06 0.557E-06
   0.296E+02 0.992E+01 0.181E+03   -.307E+02 -.108E+02 -.180E+03   0.510E-01 -.174E+00 -.106E+01   0.440E-05 0.136E-05 0.769E-07
   0.206E+02 -.194E+02 0.157E+03   -.217E+02 0.205E+02 -.157E+03   0.123E-01 0.560E+00 0.860E+00   0.196E-05 -.804E-06 0.173E-06
   0.131E+02 -.171E+02 0.213E+03   -.132E+02 0.175E+02 -.214E+03   0.736E+00 -.533E+00 0.144E+01   0.354E-05 -.133E-05 0.155E-05
   0.975E+01 0.153E+02 0.124E+03   -.971E+01 -.166E+02 -.124E+03   0.106E+01 -.852E+00 0.906E-01   0.358E-05 -.966E-06 0.995E-06
   -.608E+01 0.161E+01 0.169E+03   0.606E+01 -.527E+00 -.169E+03   0.811E-01 0.772E+00 -.861E+00   0.291E-05 0.963E-06 0.153E-05
   0.480E+01 -.587E+01 0.127E+03   -.570E+01 0.499E+01 -.128E+03   0.271E+00 -.103E+01 0.962E+00   0.555E-05 -.478E-06 0.190E-05
   -.181E+02 -.129E+02 0.189E+03   0.191E+02 0.124E+02 -.189E+03   0.428E+00 0.188E+00 0.108E+01   0.535E-06 -.296E-05 0.230E-05
   -.940E+01 0.159E+02 0.221E+02   0.932E+01 -.161E+02 -.213E+02   0.267E+00 0.160E+01 -.207E+01   -.745E-06 0.141E-06 0.407E-06
   -.235E+02 0.182E+02 0.151E+03   0.236E+02 -.188E+02 -.151E+03   -.111E+00 0.176E+00 -.936E-01   -.168E-05 0.134E-05 0.529E-06
   -.204E+02 -.180E+02 0.155E+03   0.216E+02 0.181E+02 -.156E+03   0.990E+00 -.272E+00 0.182E+01   -.309E-05 -.165E-05 0.138E-05
   -.466E+01 -.157E+02 0.913E+02   0.458E+01 0.159E+02 -.911E+02   -.402E+00 0.214E+00 -.138E+01   0.227E-05 -.210E-05 0.787E-06
   -.975E+01 0.119E+02 0.146E+03   0.855E+01 -.122E+02 -.146E+03   -.653E+00 0.309E+00 0.437E+00   0.414E-05 0.337E-06 0.151E-05
   -.153E+02 0.206E+02 0.131E+03   0.148E+02 -.225E+02 -.131E+03   -.975E+00 -.899E+00 0.238E+00   0.138E-05 0.413E-05 -.131E-06
   -.234E+02 -.201E+02 0.146E+03   0.241E+02 0.219E+02 -.146E+03   0.293E+00 0.771E+00 0.222E-01   0.141E-05 -.292E-05 0.154E-06
   -.216E+02 0.390E+00 0.991E+02   0.218E+02 -.968E+00 -.991E+02   -.472E+00 0.207E+00 0.996E+00   -.431E-05 -.221E-07 -.144E-05
   -.200E+02 0.617E+01 0.123E+03   0.192E+02 -.640E+01 -.124E+03   -.620E+00 -.433E+00 0.822E+00   -.523E-05 -.180E-05 -.193E-05
   -.163E+02 0.141E+02 0.648E+02   0.165E+02 -.147E+02 -.650E+02   -.143E+00 -.965E-01 -.156E-01   -.555E-05 0.362E-06 -.241E-05
   -.223E+02 -.120E+02 0.837E+02   0.231E+02 0.124E+02 -.836E+02   0.558E+00 -.230E-01 -.241E+00   -.627E-05 -.140E-05 -.280E-05
   0.150E+02 -.108E+02 -.796E+01   -.159E+02 0.109E+02 0.802E+01   0.482E-01 0.470E+00 -.714E+00   -.872E-05 0.304E-06 -.252E-05
   -.183E+01 0.134E+02 0.653E+02   0.102E+01 -.148E+02 -.662E+02   -.729E+00 -.406E+00 0.604E+00   -.753E-05 -.155E-05 -.382E-05
   0.742E+00 0.446E+01 0.681E+01   -.756E+00 -.365E+01 -.727E+01   0.454E+00 0.743E+00 0.495E+00   -.235E-05 -.582E-06 -.165E-05
   -.753E+01 -.228E+01 0.305E+02   0.792E+01 0.180E+01 -.305E+02   -.104E+00 -.321E+00 -.135E+00   -.232E-05 -.528E-06 -.259E-05
   0.164E+01 -.862E+01 -.498E+02   -.139E+01 0.903E+01 0.499E+02   0.538E+00 -.305E+00 0.454E+00   0.402E-05 0.727E-06 0.103E-06
   0.305E+01 0.920E+00 -.123E+02   -.391E+01 -.526E+00 0.120E+02   -.842E+00 0.165E+00 0.599E-01   0.462E-05 -.384E-05 -.101E-05
   -.720E+01 0.204E+02 -.839E+02   0.849E+01 -.217E+02 0.841E+02   0.458E+00 0.390E+00 -.428E+00   0.103E-04 -.143E-05 0.947E-06
   -.664E+01 -.360E+01 -.612E+02   0.776E+01 0.360E+01 0.612E+02   0.726E+00 0.867E+00 0.262E+00   0.125E-04 0.115E-05 0.135E-05
   0.210E+01 -.183E+02 -.105E+03   -.179E+01 0.193E+02 0.105E+03   -.113E+01 0.553E+00 0.474E+00   0.915E-05 -.211E-05 0.178E-06
   -.219E+01 0.216E+02 -.105E+03   0.275E+01 -.231E+02 0.105E+03   0.152E+01 -.882E+00 -.867E+00   0.110E-04 0.227E-05 0.173E-06
   0.633E+00 0.219E+02 -.646E+02   -.624E+00 -.240E+02 0.643E+02   -.135E+01 -.167E+01 0.464E+00   0.290E-05 0.170E-05 -.953E-06
   0.114E+02 -.158E+02 -.735E+02   -.127E+02 0.177E+02 0.733E+02   0.248E+00 -.216E+00 -.313E-01   0.871E-06 -.444E-06 -.956E-06
   0.131E+02 -.630E+01 -.717E+02   -.156E+02 0.655E+01 0.717E+02   -.147E+01 0.456E+00 0.830E+00   0.984E-06 -.624E-06 -.914E-06
   -.177E+02 0.189E+02 -.732E+02   0.191E+02 -.207E+02 0.725E+02   0.553E+00 -.113E+01 0.564E+00   -.831E-05 0.563E-06 -.702E-06
   -.201E+02 -.384E+00 -.913E+02   0.222E+02 0.200E+01 0.913E+02   0.330E+00 0.130E+01 -.858E+00   -.337E-05 -.736E-05 -.106E-05
   -.315E+01 -.138E+02 -.893E+02   0.232E+01 0.138E+02 0.893E+02   -.684E+00 0.412E+00 -.223E+00   -.128E-05 -.353E-05 -.129E-05
   -.171E+02 -.466E+01 -.499E+02   0.171E+02 0.568E+01 0.492E+02   0.705E-01 0.149E+01 0.398E+00   -.728E-05 -.166E-05 0.137E-05
   -.580E+01 0.637E+01 -.629E+02   0.425E+01 -.767E+01 0.634E+02   -.251E+00 -.805E+00 -.212E+00   0.187E-05 0.307E-05 -.130E-05
   0.344E+01 0.549E+02 -.415E+01   -.712E+01 -.556E+02 0.547E+01   0.102E+01 0.149E+01 -.619E+00   -.369E-05 0.105E-05 0.934E-06
   -.136E+02 -.564E+02 -.294E+02   0.110E+02 0.568E+02 0.305E+02   0.434E+00 -.364E+01 -.490E+00   -.244E-06 0.172E-05 -.685E-07
 -----------------------------------------------------------------------------------------------
   -.580E+00 -.142E+00 0.144E+01   -.338E-13 0.263E-12 0.115E-11   0.622E+00 0.214E+00 -.150E+01   -.199E-05 0.412E-05 -.794E-05
 
 
 POSITION                                       TOTAL-FORCE (eV/Angst)
 -----------------------------------------------------------------------------------
      0.37350      0.93269     17.37350         2.017721     -2.456101     -0.831450
      0.37922      2.32489     17.31610        -1.193846     -2.755451      0.731270
      1.41776      0.18268     16.77450        -0.617121      1.410295      1.792884
      1.31496      2.88888     16.52280         1.687521      0.987369      0.130370
      2.60811      0.85943     16.49100         0.098787      1.325529     -0.435567
      2.56578      2.25667     16.36900         0.021756     -1.359614     -1.293873
      3.75881      0.24019     15.99450        -0.452717     -1.802784      0.807633
      3.66285      2.82853     15.68230        -0.346056      2.641878      0.700250
      4.97464      0.92586     15.80790         0.730263     -2.655216     -0.394708
      4.94471      2.26299     15.63920        -0.491010      0.151633     -0.401182
      6.19730      0.21665     15.56560        -1.121316      1.955786      0.149071
      6.12485      2.91636     15.28490         0.029671      0.357388     -0.726443
      7.43746      0.91351     15.46740        -1.645709     -1.365627      0.893725
      7.38306      2.30221     15.26430        -0.148440     -4.207750      1.248130
      8.60398      0.14727     15.67680         1.367984      1.503725     -0.931637
      8.63851      2.82522     15.31340         1.719708      3.312762      0.063383
      9.86421      0.80590     15.73830        -0.045009      0.462490      0.613299
      9.87256      2.20553     15.71770        -0.466199     -1.671293     -1.300757
     11.12790      0.14883     15.81360        -0.999454     -1.007194     -0.179507
     11.15070      2.80824     15.79330        -1.001211      2.456132      0.408869
     12.30500      0.77183     16.17450         1.039489      2.657184      0.321718
     12.34500      2.20107     16.19650        -2.686240     -3.796729     -0.363866
     13.53550      0.14444     16.36650         2.023692      0.067800      0.266714
     13.50520      2.81635     16.45150         2.893704      3.359556     -0.389173
     14.75750      0.80807     16.82910        -1.562173      0.603457     -0.495782
     14.70690      2.21421     16.85170         1.369249     -2.479547      1.039033
     15.98580      0.13847     17.07120        -0.463329      2.334195     -0.033206
     15.94680      2.84222     17.21210        -0.852640      0.040499      0.202881
     17.15880      0.81889     17.52190        -2.121672      0.950627      0.313191
     17.12450      2.19605     17.71710        -1.319979     -0.277744     -1.740697
     18.34250      0.19810     17.72860         1.865987     -1.085002      0.172117
     18.32470      2.88596     17.90250         0.755900     -1.102693      1.310927
     19.51350      0.89355     18.11850         1.184615     -2.474647      0.249601
     19.54150      2.21456     18.30350        -0.211090      2.838597     -0.436023
     20.76710      0.20145     18.20560        -0.285485      0.993282      0.487818
     20.82020      2.89783     18.47210        -0.031291     -1.061588     -1.228775
     22.02090      0.83934     18.38450         1.463637     -1.152760      0.036977
     22.07840      2.19050     18.44290        -0.822456      2.131188      0.487066
     23.29860      0.17057     18.32100         0.281306      2.404582      0.196147
     23.31980      2.86955     18.30870         0.858293     -1.774650     -0.047436
     24.59400      0.83703     18.32200        -0.557679     -2.228331     -1.109490
     24.58610      2.16858     18.24630         0.542841      2.710054     -0.012948
     25.80480      0.15527     17.89700        -0.501915      2.967603      1.880298
     25.84610      2.85210     17.91100        -0.972091     -2.258621      0.633111
     27.00440      0.81087     17.83550         1.142935      1.641394     -0.249267
     27.04780      2.19024     17.79590        -2.804450      1.078516      0.583959
      0.05911      4.89377     16.52030         3.487633      0.278852     -0.744707
      0.16308      6.26130     16.75920         2.728157      0.110271     -1.871062
      1.22103      4.20220     16.13040        -2.013057      0.653320      0.153355
      1.34975      6.93456     16.54070        -1.545759     -0.177939      0.068768
      2.34893      4.88379     15.69800         1.695912      1.247486     -0.091163
      2.43475      6.28614     15.97150        -0.148579     -1.863782     -0.936220
      3.56348      4.20102     15.38570         1.207150      0.764298      0.522082
      3.62177      6.95131     15.76360         3.354662      0.734341     -0.813695
      4.83658      4.92379     15.22820        -1.122556     -1.025896     -0.707034
      4.85627      6.28203     15.35430        -1.089735      1.714014      0.669205
      6.07982      4.27019     15.07050         0.624294     -0.209418      0.562777
      6.10287      6.98216     15.36120         1.097746     -2.209827      0.183629
      7.36072      4.88177     15.11120         0.063797      1.850346     -0.789639
      7.36124      6.28684     15.27910        -0.627044     -1.898157      0.031258
      8.62243      4.21542     15.12600         1.358759     -0.337546      1.053954
      8.60335      6.86425     15.54420         0.189261      1.346897     -1.230859
      9.90363      4.86174     15.30640        -0.019729     -0.373372     -0.073110
      9.85955      6.24392     15.33990         2.269682     -0.164204      1.203804
     11.16880      4.19401     15.63540        -0.475761      0.395652     -1.197371
     11.17450      6.88697     15.53740        -1.855211      0.064603      0.350168
     12.44460      4.87954     15.75540        -1.444938     -2.831045     -0.086596
     12.41180      6.21503     15.70230         1.011381      2.657535     -0.072178
     13.62230      4.19257     16.13500        -0.226191     -0.371852      1.059128
     13.64440      6.90830     16.06270        -1.370394     -0.669457      0.172378
     14.82910      4.86214     16.46720         0.041275     -0.691813     -0.189518
     14.83300      6.23831     16.39820         1.347702      0.398928     -0.103144
     15.98820      4.19255     16.99600        -0.838294      0.615503     -0.652953
     16.05250      6.92221     16.81020        -1.537280     -1.804252     -0.251449
     17.18430      4.85717     17.23400         0.439194      1.553736      0.032273
     17.22580      6.25234     17.15300         0.283492     -0.798819     -0.146035
     18.34720      4.22528     17.66980         0.778090      0.101382      0.554439
     18.40610      6.91927     17.54670        -1.700764      0.558445     -0.296712
     19.56510      4.88395     17.92070         1.750697     -0.878092     -0.180893
     19.55440      6.23950     17.84900         1.847648      0.865290      0.303697
     20.86090      4.23120     18.17470        -0.820752      1.522513      0.028920
     20.74990      6.96129     18.10500         2.075520     -2.432421     -0.553804
     22.13270      4.95312     18.08600        -1.340434     -3.791385      0.243384
     22.06000      6.28914     18.09170        -1.038836      1.655525     -0.218671
     23.38470      4.20999     18.08360        -3.949295      0.702725      0.878258
     23.29350      6.95774     18.09810         1.898848     -2.951457     -0.064218
     24.56910      4.83528     17.95530         2.347187      2.914980     -0.905670
     24.58150      6.23013     17.95050        -1.513900      0.410295     -0.280468
     25.79640      4.16853     17.67930         0.063620      2.506635     -0.308265
     25.80550      6.93877     17.71050        -1.794719     -2.109543      0.254776
     26.87810      4.88842     17.21530        -2.661901      0.816148      0.703728
     26.91840      6.32146     17.29300        -2.201059     -3.219622      0.616798
 -----------------------------------------------------------------------------------
    total drift:                                0.042645      0.071515     -0.058114


--------------------------------------------------------------------------------------------------------



  FREE ENERGIE OF THE ION-ELECTRON SYSTEM (eV)
  ---------------------------------------------------
  free  energy   TOTEN  =      -828.51593676 eV

  energy  without entropy=     -828.43057888  energy(sigma->0) =     -828.47325782
 


--------------------------------------------------------------------------------------------------------


    POTLOK:  cpu time      0.4543: real time      0.4543


--------------------------------------------------------------------------------------------------------


     LOOP+:  cpu time    343.6647: real time    343.8749
    4ORBIT:  cpu time      0.0000: real time      0.0000

 total amount of memory used by VASP MPI-rank0  2294522. kBytes
=======================================================================

   base                                    :      30000. kBytes
   nonlr-proj                              :      15088. kBytes
   fftplans                                :     436558. kBytes
   grid                                    :     732614. kBytes
   one-center                              :        282. kBytes
   wavefun                                 :    1079980. kBytes
 
  
  
 General timing and accounting informations for this job:
 ========================================================
  
                  Total CPU time used (sec):      377.549
                            User time (sec):      368.933
                          System time (sec):        8.616
                         Elapsed time (sec):      377.846
  
                   Maximum memory used (kb):     3734548.
                   Average memory used (kb):          N/A
  
                          Minor page faults:      3266596
                          Major page faults:         5000
                 Voluntary context switches:        10056
