<?xml version="1.0" encoding="ISO-8859-1"?>
<modeling>
 <generator>
  <i name="program" type="string">vasp </i>
  <i name="version" type="string">6.5.0  </i>
  <i name="subversion" type="string">16Dec24 (build Feb 19 2025 19:45:31) complex                          parallel </i>
  <i name="platform" type="string">LinuxNV </i>
  <i name="date" type="string">2025 10 25 </i>
  <i name="time" type="string">11:07:50 </i>
 </generator>
 <incar>
  <i type="int" name="ISTART">     0</i>
  <i type="string" name="PREC">Accurate   (Precision level)</i>
  <i type="string" name="ALGO">Normal</i>
  <i type="int" name="ISPIN">     1</i>
  <i type="int" name="ICHARG">     2</i>
  <i type="int" name="NELM">   150</i>
  <i type="int" name="IBRION">    -1</i>
  <i name="EDIFF">      0.00000100</i>
  <i type="int" name="NSW">     0</i>
  <i name="ENCUT">    500.00000000</i>
  <i type="string" name="LREAL">Auto         (Projection operators: automatic)</i>
  <i type="int" name="ISMEAR">     0</i>
  <i type="logical" name="KGAMMA"> T  </i>
  <i type="logical" name="LWAVE"> F  </i>
  <i type="logical" name="LCHARG"> F  </i>
 </incar>
 <primitive_cell>
  <structure name="primitive_cell" >
   <crystal>
    <varray name="basis" >
     <v>      28.05000000       0.00000000       0.00000000 </v>
     <v>       0.00000000       8.10000000       0.00000000 </v>
     <v>       0.00000000       0.00000000      33.50000000 </v>
    </varray>
    <i name="volume">   7611.36750000 </i>
    <varray name="rec_basis" >
     <v>       0.03565062       0.00000000       0.00000000 </v>
     <v>       0.00000000       0.12345679       0.00000000 </v>
     <v>       0.00000000       0.00000000       0.02985075 </v>
    </varray>
   </crystal>
   <varray name="positions" >
    <v>       0.01331537       0.11514642       0.51861194 </v>
    <v>       0.01351957       0.28702346       0.51689851 </v>
    <v>       0.05054403       0.02255346       0.50073134 </v>
    <v>       0.04687914       0.35665185       0.49321791 </v>
    <v>       0.09298075       0.10610210       0.49226866 </v>
    <v>       0.09147166       0.27860123       0.48862687 </v>
    <v>       0.13400392       0.02965259       0.47744776 </v>
    <v>       0.13058289       0.34920123       0.46812836 </v>
    <v>       0.17734902       0.11430321       0.47187761 </v>
    <v>       0.17628200       0.27938148       0.46684179 </v>
    <v>       0.22093761       0.02674654       0.46464478 </v>
    <v>       0.21835472       0.36004444       0.45626567 </v>
    <v>       0.26515009       0.11277901       0.46171343 </v>
    <v>       0.26321070       0.28422346       0.45565075 </v>
    <v>       0.30673725       0.01818148       0.46796418 </v>
    <v>       0.30796827       0.34879259       0.45711642 </v>
    <v>       0.35166524       0.09949420       0.46980000 </v>
    <v>       0.35196292       0.27228765       0.46918507 </v>
    <v>       0.39671658       0.01837432       0.47204776 </v>
    <v>       0.39752941       0.34669630       0.47144179 </v>
    <v>       0.43868093       0.09528704       0.48282090 </v>
    <v>       0.44010695       0.27173704       0.48347761 </v>
    <v>       0.48254902       0.01783247       0.48855224 </v>
    <v>       0.48146881       0.34769753       0.49108955 </v>
    <v>       0.52611408       0.09976160       0.50236119 </v>
    <v>       0.52431016       0.27335926       0.50303582 </v>
    <v>       0.56990374       0.01709457       0.50958806 </v>
    <v>       0.56851337       0.35089136       0.51379403 </v>
    <v>       0.61172193       0.10109778       0.52304179 </v>
    <v>       0.61049911       0.27111728       0.52886866 </v>
    <v>       0.65392157       0.02445667       0.52921194 </v>
    <v>       0.65328699       0.35629136       0.53440299 </v>
    <v>       0.69566845       0.11031519       0.54085075 </v>
    <v>       0.69666667       0.27340247       0.54637313 </v>
    <v>       0.74036007       0.02487086       0.54345075 </v>
    <v>       0.74225312       0.35775679       0.55140597 </v>
    <v>       0.78505882       0.10362235       0.54879104 </v>
    <v>       0.78710873       0.27043210       0.55053433 </v>
    <v>       0.83060963       0.02105765       0.54689552 </v>
    <v>       0.83136542       0.35426543       0.54652836 </v>
    <v>       0.87679144       0.10333691       0.54692537 </v>
    <v>       0.87650980       0.26772593       0.54466567 </v>
    <v>       0.91995722       0.01916951       0.53423881 </v>
    <v>       0.92142959       0.35211111       0.53465672 </v>
    <v>       0.96272371       0.10010741       0.53240299 </v>
    <v>       0.96427094       0.27040000       0.53122090 </v>
    <v>       0.00210743       0.60416914       0.49314328 </v>
    <v>       0.00581390       0.77300000       0.50027463 </v>
    <v>       0.04353048       0.51879012       0.48150448 </v>
    <v>       0.04811943       0.85611852       0.49375224 </v>
    <v>       0.08374082       0.60293704       0.46859701 </v>
    <v>       0.08680036       0.77606667       0.47676119 </v>
    <v>       0.12704029       0.51864444       0.45927463 </v>
    <v>       0.12911836       0.85818642       0.47055522 </v>
    <v>       0.17242709       0.60787531       0.45457313 </v>
    <v>       0.17312906       0.77555926       0.45833731 </v>
    <v>       0.21674938       0.52718395       0.44986567 </v>
    <v>       0.21757112       0.86199506       0.45854328 </v>
    <v>       0.26241426       0.60268765       0.45108060 </v>
    <v>       0.26243280       0.77615309       0.45609254 </v>
    <v>       0.30739501       0.52042222       0.45152239 </v>
    <v>       0.30671480       0.84743827       0.46400597 </v>
    <v>       0.35307059       0.60021481       0.45690746 </v>
    <v>       0.35149911       0.77085432       0.45790746 </v>
    <v>       0.39817469       0.51777901       0.46672836 </v>
    <v>       0.39837790       0.85024321       0.46380299 </v>
    <v>       0.44365775       0.60241235       0.47031045 </v>
    <v>       0.44248841       0.76728765       0.46872537 </v>
    <v>       0.48564349       0.51760123       0.48164179 </v>
    <v>       0.48643137       0.85287654       0.47948358 </v>
    <v>       0.52866667       0.60026420       0.49155821 </v>
    <v>       0.52880570       0.77016173       0.48949851 </v>
    <v>       0.56998930       0.51759877       0.50734328 </v>
    <v>       0.57228164       0.85459383       0.50179701 </v>
    <v>       0.61263102       0.59965062       0.51444776 </v>
    <v>       0.61411052       0.77189383       0.51202985 </v>
    <v>       0.65408913       0.52163951       0.52745672 </v>
    <v>       0.65618895       0.85423086       0.52378209 </v>
    <v>       0.69750802       0.60295679       0.53494627 </v>
    <v>       0.69712656       0.77030864       0.53280597 </v>
    <v>       0.74370410       0.52237037       0.54252836 </v>
    <v>       0.73974688       0.85941852       0.54044776 </v>
    <v>       0.78904456       0.61149630       0.53988060 </v>
    <v>       0.78645276       0.77643704       0.54005075 </v>
    <v>       0.83367914       0.51975185       0.53980896 </v>
    <v>       0.83042781       0.85898025       0.54024179 </v>
    <v>       0.87590374       0.59694815       0.53597910 </v>
    <v>       0.87634581       0.76915185       0.53583582 </v>
    <v>       0.91965775       0.51463333       0.52774030 </v>
    <v>       0.91998217       0.85663827       0.52867164 </v>
    <v>       0.95822103       0.60350864       0.51388955 </v>
    <v>       0.95965775       0.78042716       0.51620896 </v>
   </varray>
  </structure>
  <varray name="primitive_index" >
   <v type="int" >        1 </v>
   <v type="int" >        2 </v>
   <v type="int" >        3 </v>
   <v type="int" >        4 </v>
   <v type="int" >        5 </v>
   <v type="int" >        6 </v>
   <v type="int" >        7 </v>
   <v type="int" >        8 </v>
   <v type="int" >        9 </v>
   <v type="int" >       10 </v>
   <v type="int" >       11 </v>
   <v type="int" >       12 </v>
   <v type="int" >       13 </v>
   <v type="int" >       14 </v>
   <v type="int" >       15 </v>
   <v type="int" >       16 </v>
   <v type="int" >       17 </v>
   <v type="int" >       18 </v>
   <v type="int" >       19 </v>
   <v type="int" >       20 </v>
   <v type="int" >       21 </v>
   <v type="int" >       22 </v>
   <v type="int" >       23 </v>
   <v type="int" >       24 </v>
   <v type="int" >       25 </v>
   <v type="int" >       26 </v>
   <v type="int" >       27 </v>
   <v type="int" >       28 </v>
   <v type="int" >       29 </v>
   <v type="int" >       30 </v>
   <v type="int" >       31 </v>
   <v type="int" >       32 </v>
   <v type="int" >       33 </v>
   <v type="int" >       34 </v>
   <v type="int" >       35 </v>
   <v type="int" >       36 </v>
   <v type="int" >       37 </v>
   <v type="int" >       38 </v>
   <v type="int" >       39 </v>
   <v type="int" >       40 </v>
   <v type="int" >       41 </v>
   <v type="int" >       42 </v>
   <v type="int" >       43 </v>
   <v type="int" >       44 </v>
   <v type="int" >       45 </v>
   <v type="int" >       46 </v>
   <v type="int" >       47 </v>
   <v type="int" >       48 </v>
   <v type="int" >       49 </v>
   <v type="int" >       50 </v>
   <v type="int" >       51 </v>
   <v type="int" >       52 </v>
   <v type="int" >       53 </v>
   <v type="int" >       54 </v>
   <v type="int" >       55 </v>
   <v type="int" >       56 </v>
   <v type="int" >       57 </v>
   <v type="int" >       58 </v>
   <v type="int" >       59 </v>
   <v type="int" >       60 </v>
   <v type="int" >       61 </v>
   <v type="int" >       62 </v>
   <v type="int" >       63 </v>
   <v type="int" >       64 </v>
   <v type="int" >       65 </v>
   <v type="int" >       66 </v>
   <v type="int" >       67 </v>
   <v type="int" >       68 </v>
   <v type="int" >       69 </v>
   <v type="int" >       70 </v>
   <v type="int" >       71 </v>
   <v type="int" >       72 </v>
   <v type="int" >       73 </v>
   <v type="int" >       74 </v>
   <v type="int" >       75 </v>
   <v type="int" >       76 </v>
   <v type="int" >       77 </v>
   <v type="int" >       78 </v>
   <v type="int" >       79 </v>
   <v type="int" >       80 </v>
   <v type="int" >       81 </v>
   <v type="int" >       82 </v>
   <v type="int" >       83 </v>
   <v type="int" >       84 </v>
   <v type="int" >       85 </v>
   <v type="int" >       86 </v>
   <v type="int" >       87 </v>
   <v type="int" >       88 </v>
   <v type="int" >       89 </v>
   <v type="int" >       90 </v>
   <v type="int" >       91 </v>
   <v type="int" >       92 </v>
  </varray>
 </primitive_cell>
 <kpoints>
  <generation param="Gamma">
   <v type="int" name="divisions">       1        4        1 </v>
   <v name="usershift">      0.00000000       0.00000000       0.00000000 </v>
   <v name="genvec1">      1.00000000       0.00000000       0.00000000 </v>
   <v name="genvec2">      0.00000000       0.25000000       0.00000000 </v>
   <v name="genvec3">      0.00000000       0.00000000       1.00000000 </v>
   <v name="shift">      0.00000000       0.00000000       0.00000000 </v>
  </generation>
  <varray name="kpointlist" >
   <v>       0.00000000       0.00000000       0.00000000 </v>
   <v>       0.00000000       0.25000000       0.00000000 </v>
   <v>       0.00000000       0.50000000       0.00000000 </v>
  </varray>
  <varray name="weights" >
   <v>       0.25000000 </v>
   <v>       0.50000000 </v>
   <v>       0.25000000 </v>
  </varray>
 </kpoints>
 <parameters>
  <separator name="general" >
   <i type="string" name="SYSTEM">unknown system</i>
   <i type="logical" name="LCOMPAT"> F  </i>
  </separator>
  <separator name="electronic" >
   <i type="string" name="PREC">accura</i>
   <i name="ENMAX">    500.00000000</i>
   <i name="ENAUG">    644.87300000</i>
   <i name="EDIFF">      0.00000100</i>
   <i type="int" name="IALGO">    38</i>
   <i type="int" name="IWAVPR">    10</i>
   <i type="int" name="NBANDS">   232</i>
   <i type="int" name="NBANDSLOW">    -1</i>
   <i type="int" name="NBANDSHIGH">    -1</i>
   <i name="NELECT">    368.00000000</i>
   <i type="int" name="TURBO">     0</i>
   <i type="int" name="IRESTART">     0</i>
   <i type="int" name="NREBOOT">     0</i>
   <i type="int" name="NMIN">     0</i>
   <i name="EREF">      0.00000000</i>
   <separator name="electronic smearing" >
    <i type="int" name="ISMEAR">     0</i>
    <i name="SIGMA">      0.20000000</i>
    <i name="KSPACING">      0.50000000</i>
    <i type="logical" name="KGAMMA"> T  </i>
    <i type="logical" name="KBLOWUP"> T  </i>
   </separator>
   <separator name="electronic projectors" >
    <i type="logical" name="LREAL"> T  </i>
    <v name="ROPT">     -0.00025000</v>
    <i type="int" name="LMAXPAW">  -100</i>
    <i type="int" name="LMAXMIX">     2</i>
    <i type="logical" name="NLSPLINE"> F  </i>
   </separator>
   <separator name="electronic startup" >
    <i type="int" name="ISTART">     0</i>
    <i type="int" name="ICHARG">     2</i>
    <i type="int" name="INIWAV">     1</i>
   </separator>
   <separator name="electronic spin" >
    <i type="int" name="ISPIN">     1</i>
    <i type="logical" name="LNONCOLLINEAR"> F  </i>
    <v name="MAGMOM">      1.00000000      1.00000000      1.00000000      1.00000000      1.00000000      1.00000000      1.00000000      1.00000000      1.00000000      1.00000000      1.00000000      1.00000000      1.00000000      1.00000000      1.00000000      1.00000000      1.00000000      1.00000000      1.00000000      1.00000000
      1.00000000      1.00000000      1.00000000      1.00000000      1.00000000      1.00000000      1.00000000      1.00000000      1.00000000      1.00000000      1.00000000      1.00000000      1.00000000      1.00000000      1.00000000      1.00000000      1.00000000      1.00000000      1.00000000      1.00000000
      1.00000000      1.00000000      1.00000000      1.00000000      1.00000000      1.00000000      1.00000000      1.00000000      1.00000000      1.00000000      1.00000000      1.00000000      1.00000000      1.00000000      1.00000000      1.00000000      1.00000000      1.00000000      1.00000000      1.00000000
      1.00000000      1.00000000      1.00000000      1.00000000      1.00000000      1.00000000      1.00000000      1.00000000      1.00000000      1.00000000      1.00000000      1.00000000      1.00000000      1.00000000      1.00000000      1.00000000      1.00000000      1.00000000      1.00000000      1.00000000
      1.00000000      1.00000000      1.00000000      1.00000000      1.00000000      1.00000000      1.00000000      1.00000000      1.00000000      1.00000000      1.00000000      1.00000000</v>
    <i name="NUPDOWN">     -1.00000000</i>
    <i type="logical" name="LSORBIT"> F  </i>
    <v name="SAXIS">      0.00000000      0.00000000      1.00000000</v>
    <i type="logical" name="LSPIRAL"> F  </i>
    <v name="QSPIRAL">      0.00000000      0.00000000      0.00000000</v>
    <i type="logical" name="LZEROZ"> F  </i>
   </separator>
   <separator name="electronic exchange-correlation" >
    <i type="logical" name="LASPH"> F  </i>
   </separator>
   <separator name="electronic convergence" >
    <i type="int" name="NELM">   150</i>
    <i type="int" name="NELMDL">    -5</i>
    <i type="int" name="NELMIN">     2</i>
    <i name="ENINI">    500.00000000</i>
    <separator name="electronic convergence detail" >
     <i type="logical" name="LDIAG"> T  </i>
     <i type="logical" name="LSUBROT"> F  </i>
     <i name="WEIMIN">      0.00000000</i>
     <i name="EBREAK">      0.00000000</i>
     <i name="DEPER">      0.30000000</i>
     <i type="int" name="NRMM">     4</i>
     <i name="TIME">      0.40000000</i>
    </separator>
   </separator>
   <separator name="electronic mixer" >
    <i name="AMIX">      0.40000000</i>
    <i name="BMIX">      1.00000000</i>
    <i name="AMIN">      0.10000000</i>
    <i name="AMIX_MAG">      1.60000000</i>
    <i name="BMIX_MAG">      1.00000000</i>
    <separator name="electronic mixer details" >
     <i type="int" name="IMIX">     4</i>
     <i type="logical" name="MIXFIRST"> F  </i>
     <i type="int" name="MAXMIX">   -45</i>
     <i name="WC">    100.00000000</i>
     <i type="int" name="INIMIX">     1</i>
     <i type="int" name="MIXPRE">     1</i>
     <i type="int" name="MREMOVE">     5</i>
    </separator>
   </separator>
   <separator name="electronic dipolcorrection" >
    <i type="logical" name="LDIPOL"> F  </i>
    <i type="logical" name="LMONO"> F  </i>
    <i type="int" name="IDIPOL">     0</i>
    <i name="EPSILON">      1.00000000</i>
    <v name="DIPOL">   -100.00000000   -100.00000000   -100.00000000</v>
    <i name="EFIELD">      0.00000000</i>
    <i type="logical" name="LVACPOTAV"> F  </i>
   </separator>
  </separator>
  <separator name="grids" >
   <i type="int" name="NGX">   210</i>
   <i type="int" name="NGY">    60</i>
   <i type="int" name="NGZ">   250</i>
   <i type="int" name="NGXF">   420</i>
   <i type="int" name="NGYF">   120</i>
   <i type="int" name="NGZF">   500</i>
   <i type="logical" name="ADDGRID"> F  </i>
  </separator>
  <separator name="ionic" >
   <i type="int" name="NSW">     0</i>
   <i type="int" name="IBRION">    -1</i>
   <i type="int" name="MDALGO">     0</i>
   <i type="int" name="ISIF">     2</i>
   <i name="PSTRESS">      0.00000000</i>
   <i name="EDIFFG">      0.00001000</i>
   <i type="int" name="NFREE">     0</i>
   <i name="POTIM">      0.50000000</i>
   <i name="SMASS">     -3.00000000</i>
   <i name="SCALEE">      1.00000000</i>
  </separator>
  <separator name="ionic md" >
   <i name="TEBEG">      0.00010000</i>
   <i name="TEEND">      0.00010000</i>
   <i type="int" name="NBLOCK">     1</i>
   <i type="int" name="KBLOCK">     1</i>
   <i type="int" name="NPACO">   256</i>
   <i name="APACO">     10.00000000</i>
  </separator>
  <separator name="symmetry" >
   <i type="int" name="ISYM">     2</i>
   <i name="SYMPREC">      0.00001000</i>
  </separator>
  <separator name="dos" >
   <i type="int" name="LORBIT">     0</i>
   <v name="RWIGS">     -1.00000000</v>
   <i type="int" name="NEDOS">   301</i>
   <i name="EMIN">     10.00000000</i>
   <i name="EMAX">    -10.00000000</i>
   <i name="EFERMI">      0.00000000</i>
  </separator>
  <separator name="writing" >
   <i type="int" name="NWRITE">     2</i>
   <i type="logical" name="LWAVE"> F  </i>
   <i type="logical" name="LDOWNSAMPLE"> F  </i>
   <i type="logical" name="LCHARG"> F  </i>
   <i type="logical" name="LPARD"> F  </i>
   <i type="logical" name="LVTOT"> F  </i>
   <i type="logical" name="LVHAR"> F  </i>
   <i type="logical" name="LELF"> F  </i>
   <i type="logical" name="LOPTICS"> F  </i>
   <v name="STM">      0.00000000      0.00000000      0.00000000      0.00000000      0.00000000      0.00000000      0.00000000</v>
  </separator>
  <separator name="performance" >
   <i type="int" name="NPAR">     2</i>
   <i type="int" name="NSIM">     4</i>
   <i type="int" name="NBLK">    -1</i>
   <i type="logical" name="LPLANE"> T  </i>
   <i type="logical" name="LSCALAPACK"> T  </i>
   <i type="logical" name="LSCAAWARE"> F  </i>
   <i type="logical" name="LSCALU"> F  </i>
   <i type="logical" name="LASYNC"> F  </i>
   <i type="logical" name="LORBITALREAL"> F  </i>
  </separator>
  <separator name="miscellaneous" >
   <i type="int" name="IDIOT">     3</i>
   <i type="int" name="PHON_NSTRUCT">    -1</i>
   <i type="logical" name="LMUSIC"> F  </i>
   <v name="POMASS">     12.01100000</v>
   <v name="DARWINR">      0.00000000</v>
   <v name="DARWINV">      1.00000000</v>
   <i type="logical" name="LCORR"> T  </i>
  </separator>
  <i type="logical" name="GGA_COMPAT"> T  </i>
  <i type="logical" name="LBERRY"> F  </i>
  <i type="int" name="ICORELEVEL">     0</i>
  <i type="logical" name="LDAU"> F  </i>
  <i type="int" name="I_CONSTRAINED_M">     0</i>
  <separator name="electronic exchange-correlation" >
   <i type="string" name="GGA    ">PE</i>
   <i type="string" name="XC_C">1</i>
   <i type="int" name="VOSKOWN">     0</i>
   <i type="logical" name="LHFCALC"> F  </i>
   <i type="string" name="PRECFOCK"></i>
   <i type="logical" name="LSYMGRAD"> F  </i>
   <i type="logical" name="LHFONE"> F  </i>
   <i type="logical" name="LRHFCALC"> F  </i>
   <i type="logical" name="LTHOMAS"> F  </i>
   <i type="logical" name="LMODELHF"> F  </i>
   <i type="logical" name="LFOCKACE"> F  </i>
   <i name="ENCUT4O">     -1.00000000</i>
   <i type="int" name="EXXOEP">     0</i>
   <i type="int" name="FOURORBIT">     0</i>
   <i name="AEXX">      0.00000000</i>
   <i name="HFALPHA">      0.00000000</i>
   <i name="MCALPHA">      0.00000000</i>
   <i name="ALDAX">      1.00000000</i>
   <i name="AGGAX">      1.00000000</i>
   <i name="AMGGAX">      1.00000000</i>
   <i name="ALDAC">      1.00000000</i>
   <i name="AGGAC">      1.00000000</i>
   <i name="AMGGAC">      1.00000000</i>
   <i type="int" name="NKREDX">     1</i>
   <i type="int" name="NKREDY">     1</i>
   <i type="int" name="NKREDZ">     1</i>
   <i type="logical" name="SHIFTRED"> F  </i>
   <i type="logical" name="ODDONLY"> F  </i>
   <i type="logical" name="EVENONLY"> F  </i>
   <i type="int" name="LMAXFOCK">     0</i>
   <i type="int" name="NMAXFOCKAE">     0</i>
   <i type="logical" name="LFOCKAEDFT"> F  </i>
   <i name="HFSCREEN">      0.00000000</i>
   <i name="HFSCREENC">      0.00000000</i>
   <i type="int" name="NBANDSGWLOW">     0</i>
  </separator>
  <separator name="vdW DFT" >
   <i type="logical" name="LUSE_VDW"> F  </i>
   <i type="int" name="IVDW_NL">    -1</i>
   <i type="logical" name="LSPIN_VDW"> F  </i>
   <i name="ZAB_VDW">     -0.84910000</i>
   <i name="GAMMA_VDW">      1.39626340</i>
   <i name="ALPHA_VDW">      0.00000000</i>
   <i name="PARAM1">      0.12340000</i>
   <i name="PARAM2">      1.00000000</i>
   <i name="BPARAM">      6.30000000</i>
   <i name="CPARAM">      0.00930000</i>
  </separator>
  <separator name="model GW" >
   <i type="int" name="MODEL_GW">     0</i>
   <i name="MODEL_EPS0">     49.63935326</i>
   <i name="MODEL_ALPHA">      1.00000000</i>
  </separator>
  <separator name="linear response parameters" >
   <i type="logical" name="LEPSILON"> F  </i>
   <i type="logical" name="LRPA"> F  </i>
   <i type="logical" name="LNABLA"> F  </i>
   <i type="logical" name="LVEL"> F  </i>
   <i name="CSHIFT">      0.10000000</i>
   <i name="OMEGAMAX">     -1.00000000</i>
   <i name="DEG_THRESHOLD">      0.00200000</i>
   <i name="RTIME">     -0.10000000</i>
   <i name="WPLASMAI">      0.00000000</i>
   <v name="DFIELD">      0.00000000      0.00000000      0.00000000</v>
   <v name="WPLASMA">      0.00000000      0.00000000      0.00000000      0.00000000      0.00000000      0.00000000      0.00000000      0.00000000      0.00000000</v>
  </separator>
  <separator name="orbital magnetization" >
   <i type="logical" name="NUCIND"> F  </i>
   <v name="MAGPOS">      0.00000000      0.00000000      0.00000000</v>
   <i type="logical" name="LNICSALL"> T  </i>
   <i type="logical" name="ORBITALMAG"> F  </i>
   <i type="logical" name="LMAGBLOCH"> F  </i>
   <i type="logical" name="LCHIMAG"> F  </i>
   <i type="logical" name="LGAUGE"> T  </i>
   <i type="int" name="MAGATOM">     0</i>
   <v name="MAGDIPOL">      0.00000000      0.00000000      0.00000000</v>
   <v name="AVECCONST">      0.00000000      0.00000000      0.00000000</v>
  </separator>
  <separator name="response functions" >
   <i type="logical" name="LALL_IN_ONE"> F  </i>
   <i type="int" name="IALL_IN_ONE">    -1</i>
   <i type="int" name="NBANDS_WAVE">    -1</i>
   <i type="logical" name="LFINITE_TEMPERATURE"> F  </i>
   <i type="logical" name="LADDER"> F  </i>
   <i type="logical" name="LRPAFORCE"> F  </i>
   <i type="logical" name="LFXC"> F  </i>
   <i type="logical" name="LHARTREE"> T  </i>
   <i type="int" name="IBSE">     2</i>
   <v type="int" name="KPOINT">    -1     0     0     0</v>
   <i type="logical" name="LTCTC"> F  </i>
   <i type="logical" name="LTCTE"> F  </i>
   <i type="logical" name="LTETE"> F  </i>
   <i type="logical" name="LTRIPLET"> F  </i>
   <i type="logical" name="LFXCEPS"> F  </i>
   <i type="logical" name="LFXHEG"> F  </i>
   <i type="int" name="NATURALO">     2</i>
   <i type="logical" name="LHOLEGF"> F  </i>
   <i type="logical" name="L2ORDER"> F  </i>
   <i type="logical" name="LDMP1"> F  </i>
   <i type="logical" name="LMP2LT"> F  </i>
   <i type="logical" name="LSMP2LT"> F  </i>
   <i type="logical" name="LGWLF"> F  </i>
   <i name="ENCUTGW">     -1.60000002</i>
   <i name="ENCUTGWSOFT">     -1.60000002</i>
   <i name="ENCUTLF">     -1.00000000</i>
   <i type="logical" name="ESF_SPLINES"> F  </i>
   <i name="ESF_CONV">      0.01000000</i>
   <i type="int" name="ESF_NINTER">    15</i>
   <i type="int" name="LMAXMP2">    -1</i>
   <i name="SCISSOR">      0.00000000</i>
   <i type="int" name="NOMEGA">     0</i>
   <i type="int" name="NOMEGAR">     0</i>
   <i type="int" name="NBANDSGW">    -1</i>
   <i type="int" name="NBANDSO">    -1</i>
   <i type="int" name="NBANDSV">    -1</i>
   <i type="int" name="NELMGW">     1</i>
   <i type="int" name="NELMHF">     1</i>
   <i type="int" name="DIM">     3</i>
   <i type="int" name="IESPILON">     4</i>
   <i type="int" name="ANTIRES">     0</i>
   <i name="OMEGAMAX">    -30.00000000</i>
   <i name="OMEGAMIN">    -30.00000000</i>
   <i name="OMEGATL">   -200.00000000</i>
   <i type="int" name="OMEGAGRID">     0</i>
   <i name="CSHIFT">     -0.10000000</i>
   <i type="logical" name="LSELFENERGY"> F  </i>
   <i type="logical" name="LSPECTRAL"> F  </i>
   <i type="logical" name="LSPECTRALGW"> F  </i>
   <i type="logical" name="LSINGLES"> F  </i>
   <i type="logical" name="LFERMIGW"> F  </i>
   <i type="logical" name="ODDONLYGW"> F  </i>
   <i type="logical" name="EVENONLYGW"> F  </i>
   <i type="int" name="NKREDLFX">     1</i>
   <i type="int" name="NKREDLFY">     1</i>
   <i type="int" name="NKREDLFZ">     1</i>
   <i type="int" name="MAXMEM">  2800</i>
   <i type="int" name="TELESCOPE">     0</i>
   <i type="int" name="NTAUPAR">    -1</i>
   <i type="int" name="NOMEGAPAR">    -1</i>
   <i name="DAMP_NEWTON">      0.80000001</i>
   <i name="LAMBDA">      1.00000000</i>
  </separator>
  <separator name="External order field" >
   <i name="OFIELD_KAPPA">      0.00000000</i>
   <v name="OFIELD_K">      0.00000000      0.00000000      0.00000000</v>
   <i name="OFIELD_Q6_NEAR">      0.00000000</i>
   <i name="OFIELD_Q6_FAR">      0.00000000</i>
   <i name="OFIELD_A">      0.00000000</i>
  </separator>
  <separator name="optional k-points parameters" >
   <i type="int" name="KPOINTS_OPT_MODE">     1</i>
   <i type="logical" name="LKPOINTS_OPT"> F  </i>
  </separator>
 </parameters>
 <atominfo>
  <atoms>      92 </atoms>
  <types>       1 </types>
  <array name="atoms" >
   <dimension dim="1">ion</dimension>
   <field type="string">element</field>
   <field type="int">atomtype</field>
   <set>
    <rc><c>C </c><c>   1</c></rc>
    <rc><c>C </c><c>   1</c></rc>
    <rc><c>C </c><c>   1</c></rc>
    <rc><c>C </c><c>   1</c></rc>
    <rc><c>C </c><c>   1</c></rc>
    <rc><c>C </c><c>   1</c></rc>
    <rc><c>C </c><c>   1</c></rc>
    <rc><c>C </c><c>   1</c></rc>
    <rc><c>C </c><c>   1</c></rc>
    <rc><c>C </c><c>   1</c></rc>
    <rc><c>C </c><c>   1</c></rc>
    <rc><c>C </c><c>   1</c></rc>
    <rc><c>C </c><c>   1</c></rc>
    <rc><c>C </c><c>   1</c></rc>
    <rc><c>C </c><c>   1</c></rc>
    <rc><c>C </c><c>   1</c></rc>
    <rc><c>C </c><c>   1</c></rc>
    <rc><c>C </c><c>   1</c></rc>
    <rc><c>C </c><c>   1</c></rc>
    <rc><c>C </c><c>   1</c></rc>
    <rc><c>C </c><c>   1</c></rc>
    <rc><c>C </c><c>   1</c></rc>
    <rc><c>C </c><c>   1</c></rc>
    <rc><c>C </c><c>   1</c></rc>
    <rc><c>C </c><c>   1</c></rc>
    <rc><c>C </c><c>   1</c></rc>
    <rc><c>C </c><c>   1</c></rc>
    <rc><c>C </c><c>   1</c></rc>
    <rc><c>C </c><c>   1</c></rc>
    <rc><c>C </c><c>   1</c></rc>
    <rc><c>C </c><c>   1</c></rc>
    <rc><c>C </c><c>   1</c></rc>
    <rc><c>C </c><c>   1</c></rc>
    <rc><c>C </c><c>   1</c></rc>
    <rc><c>C </c><c>   1</c></rc>
    <rc><c>C </c><c>   1</c></rc>
    <rc><c>C </c><c>   1</c></rc>
    <rc><c>C </c><c>   1</c></rc>
    <rc><c>C </c><c>   1</c></rc>
    <rc><c>C </c><c>   1</c></rc>
    <rc><c>C </c><c>   1</c></rc>
    <rc><c>C </c><c>   1</c></rc>
    <rc><c>C </c><c>   1</c></rc>
    <rc><c>C </c><c>   1</c></rc>
    <rc><c>C </c><c>   1</c></rc>
    <rc><c>C </c><c>   1</c></rc>
    <rc><c>C </c><c>   1</c></rc>
    <rc><c>C </c><c>   1</c></rc>
    <rc><c>C </c><c>   1</c></rc>
    <rc><c>C </c><c>   1</c></rc>
    <rc><c>C </c><c>   1</c></rc>
    <rc><c>C </c><c>   1</c></rc>
    <rc><c>C </c><c>   1</c></rc>
    <rc><c>C </c><c>   1</c></rc>
    <rc><c>C </c><c>   1</c></rc>
    <rc><c>C </c><c>   1</c></rc>
    <rc><c>C </c><c>   1</c></rc>
    <rc><c>C </c><c>   1</c></rc>
    <rc><c>C </c><c>   1</c></rc>
    <rc><c>C </c><c>   1</c></rc>
    <rc><c>C </c><c>   1</c></rc>
    <rc><c>C </c><c>   1</c></rc>
    <rc><c>C </c><c>   1</c></rc>
    <rc><c>C </c><c>   1</c></rc>
    <rc><c>C </c><c>   1</c></rc>
    <rc><c>C </c><c>   1</c></rc>
    <rc><c>C </c><c>   1</c></rc>
    <rc><c>C </c><c>   1</c></rc>
    <rc><c>C </c><c>   1</c></rc>
    <rc><c>C </c><c>   1</c></rc>
    <rc><c>C </c><c>   1</c></rc>
    <rc><c>C </c><c>   1</c></rc>
    <rc><c>C </c><c>   1</c></rc>
    <rc><c>C </c><c>   1</c></rc>
    <rc><c>C </c><c>   1</c></rc>
    <rc><c>C </c><c>   1</c></rc>
    <rc><c>C </c><c>   1</c></rc>
    <rc><c>C </c><c>   1</c></rc>
    <rc><c>C </c><c>   1</c></rc>
    <rc><c>C </c><c>   1</c></rc>
    <rc><c>C </c><c>   1</c></rc>
    <rc><c>C </c><c>   1</c></rc>
    <rc><c>C </c><c>   1</c></rc>
    <rc><c>C </c><c>   1</c></rc>
    <rc><c>C </c><c>   1</c></rc>
    <rc><c>C </c><c>   1</c></rc>
    <rc><c>C </c><c>   1</c></rc>
    <rc><c>C </c><c>   1</c></rc>
    <rc><c>C </c><c>   1</c></rc>
    <rc><c>C </c><c>   1</c></rc>
    <rc><c>C </c><c>   1</c></rc>
    <rc><c>C </c><c>   1</c></rc>
   </set>
  </array>
  <array name="atomtypes" >
   <dimension dim="1">type</dimension>
   <field type="int">atomspertype</field>
   <field type="string">element</field>
   <field>mass</field>
   <field>valence</field>
   <field type="string">pseudopotential</field>
   <set>
    <rc><c>  92</c><c>C </c><c>     12.01100000</c><c>      4.00000000</c><c>  PAW_PBE C 08Apr2002                   </c></rc>
   </set>
  </array>
 </atominfo>
 <structure name="initialpos" >
  <crystal>
   <varray name="basis" >
    <v>      28.05000000       0.00000000       0.00000000 </v>
    <v>       0.00000000       8.10000000       0.00000000 </v>
    <v>       0.00000000       0.00000000      33.50000000 </v>
   </varray>
   <i name="volume">   7611.36750000 </i>
   <varray name="rec_basis" >
    <v>       0.03565062       0.00000000       0.00000000 </v>
    <v>       0.00000000       0.12345679       0.00000000 </v>
    <v>       0.00000000       0.00000000       0.02985075 </v>
   </varray>
  </crystal>
  <varray name="positions" >
   <v>       0.01331537       0.11514642       0.51861194 </v>
   <v>       0.01351957       0.28702346       0.51689851 </v>
   <v>       0.05054403       0.02255346       0.50073134 </v>
   <v>       0.04687914       0.35665185       0.49321791 </v>
   <v>       0.09298075       0.10610210       0.49226866 </v>
   <v>       0.09147166       0.27860123       0.48862687 </v>
   <v>       0.13400392       0.02965259       0.47744776 </v>
   <v>       0.13058289       0.34920123       0.46812836 </v>
   <v>       0.17734902       0.11430321       0.47187761 </v>
   <v>       0.17628200       0.27938148       0.46684179 </v>
   <v>       0.22093761       0.02674654       0.46464478 </v>
   <v>       0.21835472       0.36004444       0.45626567 </v>
   <v>       0.26515009       0.11277901       0.46171343 </v>
   <v>       0.26321070       0.28422346       0.45565075 </v>
   <v>       0.30673725       0.01818148       0.46796418 </v>
   <v>       0.30796827       0.34879259       0.45711642 </v>
   <v>       0.35166524       0.09949420       0.46980000 </v>
   <v>       0.35196292       0.27228765       0.46918507 </v>
   <v>       0.39671658       0.01837432       0.47204776 </v>
   <v>       0.39752941       0.34669630       0.47144179 </v>
   <v>       0.43868093       0.09528704       0.48282090 </v>
   <v>       0.44010695       0.27173704       0.48347761 </v>
   <v>       0.48254902       0.01783247       0.48855224 </v>
   <v>       0.48146881       0.34769753       0.49108955 </v>
   <v>       0.52611408       0.09976160       0.50236119 </v>
   <v>       0.52431016       0.27335926       0.50303582 </v>
   <v>       0.56990374       0.01709457       0.50958806 </v>
   <v>       0.56851337       0.35089136       0.51379403 </v>
   <v>       0.61172193       0.10109778       0.52304179 </v>
   <v>       0.61049911       0.27111728       0.52886866 </v>
   <v>       0.65392157       0.02445667       0.52921194 </v>
   <v>       0.65328699       0.35629136       0.53440299 </v>
   <v>       0.69566845       0.11031519       0.54085075 </v>
   <v>       0.69666667       0.27340247       0.54637313 </v>
   <v>       0.74036007       0.02487086       0.54345075 </v>
   <v>       0.74225312       0.35775679       0.55140597 </v>
   <v>       0.78505882       0.10362235       0.54879104 </v>
   <v>       0.78710873       0.27043210       0.55053433 </v>
   <v>       0.83060963       0.02105765       0.54689552 </v>
   <v>       0.83136542       0.35426543       0.54652836 </v>
   <v>       0.87679144       0.10333691       0.54692537 </v>
   <v>       0.87650980       0.26772593       0.54466567 </v>
   <v>       0.91995722       0.01916951       0.53423881 </v>
   <v>       0.92142959       0.35211111       0.53465672 </v>
   <v>       0.96272371       0.10010741       0.53240299 </v>
   <v>       0.96427094       0.27040000       0.53122090 </v>
   <v>       0.00210743       0.60416914       0.49314328 </v>
   <v>       0.00581390       0.77300000       0.50027463 </v>
   <v>       0.04353048       0.51879012       0.48150448 </v>
   <v>       0.04811943       0.85611852       0.49375224 </v>
   <v>       0.08374082       0.60293704       0.46859701 </v>
   <v>       0.08680036       0.77606667       0.47676119 </v>
   <v>       0.12704029       0.51864444       0.45927463 </v>
   <v>       0.12911836       0.85818642       0.47055522 </v>
   <v>       0.17242709       0.60787531       0.45457313 </v>
   <v>       0.17312906       0.77555926       0.45833731 </v>
   <v>       0.21674938       0.52718395       0.44986567 </v>
   <v>       0.21757112       0.86199506       0.45854328 </v>
   <v>       0.26241426       0.60268765       0.45108060 </v>
   <v>       0.26243280       0.77615309       0.45609254 </v>
   <v>       0.30739501       0.52042222       0.45152239 </v>
   <v>       0.30671480       0.84743827       0.46400597 </v>
   <v>       0.35307059       0.60021481       0.45690746 </v>
   <v>       0.35149911       0.77085432       0.45790746 </v>
   <v>       0.39817469       0.51777901       0.46672836 </v>
   <v>       0.39837790       0.85024321       0.46380299 </v>
   <v>       0.44365775       0.60241235       0.47031045 </v>
   <v>       0.44248841       0.76728765       0.46872537 </v>
   <v>       0.48564349       0.51760123       0.48164179 </v>
   <v>       0.48643137       0.85287654       0.47948358 </v>
   <v>       0.52866667       0.60026420       0.49155821 </v>
   <v>       0.52880570       0.77016173       0.48949851 </v>
   <v>       0.56998930       0.51759877       0.50734328 </v>
   <v>       0.57228164       0.85459383       0.50179701 </v>
   <v>       0.61263102       0.59965062       0.51444776 </v>
   <v>       0.61411052       0.77189383       0.51202985 </v>
   <v>       0.65408913       0.52163951       0.52745672 </v>
   <v>       0.65618895       0.85423086       0.52378209 </v>
   <v>       0.69750802       0.60295679       0.53494627 </v>
   <v>       0.69712656       0.77030864       0.53280597 </v>
   <v>       0.74370410       0.52237037       0.54252836 </v>
   <v>       0.73974688       0.85941852       0.54044776 </v>
   <v>       0.78904456       0.61149630       0.53988060 </v>
   <v>       0.78645276       0.77643704       0.54005075 </v>
   <v>       0.83367914       0.51975185       0.53980896 </v>
   <v>       0.83042781       0.85898025       0.54024179 </v>
   <v>       0.87590374       0.59694815       0.53597910 </v>
   <v>       0.87634581       0.76915185       0.53583582 </v>
   <v>       0.91965775       0.51463333       0.52774030 </v>
   <v>       0.91998217       0.85663827       0.52867164 </v>
   <v>       0.95822103       0.60350864       0.51388955 </v>
   <v>       0.95965775       0.78042716       0.51620896 </v>
  </varray>
 </structure>
 <calculation>
  <scstep>
   <time name="dav">   11.13   11.14</time>
   <time name="total">   11.59   11.62</time>
   <energy>
    <i name="alphaZ">     91.34886789 </i>
    <i name="ewald"> 119851.45163292 </i>
    <i name="hartreedc">-129177.20763007 </i>
    <i name="XCdc">   1221.36895687 </i>
    <i name="pawpsdc">   9984.02826696 </i>
    <i name="pawaedc"> -10036.41360137 </i>
    <i name="eentropy">     -0.87858471 </i>
    <i name="bandstr">  -1844.03518239 </i>
    <i name="atom">  13537.65479391 </i>
    <i name="e_fr_energy">   3627.31752001 </i>
    <i name="e_wo_entrp">   3628.19610472 </i>
    <i name="e_0_energy">   3627.75681237 </i>
   </energy>
  </scstep>
  <scstep>
   <time name="dav">   13.04   13.05</time>
   <time name="total">   13.04   13.05</time>
   <energy>
    <i name="e_fr_energy">    175.79639557 </i>
    <i name="e_wo_entrp">    176.01786910 </i>
    <i name="e_0_energy">    175.90713233 </i>
   </energy>
  </scstep>
  <scstep>
   <time name="dav">   11.36   11.36</time>
   <time name="total">   11.36   11.36</time>
   <energy>
    <i name="e_fr_energy">   -832.98308421 </i>
    <i name="e_wo_entrp">   -832.94808069 </i>
    <i name="e_0_energy">   -832.96558245 </i>
   </energy>
  </scstep>
  <scstep>
   <time name="dav">   10.91   10.92</time>
   <time name="total">   10.92   10.92</time>
   <energy>
    <i name="e_fr_energy">   -895.40001706 </i>
    <i name="e_wo_entrp">   -895.33139861 </i>
    <i name="e_0_energy">   -895.36570784 </i>
   </energy>
  </scstep>
  <scstep>
   <time name="dav">   11.18   11.18</time>
   <time name="total">   12.66   12.67</time>
   <energy>
    <i name="e_fr_energy">   -896.99153088 </i>
    <i name="e_wo_entrp">   -896.92253358 </i>
    <i name="e_0_energy">   -896.95703223 </i>
   </energy>
  </scstep>
  <scstep>
   <time name="dav">   10.23   10.23</time>
   <time name="total">   12.03   12.04</time>
   <energy>
    <i name="e_fr_energy">   -847.34932478 </i>
    <i name="e_wo_entrp">   -847.27035320 </i>
    <i name="e_0_energy">   -847.30983899 </i>
   </energy>
  </scstep>
  <scstep>
   <time name="dav">   10.18   10.19</time>
   <time name="total">   11.98   11.99</time>
   <energy>
    <i name="e_fr_energy">   -828.92094138 </i>
    <i name="e_wo_entrp">   -828.83257623 </i>
    <i name="e_0_energy">   -828.87675881 </i>
   </energy>
  </scstep>
  <scstep>
   <time name="dav">   10.30   10.31</time>
   <time name="total">   12.10   12.11</time>
   <energy>
    <i name="e_fr_energy">   -828.63272284 </i>
    <i name="e_wo_entrp">   -828.54835390 </i>
    <i name="e_0_energy">   -828.59053837 </i>
   </energy>
  </scstep>
  <scstep>
   <time name="dav">   10.55   10.55</time>
   <time name="total">   12.35   12.36</time>
   <energy>
    <i name="e_fr_energy">   -828.52010110 </i>
    <i name="e_wo_entrp">   -828.43510488 </i>
    <i name="e_0_energy">   -828.47760299 </i>
   </energy>
  </scstep>
  <scstep>
   <time name="dav">   10.98   10.98</time>
   <time name="total">   12.79   12.80</time>
   <energy>
    <i name="e_fr_energy">   -828.48329920 </i>
    <i name="e_wo_entrp">   -828.39795462 </i>
    <i name="e_0_energy">   -828.44062691 </i>
   </energy>
  </scstep>
  <scstep>
   <time name="dav">   10.09   10.10</time>
   <time name="total">   11.92   11.92</time>
   <energy>
    <i name="e_fr_energy">   -828.45467859 </i>
    <i name="e_wo_entrp">   -828.36933115 </i>
    <i name="e_0_energy">   -828.41200487 </i>
   </energy>
  </scstep>
  <scstep>
   <time name="dav">   10.17   10.17</time>
   <time name="total">   11.98   11.99</time>
   <energy>
    <i name="e_fr_energy">   -828.44886841 </i>
    <i name="e_wo_entrp">   -828.36350769 </i>
    <i name="e_0_energy">   -828.40618805 </i>
   </energy>
  </scstep>
  <scstep>
   <time name="dav">    9.99   10.00</time>
   <time name="total">   11.83   11.84</time>
   <energy>
    <i name="e_fr_energy">   -828.46143325 </i>
    <i name="e_wo_entrp">   -828.37610324 </i>
    <i name="e_0_energy">   -828.41876824 </i>
   </energy>
  </scstep>
  <scstep>
   <time name="dav">   10.29   10.29</time>
   <time name="total">   12.13   12.14</time>
   <energy>
    <i name="e_fr_energy">   -828.47684123 </i>
    <i name="e_wo_entrp">   -828.39152364 </i>
    <i name="e_0_energy">   -828.43418243 </i>
   </energy>
  </scstep>
  <scstep>
   <time name="dav">   10.01   10.01</time>
   <time name="total">   11.86   11.86</time>
   <energy>
    <i name="e_fr_energy">   -828.49731663 </i>
    <i name="e_wo_entrp">   -828.41195788 </i>
    <i name="e_0_energy">   -828.45463725 </i>
   </energy>
  </scstep>
  <scstep>
   <time name="dav">   10.45   10.46</time>
   <time name="total">   12.32   12.33</time>
   <energy>
    <i name="e_fr_energy">   -828.50584868 </i>
    <i name="e_wo_entrp">   -828.42049258 </i>
    <i name="e_0_energy">   -828.46317063 </i>
   </energy>
  </scstep>
  <scstep>
   <time name="dav">   10.29   10.29</time>
   <time name="total">   12.15   12.16</time>
   <energy>
    <i name="e_fr_energy">   -828.51172392 </i>
    <i name="e_wo_entrp">   -828.42636340 </i>
    <i name="e_0_energy">   -828.46904366 </i>
   </energy>
  </scstep>
  <scstep>
   <time name="dav">   10.49   10.49</time>
   <time name="total">   12.37   12.37</time>
   <energy>
    <i name="e_fr_energy">   -828.51380378 </i>
    <i name="e_wo_entrp">   -828.42844327 </i>
    <i name="e_0_energy">   -828.47112353 </i>
   </energy>
  </scstep>
  <scstep>
   <time name="dav">   10.11   10.12</time>
   <time name="total">   12.00   12.01</time>
   <energy>
    <i name="e_fr_energy">   -828.51513299 </i>
    <i name="e_wo_entrp">   -828.42977954 </i>
    <i name="e_0_energy">   -828.47245627 </i>
   </energy>
  </scstep>
  <scstep>
   <time name="dav">    9.28    9.28</time>
   <time name="total">   11.18   11.19</time>
   <energy>
    <i name="e_fr_energy">   -828.51553331 </i>
    <i name="e_wo_entrp">   -828.43017754 </i>
    <i name="e_0_energy">   -828.47285543 </i>
   </energy>
  </scstep>
  <scstep>
   <time name="dav">    8.84    8.84</time>
   <time name="total">   10.76   10.77</time>
   <energy>
    <i name="e_fr_energy">   -828.51579683 </i>
    <i name="e_wo_entrp">   -828.43043863 </i>
    <i name="e_0_energy">   -828.47311773 </i>
   </energy>
  </scstep>
  <scstep>
   <time name="dav">    7.73    7.73</time>
   <time name="total">    9.65    9.66</time>
   <energy>
    <i name="e_fr_energy">   -828.51585716 </i>
    <i name="e_wo_entrp">   -828.43049890 </i>
    <i name="e_0_energy">   -828.47317803 </i>
   </energy>
  </scstep>
  <scstep>
   <time name="dav">    7.13    7.13</time>
   <time name="total">    9.07    9.08</time>
   <energy>
    <i name="e_fr_energy">   -828.51590534 </i>
    <i name="e_wo_entrp">   -828.43054695 </i>
    <i name="e_0_energy">   -828.47322615 </i>
   </energy>
  </scstep>
  <scstep>
   <time name="dav">    7.43    7.43</time>
   <time name="total">    9.39    9.39</time>
   <energy>
    <i name="e_fr_energy">   -828.51592077 </i>
    <i name="e_wo_entrp">   -828.43056301 </i>
    <i name="e_0_energy">   -828.47324189 </i>
   </energy>
  </scstep>
  <scstep>
   <time name="dav">    7.01    7.02</time>
   <time name="total">    8.99    8.99</time>
   <energy>
    <i name="e_fr_energy">   -828.51592797 </i>
    <i name="e_wo_entrp">   -828.43057010 </i>
    <i name="e_0_energy">   -828.47324903 </i>
   </energy>
  </scstep>
  <scstep>
   <time name="dav">    6.90    6.90</time>
   <time name="total">    8.90    8.91</time>
   <energy>
    <i name="e_fr_energy">   -828.51593185 </i>
    <i name="e_wo_entrp">   -828.43057395 </i>
    <i name="e_0_energy">   -828.47325290 </i>
   </energy>
  </scstep>
  <scstep>
   <time name="dav">    7.15    7.15</time>
   <time name="total">    9.16    9.16</time>
   <energy>
    <i name="e_fr_energy">   -828.51593332 </i>
    <i name="e_wo_entrp">   -828.43057557 </i>
    <i name="e_0_energy">   -828.47325444 </i>
   </energy>
  </scstep>
  <scstep>
   <time name="dav">    7.09    7.09</time>
   <time name="total">    9.12    9.12</time>
   <energy>
    <i name="e_fr_energy">   -828.51593516 </i>
    <i name="e_wo_entrp">   -828.43057733 </i>
    <i name="e_0_energy">   -828.47325624 </i>
   </energy>
  </scstep>
  <scstep>
   <time name="dav">    7.07    7.07</time>
   <time name="total">    9.11    9.11</time>
   <energy>
    <i name="e_fr_energy">   -828.51593625 </i>
    <i name="e_wo_entrp">   -828.43057837 </i>
    <i name="e_0_energy">   -828.47325731 </i>
   </energy>
  </scstep>
  <scstep>
   <time name="dav">    7.07    7.07</time>
   <time name="total">    7.43    7.43</time>
   <energy>
    <i name="alphaZ">     91.34886789 </i>
    <i name="ewald"> 119851.45163292 </i>
    <i name="hartreedc">-130936.64256740 </i>
    <i name="XCdc">   1278.67858435 </i>
    <i name="pawpsdc">  41080.92986064 </i>
    <i name="pawaedc"> -41144.99313065 </i>
    <i name="eentropy">     -0.08535788 </i>
    <i name="bandstr">  -4586.85862054 </i>
    <i name="atom">  13537.65479391 </i>
    <i name="e_fr_energy">   -828.51593676 </i>
    <i name="e_wo_entrp">   -828.43057888 </i>
    <i name="e_0_energy">   -828.47325782 </i>
   </energy>
  </scstep>
  <structure>
   <crystal>
    <varray name="basis" >
     <v>      28.05000000       0.00000000       0.00000000 </v>
     <v>       0.00000000       8.10000000       0.00000000 </v>
     <v>       0.00000000       0.00000000      33.50000000 </v>
    </varray>
    <i name="volume">   7611.36750000 </i>
    <varray name="rec_basis" >
     <v>       0.03565062       0.00000000       0.00000000 </v>
     <v>       0.00000000       0.12345679       0.00000000 </v>
     <v>       0.00000000       0.00000000       0.02985075 </v>
    </varray>
   </crystal>
   <varray name="positions" >
    <v>       0.01331537       0.11514642       0.51861194 </v>
    <v>       0.01351957       0.28702346       0.51689851 </v>
    <v>       0.05054403       0.02255346       0.50073134 </v>
    <v>       0.04687914       0.35665185       0.49321791 </v>
    <v>       0.09298075       0.10610210       0.49226866 </v>
    <v>       0.09147166       0.27860123       0.48862687 </v>
    <v>       0.13400392       0.02965259       0.47744776 </v>
    <v>       0.13058289       0.34920123       0.46812836 </v>
    <v>       0.17734902       0.11430321       0.47187761 </v>
    <v>       0.17628200       0.27938148       0.46684179 </v>
    <v>       0.22093761       0.02674654       0.46464478 </v>
    <v>       0.21835472       0.36004444       0.45626567 </v>
    <v>       0.26515009       0.11277901       0.46171343 </v>
    <v>       0.26321070       0.28422346       0.45565075 </v>
    <v>       0.30673725       0.01818148       0.46796418 </v>
    <v>       0.30796827       0.34879259       0.45711642 </v>
    <v>       0.35166524       0.09949420       0.46980000 </v>
    <v>       0.35196292       0.27228765       0.46918507 </v>
    <v>       0.39671658       0.01837432       0.47204776 </v>
    <v>       0.39752941       0.34669630       0.47144179 </v>
    <v>       0.43868093       0.09528704       0.48282090 </v>
    <v>       0.44010695       0.27173704       0.48347761 </v>
    <v>       0.48254902       0.01783247       0.48855224 </v>
    <v>       0.48146881       0.34769753       0.49108955 </v>
    <v>       0.52611408       0.09976160       0.50236119 </v>
    <v>       0.52431016       0.27335926       0.50303582 </v>
    <v>       0.56990374       0.01709457       0.50958806 </v>
    <v>       0.56851337       0.35089136       0.51379403 </v>
    <v>       0.61172193       0.10109778       0.52304179 </v>
    <v>       0.61049911       0.27111728       0.52886866 </v>
    <v>       0.65392157       0.02445667       0.52921194 </v>
    <v>       0.65328699       0.35629136       0.53440299 </v>
    <v>       0.69566845       0.11031519       0.54085075 </v>
    <v>       0.69666667       0.27340247       0.54637313 </v>
    <v>       0.74036007       0.02487086       0.54345075 </v>
    <v>       0.74225312       0.35775679       0.55140597 </v>
    <v>       0.78505882       0.10362235       0.54879104 </v>
    <v>       0.78710873       0.27043210       0.55053433 </v>
    <v>       0.83060963       0.02105765       0.54689552 </v>
    <v>       0.83136542       0.35426543       0.54652836 </v>
    <v>       0.87679144       0.10333691       0.54692537 </v>
    <v>       0.87650980       0.26772593       0.54466567 </v>
    <v>       0.91995722       0.01916951       0.53423881 </v>
    <v>       0.92142959       0.35211111       0.53465672 </v>
    <v>       0.96272371       0.10010741       0.53240299 </v>
    <v>       0.96427094       0.27040000       0.53122090 </v>
    <v>       0.00210743       0.60416914       0.49314328 </v>
    <v>       0.00581390       0.77300000       0.50027463 </v>
    <v>       0.04353048       0.51879012       0.48150448 </v>
    <v>       0.04811943       0.85611852       0.49375224 </v>
    <v>       0.08374082       0.60293704       0.46859701 </v>
    <v>       0.08680036       0.77606667       0.47676119 </v>
    <v>       0.12704029       0.51864444       0.45927463 </v>
    <v>       0.12911836       0.85818642       0.47055522 </v>
    <v>       0.17242709       0.60787531       0.45457313 </v>
    <v>       0.17312906       0.77555926       0.45833731 </v>
    <v>       0.21674938       0.52718395       0.44986567 </v>
    <v>       0.21757112       0.86199506       0.45854328 </v>
    <v>       0.26241426       0.60268765       0.45108060 </v>
    <v>       0.26243280       0.77615309       0.45609254 </v>
    <v>       0.30739501       0.52042222       0.45152239 </v>
    <v>       0.30671480       0.84743827       0.46400597 </v>
    <v>       0.35307059       0.60021481       0.45690746 </v>
    <v>       0.35149911       0.77085432       0.45790746 </v>
    <v>       0.39817469       0.51777901       0.46672836 </v>
    <v>       0.39837790       0.85024321       0.46380299 </v>
    <v>       0.44365775       0.60241235       0.47031045 </v>
    <v>       0.44248841       0.76728765       0.46872537 </v>
    <v>       0.48564349       0.51760123       0.48164179 </v>
    <v>       0.48643137       0.85287654       0.47948358 </v>
    <v>       0.52866667       0.60026420       0.49155821 </v>
    <v>       0.52880570       0.77016173       0.48949851 </v>
    <v>       0.56998930       0.51759877       0.50734328 </v>
    <v>       0.57228164       0.85459383       0.50179701 </v>
    <v>       0.61263102       0.59965062       0.51444776 </v>
    <v>       0.61411052       0.77189383       0.51202985 </v>
    <v>       0.65408913       0.52163951       0.52745672 </v>
    <v>       0.65618895       0.85423086       0.52378209 </v>
    <v>       0.69750802       0.60295679       0.53494627 </v>
    <v>       0.69712656       0.77030864       0.53280597 </v>
    <v>       0.74370410       0.52237037       0.54252836 </v>
    <v>       0.73974688       0.85941852       0.54044776 </v>
    <v>       0.78904456       0.61149630       0.53988060 </v>
    <v>       0.78645276       0.77643704       0.54005075 </v>
    <v>       0.83367914       0.51975185       0.53980896 </v>
    <v>       0.83042781       0.85898025       0.54024179 </v>
    <v>       0.87590374       0.59694815       0.53597910 </v>
    <v>       0.87634581       0.76915185       0.53583582 </v>
    <v>       0.91965775       0.51463333       0.52774030 </v>
    <v>       0.91998217       0.85663827       0.52867164 </v>
    <v>       0.95822103       0.60350864       0.51388955 </v>
    <v>       0.95965775       0.78042716       0.51620896 </v>
   </varray>
  </structure>
  <varray name="forces" >
   <v>       2.01772142      -2.45610121      -0.83145019 </v>
   <v>      -1.19384555      -2.75545060       0.73127039 </v>
   <v>      -0.61712109       1.41029463       1.79288354 </v>
   <v>       1.68752050       0.98736881       0.13036984 </v>
   <v>       0.09878748       1.32552850      -0.43556744 </v>
   <v>       0.02175589      -1.35961381      -1.29387277 </v>
   <v>      -0.45271740      -1.80278392       0.80763347 </v>
   <v>      -0.34605647       2.64187819       0.70024978 </v>
   <v>       0.73026312      -2.65521581      -0.39470823 </v>
   <v>      -0.49101037       0.15163328      -0.40118208 </v>
   <v>      -1.12131612       1.95578569       0.14907054 </v>
   <v>       0.02967085       0.35738821      -0.72644262 </v>
   <v>      -1.64570879      -1.36562741       0.89372468 </v>
   <v>      -0.14843955      -4.20775037       1.24813043 </v>
   <v>       1.36798368       1.50372531      -0.93163683 </v>
   <v>       1.71970779       3.31276213       0.06338326 </v>
   <v>      -0.04500880       0.46248977       0.61329940 </v>
   <v>      -0.46619892      -1.67129304      -1.30075730 </v>
   <v>      -0.99945447      -1.00719408      -0.17950743 </v>
   <v>      -1.00121111       2.45613157       0.40886944 </v>
   <v>       1.03948874       2.65718435       0.32171807 </v>
   <v>      -2.68624034      -3.79672874      -0.36386573 </v>
   <v>       2.02369217       0.06780012       0.26671377 </v>
   <v>       2.89370418       3.35955567      -0.38917300 </v>
   <v>      -1.56217310       0.60345702      -0.49578188 </v>
   <v>       1.36924860      -2.47954742       1.03903266 </v>
   <v>      -0.46332887       2.33419545      -0.03320630 </v>
   <v>      -0.85263970       0.04049938       0.20288067 </v>
   <v>      -2.12167181       0.95062675       0.31319060 </v>
   <v>      -1.31997944      -0.27774429      -1.74069733 </v>
   <v>       1.86598717      -1.08500247       0.17211685 </v>
   <v>       0.75589955      -1.10269345       1.31092723 </v>
   <v>       1.18461489      -2.47464656       0.24960095 </v>
   <v>      -0.21109024       2.83859689      -0.43602293 </v>
   <v>      -0.28548456       0.99328199       0.48781792 </v>
   <v>      -0.03129092      -1.06158788      -1.22877499 </v>
   <v>       1.46363695      -1.15276037       0.03697689 </v>
   <v>      -0.82245630       2.13118802       0.48706581 </v>
   <v>       0.28130649       2.40458153       0.19614683 </v>
   <v>       0.85829301      -1.77464971      -0.04743588 </v>
   <v>      -0.55767911      -2.22833134      -1.10949037 </v>
   <v>       0.54284113       2.71005437      -0.01294776 </v>
   <v>      -0.50191495       2.96760296       1.88029842 </v>
   <v>      -0.97209062      -2.25862065       0.63311107 </v>
   <v>       1.14293455       1.64139420      -0.24926704 </v>
   <v>      -2.80445034       1.07851644       0.58395898 </v>
   <v>       3.48763302       0.27885239      -0.74470682 </v>
   <v>       2.72815667       0.11027135      -1.87106209 </v>
   <v>      -2.01305710       0.65332036       0.15335473 </v>
   <v>      -1.54575866      -0.17793886       0.06876839 </v>
   <v>       1.69591237       1.24748631      -0.09116264 </v>
   <v>      -0.14857866      -1.86378223      -0.93622006 </v>
   <v>       1.20715001       0.76429780       0.52208246 </v>
   <v>       3.35466226       0.73434124      -0.81369547 </v>
   <v>      -1.12255588      -1.02589605      -0.70703401 </v>
   <v>      -1.08973540       1.71401376       0.66920523 </v>
   <v>       0.62429373      -0.20941825       0.56277663 </v>
   <v>       1.09774557      -2.20982700       0.18362946 </v>
   <v>       0.06379679       1.85034555      -0.78963923 </v>
   <v>      -0.62704438      -1.89815704       0.03125766 </v>
   <v>       1.35875872      -0.33754608       1.05395358 </v>
   <v>       0.18926102       1.34689673      -1.23085870 </v>
   <v>      -0.01972857      -0.37337207      -0.07310968 </v>
   <v>       2.26968177      -0.16420388       1.20380420 </v>
   <v>      -0.47576099       0.39565241      -1.19737065 </v>
   <v>      -1.85521099       0.06460269       0.35016847 </v>
   <v>      -1.44493817      -2.83104538      -0.08659567 </v>
   <v>       1.01138095       2.65753521      -0.07217825 </v>
   <v>      -0.22619051      -0.37185160       1.05912823 </v>
   <v>      -1.37039397      -0.66945734       0.17237845 </v>
   <v>       0.04127517      -0.69181300      -0.18951838 </v>
   <v>       1.34770182       0.39892754      -0.10314391 </v>
   <v>      -0.83829353       0.61550333      -0.65295307 </v>
   <v>      -1.53727960      -1.80425160      -0.25144879 </v>
   <v>       0.43919448       1.55373557       0.03227279 </v>
   <v>       0.28349211      -0.79881864      -0.14603547 </v>
   <v>       0.77808982       0.10138231       0.55443927 </v>
   <v>      -1.70076405       0.55844539      -0.29671207 </v>
   <v>       1.75069651      -0.87809204      -0.18089272 </v>
   <v>       1.84764821       0.86528984       0.30369654 </v>
   <v>      -0.82075159       1.52251315       0.02891991 </v>
   <v>       2.07551952      -2.43242129      -0.55380371 </v>
   <v>      -1.34043365      -3.79138515       0.24338405 </v>
   <v>      -1.03883601       1.65552537      -0.21867092 </v>
   <v>      -3.94929515       0.70272538       0.87825821 </v>
   <v>       1.89884848      -2.95145741      -0.06421823 </v>
   <v>       2.34718700       2.91497958      -0.90566991 </v>
   <v>      -1.51389999       0.41029534      -0.28046792 </v>
   <v>       0.06362013       2.50663466      -0.30826539 </v>
   <v>      -1.79471859      -2.10954265       0.25477614 </v>
   <v>      -2.66190079       0.81614825       0.70372814 </v>
   <v>      -2.20105907      -3.21962206       0.61679786 </v>
  </varray>
  <varray name="stress" >
   <v>      -1.60586649       0.31742878      -1.82398878 </v>
   <v>       0.31742878      51.92460050      -0.13243953 </v>
   <v>      -1.82398877      -0.13243954      -0.09969487 </v>
  </varray>
  <energy>
   <i name="e_fr_energy">   -828.51593676 </i>
   <i name="e_wo_entrp">   -828.43057888 </i>
   <i name="e_0_energy">   -828.47325782 </i>
  </energy>
  <time name="totalsc">  343.66  343.87</time>
  <eigenvalues>
   <array>
    <dimension dim="1">band</dimension>
    <dimension dim="2">kpoint</dimension>
    <dimension dim="3">spin</dimension>
    <field>eigene</field>
    <field>occ</field>
    <set>
     <set comment="spin 1">
      <set comment="kpoint 1">
       <r>  -23.2741    1.0000 </r>
       <r>  -23.0775    1.0000 </r>
       <r>  -22.9646    1.0000 </r>
       <r>  -22.6791    1.0000 </r>
       <r>  -22.5917    1.0000 </r>
       <r>  -22.5210    1.0000 </r>
       <r>  -22.0809    1.0000 </r>
       <r>  -21.9410    1.0000 </r>
       <r>  -21.5005    1.0000 </r>
       <r>  -21.4693    1.0000 </r>
       <r>  -21.4052    1.0000 </r>
       <r>  -21.3306    1.0000 </r>
       <r>  -21.2610    1.0000 </r>
       <r>  -21.1772    1.0000 </r>
       <r>  -21.1142    1.0000 </r>
       <r>  -21.0887    1.0000 </r>
       <r>  -21.0151    1.0000 </r>
       <r>  -20.9593    1.0000 </r>
       <r>  -20.8350    1.0000 </r>
       <r>  -20.5630    1.0000 </r>
       <r>  -20.4045    1.0000 </r>
       <r>  -20.3031    1.0000 </r>
       <r>  -20.1699    1.0000 </r>
       <r>  -20.0854    1.0000 </r>
       <r>  -19.9439    1.0000 </r>
       <r>  -19.6808    1.0000 </r>
       <r>  -19.5920    1.0000 </r>
       <r>  -19.4815    1.0000 </r>
       <r>  -19.1985    1.0000 </r>
       <r>  -18.9495    1.0000 </r>
       <r>  -18.7056    1.0000 </r>
       <r>  -18.6577    1.0000 </r>
       <r>  -18.5450    1.0000 </r>
       <r>  -18.3733    1.0000 </r>
       <r>  -18.2069    1.0000 </r>
       <r>  -17.6576    1.0000 </r>
       <r>  -17.3928    1.0000 </r>
       <r>  -17.2069    1.0000 </r>
       <r>  -17.0608    1.0000 </r>
       <r>  -17.0224    1.0000 </r>
       <r>  -16.8164    1.0000 </r>
       <r>  -16.7479    1.0000 </r>
       <r>  -16.7068    1.0000 </r>
       <r>  -16.6364    1.0000 </r>
       <r>  -16.5791    1.0000 </r>
       <r>  -16.5193    1.0000 </r>
       <r>  -16.4963    1.0000 </r>
       <r>  -16.4479    1.0000 </r>
       <r>  -16.4207    1.0000 </r>
       <r>  -16.3814    1.0000 </r>
       <r>  -16.2392    1.0000 </r>
       <r>  -16.1076    1.0000 </r>
       <r>  -16.0134    1.0000 </r>
       <r>  -15.9887    1.0000 </r>
       <r>  -15.9310    1.0000 </r>
       <r>  -15.6508    1.0000 </r>
       <r>  -15.4318    1.0000 </r>
       <r>  -15.4023    1.0000 </r>
       <r>  -15.2938    1.0000 </r>
       <r>  -15.2357    1.0000 </r>
       <r>  -15.0933    1.0000 </r>
       <r>  -15.0044    1.0000 </r>
       <r>  -14.3931    1.0000 </r>
       <r>  -14.2076    1.0000 </r>
       <r>  -14.1194    1.0000 </r>
       <r>  -14.0368    1.0000 </r>
       <r>  -13.9236    1.0000 </r>
       <r>  -13.7507    1.0000 </r>
       <r>  -13.6627    1.0000 </r>
       <r>  -13.6269    1.0000 </r>
       <r>  -13.5022    1.0000 </r>
       <r>  -13.4464    1.0000 </r>
       <r>  -13.2473    1.0000 </r>
       <r>  -13.1772    1.0000 </r>
       <r>  -13.0154    1.0000 </r>
       <r>  -12.8971    1.0000 </r>
       <r>  -12.6935    1.0000 </r>
       <r>  -12.4126    1.0000 </r>
       <r>  -12.1913    1.0000 </r>
       <r>  -12.1527    1.0000 </r>
       <r>  -12.0403    1.0000 </r>
       <r>  -12.0036    1.0000 </r>
       <r>  -11.8868    1.0000 </r>
       <r>  -11.8394    1.0000 </r>
       <r>  -11.7465    1.0000 </r>
       <r>  -11.5549    1.0000 </r>
       <r>  -11.3129    1.0000 </r>
       <r>  -11.2375    1.0000 </r>
       <r>  -11.1293    1.0000 </r>
       <r>  -11.0274    1.0000 </r>
       <r>  -10.9932    1.0000 </r>
       <r>  -10.9024    1.0000 </r>
       <r>  -10.8280    1.0000 </r>
       <r>  -10.7602    1.0000 </r>
       <r>  -10.7237    1.0000 </r>
       <r>  -10.6738    1.0000 </r>
       <r>  -10.5976    1.0000 </r>
       <r>  -10.5848    1.0000 </r>
       <r>  -10.4722    1.0000 </r>
       <r>  -10.4437    1.0000 </r>
       <r>  -10.3891    1.0000 </r>
       <r>  -10.3520    1.0000 </r>
       <r>  -10.3062    1.0000 </r>
       <r>  -10.1660    1.0000 </r>
       <r>  -10.1273    1.0000 </r>
       <r>   -9.9510    1.0000 </r>
       <r>   -9.9456    1.0000 </r>
       <r>   -9.8817    1.0000 </r>
       <r>   -9.8048    1.0000 </r>
       <r>   -9.7598    1.0000 </r>
       <r>   -9.6953    1.0000 </r>
       <r>   -9.6740    1.0000 </r>
       <r>   -9.6343    1.0000 </r>
       <r>   -9.6121    1.0000 </r>
       <r>   -9.5866    1.0000 </r>
       <r>   -9.5515    1.0000 </r>
       <r>   -9.5287    1.0000 </r>
       <r>   -9.4933    1.0000 </r>
       <r>   -9.4591    1.0000 </r>
       <r>   -9.3976    1.0000 </r>
       <r>   -9.3801    1.0000 </r>
       <r>   -9.3513    1.0000 </r>
       <r>   -9.3056    1.0000 </r>
       <r>   -9.2855    1.0000 </r>
       <r>   -9.2677    1.0000 </r>
       <r>   -9.2204    1.0000 </r>
       <r>   -9.1728    1.0000 </r>
       <r>   -9.1564    1.0000 </r>
       <r>   -9.0988    1.0000 </r>
       <r>   -9.0606    1.0000 </r>
       <r>   -9.0028    1.0000 </r>
       <r>   -8.9847    1.0000 </r>
       <r>   -8.9735    1.0000 </r>
       <r>   -8.9291    1.0000 </r>
       <r>   -8.9093    1.0000 </r>
       <r>   -8.8778    1.0000 </r>
       <r>   -8.7927    1.0000 </r>
       <r>   -8.7597    1.0000 </r>
       <r>   -8.7401    1.0000 </r>
       <r>   -8.6984    1.0000 </r>
       <r>   -8.6426    1.0000 </r>
       <r>   -8.6251    1.0000 </r>
       <r>   -8.5813    1.0000 </r>
       <r>   -8.5263    1.0000 </r>
       <r>   -8.4695    1.0000 </r>
       <r>   -8.3630    1.0000 </r>
       <r>   -8.0879    1.0000 </r>
       <r>   -7.9461    1.0000 </r>
       <r>   -7.9292    1.0000 </r>
       <r>   -7.8618    1.0000 </r>
       <r>   -7.7037    1.0000 </r>
       <r>   -7.6294    1.0000 </r>
       <r>   -7.5125    1.0000 </r>
       <r>   -7.4747    1.0000 </r>
       <r>   -7.4084    1.0000 </r>
       <r>   -7.3601    1.0000 </r>
       <r>   -7.2278    1.0000 </r>
       <r>   -7.1573    1.0000 </r>
       <r>   -7.0760    1.0000 </r>
       <r>   -6.9459    1.0000 </r>
       <r>   -6.7781    1.0000 </r>
       <r>   -6.7121    1.0000 </r>
       <r>   -6.6385    1.0000 </r>
       <r>   -6.5258    1.0000 </r>
       <r>   -6.4835    1.0000 </r>
       <r>   -6.2595    1.0000 </r>
       <r>   -6.2017    1.0000 </r>
       <r>   -6.0576    1.0000 </r>
       <r>   -5.9979    1.0000 </r>
       <r>   -5.9957    1.0000 </r>
       <r>   -5.9375    1.0000 </r>
       <r>   -5.9003    1.0000 </r>
       <r>   -5.7701    1.0000 </r>
       <r>   -5.0999    1.0000 </r>
       <r>   -4.9813    1.0000 </r>
       <r>   -4.8656    1.0000 </r>
       <r>   -4.6082    1.0000 </r>
       <r>   -4.5614    1.0000 </r>
       <r>   -4.4917    1.0000 </r>
       <r>   -4.4230    1.0000 </r>
       <r>   -4.3470    1.0000 </r>
       <r>   -3.7543    1.0000 </r>
       <r>   -3.6392    0.9992 </r>
       <r>   -3.2444    0.6426 </r>
       <r>   -3.0824    0.2178 </r>
       <r>   -2.7344    0.0006 </r>
       <r>   -2.6628    0.0001 </r>
       <r>   -2.4486    0.0000 </r>
       <r>   -2.1994    0.0000 </r>
       <r>   -2.1624    0.0000 </r>
       <r>   -1.8246    0.0000 </r>
       <r>   -1.6359    0.0000 </r>
       <r>   -1.5193    0.0000 </r>
       <r>   -1.4813    0.0000 </r>
       <r>   -1.4392    0.0000 </r>
       <r>   -1.4160    0.0000 </r>
       <r>   -1.2760    0.0000 </r>
       <r>   -0.9790    0.0000 </r>
       <r>   -0.7937    0.0000 </r>
       <r>   -0.6937    0.0000 </r>
       <r>   -0.5392    0.0000 </r>
       <r>   -0.3875    0.0000 </r>
       <r>   -0.0568    0.0000 </r>
       <r>   -0.0020    0.0000 </r>
       <r>    0.1334    0.0000 </r>
       <r>    0.1517    0.0000 </r>
       <r>    0.3067    0.0000 </r>
       <r>    0.6127    0.0000 </r>
       <r>    0.6620    0.0000 </r>
       <r>    0.6993    0.0000 </r>
       <r>    0.7083    0.0000 </r>
       <r>    0.8296    0.0000 </r>
       <r>    0.9048    0.0000 </r>
       <r>    0.9243    0.0000 </r>
       <r>    0.9597    0.0000 </r>
       <r>    0.9904    0.0000 </r>
       <r>    0.9968    0.0000 </r>
       <r>    1.1540    0.0000 </r>
       <r>    1.1599    0.0000 </r>
       <r>    1.2212    0.0000 </r>
       <r>    1.3165    0.0000 </r>
       <r>    1.3187    0.0000 </r>
       <r>    1.3317    0.0000 </r>
       <r>    1.4076    0.0000 </r>
       <r>    1.4635    0.0000 </r>
       <r>    1.5560    0.0000 </r>
       <r>    1.5654    0.0000 </r>
       <r>    1.6849    0.0000 </r>
       <r>    1.7202    0.0000 </r>
       <r>    1.7331    0.0000 </r>
       <r>    1.7344    0.0000 </r>
       <r>    1.7691    0.0000 </r>
      </set>
      <set comment="kpoint 2">
       <r>  -23.1963    1.0000 </r>
       <r>  -22.9784    1.0000 </r>
       <r>  -22.8690    1.0000 </r>
       <r>  -22.6879    1.0000 </r>
       <r>  -22.5664    1.0000 </r>
       <r>  -22.4928    1.0000 </r>
       <r>  -22.1770    1.0000 </r>
       <r>  -22.0504    1.0000 </r>
       <r>  -21.9902    1.0000 </r>
       <r>  -21.8644    1.0000 </r>
       <r>  -21.7723    1.0000 </r>
       <r>  -21.6817    1.0000 </r>
       <r>  -21.3096    1.0000 </r>
       <r>  -21.1100    1.0000 </r>
       <r>  -21.0448    1.0000 </r>
       <r>  -21.0007    1.0000 </r>
       <r>  -20.6376    1.0000 </r>
       <r>  -20.5483    1.0000 </r>
       <r>  -20.4573    1.0000 </r>
       <r>  -20.2679    1.0000 </r>
       <r>  -20.2511    1.0000 </r>
       <r>  -20.1256    1.0000 </r>
       <r>  -20.0471    1.0000 </r>
       <r>  -19.8920    1.0000 </r>
       <r>  -19.8403    1.0000 </r>
       <r>  -19.5404    1.0000 </r>
       <r>  -19.4613    1.0000 </r>
       <r>  -19.1115    1.0000 </r>
       <r>  -19.0748    1.0000 </r>
       <r>  -18.9155    1.0000 </r>
       <r>  -18.7264    1.0000 </r>
       <r>  -18.5900    1.0000 </r>
       <r>  -18.5125    1.0000 </r>
       <r>  -18.2510    1.0000 </r>
       <r>  -18.1616    1.0000 </r>
       <r>  -18.0955    1.0000 </r>
       <r>  -18.0327    1.0000 </r>
       <r>  -17.9908    1.0000 </r>
       <r>  -17.8301    1.0000 </r>
       <r>  -17.7907    1.0000 </r>
       <r>  -17.5098    1.0000 </r>
       <r>  -17.3698    1.0000 </r>
       <r>  -17.2905    1.0000 </r>
       <r>  -17.1495    1.0000 </r>
       <r>  -17.0289    1.0000 </r>
       <r>  -16.5848    1.0000 </r>
       <r>  -16.3888    1.0000 </r>
       <r>  -16.1992    1.0000 </r>
       <r>  -16.0876    1.0000 </r>
       <r>  -15.9263    1.0000 </r>
       <r>  -15.8073    1.0000 </r>
       <r>  -15.7056    1.0000 </r>
       <r>  -15.5664    1.0000 </r>
       <r>  -15.3540    1.0000 </r>
       <r>  -15.2840    1.0000 </r>
       <r>  -15.2148    1.0000 </r>
       <r>  -15.1114    1.0000 </r>
       <r>  -15.0539    1.0000 </r>
       <r>  -15.0057    1.0000 </r>
       <r>  -14.9701    1.0000 </r>
       <r>  -14.8851    1.0000 </r>
       <r>  -14.8158    1.0000 </r>
       <r>  -14.5113    1.0000 </r>
       <r>  -14.4264    1.0000 </r>
       <r>  -14.3248    1.0000 </r>
       <r>  -14.1798    1.0000 </r>
       <r>  -13.9718    1.0000 </r>
       <r>  -13.8790    1.0000 </r>
       <r>  -13.3187    1.0000 </r>
       <r>  -13.2471    1.0000 </r>
       <r>  -13.2178    1.0000 </r>
       <r>  -13.1680    1.0000 </r>
       <r>  -12.9258    1.0000 </r>
       <r>  -12.8520    1.0000 </r>
       <r>  -12.7921    1.0000 </r>
       <r>  -12.7164    1.0000 </r>
       <r>  -12.6781    1.0000 </r>
       <r>  -12.5315    1.0000 </r>
       <r>  -12.3916    1.0000 </r>
       <r>  -12.2919    1.0000 </r>
       <r>  -12.1983    1.0000 </r>
       <r>  -12.1375    1.0000 </r>
       <r>  -12.0442    1.0000 </r>
       <r>  -11.8878    1.0000 </r>
       <r>  -11.8053    1.0000 </r>
       <r>  -11.6340    1.0000 </r>
       <r>  -11.4431    1.0000 </r>
       <r>  -11.3808    1.0000 </r>
       <r>  -11.3271    1.0000 </r>
       <r>  -11.1884    1.0000 </r>
       <r>  -11.1058    1.0000 </r>
       <r>  -11.0430    1.0000 </r>
       <r>  -11.0136    1.0000 </r>
       <r>  -10.9612    1.0000 </r>
       <r>  -10.9080    1.0000 </r>
       <r>  -10.8709    1.0000 </r>
       <r>  -10.8396    1.0000 </r>
       <r>  -10.8051    1.0000 </r>
       <r>  -10.7550    1.0000 </r>
       <r>  -10.6497    1.0000 </r>
       <r>  -10.5838    1.0000 </r>
       <r>  -10.5432    1.0000 </r>
       <r>  -10.4660    1.0000 </r>
       <r>  -10.4102    1.0000 </r>
       <r>  -10.3848    1.0000 </r>
       <r>  -10.3221    1.0000 </r>
       <r>  -10.2780    1.0000 </r>
       <r>  -10.1311    1.0000 </r>
       <r>  -10.0815    1.0000 </r>
       <r>  -10.0427    1.0000 </r>
       <r>   -9.9876    1.0000 </r>
       <r>   -9.9591    1.0000 </r>
       <r>   -9.8877    1.0000 </r>
       <r>   -9.7905    1.0000 </r>
       <r>   -9.7466    1.0000 </r>
       <r>   -9.7018    1.0000 </r>
       <r>   -9.6625    1.0000 </r>
       <r>   -9.6218    1.0000 </r>
       <r>   -9.6041    1.0000 </r>
       <r>   -9.5459    1.0000 </r>
       <r>   -9.5002    1.0000 </r>
       <r>   -9.4452    1.0000 </r>
       <r>   -9.4051    1.0000 </r>
       <r>   -9.3208    1.0000 </r>
       <r>   -9.2410    1.0000 </r>
       <r>   -9.2004    1.0000 </r>
       <r>   -9.0435    1.0000 </r>
       <r>   -8.9038    1.0000 </r>
       <r>   -8.8483    1.0000 </r>
       <r>   -8.8047    1.0000 </r>
       <r>   -8.7668    1.0000 </r>
       <r>   -8.7129    1.0000 </r>
       <r>   -8.6805    1.0000 </r>
       <r>   -8.6525    1.0000 </r>
       <r>   -8.5681    1.0000 </r>
       <r>   -8.5297    1.0000 </r>
       <r>   -8.4913    1.0000 </r>
       <r>   -8.4416    1.0000 </r>
       <r>   -8.3899    1.0000 </r>
       <r>   -8.3358    1.0000 </r>
       <r>   -8.2437    1.0000 </r>
       <r>   -8.1643    1.0000 </r>
       <r>   -8.1201    1.0000 </r>
       <r>   -8.0859    1.0000 </r>
       <r>   -8.0223    1.0000 </r>
       <r>   -7.9808    1.0000 </r>
       <r>   -7.9545    1.0000 </r>
       <r>   -7.8587    1.0000 </r>
       <r>   -7.7556    1.0000 </r>
       <r>   -7.6835    1.0000 </r>
       <r>   -7.6204    1.0000 </r>
       <r>   -7.5726    1.0000 </r>
       <r>   -7.4648    1.0000 </r>
       <r>   -7.3560    1.0000 </r>
       <r>   -7.3460    1.0000 </r>
       <r>   -7.2952    1.0000 </r>
       <r>   -7.1930    1.0000 </r>
       <r>   -7.0256    1.0000 </r>
       <r>   -6.9328    1.0000 </r>
       <r>   -6.8549    1.0000 </r>
       <r>   -6.7695    1.0000 </r>
       <r>   -6.7202    1.0000 </r>
       <r>   -6.6028    1.0000 </r>
       <r>   -6.5596    1.0000 </r>
       <r>   -6.5371    1.0000 </r>
       <r>   -6.2650    1.0000 </r>
       <r>   -6.1851    1.0000 </r>
       <r>   -6.1244    1.0000 </r>
       <r>   -6.0566    1.0000 </r>
       <r>   -6.0073    1.0000 </r>
       <r>   -5.9116    1.0000 </r>
       <r>   -5.7595    1.0000 </r>
       <r>   -5.7223    1.0000 </r>
       <r>   -5.6745    1.0000 </r>
       <r>   -5.5528    1.0000 </r>
       <r>   -5.4646    1.0000 </r>
       <r>   -5.1696    1.0000 </r>
       <r>   -5.1221    1.0000 </r>
       <r>   -4.7569    1.0000 </r>
       <r>   -4.6611    1.0000 </r>
       <r>   -4.5157    1.0000 </r>
       <r>   -4.4326    1.0000 </r>
       <r>   -4.3990    1.0000 </r>
       <r>   -3.4465    0.9637 </r>
       <r>   -3.0144    0.1037 </r>
       <r>   -2.5162    0.0000 </r>
       <r>   -2.1332    0.0000 </r>
       <r>   -2.0801    0.0000 </r>
       <r>   -1.6273    0.0000 </r>
       <r>   -1.4916    0.0000 </r>
       <r>   -1.4648    0.0000 </r>
       <r>   -1.4205    0.0000 </r>
       <r>   -1.3554    0.0000 </r>
       <r>   -1.3076    0.0000 </r>
       <r>   -1.1116    0.0000 </r>
       <r>   -1.0508    0.0000 </r>
       <r>   -0.9874    0.0000 </r>
       <r>   -0.8822    0.0000 </r>
       <r>   -0.7423    0.0000 </r>
       <r>   -0.4663    0.0000 </r>
       <r>   -0.1936    0.0000 </r>
       <r>   -0.1505    0.0000 </r>
       <r>   -0.0486    0.0000 </r>
       <r>    0.0556    0.0000 </r>
       <r>    0.1265    0.0000 </r>
       <r>    0.1717    0.0000 </r>
       <r>    0.2016    0.0000 </r>
       <r>    0.2916    0.0000 </r>
       <r>    0.3720    0.0000 </r>
       <r>    0.7934    0.0000 </r>
       <r>    0.8109    0.0000 </r>
       <r>    0.8411    0.0000 </r>
       <r>    0.9695    0.0000 </r>
       <r>    1.0478    0.0000 </r>
       <r>    1.0552    0.0000 </r>
       <r>    1.1277    0.0000 </r>
       <r>    1.1381    0.0000 </r>
       <r>    1.2504    0.0000 </r>
       <r>    1.2969    0.0000 </r>
       <r>    1.3027    0.0000 </r>
       <r>    1.3629    0.0000 </r>
       <r>    1.3712    0.0000 </r>
       <r>    1.4128    0.0000 </r>
       <r>    1.4451    0.0000 </r>
       <r>    1.4652    0.0000 </r>
       <r>    1.4717    0.0000 </r>
       <r>    1.5461    0.0000 </r>
       <r>    1.5509    0.0000 </r>
       <r>    1.6031    0.0000 </r>
       <r>    1.6443    0.0000 </r>
       <r>    1.6947    0.0000 </r>
       <r>    1.7249    0.0000 </r>
      </set>
      <set comment="kpoint 3">
       <r>  -23.0202    1.0000 </r>
       <r>  -22.9283    1.0000 </r>
       <r>  -22.7060    1.0000 </r>
       <r>  -22.6621    1.0000 </r>
       <r>  -22.6196    1.0000 </r>
       <r>  -22.4837    1.0000 </r>
       <r>  -22.3258    1.0000 </r>
       <r>  -22.2429    1.0000 </r>
       <r>  -22.2108    1.0000 </r>
       <r>  -22.1539    1.0000 </r>
       <r>  -21.7497    1.0000 </r>
       <r>  -21.6922    1.0000 </r>
       <r>  -21.5604    1.0000 </r>
       <r>  -21.4917    1.0000 </r>
       <r>  -20.8884    1.0000 </r>
       <r>  -20.8502    1.0000 </r>
       <r>  -20.7536    1.0000 </r>
       <r>  -20.6680    1.0000 </r>
       <r>  -19.9958    1.0000 </r>
       <r>  -19.9104    1.0000 </r>
       <r>  -19.6249    1.0000 </r>
       <r>  -19.5817    1.0000 </r>
       <r>  -19.5441    1.0000 </r>
       <r>  -19.4717    1.0000 </r>
       <r>  -19.3922    1.0000 </r>
       <r>  -19.3620    1.0000 </r>
       <r>  -19.2821    1.0000 </r>
       <r>  -19.2256    1.0000 </r>
       <r>  -19.0694    1.0000 </r>
       <r>  -19.0061    1.0000 </r>
       <r>  -18.9794    1.0000 </r>
       <r>  -18.9423    1.0000 </r>
       <r>  -18.6498    1.0000 </r>
       <r>  -18.6355    1.0000 </r>
       <r>  -18.4560    1.0000 </r>
       <r>  -18.4144    1.0000 </r>
       <r>  -18.3590    1.0000 </r>
       <r>  -18.2106    1.0000 </r>
       <r>  -18.1635    1.0000 </r>
       <r>  -18.1203    1.0000 </r>
       <r>  -17.7842    1.0000 </r>
       <r>  -17.7592    1.0000 </r>
       <r>  -17.6272    1.0000 </r>
       <r>  -17.5645    1.0000 </r>
       <r>  -16.9366    1.0000 </r>
       <r>  -16.8068    1.0000 </r>
       <r>  -16.2923    1.0000 </r>
       <r>  -16.2411    1.0000 </r>
       <r>  -16.1012    1.0000 </r>
       <r>  -16.0119    1.0000 </r>
       <r>  -15.9675    1.0000 </r>
       <r>  -15.8478    1.0000 </r>
       <r>  -15.3596    1.0000 </r>
       <r>  -15.2742    1.0000 </r>
       <r>  -15.0939    1.0000 </r>
       <r>  -15.0245    1.0000 </r>
       <r>  -14.8907    1.0000 </r>
       <r>  -14.8083    1.0000 </r>
       <r>  -14.7444    1.0000 </r>
       <r>  -14.6939    1.0000 </r>
       <r>  -14.0190    1.0000 </r>
       <r>  -13.9648    1.0000 </r>
       <r>  -13.7884    1.0000 </r>
       <r>  -13.7621    1.0000 </r>
       <r>  -13.6907    1.0000 </r>
       <r>  -13.6723    1.0000 </r>
       <r>  -13.6495    1.0000 </r>
       <r>  -13.5936    1.0000 </r>
       <r>  -13.5809    1.0000 </r>
       <r>  -13.5521    1.0000 </r>
       <r>  -13.4881    1.0000 </r>
       <r>  -13.4447    1.0000 </r>
       <r>  -13.3985    1.0000 </r>
       <r>  -13.3497    1.0000 </r>
       <r>  -13.2277    1.0000 </r>
       <r>  -13.1349    1.0000 </r>
       <r>  -12.4216    1.0000 </r>
       <r>  -12.3538    1.0000 </r>
       <r>  -12.1796    1.0000 </r>
       <r>  -12.1269    1.0000 </r>
       <r>  -12.1040    1.0000 </r>
       <r>  -12.0439    1.0000 </r>
       <r>  -11.9925    1.0000 </r>
       <r>  -11.8894    1.0000 </r>
       <r>  -11.8744    1.0000 </r>
       <r>  -11.8506    1.0000 </r>
       <r>  -11.8099    1.0000 </r>
       <r>  -11.7399    1.0000 </r>
       <r>  -11.6484    1.0000 </r>
       <r>  -11.6395    1.0000 </r>
       <r>  -11.3431    1.0000 </r>
       <r>  -11.2967    1.0000 </r>
       <r>  -11.1628    1.0000 </r>
       <r>  -11.1241    1.0000 </r>
       <r>  -11.0513    1.0000 </r>
       <r>  -10.9554    1.0000 </r>
       <r>  -10.8183    1.0000 </r>
       <r>  -10.7563    1.0000 </r>
       <r>  -10.6983    1.0000 </r>
       <r>  -10.6650    1.0000 </r>
       <r>  -10.5898    1.0000 </r>
       <r>  -10.5428    1.0000 </r>
       <r>  -10.5273    1.0000 </r>
       <r>  -10.5105    1.0000 </r>
       <r>  -10.4642    1.0000 </r>
       <r>  -10.3851    1.0000 </r>
       <r>  -10.3674    1.0000 </r>
[...]
       <r>   -22.7570    13.5483     6.1763 </r>
       <r>   -22.6602    15.4791     7.6749 </r>
       <r>   -22.5634    16.7039     9.2920 </r>
       <r>   -22.4666    15.2268    10.7661 </r>
       <r>   -22.3698    12.3183    11.9586 </r>
       <r>   -22.2730    11.0494    13.0283 </r>
       <r>   -22.1762    12.1739    14.2069 </r>
       <r>   -22.0793    13.7398    15.5371 </r>
       <r>   -21.9825    14.1959    16.9114 </r>
       <r>   -21.8857    13.8373    18.2510 </r>
       <r>   -21.7889    13.4925    19.5572 </r>
       <r>   -21.6921    13.0968    20.8251 </r>
       <r>   -21.5953    12.3451    22.0202 </r>
       <r>   -21.4985    11.7586    23.1586 </r>
       <r>   -21.4017    11.8241    24.3033 </r>
       <r>   -21.3049    12.4759    25.5111 </r>
       <r>   -21.2080    13.8818    26.8550 </r>
       <r>   -21.1112    15.9840    28.4024 </r>
       <r>   -21.0144    17.2503    30.0725 </r>
       <r>   -20.9176    16.1298    31.6340 </r>
       <r>   -20.8208    13.5800    32.9487 </r>
       <r>   -20.7240    11.9226    34.1029 </r>
       <r>   -20.6272    11.9595    35.2607 </r>
       <r>   -20.5304    12.5690    36.4775 </r>
       <r>   -20.4336    12.7968    37.7164 </r>
       <r>   -20.3367    13.1561    38.9901 </r>
       <r>   -20.2399    14.1878    40.3636 </r>
       <r>   -20.1431    15.2812    41.8430 </r>
       <r>   -20.0463    15.7208    43.3649 </r>
       <r>   -19.9495    15.2871    44.8449 </r>
       <r>   -19.8527    13.8956    46.1901 </r>
       <r>   -19.7559    12.3666    47.3874 </r>
       <r>   -19.6591    12.6330    48.6104 </r>
       <r>   -19.5623    14.9018    50.0530 </r>
       <r>   -19.4655    16.4244    51.6431 </r>
       <r>   -19.3686    15.3695    53.1310 </r>
       <r>   -19.2718    13.4998    54.4379 </r>
       <r>   -19.1750    13.3661    55.7319 </r>
       <r>   -19.0782    14.8553    57.1701 </r>
       <r>   -18.9814    15.6881    58.6888 </r>
       <r>   -18.8846    14.6723    60.1093 </r>
       <r>   -18.7878    13.5011    61.4163 </r>
       <r>   -18.6910    14.1879    62.7899 </r>
       <r>   -18.5942    15.7963    64.3191 </r>
       <r>   -18.4973    16.1656    65.8841 </r>
       <r>   -18.4005    15.3997    67.3750 </r>
       <r>   -18.3037    15.4259    68.8684 </r>
       <r>   -18.2069    16.9643    70.5107 </r>
       <r>   -18.1101    18.2034    72.2730 </r>
       <r>   -18.0133    17.2822    73.9461 </r>
       <r>   -17.9165    15.0953    75.4075 </r>
       <r>   -17.8197    13.6307    76.7271 </r>
       <r>   -17.7229    12.8810    77.9741 </r>
       <r>   -17.6260    11.9408    79.1301 </r>
       <r>   -17.5292    11.1225    80.2069 </r>
       <r>   -17.4324    10.9937    81.2712 </r>
       <r>   -17.3356    11.3183    82.3669 </r>
       <r>   -17.2388    11.6240    83.4923 </r>
       <r>   -17.1420    11.8100    84.6356 </r>
       <r>   -17.0452    11.7075    85.7690 </r>
       <r>   -16.9484    10.9704    86.8311 </r>
       <r>   -16.8516    10.1271    87.8115 </r>
       <r>   -16.7547    10.2952    88.8082 </r>
       <r>   -16.6579    11.7157    89.9424 </r>
       <r>   -16.5611    13.6504    91.2639 </r>
       <r>   -16.4643    15.1317    92.7288 </r>
       <r>   -16.3675    15.6892    94.2477 </r>
       <r>   -16.2707    15.8232    95.7795 </r>
       <r>   -16.1739    16.4342    97.3705 </r>
       <r>   -16.0771    17.5761    99.0721 </r>
       <r>   -15.9803    18.1566   100.8298 </r>
       <r>   -15.8835    17.1110   102.4864 </r>
       <r>   -15.7866    14.7270   103.9121 </r>
       <r>   -15.6898    12.2959   105.1025 </r>
       <r>   -15.5930    10.8691   106.1547 </r>
       <r>   -15.4962    11.2445   107.2433 </r>
       <r>   -15.3994    13.8735   108.5864 </r>
       <r>   -15.3026    17.6330   110.2935 </r>
       <r>   -15.2058    20.6320   112.2909 </r>
       <r>   -15.1090    22.4707   114.4663 </r>
       <r>   -15.0122    23.2172   116.7139 </r>
       <r>   -14.9153    21.9140   118.8354 </r>
       <r>   -14.8185    18.2664   120.6038 </r>
       <r>   -14.7217    13.5835   121.9189 </r>
       <r>   -14.6249     9.9078   122.8780 </r>
       <r>   -14.5281     8.7827   123.7283 </r>
       <r>   -14.4313     9.7307   124.6703 </r>
       <r>   -14.3345    10.8542   125.7211 </r>
       <r>   -14.2377    11.3594   126.8208 </r>
       <r>   -14.1409    11.9747   127.9801 </r>
       <r>   -14.0440    13.2422   129.2621 </r>
       <r>   -13.9472    14.6627   130.6816 </r>
       <r>   -13.8504    15.6164   132.1935 </r>
       <r>   -13.7536    16.5087   133.7917 </r>
       <r>   -13.6568    17.7156   135.5067 </r>
       <r>   -13.5600    18.4892   137.2967 </r>
       <r>   -13.4632    18.5847   139.0959 </r>
       <r>   -13.3664    19.0810   140.9431 </r>
       <r>   -13.2696    20.1361   142.8925 </r>
       <r>   -13.1728    19.7388   144.8035 </r>
       <r>   -13.0759    16.9025   146.4398 </r>
       <r>   -12.9791    14.1710   147.8117 </r>
       <r>   -12.8823    13.9118   149.1585 </r>
       <r>   -12.7855    14.9326   150.6042 </r>
       <r>   -12.6887    14.8921   152.0459 </r>
       <r>   -12.5919    13.5782   153.3604 </r>
       <r>   -12.4951    12.8457   154.6040 </r>
       <r>   -12.3983    14.0341   155.9626 </r>
       <r>   -12.3015    16.7744   157.5866 </r>
       <r>   -12.2046    20.1974   159.5419 </r>
       <r>   -12.1078    23.1401   161.7821 </r>
       <r>   -12.0110    24.4658   164.1507 </r>
       <r>   -11.9142    24.3949   166.5124 </r>
       <r>   -11.8174    23.2993   168.7680 </r>
       <r>   -11.7206    20.7033   170.7723 </r>
       <r>   -11.6238    17.1993   172.4374 </r>
       <r>   -11.5270    14.8242   173.8725 </r>
       <r>   -11.4302    15.1178   175.3361 </r>
       <r>   -11.3333    17.6016   177.0401 </r>
       <r>   -11.2365    20.7567   179.0496 </r>
       <r>   -11.1397    24.2718   181.3993 </r>
       <r>   -11.0429    28.2964   184.1387 </r>
       <r>   -10.9461    31.8920   187.2262 </r>
       <r>   -10.8493    34.0609   190.5237 </r>
       <r>   -10.7525    34.8447   193.8970 </r>
       <r>   -10.6557    35.2851   197.3130 </r>
       <r>   -10.5589    36.5095   200.8475 </r>
       <r>   -10.4620    38.1758   204.5433 </r>
       <r>   -10.3652    38.4897   208.2696 </r>
       <r>   -10.2684    36.5064   211.8038 </r>
       <r>   -10.1716    34.0638   215.1015 </r>
       <r>   -10.0748    33.3999   218.3350 </r>
       <r>    -9.9780    33.6038   221.5882 </r>
       <r>    -9.8812    33.1238   224.7949 </r>
       <r>    -9.7844    33.5048   228.0386 </r>
       <r>    -9.6876    36.1945   231.5426 </r>
       <r>    -9.5908    39.0051   235.3187 </r>
       <r>    -9.4939    39.7292   239.1649 </r>
       <r>    -9.3971    39.0617   242.9465 </r>
       <r>    -9.3003    37.6855   246.5949 </r>
       <r>    -9.2035    34.9290   249.9764 </r>
       <r>    -9.1067    31.5394   253.0297 </r>
       <r>    -9.0099    30.1516   255.9487 </r>
       <r>    -8.9131    31.9633   259.0431 </r>
       <r>    -8.8163    35.3656   262.4669 </r>
       <r>    -8.7195    37.8482   266.1310 </r>
       <r>    -8.6226    37.9186   269.8019 </r>
       <r>    -8.5258    35.9016   273.2776 </r>
       <r>    -8.4290    33.0469   276.4769 </r>
       <r>    -8.3322    30.2502   279.4054 </r>
       <r>    -8.2354    28.3323   282.1483 </r>
       <r>    -8.1386    27.8623   284.8457 </r>
       <r>    -8.0418    28.1296   287.5689 </r>
       <r>    -7.9450    27.9319   290.2730 </r>
       <r>    -7.8482    27.1457   292.9010 </r>
       <r>    -7.7513    26.5046   295.4670 </r>
       <r>    -7.6545    26.4018   298.0230 </r>
       <r>    -7.5577    26.9436   300.6314 </r>
       <r>    -7.4609    28.4003   303.3808 </r>
       <r>    -7.3641    29.9502   306.2803 </r>
       <r>    -7.2673    29.5747   309.1435 </r>
       <r>    -7.1705    26.8915   311.7469 </r>
       <r>    -7.0737    23.9867   314.0690 </r>
       <r>    -6.9769    22.7623   316.2727 </r>
       <r>    -6.8801    23.5485   318.5524 </r>
       <r>    -6.7832    25.7294   321.0433 </r>
       <r>    -6.6864    27.7817   323.7329 </r>
       <r>    -6.5896    27.5363   326.3987 </r>
       <r>    -6.4928    24.1000   328.7318 </r>
       <r>    -6.3960    19.8856   330.6570 </r>
       <r>    -6.2992    18.5447   332.4523 </r>
       <r>    -6.2024    20.3495   334.4224 </r>
       <r>    -6.1056    22.9745   336.6465 </r>
       <r>    -6.0088    24.9089   339.0580 </r>
       <r>    -5.9119    25.3386   341.5110 </r>
       <r>    -5.8151    24.2249   343.8563 </r>
       <r>    -5.7183    22.5102   346.0355 </r>
       <r>    -5.6215    20.2147   347.9925 </r>
       <r>    -5.5247    16.6602   349.6054 </r>
       <r>    -5.4279    12.6162   350.8268 </r>
       <r>    -5.3311    10.3713   351.8308 </r>
       <r>    -5.2343    11.1396   352.9092 </r>
       <r>    -5.1375    12.7701   354.1455 </r>
       <r>    -5.0406    12.1560   355.3224 </r>
       <r>    -4.9438     9.5927   356.2510 </r>
       <r>    -4.8470     7.9389   357.0196 </r>
       <r>    -4.7502     8.6439   357.8564 </r>
       <r>    -4.6534    11.0163   358.9229 </r>
       <r>    -4.5566    13.7545   360.2545 </r>
       <r>    -4.4598    15.2603   361.7319 </r>
       <r>    -4.3630    13.8849   363.0761 </r>
       <r>    -4.2662     9.8719   364.0318 </r>
       <r>    -4.1693     5.6445   364.5782 </r>
       <r>    -4.0725     3.0351   364.8720 </r>
       <r>    -3.9757     2.1580   365.0810 </r>
       <r>    -3.8789     2.5060   365.3236 </r>
       <r>    -3.7821     3.3225   365.6452 </r>
       <r>    -3.6853     3.8561   366.0185 </r>
       <r>    -3.5885     4.0092   366.4067 </r>
       <r>    -3.4917     4.1007   366.8037 </r>
       <r>    -3.3949     4.1015   367.2007 </r>
       <r>    -3.2981     3.9115   367.5794 </r>
       <r>    -3.2012     3.9704   367.9638 </r>
       <r>    -3.1044     4.5916   368.4083 </r>
       <r>    -3.0076     5.2259   368.9142 </r>
       <r>    -2.9108     5.2846   369.4258 </r>
       <r>    -2.8140     5.1957   369.9288 </r>
       <r>    -2.7172     5.6721   370.4779 </r>
       <r>    -2.6204     6.6151   371.1184 </r>
       <r>    -2.5236     7.1936   371.8148 </r>
       <r>    -2.4268     6.7149   372.4649 </r>
       <r>    -2.3299     5.9620   373.0420 </r>
       <r>    -2.2331     6.5594   373.6771 </r>
       <r>    -2.1363     8.0488   374.4563 </r>
       <r>    -2.0395     8.0919   375.2397 </r>
       <r>    -1.9427     6.4554   375.8646 </r>
       <r>    -1.8459     5.8010   376.4262 </r>
       <r>    -1.7491     8.2432   377.2242 </r>
       <r>    -1.6523    13.3728   378.5189 </r>
       <r>    -1.5555    19.0563   380.3637 </r>
       <r>    -1.4586    22.7381   382.5650 </r>
       <r>    -1.3618    22.7355   384.7661 </r>
       <r>    -1.2650    20.0774   386.7098 </r>
       <r>    -1.1682    17.9637   388.4488 </r>
       <r>    -1.0714    17.6558   390.1581 </r>
       <r>    -0.9746    17.2536   391.8284 </r>
       <r>    -0.8778    15.5986   393.3386 </r>
       <r>    -0.7810    13.8971   394.6839 </r>
       <r>    -0.6842    12.9315   395.9359 </r>
       <r>    -0.5874    12.2324   397.1201 </r>
       <r>    -0.4905    11.6640   398.2493 </r>
       <r>    -0.3937    11.5124   399.3638 </r>
       <r>    -0.2969    12.2873   400.5534 </r>
       <r>    -0.2001    14.4721   401.9544 </r>
       <r>    -0.1033    17.3023   403.6295 </r>
       <r>    -0.0065    19.5573   405.5228 </r>
       <r>     0.0903    21.2565   407.5807 </r>
       <r>     0.1871    22.3376   409.7432 </r>
       <r>     0.2839    21.6309   411.8373 </r>
       <r>     0.3808    19.1228   413.6886 </r>
       <r>     0.4776    17.0904   415.3431 </r>
       <r>     0.5744    17.9898   417.0847 </r>
       <r>     0.6712    22.0500   419.2194 </r>
       <r>     0.7680    27.0624   421.8393 </r>
       <r>     0.8648    30.8388   424.8249 </r>
       <r>     0.9616    33.3985   428.0582 </r>
       <r>     1.0584    35.9551   431.5390 </r>
       <r>     1.1552    39.2985   435.3436 </r>
       <r>     1.2521    43.7826   439.5822 </r>
       <r>     1.3489    48.5151   444.2790 </r>
       <r>     1.4457    50.8844   449.2051 </r>
       <r>     1.5425    48.6226   453.9123 </r>
       <r>     1.6393    41.4800   457.9280 </r>
       <r>     1.7361    30.8435   460.9140 </r>
       <r>     1.8329    18.9932   462.7528 </r>
       <r>     1.9297     8.9937   463.6235 </r>
       <r>     2.0265     3.0565   463.9194 </r>
       <r>     2.1234     0.7110   463.9882 </r>
       <r>     2.2202     0.1101   463.9988 </r>
       <r>     2.3170     0.0112   463.9999 </r>
       <r>     2.4138     0.0007   464.0000 </r>
       <r>     2.5106     0.0000   464.0000 </r>
       <r>     2.6074     0.0000   464.0000 </r>
       <r>     2.7042     0.0000   464.0000 </r>
       <r>     2.8010     0.0000   464.0000 </r>
       <r>     2.8978     0.0000   464.0000 </r>
       <r>     2.9946     0.0000   464.0000 </r>
       <r>     3.0915     0.0000   464.0000 </r>
       <r>     3.1883     0.0000   464.0000 </r>
       <r>     3.2851     0.0000   464.0000 </r>
       <r>     3.3819     0.0000   464.0000 </r>
       <r>     3.4787     0.0000   464.0000 </r>
       <r>     3.5755     0.0000   464.0000 </r>
       <r>     3.6723     0.0000   464.0000 </r>
       <r>     3.7691     0.0000   464.0000 </r>
      </set>
     </set>
    </array>
   </total>
  </dos>
 </calculation>
 <structure name="finalpos" >
  <crystal>
   <varray name="basis" >
    <v>      28.05000000       0.00000000       0.00000000 </v>
    <v>       0.00000000       8.10000000       0.00000000 </v>
    <v>       0.00000000       0.00000000      33.50000000 </v>
   </varray>
   <i name="volume">   7611.36750000 </i>
   <varray name="rec_basis" >
    <v>       0.03565062       0.00000000       0.00000000 </v>
    <v>       0.00000000       0.12345679       0.00000000 </v>
    <v>       0.00000000       0.00000000       0.02985075 </v>
   </varray>
  </crystal>
  <varray name="positions" >
   <v>       0.01331537       0.11514642       0.51861194 </v>
   <v>       0.01351957       0.28702346       0.51689851 </v>
   <v>       0.05054403       0.02255346       0.50073134 </v>
   <v>       0.04687914       0.35665185       0.49321791 </v>
   <v>       0.09298075       0.10610210       0.49226866 </v>
   <v>       0.09147166       0.27860123       0.48862687 </v>
   <v>       0.13400392       0.02965259       0.47744776 </v>
   <v>       0.13058289       0.34920123       0.46812836 </v>
   <v>       0.17734902       0.11430321       0.47187761 </v>
   <v>       0.17628200       0.27938148       0.46684179 </v>
   <v>       0.22093761       0.02674654       0.46464478 </v>
   <v>       0.21835472       0.36004444       0.45626567 </v>
   <v>       0.26515009       0.11277901       0.46171343 </v>
   <v>       0.26321070       0.28422346       0.45565075 </v>
   <v>       0.30673725       0.01818148       0.46796418 </v>
   <v>       0.30796827       0.34879259       0.45711642 </v>
   <v>       0.35166524       0.09949420       0.46980000 </v>
   <v>       0.35196292       0.27228765       0.46918507 </v>
   <v>       0.39671658       0.01837432       0.47204776 </v>
   <v>       0.39752941       0.34669630       0.47144179 </v>
   <v>       0.43868093       0.09528704       0.48282090 </v>
   <v>       0.44010695       0.27173704       0.48347761 </v>
   <v>       0.48254902       0.01783247       0.48855224 </v>
   <v>       0.48146881       0.34769753       0.49108955 </v>
   <v>       0.52611408       0.09976160       0.50236119 </v>
   <v>       0.52431016       0.27335926       0.50303582 </v>
   <v>       0.56990374       0.01709457       0.50958806 </v>
   <v>       0.56851337       0.35089136       0.51379403 </v>
   <v>       0.61172193       0.10109778       0.52304179 </v>
   <v>       0.61049911       0.27111728       0.52886866 </v>
   <v>       0.65392157       0.02445667       0.52921194 </v>
   <v>       0.65328699       0.35629136       0.53440299 </v>
   <v>       0.69566845       0.11031519       0.54085075 </v>
   <v>       0.69666667       0.27340247       0.54637313 </v>
   <v>       0.74036007       0.02487086       0.54345075 </v>
   <v>       0.74225312       0.35775679       0.55140597 </v>
   <v>       0.78505882       0.10362235       0.54879104 </v>
   <v>       0.78710873       0.27043210       0.55053433 </v>
   <v>       0.83060963       0.02105765       0.54689552 </v>
   <v>       0.83136542       0.35426543       0.54652836 </v>
   <v>       0.87679144       0.10333691       0.54692537 </v>
   <v>       0.87650980       0.26772593       0.54466567 </v>
   <v>       0.91995722       0.01916951       0.53423881 </v>
   <v>       0.92142959       0.35211111       0.53465672 </v>
   <v>       0.96272371       0.10010741       0.53240299 </v>
   <v>       0.96427094       0.27040000       0.53122090 </v>
   <v>       0.00210743       0.60416914       0.49314328 </v>
   <v>       0.00581390       0.77300000       0.50027463 </v>
   <v>       0.04353048       0.51879012       0.48150448 </v>
   <v>       0.04811943       0.85611852       0.49375224 </v>
   <v>       0.08374082       0.60293704       0.46859701 </v>
   <v>       0.08680036       0.77606667       0.47676119 </v>
   <v>       0.12704029       0.51864444       0.45927463 </v>
   <v>       0.12911836       0.85818642       0.47055522 </v>
   <v>       0.17242709       0.60787531       0.45457313 </v>
   <v>       0.17312906       0.77555926       0.45833731 </v>
   <v>       0.21674938       0.52718395       0.44986567 </v>
   <v>       0.21757112       0.86199506       0.45854328 </v>
   <v>       0.26241426       0.60268765       0.45108060 </v>
   <v>       0.26243280       0.77615309       0.45609254 </v>
   <v>       0.30739501       0.52042222       0.45152239 </v>
   <v>       0.30671480       0.84743827       0.46400597 </v>
   <v>       0.35307059       0.60021481       0.45690746 </v>
   <v>       0.35149911       0.77085432       0.45790746 </v>
   <v>       0.39817469       0.51777901       0.46672836 </v>
   <v>       0.39837790       0.85024321       0.46380299 </v>
   <v>       0.44365775       0.60241235       0.47031045 </v>
   <v>       0.44248841       0.76728765       0.46872537 </v>
   <v>       0.48564349       0.51760123       0.48164179 </v>
   <v>       0.48643137       0.85287654       0.47948358 </v>
   <v>       0.52866667       0.60026420       0.49155821 </v>
   <v>       0.52880570       0.77016173       0.48949851 </v>
   <v>       0.56998930       0.51759877       0.50734328 </v>
   <v>       0.57228164       0.85459383       0.50179701 </v>
   <v>       0.61263102       0.59965062       0.51444776 </v>
   <v>       0.61411052       0.77189383       0.51202985 </v>
   <v>       0.65408913       0.52163951       0.52745672 </v>
   <v>       0.65618895       0.85423086       0.52378209 </v>
   <v>       0.69750802       0.60295679       0.53494627 </v>
   <v>       0.69712656       0.77030864       0.53280597 </v>
   <v>       0.74370410       0.52237037       0.54252836 </v>
   <v>       0.73974688       0.85941852       0.54044776 </v>
   <v>       0.78904456       0.61149630       0.53988060 </v>
   <v>       0.78645276       0.77643704       0.54005075 </v>
   <v>       0.83367914       0.51975185       0.53980896 </v>
   <v>       0.83042781       0.85898025       0.54024179 </v>
   <v>       0.87590374       0.59694815       0.53597910 </v>
   <v>       0.87634581       0.76915185       0.53583582 </v>
   <v>       0.91965775       0.51463333       0.52774030 </v>
   <v>       0.91998217       0.85663827       0.52867164 </v>
   <v>       0.95822103       0.60350864       0.51388955 </v>
   <v>       0.95965775       0.78042716       0.51620896 </v>
  </varray>
 </structure>
</modeling>
