  92  92   0   0
  0.8273226E+02  0.2805000E-08  0.8100000E-09  0.3350000E-08  0.5000000E-15
   1.0000000000000000E-004
  CAR 
 unknown system                          
      3.91481264    -25.18456923  301     -3.14765395      1.00000000
    -25.185  0.0000E+00  0.0000E+00
    -25.088  0.0000E+00  0.0000E+00
    -24.991  0.0000E+00  0.0000E+00
    -24.894  0.0000E+00  0.0000E+00
    -24.797  0.0000E+00  0.0000E+00
    -24.700  0.0000E+00  0.0000E+00
    -24.603  0.0000E+00  0.0000E+00
    -24.506  0.0000E+00  0.0000E+00
    -24.409  0.0000E+00  0.0000E+00
    -24.312  0.4006E-14  0.3886E-15
    -24.215  0.8516E-12  0.8299E-13
    -24.118  0.1102E-09  0.1078E-10
    -24.021  0.9030E-08  0.8867E-09
    -23.924  0.4701E-06  0.4648E-07
    -23.827  0.1563E-04  0.1563E-05
    -23.730  0.3343E-03  0.3399E-04
    -23.633  0.4641E-02  0.4842E-03
    -23.536  0.4235E-01  0.4592E-02
    -23.439  0.2580E+00  0.2962E-01
    -23.342  0.1071E+01  0.1335E+00
    -23.245  0.3106E+01  0.4347E+00
    -23.148  0.6497E+01  0.1065E+01
    -23.051  0.1016E+02  0.2050E+01
    -22.954  0.1241E+02  0.3254E+01
    -22.857  0.1285E+02  0.4500E+01
    -22.760  0.1326E+02  0.5786E+01
    -22.663  0.1513E+02  0.7254E+01
    -22.566  0.1685E+02  0.8888E+01
    -22.469  0.1609E+02  0.1045E+02
    -22.372  0.1386E+02  0.1179E+02
    -22.275  0.1289E+02  0.1304E+02
    -22.178  0.1350E+02  0.1435E+02
    -22.081  0.1421E+02  0.1573E+02
    -21.984  0.1430E+02  0.1712E+02
    -21.887  0.1401E+02  0.1848E+02
    -21.790  0.1359E+02  0.1980E+02
    -21.693  0.1301E+02  0.2106E+02
    -21.596  0.1218E+02  0.2224E+02
    -21.499  0.1138E+02  0.2334E+02
    -21.402  0.1118E+02  0.2443E+02
    -21.305  0.1213E+02  0.2560E+02
    -21.208  0.1423E+02  0.2698E+02
    -21.111  0.1644E+02  0.2858E+02
    -21.014  0.1692E+02  0.3022E+02
    -20.917  0.1500E+02  0.3167E+02
    -20.820  0.1245E+02  0.3288E+02
    -20.723  0.1150E+02  0.3400E+02
    -20.626  0.1244E+02  0.3520E+02
    -20.529  0.1361E+02  0.3652E+02
    -20.432  0.1362E+02  0.3785E+02
    -20.335  0.1309E+02  0.3912E+02
    -20.238  0.1352E+02  0.4043E+02
    -20.141  0.1495E+02  0.4188E+02
    -20.044  0.1608E+02  0.4344E+02
    -19.947  0.1591E+02  0.4498E+02
    -19.850  0.1431E+02  0.4637E+02
    -19.753  0.1249E+02  0.4758E+02
    -19.656  0.1291E+02  0.4883E+02
    -19.559  0.1566E+02  0.5035E+02
    -19.462  0.1715E+02  0.5202E+02
    -19.365  0.1538E+02  0.5351E+02
    -19.268  0.1297E+02  0.5477E+02
    -19.171  0.1270E+02  0.5600E+02
    -19.074  0.1401E+02  0.5736E+02
    -18.977  0.1463E+02  0.5878E+02
    -18.880  0.1371E+02  0.6011E+02
    -18.783  0.1313E+02  0.6138E+02
    -18.686  0.1487E+02  0.6282E+02
    -18.589  0.1747E+02  0.6452E+02
    -18.492  0.1779E+02  0.6624E+02
    -18.395  0.1606E+02  0.6780E+02
    -18.298  0.1540E+02  0.6929E+02
    -18.201  0.1681E+02  0.7092E+02
    -18.104  0.1787E+02  0.7266E+02
    -18.007  0.1649E+02  0.7426E+02
    -17.910  0.1391E+02  0.7561E+02
    -17.813  0.1277E+02  0.7685E+02
    -17.716  0.1288E+02  0.7810E+02
    -17.619  0.1232E+02  0.7929E+02
    -17.522  0.1125E+02  0.8038E+02
    -17.425  0.1105E+02  0.8145E+02
    -17.328  0.1151E+02  0.8257E+02
    -17.231  0.1153E+02  0.8369E+02
    -17.134  0.1105E+02  0.8476E+02
    -17.037  0.1072E+02  0.8580E+02
    -16.940  0.1073E+02  0.8684E+02
    -16.843  0.1084E+02  0.8789E+02
    -16.746  0.1136E+02  0.8900E+02
    -16.649  0.1275E+02  0.9023E+02
    -16.552  0.1434E+02  0.9162E+02
    -16.455  0.1531E+02  0.9311E+02
    -16.358  0.1588E+02  0.9465E+02
    -16.261  0.1640E+02  0.9624E+02
    -16.164  0.1702E+02  0.9789E+02
    -16.067  0.1750E+02  0.9959E+02
    -15.970  0.1727E+02  0.1013E+03
    -15.873  0.1591E+02  0.1028E+03
    -15.776  0.1371E+02  0.1041E+03
    -15.679  0.1165E+02  0.1053E+03
    -15.582  0.1045E+02  0.1063E+03
    -15.485  0.1085E+02  0.1073E+03
    -15.388  0.1412E+02  0.1087E+03
    -15.291  0.1938E+02  0.1106E+03
    -15.194  0.2337E+02  0.1128E+03
    -15.097  0.2447E+02  0.1152E+03
    -15.000  0.2323E+02  0.1175E+03
    -14.903  0.2026E+02  0.1194E+03
    -14.806  0.1622E+02  0.1210E+03
    -14.709  0.1210E+02  0.1222E+03
    -14.612  0.8982E+01  0.1231E+03
    -14.515  0.7894E+01  0.1238E+03
    -14.418  0.8929E+01  0.1247E+03
    -14.321  0.1082E+02  0.1257E+03
    -14.224  0.1227E+02  0.1269E+03
    -14.127  0.1324E+02  0.1282E+03
    -14.030  0.1409E+02  0.1296E+03
    -13.933  0.1465E+02  0.1310E+03
    -13.836  0.1521E+02  0.1325E+03
    -13.739  0.1675E+02  0.1341E+03
    -13.642  0.1900E+02  0.1359E+03
    -13.545  0.2016E+02  0.1379E+03
    -13.448  0.1965E+02  0.1398E+03
    -13.351  0.1888E+02  0.1416E+03
    -13.254  0.1860E+02  0.1434E+03
    -13.157  0.1752E+02  0.1451E+03
    -13.060  0.1525E+02  0.1466E+03
    -12.963  0.1399E+02  0.1480E+03
    -12.866  0.1499E+02  0.1494E+03
    -12.769  0.1614E+02  0.1510E+03
    -12.672  0.1521E+02  0.1525E+03
    -12.575  0.1310E+02  0.1537E+03
    -12.478  0.1232E+02  0.1549E+03
    -12.381  0.1363E+02  0.1563E+03
    -12.284  0.1640E+02  0.1579E+03
    -12.187  0.2043E+02  0.1598E+03
    -12.090  0.2448E+02  0.1622E+03
    -11.993  0.2603E+02  0.1647E+03
    -11.896  0.2463E+02  0.1671E+03
    -11.799  0.2215E+02  0.1693E+03
    -11.702  0.1958E+02  0.1712E+03
    -11.605  0.1675E+02  0.1728E+03
    -11.508  0.1448E+02  0.1742E+03
    -11.411  0.1450E+02  0.1756E+03
    -11.314  0.1701E+02  0.1773E+03
    -11.217  0.2060E+02  0.1793E+03
    -11.120  0.2449E+02  0.1816E+03
    -11.023  0.2880E+02  0.1844E+03
    -10.926  0.3261E+02  0.1876E+03
    -10.829  0.3431E+02  0.1909E+03
    -10.732  0.3441E+02  0.1943E+03
    -10.635  0.3527E+02  0.1977E+03
    -10.538  0.3768E+02  0.2013E+03
    -10.441  0.3960E+02  0.2052E+03
    -10.344  0.3898E+02  0.2090E+03
    -10.247  0.3658E+02  0.2125E+03
    -10.150  0.3460E+02  0.2159E+03
    -10.053  0.3363E+02  0.2191E+03
     -9.956  0.3214E+02  0.2222E+03
     -9.859  0.3044E+02  0.2252E+03
     -9.762  0.3180E+02  0.2283E+03
     -9.665  0.3698E+02  0.2319E+03
     -9.568  0.4259E+02  0.2360E+03
     -9.471  0.4561E+02  0.2404E+03
     -9.374  0.4509E+02  0.2448E+03
     -9.277  0.4062E+02  0.2487E+03
     -9.180  0.3366E+02  0.2520E+03
     -9.083  0.2864E+02  0.2548E+03
     -8.986  0.2873E+02  0.2576E+03
     -8.889  0.3242E+02  0.2607E+03
     -8.792  0.3612E+02  0.2642E+03
     -8.695  0.3749E+02  0.2678E+03
     -8.598  0.3602E+02  0.2713E+03
     -8.501  0.3311E+02  0.2745E+03
     -8.404  0.3080E+02  0.2775E+03
     -8.307  0.2983E+02  0.2804E+03
     -8.210  0.2965E+02  0.2833E+03
     -8.113  0.2910E+02  0.2861E+03
     -8.016  0.2717E+02  0.2888E+03
     -7.919  0.2492E+02  0.2912E+03
     -7.822  0.2492E+02  0.2936E+03
     -7.725  0.2737E+02  0.2963E+03
     -7.628  0.2951E+02  0.2991E+03
     -7.531  0.2977E+02  0.3020E+03
     -7.434  0.2912E+02  0.3048E+03
     -7.337  0.2850E+02  0.3076E+03
     -7.240  0.2778E+02  0.3103E+03
     -7.143  0.2686E+02  0.3129E+03
     -7.046  0.2579E+02  0.3154E+03
     -6.949  0.2500E+02  0.3178E+03
     -6.852  0.2543E+02  0.3203E+03
     -6.755  0.2705E+02  0.3229E+03
     -6.658  0.2787E+02  0.3256E+03
     -6.561  0.2561E+02  0.3281E+03
     -6.464  0.2111E+02  0.3301E+03
     -6.367  0.1811E+02  0.3319E+03
     -6.270  0.1823E+02  0.3337E+03
     -6.173  0.2030E+02  0.3356E+03
     -6.076  0.2325E+02  0.3379E+03
     -5.979  0.2599E+02  0.3404E+03
     -5.882  0.2679E+02  0.3430E+03
     -5.785  0.2497E+02  0.3454E+03
     -5.688  0.2148E+02  0.3475E+03
     -5.591  0.1737E+02  0.3492E+03
     -5.494  0.1317E+02  0.3505E+03
     -5.397  0.1009E+02  0.3515E+03
     -5.300  0.9855E+01  0.3524E+03
     -5.203  0.1168E+02  0.3535E+03
     -5.106  0.1222E+02  0.3547E+03
     -5.009  0.1025E+02  0.3557E+03
     -4.912  0.8025E+01  0.3565E+03
     -4.815  0.7651E+01  0.3572E+03
     -4.718  0.9340E+01  0.3582E+03
     -4.621  0.1241E+02  0.3594E+03
     -4.524  0.1552E+02  0.3609E+03
     -4.427  0.1605E+02  0.3624E+03
     -4.330  0.1236E+02  0.3636E+03
     -4.233  0.6975E+01  0.3643E+03
     -4.136  0.3721E+01  0.3647E+03
     -4.039  0.3078E+01  0.3650E+03
     -3.942  0.3125E+01  0.3653E+03
     -3.845  0.2956E+01  0.3655E+03
     -3.748  0.3062E+01  0.3658E+03
     -3.651  0.3485E+01  0.3662E+03
     -3.554  0.3772E+01  0.3665E+03
     -3.457  0.3822E+01  0.3669E+03
     -3.360  0.3589E+01  0.3673E+03
     -3.263  0.3285E+01  0.3676E+03
     -3.166  0.3551E+01  0.3679E+03
     -3.069  0.4402E+01  0.3684E+03
     -2.972  0.5035E+01  0.3688E+03
     -2.875  0.5118E+01  0.3693E+03
     -2.778  0.5583E+01  0.3699E+03
     -2.681  0.7158E+01  0.3706E+03
     -2.584  0.8611E+01  0.3714E+03
     -2.487  0.8099E+01  0.3722E+03
     -2.390  0.5911E+01  0.3728E+03
     -2.293  0.4307E+01  0.3732E+03
     -2.196  0.4817E+01  0.3737E+03
     -2.099  0.6663E+01  0.3743E+03
     -2.002  0.7566E+01  0.3750E+03
     -1.905  0.6438E+01  0.3757E+03
     -1.808  0.5261E+01  0.3762E+03
     -1.711  0.6910E+01  0.3768E+03
     -1.614  0.1189E+02  0.3780E+03
     -1.517  0.1796E+02  0.3797E+03
     -1.420  0.2218E+02  0.3819E+03
     -1.323  0.2310E+02  0.3841E+03
     -1.226  0.2114E+02  0.3862E+03
     -1.129  0.1872E+02  0.3880E+03
     -1.032  0.1822E+02  0.3898E+03
     -0.935  0.1862E+02  0.3916E+03
     -0.838  0.1731E+02  0.3932E+03
     -0.741  0.1418E+02  0.3946E+03
     -0.644  0.1141E+02  0.3957E+03
     -0.547  0.1052E+02  0.3967E+03
     -0.450  0.1093E+02  0.3978E+03
     -0.353  0.1118E+02  0.3989E+03
     -0.256  0.1133E+02  0.4000E+03
     -0.159  0.1334E+02  0.4013E+03
     -0.062  0.1768E+02  0.4030E+03
      0.035  0.2167E+02  0.4051E+03
      0.132  0.2296E+02  0.4073E+03
      0.229  0.2214E+02  0.4095E+03
      0.326  0.2069E+02  0.4115E+03
      0.423  0.1919E+02  0.4133E+03
      0.520  0.1867E+02  0.4152E+03
      0.617  0.2085E+02  0.4172E+03
      0.714  0.2528E+02  0.4196E+03
      0.811  0.2887E+02  0.4224E+03
      0.908  0.2995E+02  0.4253E+03
      1.005  0.3124E+02  0.4284E+03
      1.102  0.3635E+02  0.4319E+03
      1.199  0.4445E+02  0.4362E+03
      1.296  0.5095E+02  0.4411E+03
      1.393  0.5265E+02  0.4463E+03
      1.490  0.4949E+02  0.4511E+03
      1.587  0.4288E+02  0.4552E+03
      1.684  0.3454E+02  0.4586E+03
      1.781  0.2556E+02  0.4610E+03
      1.878  0.1650E+02  0.4626E+03
      1.975  0.8775E+01  0.4635E+03
      2.072  0.3698E+01  0.4639E+03
      2.169  0.1188E+01  0.4640E+03
      2.266  0.2776E+00  0.4640E+03
      2.363  0.4506E-01  0.4640E+03
      2.460  0.4914E-02  0.4640E+03
      2.557  0.3522E-03  0.4640E+03
      2.654  0.1637E-04  0.4640E+03
      2.751  0.4888E-06  0.4640E+03
      2.848  0.9323E-08  0.4640E+03
      2.945  0.1131E-09  0.4640E+03
      3.042  0.8693E-12  0.4640E+03
      3.139  0.4006E-14  0.4640E+03
      3.236  0.0000E+00  0.4640E+03
      3.333  0.0000E+00  0.4640E+03
      3.430  0.0000E+00  0.4640E+03
      3.527  0.0000E+00  0.4640E+03
      3.624  0.0000E+00  0.4640E+03
      3.721  0.0000E+00  0.4640E+03
      3.818  0.0000E+00  0.4640E+03
      3.915  0.0000E+00  0.4640E+03
