       N       E                     dE             d eps       ncg     rms          rms(c)
DAV:   1     0.364557498430E+04    0.36456E+04   -0.11980E+05  1720   0.105E+03
DAV:   2     0.171858026862E+03   -0.34737E+04   -0.32100E+04  2136   0.237E+02
DAV:   3    -0.839095284415E+03   -0.10110E+04   -0.98748E+03  1800   0.134E+02
DAV:   4    -0.900062247942E+03   -0.60967E+02   -0.60065E+02  1712   0.425E+01
DAV:   5    -0.901535775972E+03   -0.14735E+01   -0.14545E+01  1808   0.645E+00    0.457E+01
DAV:   6    -0.851541466994E+03    0.49994E+02   -0.47407E+01  1576   0.124E+01    0.269E+01
DAV:   7    -0.832773220346E+03    0.18768E+02   -0.66003E+01  1568   0.143E+01    0.733E+00
DAV:   8    -0.832462900071E+03    0.31032E+00   -0.22572E+00  1600   0.314E+00    0.892E-01
DAV:   9    -0.832365230474E+03    0.97670E-01   -0.24221E-01  1656   0.887E-01    0.560E-01
DAV:  10    -0.832319845599E+03    0.45385E-01   -0.40320E-02  1744   0.387E-01    0.344E-01
DAV:  11    -0.832288294996E+03    0.31551E-01   -0.32859E-02  1520   0.262E-01    0.226E-01
DAV:  12    -0.832289049608E+03   -0.75461E-03   -0.15029E-02  1512   0.192E-01    0.141E-01
DAV:  13    -0.832301933369E+03   -0.12884E-01   -0.77786E-03  1528   0.128E-01    0.838E-02
DAV:  14    -0.832321552212E+03   -0.19619E-01   -0.13219E-03  1536   0.613E-02    0.522E-02
DAV:  15    -0.832341373558E+03   -0.19821E-01   -0.16532E-03  1560   0.586E-02    0.302E-02
DAV:  16    -0.832349000286E+03   -0.76267E-02   -0.44610E-04  1592   0.329E-02    0.195E-02
DAV:  17    -0.832353201316E+03   -0.42010E-02   -0.23166E-04  1520   0.212E-02    0.952E-03
DAV:  18    -0.832355198608E+03   -0.19973E-02   -0.91299E-05  1568   0.124E-02    0.540E-03
DAV:  19    -0.832355924253E+03   -0.72565E-03   -0.15759E-05  1328   0.589E-03    0.339E-03
DAV:  20    -0.832356289597E+03   -0.36534E-03   -0.53439E-06  1320   0.354E-03    0.170E-03
DAV:  21    -0.832356430816E+03   -0.14122E-03   -0.12675E-06  1112   0.173E-03    0.886E-04
DAV:  22    -0.832356486823E+03   -0.56007E-04   -0.31733E-07   992   0.108E-03    0.520E-04
DAV:  23    -0.832356509987E+03   -0.23165E-04   -0.18545E-07   904   0.631E-04    0.358E-04
DAV:  24    -0.832356517604E+03   -0.76161E-05   -0.50178E-08   912   0.527E-04    0.158E-04
DAV:  25    -0.832356522496E+03   -0.48926E-05   -0.38559E-08   888   0.325E-04    0.210E-04
DAV:  26    -0.832356524221E+03   -0.17249E-05   -0.83324E-09   928   0.243E-04    0.652E-05
DAV:  27    -0.832356526325E+03   -0.21041E-05   -0.11448E-08   928   0.184E-04    0.986E-05
DAV:  28    -0.832356526989E+03   -0.66409E-06   -0.25972E-09   904   0.143E-04
   1 F= -.83235653E+03 E0= -.83231537E+03  d E =-.823189E-01
