unknown system                          
            1
    28.050000    0.000000    0.000000
     0.000000    8.100000    0.000000
     0.000000    0.000000   33.500000
   C 
    92
Direct configuration=     1
   0.78487701  0.50875062  0.30268657
   0.78458824  0.68133580  0.30119403
   0.82739394  0.42607531  0.30865672
   0.82762567  0.76298025  0.30567164
   0.86896970  0.50870247  0.32149254
   0.86877005  0.67898642  0.32029851
   0.91133690  0.42651235  0.33134328
   0.91216043  0.75825432  0.32686567
   0.95399287  0.50997160  0.34328358
   0.95403922  0.67956543  0.34208955
   0.99723351  0.42782346  0.35104478
   0.99703030  0.76056790  0.34955224
   0.04007772  0.51202593  0.36208955
   0.04017219  0.67993457  0.36208955
   0.08438859  0.42814815  0.36716418
   0.08421747  0.76321975  0.36656716
   0.12901925  0.51050000  0.37164179
   0.12922745  0.67946173  0.37164179
   0.17401783  0.42839753  0.37194030
   0.17362353  0.75790000  0.37194030
   0.21862210  0.50779877  0.37134328
   0.21836970  0.67628395  0.37074627
   0.26225205  0.42701975  0.36417910
   0.26203102  0.75815926  0.36417910
   0.30752799  0.50989630  0.35970149
   0.30718396  0.67796049  0.35791045
   0.34995722  0.42626296  0.34805970
   0.34941676  0.76059506  0.34537313
   0.39288057  0.51300370  0.33761194
   0.39322995  0.68286914  0.33701493
   0.43211052  0.43250370  0.31910448
   0.43356506  0.76525802  0.32089552
   0.47560428  0.51287037  0.30985075
   0.47687701  0.68286790  0.31194030
   0.51790018  0.43095185  0.29731343
   0.51778253  0.76556790  0.29940299
   0.56105526  0.51640370  0.29104478
   0.56218538  0.68635679  0.29223881
   0.60467380  0.43432346  0.28238806
   0.60545455  0.76866667  0.28537313
   0.64832442  0.51659506  0.28328358
   0.64845276  0.68591852  0.28656716
   0.69290909  0.43296667  0.28268657
   0.69323351  0.76630370  0.28268657
   0.73462389  0.51268025  0.29253731
   0.73453832  0.68428025  0.29104478
   0.78787522  0.00918216  0.28507463
   0.78858111  0.18321235  0.28507463
   0.82922282  0.92792346  0.29731343
   0.82834581  0.26122222  0.29970149
   0.87333690  0.00992979  0.30447761
   0.87245989  0.17871852  0.30805970
   0.91484135  0.92184321  0.31791045
   0.91338324  0.26011235  0.32358209
   0.95765062  0.00871220  0.32776119
   0.95706239  0.17891605  0.33104478
   0.00004990  0.92566543  0.34149254
   0.99886631  0.25948519  0.34447761
   0.04256007  0.00762572  0.34985075
   0.04290267  0.17645185  0.35164179
   0.08518859  0.92875309  0.36149254
   0.08442781  0.25800741  0.36328358
   0.12968663  0.00976830  0.36447761
   0.12864742  0.17838148  0.36417910
   0.17420784  0.92680988  0.36686567
   0.17332620  0.25951975  0.36716418
   0.21842888  0.01019406  0.36179104
   0.21726952  0.17944074  0.36268657
   0.26235971  0.92638148  0.35791045
   0.26186738  0.26120000  0.35791045
   0.30472620  0.01174856  0.34716418
   0.30404670  0.17964444  0.34597015
   0.34746595  0.92769753  0.33880597
   0.34723957  0.26225432  0.33850746
   0.38784314  0.01136638  0.32298507
   0.38815330  0.18139259  0.32358209
   0.43045633  0.92838025  0.31283582
   0.43093405  0.26460494  0.31402985
   0.47265597  0.01199436  0.30089552
   0.47253119  0.17979136  0.29970149
   0.51670588  0.93331852  0.29552239
   0.51600357  0.26334938  0.29164179
   0.55988235  0.01488111  0.28328358
   0.55988948  0.18361481  0.28238806
   0.60451693  0.93449012  0.27850746
   0.60354011  0.26531852  0.27671642
   0.64958645  0.01381025  0.27283582
   0.64899465  0.18391728  0.27343284
   0.69482709  0.93223086  0.27402985
   0.69344742  0.26644568  0.27522388
   0.73812834  0.01213820  0.27432836
   0.73759715  0.18812716  0.27552239
