       N       E                     dE             d eps       ncg     rms          rms(c)
DAV:   1     0.365990282295E+04    0.36599E+04   -0.11949E+05  1712   0.105E+03
DAV:   2     0.171090887137E+03   -0.34888E+04   -0.32269E+04  2136   0.238E+02
DAV:   3    -0.835495975456E+03   -0.10066E+04   -0.98395E+03  1784   0.134E+02
DAV:   4    -0.897092158206E+03   -0.61596E+02   -0.60525E+02  1704   0.425E+01
DAV:   5    -0.898590664720E+03   -0.14985E+01   -0.14763E+01  1776   0.647E+00    0.458E+01
DAV:   6    -0.848340947662E+03    0.50250E+02   -0.47868E+01  1600   0.127E+01    0.269E+01
DAV:   7    -0.829622252928E+03    0.18719E+02   -0.66630E+01  1568   0.145E+01    0.740E+00
DAV:   8    -0.829320254747E+03    0.30200E+00   -0.24685E+00  1616   0.345E+00    0.103E+00
DAV:   9    -0.829206785654E+03    0.11347E+00   -0.29641E-01  1648   0.109E+00    0.581E-01
DAV:  10    -0.829170078860E+03    0.36707E-01   -0.56315E-02  1712   0.481E-01    0.367E-01
DAV:  11    -0.829140057766E+03    0.30021E-01   -0.22266E-02  1528   0.256E-01    0.257E-01
DAV:  12    -0.829134329920E+03    0.57278E-02   -0.25494E-02  1536   0.237E-01    0.158E-01
DAV:  13    -0.829146150316E+03   -0.11820E-01   -0.96187E-03  1536   0.172E-01    0.915E-02
DAV:  14    -0.829163323795E+03   -0.17173E-01   -0.14948E-03  1584   0.873E-02    0.619E-02
DAV:  15    -0.829183182701E+03   -0.19859E-01   -0.18355E-03  1568   0.667E-02    0.326E-02
DAV:  16    -0.829192089117E+03   -0.89064E-02   -0.45432E-04  1600   0.376E-02    0.232E-02
DAV:  17    -0.829198223046E+03   -0.61339E-02   -0.41653E-04  1552   0.260E-02    0.126E-02
DAV:  18    -0.829200310273E+03   -0.20872E-02   -0.85385E-05  1648   0.140E-02    0.646E-03
DAV:  19    -0.829201678411E+03   -0.13681E-02   -0.63363E-05  1552   0.106E-02    0.401E-03
DAV:  20    -0.829201940514E+03   -0.26210E-03   -0.38990E-06  1376   0.345E-03    0.269E-03
DAV:  21    -0.829202210095E+03   -0.26958E-03   -0.40798E-06  1264   0.285E-03    0.119E-03
DAV:  22    -0.829202256102E+03   -0.46007E-04   -0.24691E-07  1064   0.125E-03    0.746E-04
DAV:  23    -0.829202299486E+03   -0.43384E-04   -0.37562E-07   952   0.106E-03    0.564E-04
DAV:  24    -0.829202311219E+03   -0.11733E-04   -0.89223E-08   960   0.586E-04    0.267E-04
DAV:  25    -0.829202319125E+03   -0.79054E-05   -0.66365E-08   904   0.524E-04    0.209E-04
DAV:  26    -0.829202322307E+03   -0.31822E-05   -0.23516E-08   920   0.289E-04    0.129E-04
DAV:  27    -0.829202324160E+03   -0.18529E-05   -0.10487E-08   944   0.198E-04    0.665E-05
DAV:  28    -0.829202325973E+03   -0.18133E-05   -0.69536E-09   920   0.154E-04    0.810E-05
DAV:  29    -0.829202326321E+03   -0.34762E-06   -0.22641E-09   976   0.973E-05
   1 F= -.82920233E+03 E0= -.82916288E+03  d E =-.788949E-01
