 vasp.6.5.0 16Dec24 (build Feb 19 2025 19:45:31) complex                         
 executed on              LinuxNV date 2025.10.25  18:44:54
 running    2 mpi-ranks, on    1 nodes
 distrk:  each k-point on    2 cores,    1 groups
 distr:  one band on NCORE=   1 cores,    2 groups
 Offloading initialized ...    2 GPUs detected


--------------------------------------------------------------------------------------------------------


 INCAR:
   ISTART = 0            (Not Read existing wavefunction
   ISPIN = 1            (Non-Spin polarised DFT, Default\=1)
   ICHARG = 2            (The initial guess charge density is generated by superposition of atomic charge density)
   LREAL = Auto         (Projection operators: automatic)
   ENCUT = 500          (Cut-off energy for plane wave basis set, in eV)
   LWAVE = .FALSE.       (Write WAVECAR or not)
   LCHARG = .FALSE.       (Write CHGCAR or not)
   PREC = Accurate   (Precision level)
   KGAMMA = .TRUE.
   ALGO = Normal
   NSW = 0           (Default: NSW \= 0)
   IBRION = -1           (Ions are not moved)
   ISMEAR = 0
   EDIFF = 1E-06        (SCF energy convergence
   NELM = 150          (Max electronic SCF steps)

 POTCAR:    PAW_PBE C 08Apr2002                   
 POTCAR:    PAW_PBE C 08Apr2002                   
   SHA256 =  253f7b50bb8d59471dbedb8285d89021f4a42ed1a2c5d38a03a736e69125dd95 C/POTCAR              
   COPYR  = (c) Copyright 08Apr2002 Georg Kresse                                                    
   COPYR  = This file is part of the software VASP. Any use, copying, and all other rights are regul
   COPYR  = If you do not have a valid VASP license, you may not use, copy or distribute this file. 
   VRHFIN =C: s2p2                                                                                  
   LEXCH  = PE                                                                                      
   EATOM  =   147.1560 eV,   10.8157 Ry                                                             
                                                                                                    
   TITEL  = PAW_PBE C 08Apr2002                                                                     
   LULTRA =        F    use ultrasoft PP ?                                                          
   IUNSCR =        1    unscreen: 0-lin 1-nonlin 2-no                                               
   RPACOR =    1.200    partial core radius                                                         
   POMASS =   12.011; ZVAL   =    4.000    mass and valenz                                          
   RCORE  =    1.500    outmost cutoff radius                                                       
   RWIGS  =    1.630; RWIGS  =    0.863    wigner-seitz radius (au A)                               
   ENMAX  =  400.000; ENMIN  =  300.000 eV                                                          
   ICORE  =        2    local potential                                                             
   LCOR   =        T    correct aug charges                                                         
   LPAW   =        T    paw PP                                                                      
   EAUG   =  644.873                                                                                
   DEXC   =    0.000                                                                                
   RMAX   =    1.529    core radius for proj-oper                                                   
   RAUG   =    1.300    factor for augmentation sphere                                              
   RDEP   =    1.501    radius for radial grids                                                     
   RDEPT  =    1.300    core radius for aug-charge                                                  
                                                                                                    
   Atomic configuration                                                                             
    4 entries                                                                                       
     n  l   j            E        occ.                                                              
     1  0  0.50      -273.3789   2.0000                                                             
     2  0  0.50       -13.7508   2.0000                                                             
     2  1  0.50        -5.2854   2.0000                                                             
     3  2  1.50        -5.4423   0.0000                                                             
   Description                                                                                      
     l       E           TYP  RCUT    TYP  RCUT                                                     
     0    -13.7508458     23  1.200                                                                 
     0     -8.2022199     23  1.200                                                                 
     1     -5.2854383     23  1.500                                                                 
     1     34.0145650     23  1.500                                                                 
     2     -5.4423304      7  1.500                                                                 
  local pseudopotential read in
  partial core-charges read in
  partial kinetic energy density read in
  atomic valenz-charges read in
  non local Contribution for L=            0  read in
    real space projection operators read in
  non local Contribution for L=            0  read in
    real space projection operators read in
  non local Contribution for L=            1  read in
    real space projection operators read in
  non local Contribution for L=            1  read in
    real space projection operators read in
    PAW grid and wavefunctions read in
 
   number of l-projection  operators is LMAX  =            4
   number of lm-projection operators is LMMAX =            8
 
 Optimization of the real space projectors (new method)

 maximal supplied QI-value         = 25.13
 optimisation between [QCUT,QGAM] = [ 11.31, 22.87] = [ 35.82,146.48] Ry 
 Optimized for a Real-space Cutoff    1.03 Angstroem

   l    n(q)    QCUT    max X(q) W(low)/X(q) W(high)/X(q)  e(spline) 
   0      7    11.310   115.676    0.20E-03    0.90E-03    0.20E-06
   0      7    11.310    87.132    0.20E-03    0.89E-03    0.19E-06
   1      6    11.310     4.429    0.16E-03    0.28E-03    0.12E-06
   1      6    11.310     2.733    0.12E-03    0.21E-03    0.99E-07
  PAW_PBE C 08Apr2002                   :
 energy of atom  1       EATOM= -147.1560
 kinetic energy error for atom=    0.0076 (will be added to EATOM!!)
 
 
 POSCAR:  C
  positions in cartesian coordinates
  No initial velocities read in


 exchange-correlation table for PE
   RHO(1)=    0.500       N(1)  =     2000
   RHO(2)=  100.500       N(2)  =     4000
 


--------------------------------------------------------------------------------------------------------


 ion  position               nearest neighbor table
   1  0.312  0.512  0.020-   2 1.37   3 1.42  45 1.48  46 2.04
   2  0.311  0.679  0.026-   1 1.37   4 1.41  46 1.49  45 2.02
   3  0.356  0.429  0.023-  50 1.35   5 1.39   1 1.42
   4  0.354  0.766  0.022-  49 1.37   2 1.41   6 1.42
   5  0.400  0.514  0.021-   6 1.39   3 1.39   7 1.41
   6  0.399  0.685  0.025-   8 1.39   5 1.39   4 1.42
   7  0.443  0.434  0.014-   9 1.37  54 1.39   5 1.41
   8  0.442  0.761  0.020-   6 1.39  10 1.41  53 1.42
   9  0.486  0.511  0.008-   7 1.37  10 1.39  11 1.42
  10  0.486  0.682  0.013-   9 1.39   8 1.41  12 1.48
  11  0.528  0.429  0.996-  58 1.38  13 1.41   9 1.42
  12  0.529  0.767  0.997-  57 1.37  14 1.40  10 1.48
  13  0.571  0.509  0.986-  14 1.40  11 1.41  15 1.46
  14  0.571  0.683  0.986-  12 1.40  13 1.40  16 1.42
  15  0.615  0.427  0.974-  17 1.37  62 1.38  13 1.46
  16  0.610  0.761  0.967-  61 1.38  14 1.42  18 1.46
  17  0.657  0.505  0.964-  15 1.37  18 1.39  19 1.48
  18  0.655  0.675  0.959-  17 1.39  20 1.40  16 1.46
  19  0.701  0.417  0.953-  21 1.37  66 1.37  17 1.48
  20  0.695  0.761  0.945-  65 1.34  22 1.40  18 1.40
  21  0.739  0.510  0.940-  19 1.37  22 1.37  23 1.46
  22  0.738  0.679  0.940-  21 1.37  20 1.40  24 1.44
  23  0.784  0.423  0.933-  25 1.36  70 1.38  21 1.46
  24  0.783  0.762  0.935-  69 1.36  26 1.40  22 1.44
  25  0.826  0.503  0.935-  23 1.36  26 1.39  27 1.41
  26  0.826  0.674  0.936-  25 1.39  24 1.40  28 1.43
  27  0.871  0.423  0.936-  74 1.37  25 1.41  29 1.41
  28  0.870  0.761  0.936-  73 1.35  30 1.39  26 1.43
  29  0.914  0.508  0.944-  30 1.39  31 1.40  27 1.41
  30  0.913  0.680  0.944-  32 1.35  28 1.39  29 1.39
  31  0.958  0.433  0.952-  33 1.37  29 1.40  78 1.41
  32  0.956  0.757  0.945-  30 1.35  77 1.42  34 1.43
  33  0.000  0.512  0.960-  31 1.37  34 1.38  35 1.43
  34  0.001  0.681  0.954-  33 1.38  36 1.41  32 1.43
  35  0.044  0.431  0.969-  82 1.35  33 1.43  37 1.43
  36  0.043  0.763  0.963-  81 1.37  34 1.41  38 1.44
  37  0.087  0.517  0.980-  38 1.36  39 1.43  35 1.43
  38  0.087  0.685  0.977-  37 1.36  40 1.44  36 1.44
  39  0.130  0.438  0.990-  86 1.39  41 1.39  37 1.43
  40  0.130  0.770  0.988-  85 1.39  38 1.44  42 1.44
  41  0.174  0.519  0.996-  39 1.39  42 1.40  43 1.43
  42  0.174  0.691  0.999-  41 1.40  44 1.43  40 1.44
  43  0.217  0.432  0.004-  90 1.35  45 1.40  41 1.43
  44  0.219  0.767  0.008-  46 1.36  89 1.42  42 1.43
  45  0.259  0.511  0.016-  43 1.40  46 1.40   1 1.48   2 2.02
  46  0.258  0.683  0.020-  44 1.36  45 1.40   2 1.49   1 2.04
  47  0.310  0.005  0.011-  49 1.37  91 1.41  48 1.43  92 2.00
  48  0.312  0.181  0.009-  50 1.39  92 1.42  47 1.43  91 1.97
  49  0.354  0.932  0.014-  47 1.37   4 1.37  51 1.43
  50  0.354  0.265  0.017-   3 1.35  48 1.39  52 1.40
  51  0.399  0.013  0.011-  52 1.37  53 1.40  49 1.43
  52  0.397  0.182  0.011-  51 1.37  50 1.40  54 1.41
  53  0.443  0.934  0.013-  51 1.40  55 1.40   8 1.42
  54  0.442  0.264  0.009-   7 1.39  56 1.40  52 1.41
  55  0.485  0.011  0.000-  57 1.37  56 1.37  53 1.40
  56  0.484  0.180  0.999-  55 1.37  54 1.40  58 1.41
  57  0.527  0.935  0.991-  55 1.37  12 1.37  59 1.44
  58  0.527  0.262  0.989-  11 1.38  60 1.39  56 1.41
  59  0.567  0.017  0.972-  60 1.38  61 1.42  57 1.44
  60  0.569  0.187  0.977-  62 1.37  59 1.38  58 1.39
  61  0.608  0.928  0.960-  16 1.38  63 1.41  59 1.42
  62  0.612  0.258  0.971-  60 1.37  15 1.38  64 1.43
  63  0.650  0.007  0.947-  64 1.37  61 1.41  65 1.45
  64  0.652  0.173  0.954-  63 1.37  62 1.43  66 1.44
  65  0.694  0.924  0.937-  20 1.34  67 1.42  63 1.45
  66  0.697  0.252  0.945-  19 1.37  68 1.41  64 1.44
  67  0.736  0.006  0.926-  68 1.36  65 1.42  69 1.43
  68  0.738  0.174  0.929-  67 1.36  70 1.41  66 1.41
  69  0.782  0.927  0.927-  24 1.36  67 1.43  71 1.44
  70  0.782  0.257  0.924-  23 1.38  68 1.41  72 1.43
  71  0.828  0.004  0.921-  73 1.38  72 1.41  69 1.44
  72  0.827  0.178  0.921-  71 1.41  70 1.43  74 1.44
  73  0.870  0.924  0.928-  28 1.35  71 1.38  75 1.43
  74  0.872  0.258  0.928-  27 1.37  76 1.42  72 1.44
  75  0.915  0.008  0.930-  76 1.37  77 1.40  73 1.43
  76  0.917  0.177  0.932-  75 1.37  74 1.42  78 1.44
  77  0.958  0.931  0.940-  75 1.40  32 1.42  79 1.43
  78  0.960  0.264  0.942-  31 1.41  76 1.44  80 1.46
  79  0.002  0.013  0.949-  80 1.36  77 1.43  81 1.46
  80  0.004  0.180  0.954-  79 1.36  82 1.43  78 1.46
  81  0.046  0.931  0.961-  36 1.37  79 1.46  83 1.47
  82  0.046  0.265  0.966-  35 1.35  84 1.40  80 1.43
  83  0.090  0.015  0.974-  84 1.36  85 1.40  81 1.47
  84  0.088  0.182  0.978-  83 1.36  82 1.40  86 1.44
  85  0.132  0.942  0.988-  40 1.39  83 1.40  87 1.41
  86  0.132  0.267  0.986-  88 1.39  39 1.39  84 1.44
  87  0.176  0.022  0.995-  88 1.34  89 1.36  85 1.41
  88  0.175  0.188  0.992-  87 1.34  86 1.39  90 1.44
  89  0.218  0.940  0.001-  91 1.35  87 1.36  44 1.42
  90  0.220  0.266  0.002-  92 1.34  43 1.35  88 1.44
  91  0.260  0.018  0.006-  89 1.35  92 1.37  47 1.41  48 1.97
  92  0.262  0.187  0.006-  90 1.34  91 1.37  48 1.42  47 2.00
 
  LATTYP: Found a simple orthorhombic cell.
 ALAT       =     8.1000000000
 B/A-ratio  =     3.4629629630
 C/A-ratio  =     4.1358024691
  
  Lattice vectors:
  
 A1 = (   0.0000000000,  -8.1000000000,   0.0000000000)
 A2 = (  28.0500000000,   0.0000000000,   0.0000000000)
 A3 = (   0.0000000000,   0.0000000000,  33.5000000000)


Analysis of symmetry for initial positions (statically):
=====================================================================
 Subroutine PRICEL returns:
 Original cell was already a primitive cell.
 

 Routine SETGRP: Setting up the symmetry group for a 
 simple orthorhombic supercell.


 Subroutine GETGRP returns: Found  1 space group operations
 (whereof  1 operations were pure point group operations)
 out of a pool of  8 trial point group operations.


The static configuration has the point symmetry C_1 .


Analysis of symmetry for dynamics (positions and initial velocities):
=====================================================================
 Subroutine PRICEL returns:
 Original cell was already a primitive cell.
 

 Routine SETGRP: Setting up the symmetry group for a 
 simple orthorhombic supercell.


 Subroutine GETGRP returns: Found  1 space group operations
 (whereof  1 operations were pure point group operations)
 out of a pool of  8 trial point group operations.


The dynamic configuration has the point symmetry C_1 .


 Subroutine INISYM returns: Found  1 space group operations
 (whereof  1 operations are pure point group operations),
 and found     1 'primitive' translations


----------------------------------------------------------------------------------------

                                     Primitive cell                                     

  volume of cell :    7611.3675

  direct lattice vectors                    reciprocal lattice vectors
    28.050000000  0.000000000  0.000000000     0.035650624  0.000000000  0.000000000
     0.000000000  8.100000000  0.000000000     0.000000000  0.123456790  0.000000000
     0.000000000  0.000000000 33.500000000     0.000000000  0.000000000  0.029850746

  length of vectors
    28.050000000  8.100000000 33.500000000     0.035650624  0.123456790  0.029850746

  position of ions in fractional coordinates (direct lattice)
     0.311765419  0.511649383  0.020180507
     0.310562923  0.679292593  0.026256388
     0.356483779  0.429422222  0.023294269
     0.354113012  0.765839506  0.022383612
     0.399568627  0.514282716  0.021498836
     0.398673797  0.684737037  0.025492657
     0.443272727  0.434076543  0.014483343
     0.442424242  0.761212346  0.020044657
     0.485836007  0.511333333  0.008029970
     0.486395722  0.682333333  0.012714985
     0.528181818  0.429383951  0.996429284
     0.529219251  0.767212346  0.997009791
     0.571076649  0.509118519  0.986400925
     0.570830660  0.682513580  0.985883821
     0.615215686  0.427258025  0.974284000
     0.610295900  0.760772840  0.967072537
     0.656869875  0.504849383  0.963751940
     0.655155080  0.675006173  0.959383582
     0.701297683  0.417202469  0.952775522
     0.694563280  0.761487654  0.944517313
     0.739158645  0.510008642  0.940150746
     0.737821747  0.678888889  0.939511940
     0.784060606  0.422824691  0.932877015
     0.782991087  0.762419753  0.935328657
     0.826424242  0.503013580  0.935249254
     0.826017825  0.674083951  0.935554627
     0.870837790  0.422861728  0.935967164
     0.870260250  0.760654321  0.935892239
     0.913700535  0.507709877  0.944395821
     0.913048128  0.679829630  0.943697313
     0.957921569  0.432798765  0.951904478
     0.955682709  0.757208642  0.945460597
     0.000131031  0.511772840  0.960074030
     0.000587701  0.680779012  0.954319403
     0.044124421  0.430827160  0.969075821
     0.043415686  0.763230864  0.963476716
     0.086736185  0.517250617  0.979799463
     0.086961141  0.684949383  0.976558358
     0.130428877  0.437693827  0.990128478
     0.129960071  0.770285185  0.987692896
     0.173694474  0.518559259  0.996365821
     0.173999287  0.690970370  0.998733415
     0.217370410  0.432062963  0.003531791
     0.218606417  0.767476543  0.007654149
     0.259148663  0.510879012  0.015797731
     0.258232799  0.682946914  0.019504567
     0.309572549  0.004675259  0.011331254
     0.311929412  0.180562963  0.009410866
     0.353669162  0.932097531  0.014169672
     0.354051693  0.264743210  0.017011403
     0.399005348  0.013155432  0.011077343
     0.397383244  0.182222222  0.010910866
     0.443051693  0.933746914  0.013407612
     0.441796791  0.264450617  0.009217194
     0.484816399  0.011023580  0.000187279
     0.483786096  0.180297531  0.998788293
     0.526855615  0.934576543  0.990882806
     0.526570410  0.261920988  0.988882776
     0.566627451  0.017148889  0.972128358
     0.568616756  0.186633333  0.976676448
     0.607957219  0.928261728  0.959915522
     0.612228164  0.257958025  0.971251373
     0.649614973  0.007477457  0.946586866
     0.651978610  0.172727160  0.954406866
     0.693682709  0.924000000  0.936889552
     0.696770053  0.251606173  0.945315821
     0.736488414  0.006490741  0.926396716
     0.737778966  0.174439506  0.929343881
     0.782188948  0.927022222  0.926789254
     0.781508021  0.256927160  0.923596418
     0.827868093  0.004032704  0.920831045
     0.827019608  0.177576543  0.920586269
     0.870434938  0.923848148  0.927926567
     0.871871658  0.257611111  0.927798209
     0.914987522  0.008112630  0.930440597
     0.916755793  0.177143210  0.931598209
     0.958114082  0.930688889  0.940321194
     0.959850267  0.263895062  0.942209552
     0.001941258  0.013414074  0.948989254
     0.004038289  0.180041975  0.953509851
     0.045968984  0.931395062  0.960791642
     0.046304100  0.264864198  0.965751940
     0.089948663  0.014657654  0.974088657
     0.087673797  0.181913580  0.977919522
     0.132320499  0.941870370  0.987541642
     0.131796791  0.266843210  0.986186299
     0.176067023  0.022453951  0.994630388
     0.175240285  0.188040741  0.992157701
     0.217672727  0.940017284  0.000517946
     0.219938681  0.266000000  0.001786096
     0.259810339  0.017527901  0.005628687
     0.261530481  0.186822222  0.006457045

  ion indices of the primitive-cell ions
   primitive index   ion index
                 1           1
                 2           2
                 3           3
                 4           4
                 5           5
                 6           6
                 7           7
                 8           8
                 9           9
                10          10
                11          11
                12          12
                13          13
                14          14
                15          15
                16          16
                17          17
                18          18
                19          19
                20          20
                21          21
                22          22
                23          23
                24          24
                25          25
                26          26
                27          27
                28          28
                29          29
                30          30
                31          31
                32          32
                33          33
                34          34
                35          35
                36          36
                37          37
                38          38
                39          39
                40          40
                41          41
                42          42
                43          43
                44          44
                45          45
                46          46
                47          47
                48          48
                49          49
                50          50
                51          51
                52          52
                53          53
                54          54
                55          55
                56          56
                57          57
                58          58
                59          59
                60          60
                61          61
                62          62
                63          63
                64          64
                65          65
                66          66
                67          67
                68          68
                69          69
                70          70
                71          71
                72          72
                73          73
                74          74
                75          75
                76          76
                77          77
                78          78
                79          79
                80          80
                81          81
                82          82
                83          83
                84          84
                85          85
                86          86
                87          87
                88          88
                89          89
                90          90
                91          91
                92          92

----------------------------------------------------------------------------------------

 
 
 KPOINTS: K-Spacing Value to Generate K-Mesh: 0.03

Automatic generation of k-mesh.
 Grid dimensions read from file:
 generate k-points for:    1    4    1

 Generating k-lattice:

  Cartesian coordinates                     Fractional coordinates (reciprocal lattice)
     0.035650624  0.000000000  0.000000000     1.000000000  0.000000000  0.000000000
     0.000000000  0.030864198  0.000000000     0.000000000  0.250000000  0.000000000
     0.000000000  0.000000000  0.029850746     0.000000000  0.000000000  1.000000000

  Length of vectors
     0.035650624  0.030864198  0.029850746

  Shift w.r.t. Gamma in fractional coordinates (k-lattice)
     0.000000000  0.000000000  0.000000000

 
 Subroutine IBZKPT returns following result:
 ===========================================
 
 Found      3 irreducible k-points:
 
 Following reciprocal coordinates:
            Coordinates               Weight
  0.000000  0.000000  0.000000      1.000000
  0.000000  0.250000  0.000000      2.000000
  0.000000  0.500000  0.000000      1.000000
 
 Following cartesian coordinates:
            Coordinates               Weight
  0.000000  0.000000  0.000000      1.000000
  0.000000  0.030864  0.000000      2.000000
  0.000000  0.061728  0.000000      1.000000
 


--------------------------------------------------------------------------------------------------------




 Dimension of arrays:
   k-points           NKPTS =      3   k-points in BZ     NKDIM =      3   number of bands    NBANDS=    232
   number of dos      NEDOS =    301   number of ions     NIONS =     92
   non local maximal  LDIM  =      4   non local SUM 2l+1 LMDIM =      8
   total plane-waves  NPLWV = ******
   max r-space proj   IRMAX =   1967   max aug-charges    IRDMAX=   5083
   dimension x,y,z NGX =   210 NGY =   60 NGZ =  250
   dimension x,y,z NGXF=   420 NGYF=  120 NGZF=  500
   support grid    NGXF=   420 NGYF=  120 NGZF=  500
   ions per type =              92
   NGX,Y,Z   is equivalent  to a cutoff of  12.45, 12.31, 12.41 a.u.
   NGXF,Y,Z  is equivalent  to a cutoff of  24.89, 24.63, 24.81 a.u.

 SYSTEM =  unknown system                          
 POSCAR =   C                                      

 Startparameter for this run:
   NWRITE =      2    write-flag & timer
   PREC   = accura    normal or accurate (medium, high low for compatibility)
   ISTART =      0    job   : 0-new  1-cont  2-samecut
   ICHARG =      2    charge: 1-file 2-atom 10-const
   ISPIN  =      1    spin polarized calculation?
   LNONCOLLINEAR =      F non collinear calculations
   LSORBIT =      F    spin-orbit coupling
   INIWAV =      1    electr: 0-lowe 1-rand  2-diag
   LASPH  =      F    aspherical Exc in radial PAW
 Electronic Relaxation 1
   ENCUT  =  500.0 eV  36.75 Ry    6.06 a.u.  51.14 14.77 61.08*2*pi/ulx,y,z
   ENINI  =  500.0     initial cutoff
   ENAUG  =  644.9 eV  augmentation charge cutoff
   NELM   =    150;   NELMIN=  2; NELMDL= -5     # of ELM steps 
   EDIFF  = 0.1E-05   stopping-criterion for ELM
   LREAL  =      T    real-space projection
   NLSPLINE    = F    spline interpolate recip. space projectors
   LCOMPAT=      F    compatible to vasp.4.4
   GGA_COMPAT  = T    GGA compatible to vasp.4.4-vasp.4.6
   LMAXPAW     = -100 max onsite density
   LMAXMIX     =    2 max onsite mixed and CHGCAR
   VOSKOWN=      0    Vosko Wilk Nusair interpolation
   ROPT   =   -0.00025
 Ionic relaxation
   EDIFFG = 0.1E-04   stopping-criterion for IOM
   NSW    =      0    number of steps for IOM
   NBLOCK =      1;   KBLOCK =      1    inner block; outer block 
   IBRION =     -1    ionic relax: 0-MD 1-quasi-New 2-CG
   NFREE  =      0    steps in history (QN), initial steepest desc. (CG)
   ISIF   =      2    stress and relaxation
   IWAVPR =     10    prediction:  0-non 1-charg 2-wave 3-comb
   ISYM   =      2    0-nonsym 1-usesym 2-fastsym
   LCORR  =      T    Harris-Foulkes like correction to forces

   POTIM  = 0.5000    time-step for ionic-motion
   TEIN   =    0.0    initial temperature
   TEBEG  =    0.0;   TEEND  =   0.0 temperature during run
   SMASS  =  -3.00    Nose mass-parameter (am)
   estimated Nose-frequenzy (Omega)   =  0.10E-29 period in steps = 0.13E+47 mass=  -0.180E-25a.u.
   SCALEE = 1.0000    scale energy and forces
   NPACO  =    256;   APACO  = 10.0  distance and # of slots for P.C.
   PSTRESS=    0.0 pullay stress

  Mass of Ions in am
   POMASS =  12.01
  Ionic Valenz
   ZVAL   =   4.00
  Atomic Wigner-Seitz radii
   RWIGS  =  -1.00
  virtual crystal weights 
   VCA    =   1.00
   NELECT =     368.0000    total number of electrons
   NUPDOWN=      -1.0000    fix difference up-down

 DOS related values:
   EMIN   =  10.00;   EMAX   =-10.00  energy-range for DOS
   EFERMI =   0.00;   METHOD = LEGACY      
   ISMEAR =     0;   SIGMA  =   0.20  broadening in eV -4-tet -1-fermi 0-gaus
   EFERMI_NEDOS =   21; number of points for ismear=-14 and -15

 Electronic relaxation 2 (details)
   IALGO  =     38    algorithm
   LDIAG  =      T    sub-space diagonalisation (order eigenvalues)
   LSUBROT=      F    optimize rotation matrix (better conditioning)
   TURBO    =      0    0=normal 1=particle mesh
   IRESTART =      0    0=no restart 2=restart with 2 vectors
   NREBOOT  =      0    no. of reboots
   NMIN     =      0    reboot dimension
   EREF     =   0.00    reference energy to select bands
   IMIX   =      4    mixing-type and parameters
     AMIX     =   0.40;   BMIX     =  1.00
     AMIX_MAG =   1.60;   BMIX_MAG =  1.00
     AMIN     =   0.10
     WC   =   100.;   INIMIX=   1;  MIXPRE=   1;  MAXMIX= -45

 Intra band minimization:
   WEIMIN = 0.0000     energy-eigenvalue tresh-hold
   EBREAK =  0.11E-08  absolut break condition
   DEPER  =   0.30     relativ break condition  

   TIME   =   0.40     timestep for ELM

  volume/ion in A,a.u.               =      82.73       558.30
  Fermi-wavevector in a.u.,A,eV,Ry     =   0.596398  1.127030  4.839472  0.355691
  Thomas-Fermi vector in A             =   1.646729
 
 Write flags
   LWAVE        =      F    write WAVECAR
   LDOWNSAMPLE  =      F    k-point downsampling of WAVECAR
   LCHARG       =      F    write CHGCAR
   LVTOT        =      F    write LOCPOT, total local potential
   LVHAR        =      F    write LOCPOT, Hartree potential only
   WRT_POTENTIAL= false  ! write potential to hdf5 file
   LELF         =      F    write electronic localiz. function (ELF)
   LORBIT       =      0    0 simple, 1 ext, 2 COOP (PROOUT), +10 PAW based schemes


 Python interface
   PLUGINS active      =      F    recompile with -DPLUGINS to activate
 
 Dipole corrections
   LMONO      =      F    monopole corrections only (constant potential shift)
   LDIPOL     =      F    correct potential (dipole corrections)
   IDIPOL     =      0    1-x, 2-y, 3-z, 4-all directions 
   EPSILON    =  1.0000000 bulk dielectric constant
   LVACPOTAV  =      F  vacuum potentials using an averaging scheme for the charge density
   VACPOTFLAT =  0.1000000 required flatness to determine vacuum potential
 
Coulomb truncation method
  LTRUNCATE          =      F  Coulomb kernel truncation to be used
  IDIMENSIONALITY    =      3  Dimensionality of cutoff (0 molecules / 2 surfaces)
  ISURFACE           =     -1  Direction of surface normal
  LCOARSEN           =      F  Coarsen the charge grid before padding, preferred

 
 Exchange correlation treatment:
   GGA     = PE    functional components
   XC_C    = 1    coefficients multiplying the functional components
   LIBXC   =     F    Libxc                    
   VOSKOWN =     0    Vosko Wilk Nusair interpolation
   LHFCALC =     F    Hartree Fock is set to
   LHFONE  =     F    Hartree Fock one center treatment
   AEXX    =    0.0000 exact exchange contribution

 Parameters of functionals:
   PE:
     No parameter
 
 Van der Waals corrections
   IVDW    =     0    specifies the selected vdW correction

 Linear response parameters
   LEPSILON=     F    determine dielectric tensor
   LRPA    =     F    only Hartree local field effects (RPA)
   LNABLA  =     F    use nabla operator in PAW spheres
   LVEL    =     F    velocity operator in full k-point grid
   CSHIFT  =0.1000    complex shift for real part using Kramers Kronig
   OMEGAMAX=  -1.0    maximum frequency
   DEG_THRESHOLD= 0.2000000E-02 threshold for treating states as degnerate
   RTIME   =   -0.100 relaxation time in fs
  (WPLASMAI=    0.000 imaginary part of plasma frequency in eV, 0.658/RTIME)
   DFIELD  = 0.0000000 0.0000000 0.0000000 field for delta impulse in time
 
  Optional k-point grid parameters
   LKPOINTS_OPT  =     F    use optional k-point grid
   KPOINTS_OPT_MODE=     1    mode for optional k-point grid
 
 Orbital magnetization related:
   ORBITALMAG=     F  switch on orbital magnetization
   LCHIMAG   =     F  perturbation theory with respect to B field
   DQ        =  0.001000  dq finite difference perturbation B field
   LLRAUG    =     F  two centre corrections for induced B field
   LBONE     =     F  B-component reconstruction in AE one-centre
   LVGVCALC  =     T  calculate vGv susceptibility
   LVGVAPPL  =     F  apply vGv susceptibility instead of pGv for G=0

 Random number generation:
   RANDOM_GENERATOR = DEFAULT
   PCG_SEED         = not used


--------------------------------------------------------------------------------------------------------


 Static calculation
 charge density and potential will be updated during run
 non-spin polarized calculation
 Variant of blocked Davidson
 Davidson routine will perform the subspace rotation
 perform sub-space diagonalisation
    after iterative eigenvector-optimisation
 modified Broyden-mixing scheme, WC =      100.0
 initial mixing is a Kerker type mixing with AMIX =  0.4000 and BMIX =      1.0000
 Hartree-type preconditioning will be used
 using additional bands            48
 real space projection scheme for non local part
 use partial core corrections
 calculate Harris-corrections to forces 
   (improved forces if not selfconsistent)
 use gradient corrections 
 use of overlap-Matrix (Vanderbilt PP)
 Gauss-broadening in eV      SIGMA  =   0.20


--------------------------------------------------------------------------------------------------------


  energy-cutoff  :      500.00
  volume of cell :     7611.37
      direct lattice vectors                 reciprocal lattice vectors
    28.050000000  0.000000000  0.000000000     0.035650624  0.000000000  0.000000000
     0.000000000  8.100000000  0.000000000     0.000000000  0.123456790  0.000000000
     0.000000000  0.000000000 33.500000000     0.000000000  0.000000000  0.029850746

  length of vectors
    28.050000000  8.100000000 33.500000000     0.035650624  0.123456790  0.029850746


 
 k-points in units of 2pi/SCALE and weight: K-Spacing Value to Generate K-Mesh: 0.03
   0.00000000  0.00000000  0.00000000       0.250
   0.00000000  0.03086420  0.00000000       0.500
   0.00000000  0.06172840  0.00000000       0.250
 
 k-points in reciprocal lattice and weights: K-Spacing Value to Generate K-Mesh: 0.03
   0.00000000  0.00000000  0.00000000       0.250
   0.00000000  0.25000000  0.00000000       0.500
   0.00000000  0.50000000  0.00000000       0.250
 
 position of ions in fractional coordinates (direct lattice) 
   0.31176542  0.51164938  0.02018051
   0.31056292  0.67929259  0.02625639
   0.35648378  0.42942222  0.02329427
   0.35411301  0.76583951  0.02238361
   0.39956863  0.51428272  0.02149884
   0.39867380  0.68473704  0.02549266
   0.44327273  0.43407654  0.01448334
   0.44242424  0.76121235  0.02004466
   0.48583601  0.51133333  0.00802997
   0.48639572  0.68233333  0.01271499
   0.52818182  0.42938395  0.99642928
   0.52921925  0.76721235  0.99700979
   0.57107665  0.50911852  0.98640093
   0.57083066  0.68251358  0.98588382
   0.61521569  0.42725802  0.97428400
   0.61029590  0.76077284  0.96707254
   0.65686988  0.50484938  0.96375194
   0.65515508  0.67500617  0.95938358
   0.70129768  0.41720247  0.95277552
   0.69456328  0.76148765  0.94451731
   0.73915865  0.51000864  0.94015075
   0.73782175  0.67888889  0.93951194
   0.78406061  0.42282469  0.93287701
   0.78299109  0.76241975  0.93532866
   0.82642424  0.50301358  0.93524925
   0.82601783  0.67408395  0.93555463
   0.87083779  0.42286173  0.93596716
   0.87026025  0.76065432  0.93589224
   0.91370053  0.50770988  0.94439582
   0.91304813  0.67982963  0.94369731
   0.95792157  0.43279877  0.95190448
   0.95568271  0.75720864  0.94546060
   0.00013103  0.51177284  0.96007403
   0.00058770  0.68077901  0.95431940
   0.04412442  0.43082716  0.96907582
   0.04341569  0.76323086  0.96347672
   0.08673619  0.51725062  0.97979946
   0.08696114  0.68494938  0.97655836
   0.13042888  0.43769383  0.99012848
   0.12996007  0.77028519  0.98769290
   0.17369447  0.51855926  0.99636582
   0.17399929  0.69097037  0.99873341
   0.21737041  0.43206296  0.00353179
   0.21860642  0.76747654  0.00765415
   0.25914866  0.51087901  0.01579773
   0.25823280  0.68294691  0.01950457
   0.30957255  0.00467526  0.01133125
   0.31192941  0.18056296  0.00941087
   0.35366916  0.93209753  0.01416967
   0.35405169  0.26474321  0.01701140
   0.39900535  0.01315543  0.01107734
   0.39738324  0.18222222  0.01091087
   0.44305169  0.93374691  0.01340761
   0.44179679  0.26445062  0.00921719
   0.48481640  0.01102358  0.00018728
   0.48378610  0.18029753  0.99878829
   0.52685561  0.93457654  0.99088281
   0.52657041  0.26192099  0.98888278
   0.56662745  0.01714889  0.97212836
   0.56861676  0.18663333  0.97667645
   0.60795722  0.92826173  0.95991552
   0.61222816  0.25795802  0.97125137
   0.64961497  0.00747746  0.94658687
   0.65197861  0.17272716  0.95440687
   0.69368271  0.92400000  0.93688955
   0.69677005  0.25160617  0.94531582
   0.73648841  0.00649074  0.92639672
   0.73777897  0.17443951  0.92934388
   0.78218895  0.92702222  0.92678925
   0.78150802  0.25692716  0.92359642
   0.82786809  0.00403270  0.92083104
   0.82701961  0.17757654  0.92058627
   0.87043494  0.92384815  0.92792657
   0.87187166  0.25761111  0.92779821
   0.91498752  0.00811263  0.93044060
   0.91675579  0.17714321  0.93159821
   0.95811408  0.93068889  0.94032119
   0.95985027  0.26389506  0.94220955
   0.00194126  0.01341407  0.94898925
   0.00403829  0.18004198  0.95350985
   0.04596898  0.93139506  0.96079164
   0.04630410  0.26486420  0.96575194
   0.08994866  0.01465765  0.97408866
   0.08767380  0.18191358  0.97791952
   0.13232050  0.94187037  0.98754164
   0.13179679  0.26684321  0.98618630
   0.17606702  0.02245395  0.99463039
   0.17524029  0.18804074  0.99215770
   0.21767273  0.94001728  0.00051795
   0.21993868  0.26600000  0.00178610
   0.25981034  0.01752790  0.00562869
   0.26153048  0.18682222  0.00645704
 
 position of ions in cartesian coordinates  (Angst):
   8.74502000  4.14436000  0.67604700
   8.71129000  5.50227000  0.87958900
   9.99937000  3.47832000  0.78035800
   9.93287000  6.20330000  0.74985100
  11.20790000  4.16569000  0.72021100
  11.18280000  5.54637000  0.85400400
  12.43380000  3.51602000  0.48519200
  12.41000000  6.16582000  0.67149600
  13.62770000  4.14180000  0.26900400
  13.64340000  5.52690000  0.42595200
  14.81550000  3.47801000 33.38038100
  14.84460000  6.21442000 33.39982800
  16.01870000  4.12386000 33.04443100
  16.01180000  5.52836000 33.02710800
  17.25680000  3.46079000 32.63851400
  17.11880000  6.16226000 32.39693000
  18.42520000  4.08928000 32.28569000
  18.37710000  5.46755000 32.13935000
  19.67140000  3.37934000 31.91798000
  19.48250000  6.16805000 31.64133000
  20.73340000  4.13107000 31.49505000
  20.69590000  5.49900000 31.47365000
  21.99290000  3.42488000 31.25138000
  21.96290000  6.17560000 31.33351000
  23.18120000  4.07441000 31.33085000
  23.16980000  5.46008000 31.34108000
  24.42700000  3.42518000 31.35490000
  24.41080000  6.16130000 31.35239000
  25.62930000  4.11245000 31.63726000
  25.61100000  5.50662000 31.61386000
  26.86970000  3.50567000 31.88880000
  26.80690000  6.13339000 31.67293000
   0.00367542  4.14536000 32.16248000
   0.01648500  5.51431000 31.96970000
   1.23769000  3.48970000 32.46404000
   1.21781000  6.18217000 32.27647000
   2.43295000  4.18973000 32.82328200
   2.43926000  5.54809000 32.71470500
   3.65853000  3.54532000 33.16930400
   3.64538000  6.23931000 33.08771200
   4.87213000  4.20033000 33.37825500
   4.88068000  5.59686000 33.45756940
   6.09724000  3.49971000  0.11831500
   6.13191000  6.21656000  0.25641400
   7.26912000  4.13812000  0.52922400
   7.24343000  5.53187000  0.65340300
   8.68351000  0.03786960  0.37959700
   8.74962000  1.46256000  0.31526400
   9.92042000  7.54999000  0.47468400
   9.93115000  2.14442000  0.56988200
  11.19210000  0.10655900  0.37109100
  11.14660000  1.47600000  0.36551400
  12.42760000  7.56335000  0.44915500
  12.39240000  2.14205000  0.30877600
  13.59910000  0.08929100  0.00627386
  13.57020000  1.46041000 33.45940780
  14.77830000  7.57007000 33.19457400
  14.77030000  2.12156000 33.12757300
  15.89390000  0.13890600 32.56630000
  15.94970000  1.51173000 32.71866100
  17.05320000  7.51892000 32.15717000
  17.17300000  2.08946000 32.53692100
  18.22170000  0.06056740 31.71066000
  18.28800000  1.39909000 31.97263000
  19.45780000  7.48440000 31.38580000
  19.54440000  2.03801000 31.66808000
  20.65850000  0.05257500 31.03429000
  20.69470000  1.41296000 31.13302000
  21.94040000  7.50888000 31.04744000
  21.92130000  2.08111000 30.94048000
  23.22170000  0.03266490 30.84784000
  23.19790000  1.43837000 30.83964000
  24.41570000  7.48317000 31.08554000
  24.45600000  2.08665000 31.08124000
  25.66540000  0.06571230 31.16976000
  25.71500000  1.43486000 31.20854000
  26.87510000  7.53858000 31.50076000
  26.92380000  2.13755000 31.56402000
   0.05445230  0.10865400 31.79114000
   0.11327400  1.45834000 31.94258000
   1.28943000  7.54430000 32.18652000
   1.29883000  2.14540000 32.35269000
   2.52306000  0.11872700 32.63197000
   2.45925000  1.47350000 32.76030400
   3.71159000  7.62915000 33.08264500
   3.69690000  2.16143000 33.03724100
   4.93868000  0.18187700 33.32011800
   4.91549000  1.52313000 33.23728300
   6.10572000  7.61414000  0.01735120
   6.16928000  2.15460000  0.05983420
   7.28768000  0.14197600  0.18856100
   7.33593000  1.51326000  0.21631100
 


--------------------------------------------------------------------------------------------------------


 k-point     1 :   0.0000 0.0000 0.0000  plane waves:  193173
 k-point     2 :   0.0000 0.2500 0.0000  plane waves:  193166
 k-point     3 :   0.0000 0.5000 0.0000  plane waves:  193226

 maximum and minimum number of plane-waves per node :    193226   193166

 maximum number of plane-waves:    193226
 maximum index in each direction: 
   IXMAX=   51   IYMAX=   14   IZMAX=   61
   IXMIN=  -51   IYMIN=  -15   IZMIN=  -61


 serial   3D FFT for wavefunctions
 parallel 3D FFT for charge:
    minimum data exchange during FFTs selected (reduces bandwidth)


 total amount of memory used by VASP MPI-rank0  2294513. kBytes
=======================================================================

   base                                    :      30000. kBytes
   nonlr-proj                              :      15079. kBytes
   fftplans                                :     436558. kBytes
   grid                                    :     732614. kBytes
   one-center                              :        282. kBytes
   wavefun                                 :    1079980. kBytes
 
     INWAV:  cpu time      0.0000: real time      0.0000
 Broyden mixing: mesh for mixing (old mesh)
   NGX =103   NGY = 29   NGZ =123
  (NGX  =420   NGY  =120   NGZ  =500)
  gives a total of 367401 points

 initial charge density was supplied:
 charge density of overlapping atoms calculated
 number of electron     368.0000000 magnetization 
 keeping initial charge density in first step


--------------------------------------------------------------------------------------------------------


 Maximum index for non-local projection operator          1872
 Maximum index for augmentation-charges          2385 (set IRDMAX)


--------------------------------------------------------------------------------------------------------


 First call to EWALD:  gamma=   0.090
 Maximum number of real-space cells   2x   6x   2
 Maximum number of reciprocal cells   4x   1x   4

    FEWALD:  cpu time      0.1641: real time      0.1642


--------------------------------------- Ionic step        1  -------------------------------------------




--------------------------------------- Iteration      1(   1)  ---------------------------------------


    POTLOK:  cpu time      0.4274: real time      0.4468
    SETDIJ:  cpu time      0.0413: real time      0.0413
     EDDAV:  cpu time     11.0838: real time     11.0875
       DOS:  cpu time      0.0008: real time      0.0008
    --------------------------------------------
      LOOP:  cpu time     11.5534: real time     11.5764

 eigenvalue-minimisations  :  1712
 total energy-change (2. order) : 0.3659903E+04  (-0.1194905E+05)
 number of electron     368.0000000 magnetization 
 augmentation part      368.0000000 magnetization 

 Free energy of the ion-electron system (eV)
  ---------------------------------------------------
  alpha Z        PSCENC =        91.34886789
  Ewald energy   TEWEN  =    120097.21070609
  -Hartree energ DENC   =   -129407.22717979
  -exchange      EXHF   =         0.00000000
  -V(xc)+E(xc)   XCENC  =      1222.50842816
  PAW double counting   =      9984.02826696   -10036.41360137
  entropy T*S    EENTRO =        -0.84515206
  eigenvalues    EBANDS =     -1828.36230683
  atomic energy  EATOM  =     13537.65479391
  Solvation  Ediel_sol  =         0.00000000
  ---------------------------------------------------
  free energy    TOTEN  =      3659.90282295 eV

  energy without entropy =     3660.74797502  energy(sigma->0) =     3660.32539899


--------------------------------------------------------------------------------------------------------




--------------------------------------- Iteration      1(   2)  ---------------------------------------


     EDDAV:  cpu time     13.1054: real time     13.1101
       DOS:  cpu time      0.0018: real time      0.0018
    --------------------------------------------
      LOOP:  cpu time     13.1072: real time     13.1118

 eigenvalue-minimisations  :  2136
 total energy-change (2. order) :-0.3488812E+04  (-0.3226941E+04)
 number of electron     368.0000000 magnetization 
 augmentation part      368.0000000 magnetization 

 Free energy of the ion-electron system (eV)
  ---------------------------------------------------
  alpha Z        PSCENC =        91.34886789
  Ewald energy   TEWEN  =    120097.21070609
  -Hartree energ DENC   =   -129407.22717979
  -exchange      EXHF   =         0.00000000
  -V(xc)+E(xc)   XCENC  =      1222.50842816
  PAW double counting   =      9984.02826696   -10036.41360137
  entropy T*S    EENTRO =        -0.19058252
  eigenvalues    EBANDS =     -5317.82881220
  atomic energy  EATOM  =     13537.65479391
  Solvation  Ediel_sol  =         0.00000000
  ---------------------------------------------------
  free energy    TOTEN  =       171.09088714 eV

  energy without entropy =      171.28146965  energy(sigma->0) =      171.18617839


--------------------------------------------------------------------------------------------------------




--------------------------------------- Iteration      1(   3)  ---------------------------------------


     EDDAV:  cpu time     11.2663: real time     11.2725
       DOS:  cpu time      0.0007: real time      0.0007
    --------------------------------------------
      LOOP:  cpu time     11.2670: real time     11.2732

 eigenvalue-minimisations  :  1784
 total energy-change (2. order) :-0.1006587E+04  (-0.9839470E+03)
 number of electron     368.0000000 magnetization 
 augmentation part      368.0000000 magnetization 

 Free energy of the ion-electron system (eV)
  ---------------------------------------------------
  alpha Z        PSCENC =        91.34886789
  Ewald energy   TEWEN  =    120097.21070609
  -Hartree energ DENC   =   -129407.22717979
  -exchange      EXHF   =         0.00000000
  -V(xc)+E(xc)   XCENC  =      1222.50842816
  PAW double counting   =      9984.02826696   -10036.41360137
  entropy T*S    EENTRO =        -0.05669779
  eigenvalues    EBANDS =     -6324.54955952
  atomic energy  EATOM  =     13537.65479391
  Solvation  Ediel_sol  =         0.00000000
  ---------------------------------------------------
  free energy    TOTEN  =      -835.49597546 eV

  energy without entropy =     -835.43927767  energy(sigma->0) =     -835.46762656


--------------------------------------------------------------------------------------------------------




--------------------------------------- Iteration      1(   4)  ---------------------------------------


     EDDAV:  cpu time     10.9089: real time     10.9136
       DOS:  cpu time      0.0007: real time      0.0007
    --------------------------------------------
      LOOP:  cpu time     10.9096: real time     10.9143

 eigenvalue-minimisations  :  1704
 total energy-change (2. order) :-0.6159618E+02  (-0.6052475E+02)
 number of electron     368.0000000 magnetization 
 augmentation part      368.0000000 magnetization 

 Free energy of the ion-electron system (eV)
  ---------------------------------------------------
  alpha Z        PSCENC =        91.34886789
  Ewald energy   TEWEN  =    120097.21070609
  -Hartree energ DENC   =   -129407.22717979
  -exchange      EXHF   =         0.00000000
  -V(xc)+E(xc)   XCENC  =      1222.50842816
  PAW double counting   =      9984.02826696   -10036.41360137
  entropy T*S    EENTRO =        -0.06452713
  eigenvalues    EBANDS =     -6386.13791292
  atomic energy  EATOM  =     13537.65479391
  Solvation  Ediel_sol  =         0.00000000
  ---------------------------------------------------
  free energy    TOTEN  =      -897.09215821 eV

  energy without entropy =     -897.02763107  energy(sigma->0) =     -897.05989464


--------------------------------------------------------------------------------------------------------




--------------------------------------- Iteration      1(   5)  ---------------------------------------


     EDDAV:  cpu time     11.2564: real time     11.2606
       DOS:  cpu time      0.0007: real time      0.0007
    CHARGE:  cpu time      1.2110: real time      1.2130
    MIXING:  cpu time      0.2786: real time      0.2788
    --------------------------------------------
      LOOP:  cpu time     12.7468: real time     12.7531

 eigenvalue-minimisations  :  1776
 total energy-change (2. order) :-0.1498507E+01  (-0.1476294E+01)
 number of electron     368.0000006 magnetization 
 augmentation part       10.1999899 magnetization 

 Broyden mixing:
  rms(total) = 0.45762E+01    rms(broyden)= 0.45756E+01
  rms(prec ) = 0.46942E+01
  weight for this iteration     100.00

 Free energy of the ion-electron system (eV)
  ---------------------------------------------------
  alpha Z        PSCENC =        91.34886789
  Ewald energy   TEWEN  =    120097.21070609
  -Hartree energ DENC   =   -129407.22717979
  -exchange      EXHF   =         0.00000000
  -V(xc)+E(xc)   XCENC  =      1222.50842816
  PAW double counting   =      9984.02826696   -10036.41360137
  entropy T*S    EENTRO =        -0.06364840
  eigenvalues    EBANDS =     -6387.63729817
  atomic energy  EATOM  =     13537.65479391
  Solvation  Ediel_sol  =         0.00000000
  ---------------------------------------------------
  free energy    TOTEN  =      -898.59066472 eV

  energy without entropy =     -898.52701632  energy(sigma->0) =     -898.55884052


--------------------------------------------------------------------------------------------------------




--------------------------------------- Iteration      1(   6)  ---------------------------------------


    POTLOK:  cpu time      0.3201: real time      0.3200
    SETDIJ:  cpu time      0.0404: real time      0.0405
     EDDAV:  cpu time     10.3903: real time     10.3940
       DOS:  cpu time      0.0007: real time      0.0007
    CHARGE:  cpu time      1.1605: real time      1.1635
    MIXING:  cpu time      0.2784: real time      0.2790
    --------------------------------------------
      LOOP:  cpu time     12.1905: real time     12.1977

 eigenvalue-minimisations  :  1600
 total energy-change (2. order) : 0.5024972E+02  (-0.4786840E+01)
 number of electron     368.0000006 magnetization 
 augmentation part        9.7725668 magnetization 

 Broyden mixing:
  rms(total) = 0.26885E+01    rms(broyden)= 0.26885E+01
  rms(prec ) = 0.27470E+01
  weight for this iteration     100.00

 eigenvalues of (default mixing * dielectric matrix)
  average eigenvalue GAMMA=   2.1836
  2.1836

 Free energy of the ion-electron system (eV)
  ---------------------------------------------------
  alpha Z        PSCENC =        91.34886789
  Ewald energy   TEWEN  =    120097.21070609
  -Hartree energ DENC   =   -129981.84326975
  -exchange      EXHF   =         0.00000000
  -V(xc)+E(xc)   XCENC  =      1245.96573264
  PAW double counting   =     19012.47281472   -19072.54718986
  entropy T*S    EENTRO =        -0.07107224
  eigenvalues    EBANDS =     -5778.53233106
  atomic energy  EATOM  =     13537.65479391
  Solvation  Ediel_sol  =         0.00000000
  ---------------------------------------------------
  free energy    TOTEN  =      -848.34094766 eV

  energy without entropy =     -848.26987542  energy(sigma->0) =     -848.30541154


--------------------------------------------------------------------------------------------------------




--------------------------------------- Iteration      1(   7)  ---------------------------------------


    POTLOK:  cpu time      0.3193: real time      0.3193
    SETDIJ:  cpu time      0.0399: real time      0.0399
     EDDAV:  cpu time     10.2213: real time     10.2249
       DOS:  cpu time      0.0007: real time      0.0007
    CHARGE:  cpu time      1.1584: real time      1.1603
    MIXING:  cpu time      0.2782: real time      0.2783
    --------------------------------------------
      LOOP:  cpu time     12.0179: real time     12.0235

 eigenvalue-minimisations  :  1568
 total energy-change (2. order) : 0.1871869E+02  (-0.6662996E+01)
 number of electron     368.0000005 magnetization 
 augmentation part        9.2117460 magnetization 

 Broyden mixing:
  rms(total) = 0.74037E+00    rms(broyden)= 0.74009E+00
  rms(prec ) = 0.75027E+00
  weight for this iteration     100.00

 eigenvalues of (default mixing * dielectric matrix)
  average eigenvalue GAMMA=   2.1972
  2.1972  2.1972

 Free energy of the ion-electron system (eV)
  ---------------------------------------------------
  alpha Z        PSCENC =        91.34886789
  Ewald energy   TEWEN  =    120097.21070609
  -Hartree energ DENC   =   -130753.63815460
  -exchange      EXHF   =         0.00000000
  -V(xc)+E(xc)   XCENC  =      1277.28315709
  PAW double counting   =     36824.92000232   -36891.97613693
  entropy T*S    EENTRO =        -0.08081363
  eigenvalues    EBANDS =     -5012.34467506
  atomic energy  EATOM  =     13537.65479391
  Solvation  Ediel_sol  =         0.00000000
  ---------------------------------------------------
  free energy    TOTEN  =      -829.62225293 eV

  energy without entropy =     -829.54143930  energy(sigma->0) =     -829.58184611


--------------------------------------------------------------------------------------------------------




--------------------------------------- Iteration      1(   8)  ---------------------------------------


    POTLOK:  cpu time      0.3198: real time      0.3198
    SETDIJ:  cpu time      0.0401: real time      0.0401
     EDDAV:  cpu time     10.4321: real time     10.4359
       DOS:  cpu time      0.0008: real time      0.0008
    CHARGE:  cpu time      1.1542: real time      1.1553
    MIXING:  cpu time      0.2843: real time      0.2850
    --------------------------------------------
      LOOP:  cpu time     12.2311: real time     12.2368

 eigenvalue-minimisations  :  1616
 total energy-change (2. order) : 0.3019982E+00  (-0.2468474E+00)
 number of electron     368.0000005 magnetization 
 augmentation part        9.1988148 magnetization 

 Broyden mixing:
  rms(total) = 0.10295E+00    rms(broyden)= 0.10292E+00
  rms(prec ) = 0.12533E+00
  weight for this iteration     100.00

 eigenvalues of (default mixing * dielectric matrix)
  average eigenvalue GAMMA=   1.8663
  1.2552  2.4485  1.8953

 Free energy of the ion-electron system (eV)
  ---------------------------------------------------
  alpha Z        PSCENC =        91.34886789
  Ewald energy   TEWEN  =    120097.21070609
  -Hartree energ DENC   =   -130847.79947007
  -exchange      EXHF   =         0.00000000
  -V(xc)+E(xc)   XCENC  =      1277.01345880
  PAW double counting   =     41112.79686550   -41177.14707764
  entropy T*S    EENTRO =        -0.07906660
  eigenvalues    EBANDS =     -4920.31933262
  atomic energy  EATOM  =     13537.65479391
  Solvation  Ediel_sol  =         0.00000000
  ---------------------------------------------------
  free energy    TOTEN  =      -829.32025475 eV

  energy without entropy =     -829.24118815  energy(sigma->0) =     -829.28072145


--------------------------------------------------------------------------------------------------------




--------------------------------------- Iteration      1(   9)  ---------------------------------------


    POTLOK:  cpu time      0.3199: real time      0.3200
    SETDIJ:  cpu time      0.0401: real time      0.0401
     EDDAV:  cpu time     10.6046: real time     10.6084
       DOS:  cpu time      0.0008: real time      0.0008
    CHARGE:  cpu time      1.1530: real time      1.1570
    MIXING:  cpu time      0.2848: real time      0.2862
    --------------------------------------------
      LOOP:  cpu time     12.4031: real time     12.4125

 eigenvalue-minimisations  :  1648
 total energy-change (2. order) : 0.1134691E+00  (-0.2964114E-01)
 number of electron     368.0000005 magnetization 
 augmentation part        9.1748777 magnetization 

 Broyden mixing:
  rms(total) = 0.58076E-01    rms(broyden)= 0.58066E-01
  rms(prec ) = 0.79621E-01
  weight for this iteration     100.00

 eigenvalues of (default mixing * dielectric matrix)
  average eigenvalue GAMMA=   1.6822
  2.2038  2.2038  1.1606  1.1606

 Free energy of the ion-electron system (eV)
  ---------------------------------------------------
  alpha Z        PSCENC =        91.34886789
  Ewald energy   TEWEN  =    120097.21070609
  -Hartree energ DENC   =   -130920.51092981
  -exchange      EXHF   =         0.00000000
  -V(xc)+E(xc)   XCENC  =      1278.51345413
  PAW double counting   =     41690.13700391   -41754.57832144
  entropy T*S    EENTRO =        -0.07871359
  eigenvalues    EBANDS =     -4848.90364674
  atomic energy  EATOM  =     13537.65479391
  Solvation  Ediel_sol  =         0.00000000
  ---------------------------------------------------
  free energy    TOTEN  =      -829.20678565 eV

  energy without entropy =     -829.12807207  energy(sigma->0) =     -829.16742886


--------------------------------------------------------------------------------------------------------




--------------------------------------- Iteration      1(  10)  ---------------------------------------


    POTLOK:  cpu time      0.3200: real time      0.3201
    SETDIJ:  cpu time      0.0401: real time      0.0401
     EDDAV:  cpu time     10.9030: real time     10.9074
       DOS:  cpu time      0.0007: real time      0.0007
    CHARGE:  cpu time      1.1586: real time      1.1608
    MIXING:  cpu time      0.2894: real time      0.2912
    --------------------------------------------
      LOOP:  cpu time     12.7118: real time     12.7202

 eigenvalue-minimisations  :  1712
 total energy-change (2. order) : 0.3670679E-01  (-0.5631467E-02)
 number of electron     368.0000005 magnetization 
 augmentation part        9.1648631 magnetization 

 Broyden mixing:
  rms(total) = 0.36672E-01    rms(broyden)= 0.36669E-01
  rms(prec ) = 0.56447E-01
  weight for this iteration     100.00

 eigenvalues of (default mixing * dielectric matrix)
  average eigenvalue GAMMA=   1.7237
  2.4642  2.4642  1.4328  1.4328  0.8245

 Free energy of the ion-electron system (eV)
  ---------------------------------------------------
  alpha Z        PSCENC =        91.34886789
  Ewald energy   TEWEN  =    120097.21070609
  -Hartree energ DENC   =   -130968.52350300
  -exchange      EXHF   =         0.00000000
  -V(xc)+E(xc)   XCENC  =      1278.79815756
  PAW double counting   =     41451.39729055   -41515.69376469
  entropy T*S    EENTRO =        -0.07862933
  eigenvalues    EBANDS =     -4801.28399784
  atomic energy  EATOM  =     13537.65479391
  Solvation  Ediel_sol  =         0.00000000
  ---------------------------------------------------
  free energy    TOTEN  =      -829.17007886 eV

  energy without entropy =     -829.09144953  energy(sigma->0) =     -829.13076420


--------------------------------------------------------------------------------------------------------




--------------------------------------- Iteration      1(  11)  ---------------------------------------


    POTLOK:  cpu time      0.3217: real time      0.3217
    SETDIJ:  cpu time      0.0400: real time      0.0400
     EDDAV:  cpu time      9.9721: real time      9.9785
       DOS:  cpu time      0.0007: real time      0.0007
    CHARGE:  cpu time      1.1649: real time      1.1672
    MIXING:  cpu time      0.2984: real time      0.2985
    --------------------------------------------
      LOOP:  cpu time     11.7979: real time     11.8067

 eigenvalue-minimisations  :  1528
 total energy-change (2. order) : 0.3002109E-01  (-0.2226558E-02)
 number of electron     368.0000005 magnetization 
 augmentation part        9.1601897 magnetization 

 Broyden mixing:
  rms(total) = 0.25710E-01    rms(broyden)= 0.25708E-01
  rms(prec ) = 0.39400E-01
  weight for this iteration     100.00

 eigenvalues of (default mixing * dielectric matrix)
  average eigenvalue GAMMA=   1.7784
  2.9755  2.5647  1.9188  0.9533  1.1292  1.1292

 Free energy of the ion-electron system (eV)
  ---------------------------------------------------
  alpha Z        PSCENC =        91.34886789
  Ewald energy   TEWEN  =    120097.21070609
  -Hartree energ DENC   =   -131032.29371910
  -exchange      EXHF   =         0.00000000
  -V(xc)+E(xc)   XCENC  =      1279.34348993
  PAW double counting   =     41366.63962539   -41430.82788346
  entropy T*S    EENTRO =        -0.07876887
  eigenvalues    EBANDS =     -4738.13716954
  atomic energy  EATOM  =     13537.65479391
  Solvation  Ediel_sol  =         0.00000000
  ---------------------------------------------------
  free energy    TOTEN  =      -829.14005777 eV

  energy without entropy =     -829.06128889  energy(sigma->0) =     -829.10067333


--------------------------------------------------------------------------------------------------------




--------------------------------------- Iteration      1(  12)  ---------------------------------------


    POTLOK:  cpu time      0.3212: real time      0.3213
    SETDIJ:  cpu time      0.0401: real time      0.0401
     EDDAV:  cpu time     10.0098: real time     10.0142
       DOS:  cpu time      0.0007: real time      0.0007
    CHARGE:  cpu time      1.1557: real time      1.1579
    MIXING:  cpu time      0.3054: real time      0.3068
    --------------------------------------------
      LOOP:  cpu time     11.8330: real time     11.8411

 eigenvalue-minimisations  :  1536
 total energy-change (2. order) : 0.5727847E-02  (-0.2549428E-02)
 number of electron     368.0000005 magnetization 
 augmentation part        9.1524826 magnetization 

 Broyden mixing:
  rms(total) = 0.15778E-01    rms(broyden)= 0.15774E-01
  rms(prec ) = 0.23914E-01
  weight for this iteration     100.00

 eigenvalues of (default mixing * dielectric matrix)
  average eigenvalue GAMMA=   2.0514
  4.7798  2.3924  2.0203  2.0203  0.9545  1.0962  1.0962

 Free energy of the ion-electron system (eV)
  ---------------------------------------------------
  alpha Z        PSCENC =        91.34886789
  Ewald energy   TEWEN  =    120097.21070609
  -Hartree energ DENC   =   -131098.39230677
  -exchange      EXHF   =         0.00000000
  -V(xc)+E(xc)   XCENC  =      1280.00117391
  PAW double counting   =     41425.70152615   -41489.88249614
  entropy T*S    EENTRO =        -0.07887637
  eigenvalues    EBANDS =     -4672.69771858
  atomic energy  EATOM  =     13537.65479391
  Solvation  Ediel_sol  =         0.00000000
  ---------------------------------------------------
  free energy    TOTEN  =      -829.13432992 eV

  energy without entropy =     -829.05545354  energy(sigma->0) =     -829.09489173


--------------------------------------------------------------------------------------------------------




--------------------------------------- Iteration      1(  13)  ---------------------------------------


    POTLOK:  cpu time      0.3220: real time      0.3220
    SETDIJ:  cpu time      0.0402: real time      0.0402
     EDDAV:  cpu time     10.0103: real time     10.0137
       DOS:  cpu time      0.0008: real time      0.0008
    CHARGE:  cpu time      1.1555: real time      1.1566
    MIXING:  cpu time      0.3131: real time      0.3140
    --------------------------------------------
      LOOP:  cpu time     11.8419: real time     11.8473

 eigenvalue-minimisations  :  1536
 total energy-change (2. order) :-0.1182040E-01  (-0.9618743E-03)
 number of electron     368.0000005 magnetization 
 augmentation part        9.1496551 magnetization 

 Broyden mixing:
  rms(total) = 0.91496E-02    rms(broyden)= 0.91470E-02
  rms(prec ) = 0.12778E-01
  weight for this iteration     100.00

 eigenvalues of (default mixing * dielectric matrix)
  average eigenvalue GAMMA=   2.0659
  5.3590  2.4325  2.4325  1.8567  1.2142  1.2142  0.8748  1.1431

 Free energy of the ion-electron system (eV)
  ---------------------------------------------------
  alpha Z        PSCENC =        91.34886789
  Ewald energy   TEWEN  =    120097.21070609
  -Hartree energ DENC   =   -131150.15871040
  -exchange      EXHF   =         0.00000000
  -V(xc)+E(xc)   XCENC  =      1280.21170452
  PAW double counting   =     41390.25630527   -41454.42854721
  entropy T*S    EENTRO =        -0.07892025
  eigenvalues    EBANDS =     -4621.16235013
  atomic energy  EATOM  =     13537.65479391
  Solvation  Ediel_sol  =         0.00000000
  ---------------------------------------------------
  free energy    TOTEN  =      -829.14615032 eV

  energy without entropy =     -829.06723006  energy(sigma->0) =     -829.10669019


--------------------------------------------------------------------------------------------------------




--------------------------------------- Iteration      1(  14)  ---------------------------------------


    POTLOK:  cpu time      0.3200: real time      0.3200
    SETDIJ:  cpu time      0.0400: real time      0.0400
     EDDAV:  cpu time     10.2595: real time     10.2631
       DOS:  cpu time      0.0008: real time      0.0008
    CHARGE:  cpu time      1.1565: real time      1.1564
    MIXING:  cpu time      0.3225: real time      0.3225
    --------------------------------------------
      LOOP:  cpu time     12.0993: real time     12.1028

 eigenvalue-minimisations  :  1584
 total energy-change (2. order) :-0.1717348E-01  (-0.1494778E-03)
 number of electron     368.0000005 magnetization 
 augmentation part        9.1488146 magnetization 

 Broyden mixing:
  rms(total) = 0.61905E-02    rms(broyden)= 0.61900E-02
  rms(prec ) = 0.84096E-02
  weight for this iteration     100.00

 eigenvalues of (default mixing * dielectric matrix)
  average eigenvalue GAMMA=   2.1697
  6.2019  2.7300  2.7300  1.7698  1.5216  1.5216  1.1817  0.9353  0.9353

 Free energy of the ion-electron system (eV)
  ---------------------------------------------------
  alpha Z        PSCENC =        91.34886789
  Ewald energy   TEWEN  =    120097.21070609
  -Hartree energ DENC   =   -131165.74735290
  -exchange      EXHF   =         0.00000000
  -V(xc)+E(xc)   XCENC  =      1280.23316600
  PAW double counting   =     41383.71318179   -41447.89768998
  entropy T*S    EENTRO =        -0.07887422
  eigenvalues    EBANDS =     -4605.60012237
  atomic energy  EATOM  =     13537.65479391
  Solvation  Ediel_sol  =         0.00000000
  ---------------------------------------------------
  free energy    TOTEN  =      -829.16332379 eV

  energy without entropy =     -829.08444958  energy(sigma->0) =     -829.12388669


--------------------------------------------------------------------------------------------------------




--------------------------------------- Iteration      1(  15)  ---------------------------------------


    POTLOK:  cpu time      0.3195: real time      0.3195
    SETDIJ:  cpu time      0.0402: real time      0.0402
     EDDAV:  cpu time     10.2117: real time     10.2155
       DOS:  cpu time      0.0007: real time      0.0007
    CHARGE:  cpu time      1.1576: real time      1.1589
    MIXING:  cpu time      0.3313: real time      0.3323
    --------------------------------------------
      LOOP:  cpu time     12.0610: real time     12.0672

 eigenvalue-minimisations  :  1568
 total energy-change (2. order) :-0.1985891E-01  (-0.1835478E-03)
 number of electron     368.0000005 magnetization 
 augmentation part        9.1483585 magnetization 

 Broyden mixing:
  rms(total) = 0.32608E-02    rms(broyden)= 0.32602E-02
  rms(prec ) = 0.44891E-02
  weight for this iteration     100.00

 eigenvalues of (default mixing * dielectric matrix)
  average eigenvalue GAMMA=   2.2201
  7.0268  3.3976  2.2167  2.2167  1.4155  1.4155  1.4514  0.9535  0.9535  1.1535

 Free energy of the ion-electron system (eV)
  ---------------------------------------------------
  alpha Z        PSCENC =        91.34886789
  Ewald energy   TEWEN  =    120097.21070609
  -Hartree energ DENC   =   -131176.42428818
  -exchange      EXHF   =         0.00000000
  -V(xc)+E(xc)   XCENC  =      1280.21653885
  PAW double counting   =     41395.92768753   -41460.11274157
  entropy T*S    EENTRO =        -0.07887327
  eigenvalues    EBANDS =     -4594.92587396
  atomic energy  EATOM  =     13537.65479391
  Solvation  Ediel_sol  =         0.00000000
  ---------------------------------------------------
  free energy    TOTEN  =      -829.18318270 eV

  energy without entropy =     -829.10430943  energy(sigma->0) =     -829.14374607


--------------------------------------------------------------------------------------------------------




--------------------------------------- Iteration      1(  16)  ---------------------------------------


    POTLOK:  cpu time      0.3195: real time      0.3196
    SETDIJ:  cpu time      0.0400: real time      0.0400
     EDDAV:  cpu time     10.3734: real time     10.3776
       DOS:  cpu time      0.0008: real time      0.0008
    CHARGE:  cpu time      1.1667: real time      1.1688
    MIXING:  cpu time      0.3386: real time      0.3400
    --------------------------------------------
      LOOP:  cpu time     12.2389: real time     12.2468

 eigenvalue-minimisations  :  1600
 total energy-change (2. order) :-0.8906416E-02  (-0.4543226E-04)
 number of electron     368.0000005 magnetization 
 augmentation part        9.1484217 magnetization 

 Broyden mixing:
  rms(total) = 0.23171E-02    rms(broyden)= 0.23170E-02
  rms(prec ) = 0.29549E-02
  weight for this iteration     100.00

 eigenvalues of (default mixing * dielectric matrix)
  average eigenvalue GAMMA=   2.3225
  7.7953  3.9968  2.3992  2.3992  1.8795  1.5026  1.5026  0.9301  1.0297  1.0562
  1.0562

 Free energy of the ion-electron system (eV)
  ---------------------------------------------------
  alpha Z        PSCENC =        91.34886789
  Ewald energy   TEWEN  =    120097.21070609
  -Hartree energ DENC   =   -131180.39497283
  -exchange      EXHF   =         0.00000000
  -V(xc)+E(xc)   XCENC  =      1280.18701305
  PAW double counting   =     41378.81798478   -41443.00098149
  entropy T*S    EENTRO =        -0.07888275
  eigenvalues    EBANDS =     -4590.93661776
  atomic energy  EATOM  =     13537.65479391
  Solvation  Ediel_sol  =         0.00000000
  ---------------------------------------------------
  free energy    TOTEN  =      -829.19208912 eV

  energy without entropy =     -829.11320636  energy(sigma->0) =     -829.15264774


--------------------------------------------------------------------------------------------------------




--------------------------------------- Iteration      1(  17)  ---------------------------------------


    POTLOK:  cpu time      0.3242: real time      0.3243
    SETDIJ:  cpu time      0.0403: real time      0.0403
     EDDAV:  cpu time     10.1195: real time     10.1231
       DOS:  cpu time      0.0008: real time      0.0008
    CHARGE:  cpu time      1.1585: real time      1.1599
    MIXING:  cpu time      0.3506: real time      0.3516
    --------------------------------------------
      LOOP:  cpu time     11.9939: real time     12.0000

 eigenvalue-minimisations  :  1552
 total energy-change (2. order) :-0.6133929E-02  (-0.4165288E-04)
 number of electron     368.0000005 magnetization 
 augmentation part        9.1482620 magnetization 

 Broyden mixing:
  rms(total) = 0.12649E-02    rms(broyden)= 0.12648E-02
  rms(prec ) = 0.15800E-02
  weight for this iteration     100.00

 eigenvalues of (default mixing * dielectric matrix)
  average eigenvalue GAMMA=   2.3479
  8.3906  4.4135  2.3768  2.3768  2.1083  1.4424  1.4424  1.3513  1.3513  0.9851
  0.9678  0.9678

 Free energy of the ion-electron system (eV)
  ---------------------------------------------------
  alpha Z        PSCENC =        91.34886789
  Ewald energy   TEWEN  =    120097.21070609
  -Hartree energ DENC   =   -131183.18159942
  -exchange      EXHF   =         0.00000000
  -V(xc)+E(xc)   XCENC  =      1280.19047703
  PAW double counting   =     41390.19362565   -41454.37371922
  entropy T*S    EENTRO =        -0.07889290
  eigenvalues    EBANDS =     -4588.16248207
  atomic energy  EATOM  =     13537.65479391
  Solvation  Ediel_sol  =         0.00000000
  ---------------------------------------------------
  free energy    TOTEN  =      -829.19822305 eV

  energy without entropy =     -829.11933015  energy(sigma->0) =     -829.15877660


--------------------------------------------------------------------------------------------------------




--------------------------------------- Iteration      1(  18)  ---------------------------------------


    POTLOK:  cpu time      0.3196: real time      0.3196
    SETDIJ:  cpu time      0.0401: real time      0.0401
     EDDAV:  cpu time     10.6159: real time     10.6198
       DOS:  cpu time      0.0008: real time      0.0008
    CHARGE:  cpu time      1.1585: real time      1.1602
    MIXING:  cpu time      0.3613: real time      0.3613
    --------------------------------------------
      LOOP:  cpu time     12.4962: real time     12.5018

 eigenvalue-minimisations  :  1648
 total energy-change (2. order) :-0.2087227E-02  (-0.8538461E-05)
 number of electron     368.0000005 magnetization 
 augmentation part        9.1481542 magnetization 

 Broyden mixing:
  rms(total) = 0.64565E-03    rms(broyden)= 0.64555E-03
  rms(prec ) = 0.85554E-03
  weight for this iteration     100.00

 eigenvalues of (default mixing * dielectric matrix)
  average eigenvalue GAMMA=   2.4303
  8.8952  5.1147  3.0077  2.5455  1.7792  1.7792  1.5335  1.5335  0.9598  0.9598
  1.0501  1.2181  1.2181

 Free energy of the ion-electron system (eV)
  ---------------------------------------------------
  alpha Z        PSCENC =        91.34886789
  Ewald energy   TEWEN  =    120097.21070609
  -Hartree energ DENC   =   -131184.09891028
  -exchange      EXHF   =         0.00000000
  -V(xc)+E(xc)   XCENC  =      1280.19054814
  PAW double counting   =     41387.68011451   -41451.86105128
  entropy T*S    EENTRO =        -0.07889933
  eigenvalues    EBANDS =     -4587.24647992
  atomic energy  EATOM  =     13537.65479391
  Solvation  Ediel_sol  =         0.00000000
  ---------------------------------------------------
  free energy    TOTEN  =      -829.20031027 eV

  energy without entropy =     -829.12141095  energy(sigma->0) =     -829.16086061


--------------------------------------------------------------------------------------------------------




--------------------------------------- Iteration      1(  19)  ---------------------------------------


    POTLOK:  cpu time      0.3209: real time      0.3208
    SETDIJ:  cpu time      0.0433: real time      0.0433
     EDDAV:  cpu time     10.1183: real time     10.1218
       DOS:  cpu time      0.0008: real time      0.0008
    CHARGE:  cpu time      1.1566: real time      1.1576
    MIXING:  cpu time      0.3718: real time      0.3719
    --------------------------------------------
      LOOP:  cpu time     12.0117: real time     12.0163

 eigenvalue-minimisations  :  1552
 total energy-change (2. order) :-0.1368138E-02  (-0.6336274E-05)
 number of electron     368.0000005 magnetization 
 augmentation part        9.1482073 magnetization 

 Broyden mixing:
  rms(total) = 0.40138E-03    rms(broyden)= 0.40135E-03
  rms(prec ) = 0.47616E-03
  weight for this iteration     100.00

 eigenvalues of (default mixing * dielectric matrix)
  average eigenvalue GAMMA=   2.3924
  8.9428  5.4565  3.0979  2.3333  2.3333  1.9019  1.4931  1.4931  1.2743  1.2743
  0.9623  0.9623  0.9174  1.0505

 Free energy of the ion-electron system (eV)
  ---------------------------------------------------
  alpha Z        PSCENC =        91.34886789
  Ewald energy   TEWEN  =    120097.21070609
  -Hartree energ DENC   =   -131184.46653306
  -exchange      EXHF   =         0.00000000
  -V(xc)+E(xc)   XCENC  =      1280.18659283
  PAW double counting   =     41386.05021475   -41450.22881830
  entropy T*S    EENTRO =        -0.07889231
  eigenvalues    EBANDS =     -4586.87861020
  atomic energy  EATOM  =     13537.65479391
  Solvation  Ediel_sol  =         0.00000000
  ---------------------------------------------------
  free energy    TOTEN  =      -829.20167841 eV

  energy without entropy =     -829.12278610  energy(sigma->0) =     -829.16223226


--------------------------------------------------------------------------------------------------------




--------------------------------------- Iteration      1(  20)  ---------------------------------------


    POTLOK:  cpu time      0.3197: real time      0.3197
    SETDIJ:  cpu time      0.0402: real time      0.0402
     EDDAV:  cpu time      9.2474: real time      9.2537
       DOS:  cpu time      0.0008: real time      0.0008
    CHARGE:  cpu time      1.1526: real time      1.1556
    MIXING:  cpu time      0.3864: real time      0.3869
    --------------------------------------------
      LOOP:  cpu time     11.1471: real time     11.1569

 eigenvalue-minimisations  :  1376
 total energy-change (2. order) :-0.2621025E-03  (-0.3898951E-06)
 number of electron     368.0000005 magnetization 
 augmentation part        9.1481772 magnetization 

 Broyden mixing:
  rms(total) = 0.26850E-03    rms(broyden)= 0.26850E-03
  rms(prec ) = 0.32011E-03
  weight for this iteration     100.00

 eigenvalues of (default mixing * dielectric matrix)
  average eigenvalue GAMMA=   2.4488
  9.1828  5.9062  3.6329  2.5411  2.5411  1.8525  1.5794  1.5794  1.5348  1.3350
  1.1311  0.9571  0.9571  1.0005  1.0005

 Free energy of the ion-electron system (eV)
  ---------------------------------------------------
  alpha Z        PSCENC =        91.34886789
  Ewald energy   TEWEN  =    120097.21070609
  -Hartree energ DENC   =   -131184.62996289
  -exchange      EXHF   =         0.00000000
  -V(xc)+E(xc)   XCENC  =      1280.18742501
  PAW double counting   =     41387.13083709   -41451.31012084
  entropy T*S    EENTRO =        -0.07889361
  eigenvalues    EBANDS =     -4586.71559316
  atomic energy  EATOM  =     13537.65479391
  Solvation  Ediel_sol  =         0.00000000
  ---------------------------------------------------
  free energy    TOTEN  =      -829.20194051 eV

  energy without entropy =     -829.12304690  energy(sigma->0) =     -829.16249371


--------------------------------------------------------------------------------------------------------




--------------------------------------- Iteration      1(  21)  ---------------------------------------


    POTLOK:  cpu time      0.3204: real time      0.3204
    SETDIJ:  cpu time      0.0403: real time      0.0403
     EDDAV:  cpu time      8.6749: real time      8.6779
       DOS:  cpu time      0.0007: real time      0.0007
    CHARGE:  cpu time      1.1688: real time      1.1688
    MIXING:  cpu time      0.3952: real time      0.3976
    --------------------------------------------
      LOOP:  cpu time     10.6004: real time     10.6059

 eigenvalue-minimisations  :  1264
 total energy-change (2. order) :-0.2695816E-03  (-0.4079775E-06)
 number of electron     368.0000005 magnetization 
 augmentation part        9.1481729 magnetization 

 Broyden mixing:
  rms(total) = 0.11949E-03    rms(broyden)= 0.11947E-03
  rms(prec ) = 0.14295E-03
  weight for this iteration     100.00

 eigenvalues of (default mixing * dielectric matrix)
  average eigenvalue GAMMA=   2.3994
  9.1984  6.1452  3.7918  2.5865  2.4254  2.1244  1.7172  1.5035  1.5035  1.2102
  1.2102  1.1832  0.9733  0.9733  0.9224  0.9224

 Free energy of the ion-electron system (eV)
  ---------------------------------------------------
  alpha Z        PSCENC =        91.34886789
  Ewald energy   TEWEN  =    120097.21070609
  -Hartree energ DENC   =   -131184.72325617
  -exchange      EXHF   =         0.00000000
  -V(xc)+E(xc)   XCENC  =      1280.18655159
  PAW double counting   =     41386.11303500   -41450.29289182
  entropy T*S    EENTRO =        -0.07889553
  eigenvalues    EBANDS =     -4586.62112105
  atomic energy  EATOM  =     13537.65479391
  Solvation  Ediel_sol  =         0.00000000
  ---------------------------------------------------
  free energy    TOTEN  =      -829.20221010 eV

  energy without entropy =     -829.12331457  energy(sigma->0) =     -829.16276233


[...]
   0.115E+02 -.787E+01 0.637E+01   -.125E+02 0.808E+01 -.573E+01   -.875E+00 0.483E+00 -.609E+00   0.906E-05 0.423E-05 -.363E-05
   0.705E+00 -.268E+01 -.330E+02   -.220E+01 0.298E+01 0.341E+02   -.256E+01 0.130E+01 -.115E+01   0.405E-05 0.187E-05 -.878E-06
   0.215E+02 0.126E+02 0.856E+02   -.218E+02 -.137E+02 -.856E+02   0.715E+00 -.897E+00 0.927E-01   0.271E-05 0.370E-05 -.113E-05
   0.207E+01 0.495E+01 0.907E+02   -.573E+00 -.520E+01 -.916E+02   0.117E+01 -.902E+00 0.130E+01   0.373E-05 0.335E-06 0.795E-06
   0.386E+01 -.901E+01 0.846E+02   -.293E+01 0.980E+01 -.845E+02   0.829E+00 -.621E+00 0.115E+00   -.461E-05 0.269E-05 0.179E-05
   0.165E+02 -.606E+01 0.103E+03   -.185E+02 0.590E+01 -.103E+03   -.967E+00 0.419E+00 -.547E+00   0.610E-05 0.395E-05 0.237E-05
   0.546E+01 0.794E+01 0.603E+02   -.618E+01 -.866E+01 -.602E+02   -.657E+00 -.850E+00 -.827E+00   -.606E-06 -.212E-07 0.131E-05
   -.944E+01 0.275E+01 0.661E+02   0.105E+02 -.229E+01 -.660E+02   0.374E+00 0.926E+00 -.120E+00   -.476E-06 -.407E-05 0.138E-05
   -.322E+01 -.519E+01 0.661E+02   0.359E+01 0.545E+01 -.660E+02   0.299E+00 0.554E+00 0.423E+00   0.495E-05 -.319E-05 0.123E-05
   -.122E+02 -.654E+01 0.696E+02   0.125E+02 0.663E+01 -.695E+02   0.105E+00 0.458E+00 -.804E-01   -.880E-05 0.327E-05 0.718E-06
   -.275E+01 0.110E+02 0.682E+02   0.184E+01 -.123E+02 -.681E+02   -.235E+00 -.479E+00 0.121E-01   0.660E-05 0.585E-05 0.260E-06
   -.288E+01 0.123E+02 0.234E+02   0.272E+01 -.121E+02 -.234E+02   -.806E-01 0.675E+00 0.454E+00   -.444E-05 0.889E-05 0.267E-06
   0.185E+00 -.246E+01 0.198E+02   -.149E+01 0.115E+01 -.193E+02   0.217E+00 -.553E+00 -.764E+00   -.577E-05 0.462E-05 -.140E-05
   0.214E+01 0.573E+01 -.126E+02   -.310E+01 -.720E+01 0.127E+02   -.473E+00 -.111E+01 -.178E+01   0.209E-05 0.118E-04 0.308E-05
   -.293E+02 -.126E+01 0.668E+02   0.313E+02 0.280E+01 -.668E+02   0.172E+01 0.113E+01 0.292E+00   -.117E-04 -.712E-05 -.891E-06
   -.108E+02 0.821E+01 -.203E+02   0.122E+02 -.752E+01 0.210E+02   0.241E+00 0.177E+00 -.532E+00   -.479E-06 -.370E-06 0.591E-06
   -.191E+02 -.148E+02 0.667E+02   0.185E+02 0.148E+02 -.670E+02   -.127E+00 -.377E+00 0.132E+01   -.160E-05 -.521E-05 0.762E-06
   0.980E+00 -.162E+02 -.204E+02   -.937E+00 0.174E+02 0.206E+02   0.986E-02 0.409E+00 -.694E-01   -.173E-05 -.343E-05 -.584E-06
   -.140E+02 0.124E+02 0.336E+02   0.147E+02 -.123E+02 -.333E+02   0.983E+00 0.173E-01 -.308E+00   -.858E-06 -.544E-05 -.666E-06
   0.846E+01 0.114E+02 -.494E+02   -.841E+01 -.120E+02 0.496E+02   0.120E+00 -.248E+00 -.147E+00   -.447E-05 -.438E-05 -.704E-06
   -.315E+01 -.193E+02 -.515E+01   0.294E+01 0.200E+02 0.503E+01   0.191E+00 0.208E+00 0.527E+00   -.668E-05 -.247E-05 -.172E-05
   0.190E+02 -.105E+02 -.806E+02   -.198E+02 0.103E+02 0.809E+02   -.793E-01 -.516E+00 -.151E+01   -.185E-06 -.369E-05 0.849E-06
   0.111E+02 0.149E+02 -.433E+02   -.110E+02 -.147E+02 0.432E+02   0.820E+00 -.229E+00 0.388E+00   -.114E-05 0.721E-05 0.629E-07
   -.137E+01 0.239E+01 -.420E+02   0.194E+01 -.124E+01 0.420E+02   0.229E+00 -.313E+00 0.113E+01   0.432E-05 -.126E-04 0.127E-05
   0.134E+02 -.122E+02 -.809E+02   -.137E+02 0.117E+02 0.811E+02   -.214E+00 -.133E+01 -.551E+00   0.261E-05 0.272E-05 0.108E-05
   0.946E+00 -.160E+02 -.511E+02   -.103E+01 0.172E+02 0.506E+02   0.106E+01 0.105E+01 0.109E+01   0.237E-05 -.222E-04 -.570E-06
   0.409E+01 -.229E+01 -.104E+03   -.471E+01 0.349E+01 0.103E+03   -.117E+01 0.236E+00 0.143E-02   0.145E-05 0.175E-04 -.151E-05
   0.524E+01 0.604E+02 -.137E+03   -.848E+01 -.615E+02 0.137E+03   0.146E+01 0.203E+01 -.625E+00   -.100E-04 -.856E-05 -.391E-05
   0.129E+02 -.592E+02 -.192E+03   -.146E+02 0.596E+02 0.192E+03   0.143E+01 -.112E+01 -.113E+01   -.434E-05 -.437E-06 -.143E-05
   0.134E+02 0.680E+02 -.693E+02   -.101E+02 -.689E+02 0.697E+02   0.427E+00 0.382E+01 -.115E+01   -.687E-05 0.748E-05 -.304E-05
   -.262E+00 -.578E+02 -.265E+02   0.417E+01 0.582E+02 0.260E+02   -.160E+01 -.929E+00 0.179E+01   -.764E-05 -.160E-06 -.104E-05
   0.108E+02 -.652E+00 -.636E+02   -.989E+01 0.105E+00 0.636E+02   -.689E+00 -.760E+00 0.458E+00   0.560E-05 0.101E-05 -.150E-05
   0.241E+02 0.361E+01 -.121E+03   -.247E+02 -.442E+01 0.122E+03   0.365E+00 -.884E+00 -.189E+01   0.762E-05 0.359E-05 -.597E-06
   0.113E+02 0.173E+02 -.467E+02   -.117E+02 -.174E+02 0.461E+02   -.113E+01 0.292E+00 0.103E+01   -.464E-05 0.449E-05 -.161E-05
   0.800E+01 -.106E+02 -.477E+02   -.777E+01 0.109E+02 0.472E+02   0.995E+00 -.249E+00 0.874E+00   -.759E-05 0.248E-05 0.264E-06
   -.127E+02 -.191E+01 -.140E+03   0.131E+02 0.647E+00 0.141E+03   -.793E+00 -.582E+00 -.143E+01   0.467E-05 0.538E-05 -.398E-05
   -.232E+01 0.518E+01 -.847E+02   0.199E+01 -.519E+01 0.850E+02   -.304E-01 0.491E-02 -.688E+00   -.156E-05 0.218E-05 -.656E-06
   0.954E+00 0.129E+02 -.463E+02   -.186E+01 -.128E+02 0.460E+02   -.306E+00 0.854E+00 0.102E+01   0.696E-05 0.211E-05 -.278E-05
   0.143E+01 -.112E+02 -.296E+02   -.161E+01 0.115E+02 0.292E+02   0.368E+00 0.253E+00 -.123E+00   0.552E-05 -.654E-05 -.215E-05
   -.172E+02 -.310E+01 -.324E+02   0.191E+02 0.305E+01 0.321E+02   -.889E-01 -.631E+00 -.100E+01   -.686E-05 0.613E-05 0.176E-05
   0.796E+01 0.332E+01 0.263E+01   -.881E+01 -.292E+01 -.252E+01   0.219E+00 0.602E+00 0.929E+00   0.551E-05 -.333E-05 -.166E-05
   0.301E+02 0.165E+02 0.886E+02   -.305E+02 -.171E+02 -.891E+02   0.283E+00 -.928E+00 0.149E+01   -.295E-05 0.719E-05 0.243E-05
   0.105E+02 -.891E+01 0.241E+02   -.111E+02 0.837E+01 -.243E+02   -.362E+00 -.160E+01 -.966E-01   0.199E-05 0.634E-05 0.478E-06
   0.356E+02 0.696E+00 0.110E+03   -.361E+02 -.637E+00 -.110E+03   -.153E-01 -.159E+00 -.170E+00   0.163E-05 0.120E-05 -.175E-05
   -.217E+02 0.909E+01 -.336E+02   0.232E+02 -.861E+01 0.339E+02   0.227E+00 0.283E+00 -.158E+01   -.939E-05 -.177E-06 0.242E-05
   0.340E+02 0.120E+02 0.165E+03   -.335E+02 -.125E+02 -.166E+03   0.439E+00 0.258E+00 0.106E+01   0.430E-06 -.299E-05 -.906E-06
   0.924E+01 -.176E+02 0.566E+02   -.909E+01 0.182E+02 -.566E+02   0.896E+00 0.484E+00 -.354E+00   -.608E-05 0.649E-06 0.221E-05
   0.349E+02 -.141E+02 0.170E+03   -.354E+02 0.159E+02 -.170E+03   -.668E+00 0.380E+00 -.977E-01   0.101E-05 -.104E-04 0.191E-05
   0.198E+02 0.126E+02 0.695E+02   -.205E+02 -.133E+02 -.696E+02   0.452E+00 0.752E+00 0.307E+00   0.499E-05 0.336E-06 -.921E-06
   0.270E+02 0.161E+02 0.224E+03   -.269E+02 -.168E+02 -.225E+03   0.656E+00 -.243E+00 0.149E+01   -.243E-05 0.135E-05 0.263E-05
   0.247E+02 -.165E+02 0.181E+03   -.251E+02 0.168E+02 -.181E+03   -.212E+00 0.417E-01 -.138E+00   0.125E-05 0.940E-08 0.663E-06
   0.783E+01 -.147E+02 0.159E+03   -.756E+01 0.156E+02 -.159E+03   0.838E-01 -.681E+00 -.612E+00   0.540E-06 -.439E-05 0.307E-05
   0.128E+02 0.588E+01 0.218E+03   -.124E+02 -.593E+01 -.219E+03   0.909E+00 0.294E+00 0.127E+01   -.629E-05 0.694E-05 0.527E-05
   0.260E+01 0.711E+01 0.227E+03   -.381E+01 -.618E+01 -.227E+03   -.108E+01 0.730E+00 0.131E+01   0.872E-05 -.108E-04 0.512E-05
   -.526E+01 -.126E+02 0.223E+03   0.536E+01 0.122E+02 -.224E+03   0.302E+00 -.474E+00 0.174E+00   0.164E-05 0.178E-05 0.422E-05
   -.191E+02 -.116E+02 0.153E+03   0.197E+02 0.124E+02 -.153E+03   0.633E+00 0.359E+00 -.422E+00   0.166E-05 -.856E-05 0.323E-05
   -.151E+02 0.124E+02 0.160E+03   0.151E+02 -.130E+02 -.160E+03   -.408E+00 0.427E+00 0.146E-01   0.333E-07 0.694E-05 0.353E-05
   -.221E+02 0.930E+01 0.171E+03   0.222E+02 -.961E+01 -.171E+03   0.692E+00 0.355E+00 0.774E+00   -.137E-04 -.706E-05 -.819E-06
   -.332E+02 -.175E+02 0.155E+03   0.335E+02 0.181E+02 -.155E+03   -.535E+00 0.514E+00 -.281E+00   -.126E-04 -.573E-05 -.210E-05
   -.360E+02 -.585E+01 0.117E+03   0.359E+02 0.493E+01 -.117E+03   0.428E+00 -.595E+00 -.119E+00   -.823E-05 -.604E-05 -.152E-05
   -.271E+02 0.872E+01 0.123E+03   0.281E+02 -.872E+01 -.123E+03   -.469E+00 -.540E+00 0.176E+01   -.492E-06 0.584E-05 0.116E-05
   -.263E+02 0.178E+02 0.108E+03   0.271E+02 -.187E+02 -.108E+03   0.874E+00 -.312E+00 0.103E+01   0.322E-06 0.155E-05 -.101E-05
   -.131E+02 -.148E+02 0.501E+02   0.121E+02 0.159E+02 -.501E+02   -.961E+00 0.453E+00 -.168E+01   0.109E-04 0.216E-05 0.288E-05
   -.246E+02 -.191E+02 0.696E+02   0.246E+02 0.197E+02 -.698E+02   -.815E-01 0.657E-01 0.331E+00   0.240E-05 -.336E-05 -.191E-06
   -.492E+01 0.150E+02 0.281E+02   0.498E+01 -.158E+02 -.286E+02   -.120E+01 -.621E+00 0.102E+01   0.414E-05 0.399E-05 0.208E-05
   0.588E+01 0.224E+02 0.287E+02   -.648E+01 -.230E+02 -.296E+02   -.127E+01 0.399E+00 0.883E+00   0.712E-05 0.811E-05 0.225E-05
   0.912E+01 -.113E+02 -.472E+02   -.867E+01 0.117E+02 0.478E+02   0.104E+01 0.755E+00 -.169E+01   -.163E-05 0.235E-06 -.119E-05
   0.958E+01 -.263E+01 -.543E+02   -.961E+01 0.190E+01 0.546E+02   -.109E+01 -.130E+01 -.134E+01   0.132E-04 0.130E-04 0.271E-05
   0.104E+02 0.412E+01 -.193E+02   -.115E+02 -.371E+01 0.189E+02   -.199E+00 0.123E+00 0.807E+00   0.653E-05 -.637E-05 0.172E-05
   0.127E+02 0.170E+02 -.455E+02   -.139E+02 -.170E+02 0.455E+02   -.130E+01 -.843E+00 -.962E+00   0.176E-04 0.869E-05 0.241E-05
   -.397E+01 -.228E+02 -.105E+01   0.496E+01 0.238E+02 0.699E+00   0.417E+00 -.512E+00 0.116E+01   0.204E-04 -.138E-04 0.595E-05
   -.630E+01 0.236E+02 -.217E+02   0.711E+01 -.258E+02 0.218E+02   0.116E+01 -.712E+00 0.143E+01   -.535E-05 0.239E-04 -.151E-05
   0.313E+01 -.157E+01 -.507E+02   -.472E+01 0.150E+01 0.504E+02   -.779E+00 0.263E+00 -.929E+00   0.360E-05 -.132E-04 -.468E-06
   -.413E+01 0.647E+02 -.418E+02   0.164E+00 -.658E+02 0.413E+02   0.211E+01 0.102E+01 0.355E+00   -.206E-04 0.150E-04 -.390E-05
   -.884E+01 -.672E+02 -.592E+02   0.685E+01 0.689E+02 0.590E+02   0.413E+00 -.233E+01 -.263E+00   -.237E-04 -.626E-05 -.431E-05
 -----------------------------------------------------------------------------------------------
   -.639E-01 0.858E+00 0.225E+00   -.273E-12 -.455E-12 -.639E-12   0.602E-01 -.985E+00 -.159E+00   -.374E-05 -.539E-08 0.214E-05
 
 
 POSITION                                       TOTAL-FORCE (eV/Angst)
 -----------------------------------------------------------------------------------
      8.74502      4.14436      0.67605         1.549588      0.115902      2.100034
      8.71129      5.50227      0.87959         1.970567      0.678776     -1.057008
      9.99937      3.47832      0.78036        -2.634127      1.283315     -1.111934
      9.93287      6.20330      0.74985        -0.528340     -0.759238      1.040442
     11.20790      4.16569      0.72021         0.051735      0.342119      1.209765
     11.18280      5.54637      0.85400        -0.497316     -0.988592     -0.691818
     12.43380      3.51602      0.48519        -1.216662     -1.420764     -0.077972
     12.41000      6.16582      0.67150         1.471700      2.307234     -0.497126
     13.62770      4.14180      0.26900         1.657762      1.597587      0.676741
     13.64340      5.52690      0.42595         1.410244      0.169475     -1.167327
     14.81550      3.47801     33.38038         0.264611     -0.077408     -0.645046
     14.84460      6.21442     33.39983        -1.403726     -1.102964      0.921527
     16.01870      4.12386     33.04443         1.419117      1.014440      0.134242
     16.01180      5.52836     33.02711         0.358058     -0.883484     -0.682683
     17.25680      3.46079     32.63851        -2.440641     -0.119102      1.156988
     17.11880      6.16226     32.39693         0.744806     -1.073322      0.410050
     18.42520      4.08928     32.28569         2.121962      0.558441     -0.219982
     18.37710      5.46755     32.13935        -1.908404      0.701710      0.031125
     19.67140      3.37934     31.91798        -4.047775      1.594073     -0.002016
     19.48250      6.16805     31.64133         0.429282     -2.027333      0.139410
     20.73340      4.13107     31.49505         2.665723     -1.148846      0.395121
     20.69590      5.49900     31.47365         1.759829      0.175944      0.186347
     21.99290      3.42488     31.25138        -3.041757      0.255741     -0.338769
     21.96290      6.17560     31.33351        -1.368082     -1.566330     -0.720217
     23.18120      4.07441     31.33085         1.464750      1.382465      0.054899
     23.16980      5.46008     31.34108         0.669880      0.824755      0.569447
     24.42700      3.42518     31.35490         0.429330      0.549233     -0.050459
     24.41080      6.16130     31.35239        -1.144122     -1.718026      0.069449
     25.62930      4.11245     31.63726        -0.244936      0.845889      0.457447
     25.61100      5.50662     31.61386        -1.085741     -1.856054     -0.298074
     26.86970      3.50567     31.88880        -1.429000     -2.573614     -1.670922
     26.80690      6.13339     31.67293         3.728871      2.666597      0.226994
      0.00368      4.14536     32.16248         1.615974      0.873829      0.103209
      0.01648      5.51431     31.96970        -0.727969     -0.383945      0.970357
      1.23769      3.48970     32.46404         0.052939      1.543464      0.105854
      1.21781      6.18217     32.27647         1.603614      0.181616     -0.044757
      2.43295      4.18973     32.82328         0.171258     -0.852888      0.072228
      2.43926      5.54809     32.71470        -0.015019      0.986701      0.400195
      3.65853      3.54532     33.16930        -0.883343     -0.725102     -1.233074
      3.64538      6.23931     33.08771         0.981110     -0.013875      0.257491
      4.87213      4.20033     33.37825         0.792831      0.841839      1.079448
      4.88068      5.59686     33.45757        -0.531544     -1.844456     -0.405998
      6.09724      3.49971      0.11832         0.975541      2.224809      0.623832
      6.13191      6.21656      0.25641        -1.789274      1.432895     -0.561966
      7.26912      4.13812      0.52922        -1.784936      0.953371     -0.363113
      7.24343      5.53187      0.65340        -0.283081     -0.680887     -0.335364
      8.68351      0.03787      0.37960         3.705634      2.903484     -0.778028
      8.74962      1.46256      0.31526         2.306504     -0.547699      1.334543
      9.92042      7.54999      0.47468         0.248849     -1.305340      0.427498
      9.93115      2.14442      0.56988        -0.138418     -1.698004     -1.282947
     11.19210      0.10656      0.37109        -1.561631      0.126594      0.415317
     11.14660      1.47600      0.36551         1.223894      0.071685      0.398255
     12.42760      7.56335      0.44916        -0.437511     -1.847592     -0.458899
     12.39240      2.14205      0.30878        -0.359045     -0.004731     -0.325706
     13.59910      0.08929      0.00627        -1.207565      0.962852      0.727470
     13.57020      1.46041     33.45941         0.192147      0.513085     -0.495166
     14.77830      7.57007     33.19457         1.738962     -0.674119     -1.295945
     14.77030      2.12156     33.12757        -0.632208      1.010169      1.044077
     15.89390      0.13891     32.56630        -0.158389     -1.463097      0.987470
     15.94970      1.51173     32.71866        -0.953490     -2.140534     -0.300556
     17.05320      7.51892     32.15717        -0.487650     -0.098153      0.119498
     17.17300      2.08946     32.53692         1.713568      0.758412     -1.282049
     18.22170      0.06057     31.71066         0.877463     -0.234135      0.044192
     18.28800      1.39909     31.97263         1.051229      1.083218     -0.392096
     19.45780      7.48440     31.38580        -1.133595      2.178845     -0.152311
     19.54440      2.03801     31.66808        -0.237708      0.031424      0.254908
     20.65850      0.05257     31.03429         0.796098     -0.925184      0.529668
     20.69470      1.41296     31.13302        -0.652938      0.324361     -0.357289
     21.94040      7.50888     31.04744         0.350425      0.256423     -0.782262
     21.92130      2.08111     30.94048         1.316521      0.241063      0.922380
     23.22170      0.03266     30.84784        -2.288995      1.657721      0.453779
     23.19790      1.43837     30.83964         0.406355     -0.894011     -0.071205
     24.41570      7.48317     31.08554         1.244387      1.165429     -0.324916
     24.45600      2.08665     31.08124        -0.401277     -0.188401     -0.189547
     25.66540      0.06571     31.16976         0.804109      0.043862      0.300894
     25.71500      1.43486     31.20854        -0.179220      1.143196     -0.214399
     26.87510      7.53858     31.50076         0.342696     -1.512938      0.100053
     26.92380      2.13755     31.56402         0.537618     -0.530040      1.707381
      0.05445      0.10865     31.79114         1.673759     -1.178333      0.731892
      0.11327      1.45834     31.94258        -1.946420      1.619879     -1.594187
      1.28943      7.54430     32.18652        -0.114819      0.603984      0.206327
      1.29883      2.14540     32.35269        -1.143270     -1.449109      0.533525
      2.52306      0.11873     32.63197        -1.875236     -0.231270     -0.051479
      2.45925      1.47350     32.76030         1.483828      1.186153     -1.019604
      3.71159      7.62915     33.08265        -1.124128     -2.035273     -0.987864
      3.69690      2.16143     33.03724        -1.388939      0.537153      0.462081
      4.93868      0.18188     33.32012        -2.517890     -0.848184     -0.958122
      4.91549      1.52313     33.23728         1.408668      0.519056      0.807887
      6.10572      7.61414      0.01735         1.962926     -2.910026      1.509287
      6.16928      2.15460      0.05983        -2.365551      0.195353     -1.219639
      7.28768      0.14198      0.18856        -1.856183     -0.028372     -0.242459
      7.33593      1.51326      0.21631        -1.578853     -0.674851     -0.458720
 -----------------------------------------------------------------------------------
    total drift:                               -0.003678     -0.127307      0.066101


--------------------------------------------------------------------------------------------------------



  FREE ENERGIE OF THE ION-ELECTRON SYSTEM (eV)
  ---------------------------------------------------
  free  energy   TOTEN  =      -829.20232632 eV

  energy  without entropy=     -829.12343145  energy(sigma->0) =     -829.16287888
 


--------------------------------------------------------------------------------------------------------


    POTLOK:  cpu time      0.4541: real time      0.4540


--------------------------------------------------------------------------------------------------------


     LOOP+:  cpu time    334.3517: real time    334.5546
    4ORBIT:  cpu time      0.0000: real time      0.0000

 total amount of memory used by VASP MPI-rank0  2294513. kBytes
=======================================================================

   base                                    :      30000. kBytes
   nonlr-proj                              :      15079. kBytes
   fftplans                                :     436558. kBytes
   grid                                    :     732614. kBytes
   one-center                              :        282. kBytes
   wavefun                                 :    1079980. kBytes
 
  
  
 General timing and accounting informations for this job:
 ========================================================
  
                  Total CPU time used (sec):      367.646
                            User time (sec):      359.386
                          System time (sec):        8.261
                         Elapsed time (sec):      367.960
  
                   Maximum memory used (kb):     3732668.
                   Average memory used (kb):          N/A
  
                          Minor page faults:      3178870
                          Major page faults:         6644
                 Voluntary context switches:        10068
