unknown system                          
            1
    28.050000    0.000000    0.000000
     0.000000    8.100000    0.000000
     0.000000    0.000000   33.500000
   C 
    92
Direct configuration=     1
   0.31176542  0.51164938  0.02018051
   0.31056292  0.67929259  0.02625639
   0.35648378  0.42942222  0.02329427
   0.35411301  0.76583951  0.02238361
   0.39956863  0.51428272  0.02149884
   0.39867380  0.68473704  0.02549266
   0.44327273  0.43407654  0.01448334
   0.44242424  0.76121235  0.02004466
   0.48583601  0.51133333  0.00802997
   0.48639572  0.68233333  0.01271499
   0.52818182  0.42938395  0.99642928
   0.52921925  0.76721235  0.99700979
   0.57107665  0.50911852  0.98640093
   0.57083066  0.68251358  0.98588382
   0.61521569  0.42725802  0.97428400
   0.61029590  0.76077284  0.96707254
   0.65686988  0.50484938  0.96375194
   0.65515508  0.67500617  0.95938358
   0.70129768  0.41720247  0.95277552
   0.69456328  0.76148765  0.94451731
   0.73915865  0.51000864  0.94015075
   0.73782175  0.67888889  0.93951194
   0.78406061  0.42282469  0.93287701
   0.78299109  0.76241975  0.93532866
   0.82642424  0.50301358  0.93524925
   0.82601783  0.67408395  0.93555463
   0.87083779  0.42286173  0.93596716
   0.87026025  0.76065432  0.93589224
   0.91370053  0.50770988  0.94439582
   0.91304813  0.67982963  0.94369731
   0.95792157  0.43279877  0.95190448
   0.95568271  0.75720864  0.94546060
   0.00013103  0.51177284  0.96007403
   0.00058770  0.68077901  0.95431940
   0.04412442  0.43082716  0.96907582
   0.04341569  0.76323086  0.96347672
   0.08673619  0.51725062  0.97979946
   0.08696114  0.68494938  0.97655836
   0.13042888  0.43769383  0.99012848
   0.12996007  0.77028519  0.98769290
   0.17369447  0.51855926  0.99636582
   0.17399929  0.69097037  0.99873341
   0.21737041  0.43206296  0.00353179
   0.21860642  0.76747654  0.00765415
   0.25914866  0.51087901  0.01579773
   0.25823280  0.68294691  0.01950457
   0.30957255  0.00467526  0.01133125
   0.31192941  0.18056296  0.00941087
   0.35366916  0.93209753  0.01416967
   0.35405169  0.26474321  0.01701140
   0.39900535  0.01315543  0.01107734
   0.39738324  0.18222222  0.01091087
   0.44305169  0.93374691  0.01340761
   0.44179679  0.26445062  0.00921719
   0.48481640  0.01102358  0.00018728
   0.48378610  0.18029753  0.99878829
   0.52685561  0.93457654  0.99088281
   0.52657041  0.26192099  0.98888278
   0.56662745  0.01714889  0.97212836
   0.56861676  0.18663333  0.97667645
   0.60795722  0.92826173  0.95991552
   0.61222816  0.25795802  0.97125137
   0.64961497  0.00747746  0.94658687
   0.65197861  0.17272716  0.95440687
   0.69368271  0.92400000  0.93688955
   0.69677005  0.25160617  0.94531582
   0.73648841  0.00649074  0.92639672
   0.73777897  0.17443951  0.92934388
   0.78218895  0.92702222  0.92678925
   0.78150802  0.25692716  0.92359642
   0.82786809  0.00403270  0.92083104
   0.82701961  0.17757654  0.92058627
   0.87043494  0.92384815  0.92792657
   0.87187166  0.25761111  0.92779821
   0.91498752  0.00811263  0.93044060
   0.91675579  0.17714321  0.93159821
   0.95811408  0.93068889  0.94032119
   0.95985027  0.26389506  0.94220955
   0.00194126  0.01341407  0.94898925
   0.00403829  0.18004198  0.95350985
   0.04596898  0.93139506  0.96079164
   0.04630410  0.26486420  0.96575194
   0.08994866  0.01465765  0.97408866
   0.08767380  0.18191358  0.97791952
   0.13232050  0.94187037  0.98754164
   0.13179679  0.26684321  0.98618630
   0.17606702  0.02245395  0.99463039
   0.17524029  0.18804074  0.99215770
   0.21767273  0.94001728  0.00051795
   0.21993868  0.26600000  0.00178610
   0.25981034  0.01752790  0.00562869
   0.26153048  0.18682222  0.00645704
