
***************************************************************
*                 Welcome to use GPUMD                        *
*     (Graphics Processing Units Molecular Dynamics)          *
*                     version 4.2                             *
*              This is the gpumd executable                   *
***************************************************************


---------------------------------------------------------------
Compiling options:
---------------------------------------------------------------

DEBUG is off: Use different PRNG seeds for different runs.

---------------------------------------------------------------
GPU information:
---------------------------------------------------------------

number of GPUs = 3
Device id:                   0
    Device name:             NVIDIA GeForce RTX 4090
    Compute capability:      8.9
    Amount of global memory: 23.5272 GB
    Number of SMs:           128
Device id:                   1
    Device name:             NVIDIA GeForce RTX 4090
    Compute capability:      8.9
    Amount of global memory: 23.5272 GB
    Number of SMs:           128
Device id:                   2
    Device name:             NVIDIA GeForce RTX 4090
    Compute capability:      8.9
    Amount of global memory: 23.5272 GB
    Number of SMs:           128
GPU-0 cannot access GPU-1.
GPU-0 cannot access GPU-2.
GPU-1 cannot access GPU-0.
GPU-1 cannot access GPU-2.
GPU-2 cannot access GPU-0.
GPU-2 cannot access GPU-1.

---------------------------------------------------------------
Started running GPUMD.
---------------------------------------------------------------


---------------------------------------------------------------
Started initializing positions and related parameters.
CUDA Error:
    File:       ./utilities/gpu_vector.cuh
    Line:       185
    Error code: 46
    Error text: CUDA-capable device(s) is/are busy or unavailable
---------------------------------------------------------------

Number of atoms is 40400.
Use periodic boundary conditions along x.
Use periodic boundary conditions along y.
Use free boundary conditions along z.
Box matrix h = [a, b, c] is
    2.4595100000e+02    0.0000000000e+00    0.0000000000e+00
    0.0000000000e+00    4.3026000000e+02    0.0000000000e+00
    0.0000000000e+00    0.0000000000e+00    3.3500000000e+00
Inverse box matrix g = inv(h) is
    4.0658505149e-03    0.0000000000e+00    0.0000000000e+00
    0.0000000000e+00    2.3241760796e-03    0.0000000000e+00
    0.0000000000e+00    0.0000000000e+00    2.9850746269e-01
Do not specify initial velocities here.
Have 1 grouping method(s).
There are 9 groups of atoms in grouping method 0.
    400 atoms in group 0.
    8000 atoms in group 1.
    4000 atoms in group 2.
    4000 atoms in group 3.
    4000 atoms in group 4.
    4000 atoms in group 5.
    4000 atoms in group 6.
    4000 atoms in group 7.
    8000 atoms in group 8.
There is only one atom type.
    40400 atoms of type 0.

***************************************************************
*                 Welcome to use GPUMD                        *
*     (Graphics Processing Units Molecular Dynamics)          *
*                     version 4.2                             *
*              This is the gpumd executable                   *
***************************************************************


---------------------------------------------------------------
Compiling options:
---------------------------------------------------------------

DEBUG is off: Use different PRNG seeds for different runs.

---------------------------------------------------------------
GPU information:
---------------------------------------------------------------

number of GPUs = 1
Device id:                   0
    Device name:             NVIDIA GeForce RTX 4090
    Compute capability:      8.9
    Amount of global memory: 23.5272 GB
    Number of SMs:           128

---------------------------------------------------------------
Started running GPUMD.
---------------------------------------------------------------


---------------------------------------------------------------
Started initializing positions and related parameters.
---------------------------------------------------------------

Number of atoms is 40400.
Use periodic boundary conditions along x.
Use periodic boundary conditions along y.
Use free boundary conditions along z.
Box matrix h = [a, b, c] is
    2.4595100000e+02    0.0000000000e+00    0.0000000000e+00
    0.0000000000e+00    4.3026000000e+02    0.0000000000e+00
    0.0000000000e+00    0.0000000000e+00    3.3500000000e+00
Inverse box matrix g = inv(h) is
    4.0658505149e-03    0.0000000000e+00    0.0000000000e+00
    0.0000000000e+00    2.3241760796e-03    0.0000000000e+00
    0.0000000000e+00    0.0000000000e+00    2.9850746269e-01
Do not specify initial velocities here.
Have 1 grouping method(s).
There are 9 groups of atoms in grouping method 0.
    400 atoms in group 0.
    8000 atoms in group 1.
    4000 atoms in group 2.
    4000 atoms in group 3.
    4000 atoms in group 4.
    4000 atoms in group 5.
    4000 atoms in group 6.
    4000 atoms in group 7.
    8000 atoms in group 8.
There is only one atom type.
    40400 atoms of type 0.
Initialized velocities with default T = 300 K.

---------------------------------------------------------------
Finished initializing positions and related parameters.
---------------------------------------------------------------


---------------------------------------------------------------
Started executing the commands in run.in.
---------------------------------------------------------------

Use the NEP4 potential with 1 atom type.
    type 0 (C with Z = 6).
    has the universal ZBL with inner cutoff 1 A and outer cutoff 2 A.
    radial cutoff = 6 A.
    angular cutoff = 5 A.
    MN_radial = 44.
    enlarged MN_radial = 55.
    enlarged MN_angular = 43.
    n_max_radial = 4.
    n_max_angular = 4.
    basis_size_radial = 8.
    basis_size_angular = 8.
    l_max_3body = 4.
    l_max_4body = 2.
    l_max_5body = 1.
    ANN = 35-80-1.
    number of neural network parameters = 2961.
    number of descriptor parameters = 90.
    total number of parameters = 3051.
Initialized velocities with input T = 300 K.
Use NVT ensemble for this run.
    choose the Nose-Hoover chain method.
    initial temperature is 300 K.
    final temperature is 300 K.
    tau_T is 100 time_step.
Time step for this run is 1 fs.
Run 1000000 steps.
    100000 steps completed.
    200000 steps completed.
    300000 steps completed.
    400000 steps completed.
    500000 steps completed.
    600000 steps completed.
    700000 steps completed.
    800000 steps completed.
    900000 steps completed.
    1000000 steps completed.

---------------------------------------------------------------
Time used for this run = 1968.63 second.
Speed of this run = 2.05219e+07 atom*step/second.
---------------------------------------------------------------

Use NVT ensemble for this run.
    choose the Nose-Hoover chain method.
    initial temperature is 300 K.
    final temperature is 300 K.
    tau_T is 100 time_step.
Compute thermal conductivity using the HNEMD method.
    output_interval = 1000
    fe_x = 0 /A
    fe_y = 1e-05 /A
    fe_z = 0 /A
Compute SHC.
    sampling interval for SHC is 2.
    number of correlation data is 250.
    transport direction is y.
    num_omega for SHC is 1000.
    max_omega for SHC is 400.
    grouping method is 0 and group ID is 0.
Run 10000000 steps.
    1000000 steps completed.
    2000000 steps completed.
    3000000 steps completed.
    4000000 steps completed.
    5000000 steps completed.
    6000000 steps completed.
    7000000 steps completed.
    8000000 steps completed.
    9000000 steps completed.
    10000000 steps completed.

---------------------------------------------------------------
Time used for this run = 20097.7 second.
Speed of this run = 2.01018e+07 atom*step/second.
---------------------------------------------------------------


---------------------------------------------------------------
Finished executing the commands in run.in.
---------------------------------------------------------------


---------------------------------------------------------------
Time used = 22066.533804 s.
---------------------------------------------------------------


---------------------------------------------------------------
Finished running GPUMD.
---------------------------------------------------------------

