 vasp.6.5.0 16Dec24 (build Feb 19 2025 19:45:31) complex                         
 executed on              LinuxNV date 2025.10.25  15:39:49
 running    2 mpi-ranks, on    1 nodes
 distrk:  each k-point on    2 cores,    1 groups
 distr:  one band on NCORE=   1 cores,    2 groups
 Offloading initialized ...    2 GPUs detected


--------------------------------------------------------------------------------------------------------


 INCAR:
   ISTART = 0            (Not Read existing wavefunction
   ISPIN = 1            (Non-Spin polarised DFT, Default\=1)
   ICHARG = 2            (The initial guess charge density is generated by superposition of atomic charge density)
   LREAL = Auto         (Projection operators: automatic)
   ENCUT = 500          (Cut-off energy for plane wave basis set, in eV)
   LWAVE = .FALSE.       (Write WAVECAR or not)
   LCHARG = .FALSE.       (Write CHGCAR or not)
   PREC = Accurate   (Precision level)
   KGAMMA = .TRUE.
   ALGO = Normal
   NSW = 0           (Default: NSW \= 0)
   IBRION = -1           (Ions are not moved)
   ISMEAR = 0
   EDIFF = 1E-06        (SCF energy convergence
   NELM = 150          (Max electronic SCF steps)

 POTCAR:    PAW_PBE C 08Apr2002                   
 POTCAR:    PAW_PBE C 08Apr2002                   
   SHA256 =  253f7b50bb8d59471dbedb8285d89021f4a42ed1a2c5d38a03a736e69125dd95 C/POTCAR              
   COPYR  = (c) Copyright 08Apr2002 Georg Kresse                                                    
   COPYR  = This file is part of the software VASP. Any use, copying, and all other rights are regul
   COPYR  = If you do not have a valid VASP license, you may not use, copy or distribute this file. 
   VRHFIN =C: s2p2                                                                                  
   LEXCH  = PE                                                                                      
   EATOM  =   147.1560 eV,   10.8157 Ry                                                             
                                                                                                    
   TITEL  = PAW_PBE C 08Apr2002                                                                     
   LULTRA =        F    use ultrasoft PP ?                                                          
   IUNSCR =        1    unscreen: 0-lin 1-nonlin 2-no                                               
   RPACOR =    1.200    partial core radius                                                         
   POMASS =   12.011; ZVAL   =    4.000    mass and valenz                                          
   RCORE  =    1.500    outmost cutoff radius                                                       
   RWIGS  =    1.630; RWIGS  =    0.863    wigner-seitz radius (au A)                               
   ENMAX  =  400.000; ENMIN  =  300.000 eV                                                          
   ICORE  =        2    local potential                                                             
   LCOR   =        T    correct aug charges                                                         
   LPAW   =        T    paw PP                                                                      
   EAUG   =  644.873                                                                                
   DEXC   =    0.000                                                                                
   RMAX   =    1.529    core radius for proj-oper                                                   
   RAUG   =    1.300    factor for augmentation sphere                                              
   RDEP   =    1.501    radius for radial grids                                                     
   RDEPT  =    1.300    core radius for aug-charge                                                  
                                                                                                    
   Atomic configuration                                                                             
    4 entries                                                                                       
     n  l   j            E        occ.                                                              
     1  0  0.50      -273.3789   2.0000                                                             
     2  0  0.50       -13.7508   2.0000                                                             
     2  1  0.50        -5.2854   2.0000                                                             
     3  2  1.50        -5.4423   0.0000                                                             
   Description                                                                                      
     l       E           TYP  RCUT    TYP  RCUT                                                     
     0    -13.7508458     23  1.200                                                                 
     0     -8.2022199     23  1.200                                                                 
     1     -5.2854383     23  1.500                                                                 
     1     34.0145650     23  1.500                                                                 
     2     -5.4423304      7  1.500                                                                 
  local pseudopotential read in
  partial core-charges read in
  partial kinetic energy density read in
  atomic valenz-charges read in
  non local Contribution for L=            0  read in
    real space projection operators read in
  non local Contribution for L=            0  read in
    real space projection operators read in
  non local Contribution for L=            1  read in
    real space projection operators read in
  non local Contribution for L=            1  read in
    real space projection operators read in
    PAW grid and wavefunctions read in
 
   number of l-projection  operators is LMAX  =            4
   number of lm-projection operators is LMMAX =            8
 
 Optimization of the real space projectors (new method)

 maximal supplied QI-value         = 25.13
 optimisation between [QCUT,QGAM] = [ 11.31, 22.87] = [ 35.82,146.48] Ry 
 Optimized for a Real-space Cutoff    1.03 Angstroem

   l    n(q)    QCUT    max X(q) W(low)/X(q) W(high)/X(q)  e(spline) 
   0      7    11.310   115.676    0.20E-03    0.90E-03    0.20E-06
   0      7    11.310    87.132    0.20E-03    0.89E-03    0.19E-06
   1      6    11.310     4.429    0.16E-03    0.28E-03    0.12E-06
   1      6    11.310     2.733    0.12E-03    0.21E-03    0.99E-07
  PAW_PBE C 08Apr2002                   :
 energy of atom  1       EATOM= -147.1560
 kinetic energy error for atom=    0.0076 (will be added to EATOM!!)
 
 
 POSCAR:  C
  positions in cartesian coordinates
  No initial velocities read in


 exchange-correlation table for PE
   RHO(1)=    0.500       N(1)  =     2000
   RHO(2)=  100.500       N(2)  =     4000
 


--------------------------------------------------------------------------------------------------------


 ion  position               nearest neighbor table
   1  0.008  0.101  0.532-   3 1.35   2 1.40  45 1.50  46 2.04
   2  0.006  0.274  0.530-   4 1.35   1 1.40  46 1.43  45 1.98
   3  0.049  0.022  0.541-  50 1.34   1 1.35   5 1.40
   4  0.047  0.358  0.535-   2 1.35  49 1.40   6 1.44
   5  0.093  0.108  0.540-   6 1.36   3 1.40   7 1.40
   6  0.093  0.276  0.537-   5 1.36   8 1.37   4 1.44
   7  0.136  0.020  0.539-  54 1.39   5 1.40   9 1.43
   8  0.136  0.353  0.538-   6 1.37  53 1.38  10 1.44
   9  0.180  0.099  0.530-  11 1.37  10 1.41   7 1.43
  10  0.181  0.272  0.530-  12 1.37   9 1.41   8 1.44
  11  0.223  0.020  0.524-   9 1.37  58 1.39  13 1.46
  12  0.223  0.355  0.528-  10 1.37  57 1.39  14 1.43
  13  0.266  0.108  0.513-  14 1.35  15 1.38  11 1.46
  14  0.267  0.274  0.516-  13 1.35  16 1.36  12 1.43
  15  0.308  0.025  0.508-  13 1.38  62 1.40  17 1.46
  16  0.307  0.364  0.509-  61 1.35  14 1.36  18 1.45
  17  0.353  0.111  0.500-  18 1.34  19 1.39  15 1.46
  18  0.350  0.276  0.498-  17 1.34  20 1.45  16 1.45
  19  0.394  0.027  0.489-  66 1.39  17 1.39  21 1.44
  20  0.394  0.360  0.489-  65 1.34  22 1.44  18 1.45
  21  0.438  0.106  0.477-  22 1.38  23 1.40  19 1.44
  22  0.436  0.276  0.474-  21 1.38  24 1.41  20 1.44
  23  0.480  0.026  0.467-  25 1.40  21 1.40  70 1.40
  24  0.480  0.352  0.468-  69 1.37  22 1.41  26 1.43
  25  0.524  0.101  0.457-  26 1.39  23 1.40  27 1.42
  26  0.524  0.272  0.458-  25 1.39  28 1.39  24 1.43
  27  0.568  0.020  0.450-  74 1.36  29 1.39  25 1.42
  28  0.568  0.347  0.456-  26 1.39  73 1.40  30 1.43
  29  0.612  0.100  0.448-  30 1.35  27 1.39  31 1.47
  30  0.612  0.266  0.448-  29 1.35  28 1.43  32 1.46
  31  0.658  0.016  0.451-  78 1.38  33 1.45  29 1.47
  32  0.658  0.352  0.451-  77 1.36  30 1.46  34 1.49
  33  0.704  0.098  0.455-  34 1.34  35 1.38  31 1.45
  34  0.704  0.264  0.455-  33 1.34  36 1.40  32 1.49
  35  0.744  0.017  0.468-  82 1.37  33 1.38  37 1.45
  36  0.745  0.349  0.466-  81 1.38  38 1.39  34 1.40
  37  0.789  0.101  0.475-  38 1.36  39 1.41  35 1.45
  38  0.788  0.269  0.476-  37 1.36  36 1.39  40 1.46
  39  0.831  0.024  0.488-  86 1.37  37 1.41  41 1.45
  40  0.831  0.355  0.488-  85 1.40  42 1.42  38 1.46
  41  0.874  0.107  0.500-  42 1.37  43 1.39  39 1.45
  42  0.874  0.276  0.500-  41 1.37  44 1.40  40 1.42
  43  0.913  0.023  0.516-  90 1.35  41 1.39  45 1.40
  44  0.914  0.352  0.516-  46 1.36  89 1.39  42 1.40
  45  0.955  0.104  0.524-  46 1.35  43 1.40   1 1.50   2 1.98
  46  0.956  0.271  0.524-  45 1.35  44 1.36   2 1.43   1 2.04
  47  0.004  0.611  0.542-  49 1.38  91 1.41  48 1.44  92 2.02
  48  0.002  0.789  0.541-  50 1.40  92 1.41  47 1.44  91 2.07
  49  0.046  0.525  0.545-  47 1.38   4 1.40  51 1.47
  50  0.047  0.860  0.548-   3 1.34  48 1.40  52 1.48
  51  0.093  0.603  0.550-  53 1.37  52 1.38  49 1.47
  52  0.093  0.773  0.552-  51 1.38  54 1.38  50 1.48
  53  0.135  0.521  0.543-  51 1.37   8 1.38  55 1.41
  54  0.136  0.853  0.549-  52 1.38   7 1.39  56 1.43
  55  0.180  0.601  0.542-  56 1.39  57 1.40  53 1.41
  56  0.181  0.771  0.547-  55 1.39  54 1.43  58 1.46
  57  0.224  0.525  0.534-  59 1.39  12 1.39  55 1.40
  58  0.225  0.854  0.534-  60 1.37  11 1.39  56 1.46
  59  0.267  0.605  0.530-  57 1.39  60 1.41  61 1.41
  60  0.268  0.778  0.528-  58 1.37  59 1.41  62 1.43
  61  0.309  0.528  0.515-  16 1.35  63 1.40  59 1.41
  62  0.310  0.854  0.511-  64 1.38  15 1.40  60 1.43
  63  0.351  0.611  0.506-  64 1.36  61 1.40  65 1.46
  64  0.354  0.779  0.506-  63 1.36  66 1.37  62 1.38
  65  0.395  0.521  0.497-  20 1.34  67 1.44  63 1.46
  66  0.395  0.858  0.494-  64 1.37  19 1.39  68 1.45
  67  0.440  0.602  0.489-  68 1.36  69 1.40  65 1.44
  68  0.439  0.769  0.489-  67 1.36  66 1.45  70 1.46
  69  0.481  0.516  0.478-  24 1.37  67 1.40  71 1.45
  70  0.482  0.857  0.475-  72 1.40  23 1.40  68 1.46
  71  0.525  0.605  0.472-  72 1.38  69 1.45  73 1.46
  72  0.524  0.775  0.467-  71 1.38  70 1.40  74 1.41
  73  0.569  0.517  0.465-  28 1.40  75 1.41  71 1.46
  74  0.568  0.856  0.458-  27 1.36  72 1.41  76 1.43
  75  0.613  0.602  0.460-  76 1.39  77 1.41  73 1.41
  76  0.612  0.773  0.458-  75 1.39  78 1.41  74 1.43
  77  0.657  0.517  0.458-  32 1.36  75 1.41  79 1.43
  78  0.657  0.849  0.458-  31 1.38  76 1.41  80 1.41
  79  0.700  0.599  0.470-  80 1.36  81 1.39  77 1.43
  80  0.700  0.768  0.470-  79 1.36  82 1.40  78 1.41
  81  0.743  0.517  0.473-  36 1.38  79 1.39  83 1.41
  82  0.744  0.848  0.471-  35 1.37  80 1.40  84 1.43
  83  0.787  0.600  0.481-  85 1.38  84 1.39  81 1.41
  84  0.789  0.772  0.479-  83 1.39  86 1.43  82 1.43
  85  0.828  0.526  0.494-  83 1.38  40 1.40  87 1.44
  86  0.829  0.857  0.495-  39 1.37  88 1.41  84 1.43
  87  0.870  0.601  0.510-  88 1.37  89 1.44  85 1.44
  88  0.869  0.770  0.510-  87 1.37  86 1.41  90 1.46
  89  0.914  0.521  0.522-  44 1.39  91 1.39  87 1.44
  90  0.912  0.858  0.524-  43 1.35  92 1.36  88 1.46
  91  0.954  0.597  0.538-  89 1.39  47 1.41  92 1.52  48 2.07
  92  0.952  0.784  0.538-  90 1.36  48 1.41  91 1.52  47 2.02
 
  LATTYP: Found a simple orthorhombic cell.
 ALAT       =     8.1000000000
 B/A-ratio  =     3.4629629630
 C/A-ratio  =     4.1358024691
  
  Lattice vectors:
  
 A1 = (   0.0000000000,  -8.1000000000,   0.0000000000)
 A2 = (  28.0500000000,   0.0000000000,   0.0000000000)
 A3 = (   0.0000000000,   0.0000000000,  33.5000000000)


Analysis of symmetry for initial positions (statically):
=====================================================================
 Subroutine PRICEL returns:
 Original cell was already a primitive cell.
 

 Routine SETGRP: Setting up the symmetry group for a 
 simple orthorhombic supercell.


 Subroutine GETGRP returns: Found  1 space group operations
 (whereof  1 operations were pure point group operations)
 out of a pool of  8 trial point group operations.


The static configuration has the point symmetry C_1 .


Analysis of symmetry for dynamics (positions and initial velocities):
=====================================================================
 Subroutine PRICEL returns:
 Original cell was already a primitive cell.
 

 Routine SETGRP: Setting up the symmetry group for a 
 simple orthorhombic supercell.


 Subroutine GETGRP returns: Found  1 space group operations
 (whereof  1 operations were pure point group operations)
 out of a pool of  8 trial point group operations.


The dynamic configuration has the point symmetry C_1 .


 Subroutine INISYM returns: Found  1 space group operations
 (whereof  1 operations are pure point group operations),
 and found     1 'primitive' translations


----------------------------------------------------------------------------------------

                                     Primitive cell                                     

  volume of cell :    7611.3675

  direct lattice vectors                    reciprocal lattice vectors
    28.050000000  0.000000000  0.000000000     0.035650624  0.000000000  0.000000000
     0.000000000  8.100000000  0.000000000     0.000000000  0.123456790  0.000000000
     0.000000000  0.000000000 33.500000000     0.000000000  0.000000000  0.029850746

  length of vectors
    28.050000000  8.100000000 33.500000000     0.035650624  0.123456790  0.029850746

  position of ions in fractional coordinates (direct lattice)
     0.008309626  0.100619753  0.531650746
     0.006096150  0.273614815  0.530316418
     0.049221034  0.022402099  0.540743284
     0.047245276  0.357702469  0.535086567
     0.092737255  0.108155062  0.539895522
     0.092655971  0.276172840  0.537262687
     0.135779323  0.019518395  0.539322388
     0.136051337  0.352720988  0.537749254
     0.180081283  0.098514198  0.529773134
     0.180671658  0.272304938  0.529913433
     0.222806774  0.019846296  0.524295522
     0.223499109  0.354550617  0.528128358
     0.266016043  0.108159506  0.513164179
     0.266696970  0.273980247  0.516110448
     0.308340463  0.025368148  0.507662687
     0.306972549  0.363566667  0.509462687
     0.353172193  0.111422963  0.500146269
     0.349881283  0.275734568  0.497943284
     0.394324421  0.027492593  0.488743284
     0.394256684  0.359738272  0.489122388
     0.437896613  0.105984938  0.476600000
     0.435757576  0.276169136  0.474137313
     0.480495544  0.026361481  0.466755224
     0.480449198  0.352169136  0.468301493
     0.523725490  0.100764938  0.456611940
     0.524057041  0.271646914  0.458441791
     0.567857398  0.019917407  0.449838806
     0.568363636  0.347316049  0.455725373
     0.611672014  0.100203827  0.447776119
     0.612474153  0.266434568  0.447591045
     0.657811052  0.016306790  0.450925373
     0.657907308  0.352070370  0.451468657
     0.703689840  0.098402346  0.454904478
     0.704260250  0.264104938  0.454737313
     0.743860963  0.016725062  0.468370149
     0.745472371  0.349393827  0.465868657
     0.788752228  0.101084815  0.474659701
     0.787768271  0.268772840  0.475623881
     0.830705882  0.023664815  0.488011940
     0.831008913  0.355454321  0.487561194
     0.874285205  0.106851852  0.500035821
     0.873736185  0.275564198  0.499534328
     0.912655971  0.022514815  0.516477612
     0.914196078  0.351522222  0.516065672
     0.955479501  0.104270741  0.524205970
     0.955636364  0.271211111  0.523776119
     0.003737504  0.610901235  0.541591045
     0.002207330  0.788888889  0.540504478
     0.046085561  0.525325926  0.545441791
     0.046836007  0.859913580  0.548125373
     0.093254902  0.602683951  0.550280597
     0.092879857  0.772570370  0.552298507
     0.135016399  0.521365432  0.543044776
     0.136190374  0.852702469  0.549134328
     0.179911230  0.600650617  0.541740299
     0.181446702  0.770923457  0.547325373
     0.223633512  0.524867901  0.534017910
     0.225010339  0.854125926  0.534447761
     0.267238859  0.604543210  0.529743284
     0.268044207  0.778166667  0.527674627
     0.309214260  0.527972840  0.515447761
     0.309868449  0.853635802  0.511402985
     0.351468806  0.611349383  0.506200000
     0.353730481  0.779475309  0.505814925
     0.395119430  0.521251852  0.497283582
     0.394873440  0.857922222  0.494235821
     0.439736185  0.601901235  0.489226866
     0.439190731  0.769434568  0.489044776
     0.481023173  0.515508642  0.478370149
     0.481511586  0.856539506  0.474758209
     0.525190731  0.605423457  0.472304478
     0.524374332  0.774586420  0.467080597
     0.569483066  0.516687654  0.464608955
     0.567593583  0.855819753  0.458417910
     0.613108734  0.602022222  0.459877612
     0.612385027  0.772809877  0.457916418
     0.657044563  0.517439506  0.458116418
     0.657468806  0.848829630  0.457892537
     0.699786096  0.599397531  0.469937313
     0.699625668  0.767692593  0.470188060
     0.743283422  0.517308642  0.472746269
     0.743821747  0.847933333  0.471029851
     0.786527629  0.600258025  0.480540299
     0.788923351  0.772166667  0.479367164
     0.827540107  0.525601235  0.494358209
     0.829368984  0.857309877  0.495400000
     0.870285205  0.600866667  0.509791045
     0.869204991  0.770470370  0.510268657
     0.913582888  0.521085185  0.522011940
     0.911757576  0.858279012  0.523889552
     0.953885918  0.596829630  0.537940299
     0.952021390  0.783897531  0.537588060

  ion indices of the primitive-cell ions
   primitive index   ion index
                 1           1
                 2           2
                 3           3
                 4           4
                 5           5
                 6           6
                 7           7
                 8           8
                 9           9
                10          10
                11          11
                12          12
                13          13
                14          14
                15          15
                16          16
                17          17
                18          18
                19          19
                20          20
                21          21
                22          22
                23          23
                24          24
                25          25
                26          26
                27          27
                28          28
                29          29
                30          30
                31          31
                32          32
                33          33
                34          34
                35          35
                36          36
                37          37
                38          38
                39          39
                40          40
                41          41
                42          42
                43          43
                44          44
                45          45
                46          46
                47          47
                48          48
                49          49
                50          50
                51          51
                52          52
                53          53
                54          54
                55          55
                56          56
                57          57
                58          58
                59          59
                60          60
                61          61
                62          62
                63          63
                64          64
                65          65
                66          66
                67          67
                68          68
                69          69
                70          70
                71          71
                72          72
                73          73
                74          74
                75          75
                76          76
                77          77
                78          78
                79          79
                80          80
                81          81
                82          82
                83          83
                84          84
                85          85
                86          86
                87          87
                88          88
                89          89
                90          90
                91          91
                92          92

----------------------------------------------------------------------------------------

 
 
 KPOINTS: K-Spacing Value to Generate K-Mesh: 0.03

Automatic generation of k-mesh.
 Grid dimensions read from file:
 generate k-points for:    1    4    1

 Generating k-lattice:

  Cartesian coordinates                     Fractional coordinates (reciprocal lattice)
     0.035650624  0.000000000  0.000000000     1.000000000  0.000000000  0.000000000
     0.000000000  0.030864198  0.000000000     0.000000000  0.250000000  0.000000000
     0.000000000  0.000000000  0.029850746     0.000000000  0.000000000  1.000000000

  Length of vectors
     0.035650624  0.030864198  0.029850746

  Shift w.r.t. Gamma in fractional coordinates (k-lattice)
     0.000000000  0.000000000  0.000000000

 
 Subroutine IBZKPT returns following result:
 ===========================================
 
 Found      3 irreducible k-points:
 
 Following reciprocal coordinates:
            Coordinates               Weight
  0.000000  0.000000  0.000000      1.000000
  0.000000  0.250000  0.000000      2.000000
  0.000000  0.500000  0.000000      1.000000
 
 Following cartesian coordinates:
            Coordinates               Weight
  0.000000  0.000000  0.000000      1.000000
  0.000000  0.030864  0.000000      2.000000
  0.000000  0.061728  0.000000      1.000000
 


--------------------------------------------------------------------------------------------------------




 Dimension of arrays:
   k-points           NKPTS =      3   k-points in BZ     NKDIM =      3   number of bands    NBANDS=    232
   number of dos      NEDOS =    301   number of ions     NIONS =     92
   non local maximal  LDIM  =      4   non local SUM 2l+1 LMDIM =      8
   total plane-waves  NPLWV = ******
   max r-space proj   IRMAX =   1967   max aug-charges    IRDMAX=   5083
   dimension x,y,z NGX =   210 NGY =   60 NGZ =  250
   dimension x,y,z NGXF=   420 NGYF=  120 NGZF=  500
   support grid    NGXF=   420 NGYF=  120 NGZF=  500
   ions per type =              92
   NGX,Y,Z   is equivalent  to a cutoff of  12.45, 12.31, 12.41 a.u.
   NGXF,Y,Z  is equivalent  to a cutoff of  24.89, 24.63, 24.81 a.u.

 SYSTEM =  unknown system                          
 POSCAR =   C                                      

 Startparameter for this run:
   NWRITE =      2    write-flag & timer
   PREC   = accura    normal or accurate (medium, high low for compatibility)
   ISTART =      0    job   : 0-new  1-cont  2-samecut
   ICHARG =      2    charge: 1-file 2-atom 10-const
   ISPIN  =      1    spin polarized calculation?
   LNONCOLLINEAR =      F non collinear calculations
   LSORBIT =      F    spin-orbit coupling
   INIWAV =      1    electr: 0-lowe 1-rand  2-diag
   LASPH  =      F    aspherical Exc in radial PAW
 Electronic Relaxation 1
   ENCUT  =  500.0 eV  36.75 Ry    6.06 a.u.  51.14 14.77 61.08*2*pi/ulx,y,z
   ENINI  =  500.0     initial cutoff
   ENAUG  =  644.9 eV  augmentation charge cutoff
   NELM   =    150;   NELMIN=  2; NELMDL= -5     # of ELM steps 
   EDIFF  = 0.1E-05   stopping-criterion for ELM
   LREAL  =      T    real-space projection
   NLSPLINE    = F    spline interpolate recip. space projectors
   LCOMPAT=      F    compatible to vasp.4.4
   GGA_COMPAT  = T    GGA compatible to vasp.4.4-vasp.4.6
   LMAXPAW     = -100 max onsite density
   LMAXMIX     =    2 max onsite mixed and CHGCAR
   VOSKOWN=      0    Vosko Wilk Nusair interpolation
   ROPT   =   -0.00025
 Ionic relaxation
   EDIFFG = 0.1E-04   stopping-criterion for IOM
   NSW    =      0    number of steps for IOM
   NBLOCK =      1;   KBLOCK =      1    inner block; outer block 
   IBRION =     -1    ionic relax: 0-MD 1-quasi-New 2-CG
   NFREE  =      0    steps in history (QN), initial steepest desc. (CG)
   ISIF   =      2    stress and relaxation
   IWAVPR =     10    prediction:  0-non 1-charg 2-wave 3-comb
   ISYM   =      2    0-nonsym 1-usesym 2-fastsym
   LCORR  =      T    Harris-Foulkes like correction to forces

   POTIM  = 0.5000    time-step for ionic-motion
   TEIN   =    0.0    initial temperature
   TEBEG  =    0.0;   TEEND  =   0.0 temperature during run
   SMASS  =  -3.00    Nose mass-parameter (am)
   estimated Nose-frequenzy (Omega)   =  0.10E-29 period in steps = 0.13E+47 mass=  -0.180E-25a.u.
   SCALEE = 1.0000    scale energy and forces
   NPACO  =    256;   APACO  = 10.0  distance and # of slots for P.C.
   PSTRESS=    0.0 pullay stress

  Mass of Ions in am
   POMASS =  12.01
  Ionic Valenz
   ZVAL   =   4.00
  Atomic Wigner-Seitz radii
   RWIGS  =  -1.00
  virtual crystal weights 
   VCA    =   1.00
   NELECT =     368.0000    total number of electrons
   NUPDOWN=      -1.0000    fix difference up-down

 DOS related values:
   EMIN   =  10.00;   EMAX   =-10.00  energy-range for DOS
   EFERMI =   0.00;   METHOD = LEGACY      
   ISMEAR =     0;   SIGMA  =   0.20  broadening in eV -4-tet -1-fermi 0-gaus
   EFERMI_NEDOS =   21; number of points for ismear=-14 and -15

 Electronic relaxation 2 (details)
   IALGO  =     38    algorithm
   LDIAG  =      T    sub-space diagonalisation (order eigenvalues)
   LSUBROT=      F    optimize rotation matrix (better conditioning)
   TURBO    =      0    0=normal 1=particle mesh
   IRESTART =      0    0=no restart 2=restart with 2 vectors
   NREBOOT  =      0    no. of reboots
   NMIN     =      0    reboot dimension
   EREF     =   0.00    reference energy to select bands
   IMIX   =      4    mixing-type and parameters
     AMIX     =   0.40;   BMIX     =  1.00
     AMIX_MAG =   1.60;   BMIX_MAG =  1.00
     AMIN     =   0.10
     WC   =   100.;   INIMIX=   1;  MIXPRE=   1;  MAXMIX= -45

 Intra band minimization:
   WEIMIN = 0.0000     energy-eigenvalue tresh-hold
   EBREAK =  0.11E-08  absolut break condition
   DEPER  =   0.30     relativ break condition  

   TIME   =   0.40     timestep for ELM

  volume/ion in A,a.u.               =      82.73       558.30
  Fermi-wavevector in a.u.,A,eV,Ry     =   0.596398  1.127030  4.839472  0.355691
  Thomas-Fermi vector in A             =   1.646729
 
 Write flags
   LWAVE        =      F    write WAVECAR
   LDOWNSAMPLE  =      F    k-point downsampling of WAVECAR
   LCHARG       =      F    write CHGCAR
   LVTOT        =      F    write LOCPOT, total local potential
   LVHAR        =      F    write LOCPOT, Hartree potential only
   WRT_POTENTIAL= false  ! write potential to hdf5 file
   LELF         =      F    write electronic localiz. function (ELF)
   LORBIT       =      0    0 simple, 1 ext, 2 COOP (PROOUT), +10 PAW based schemes


 Python interface
   PLUGINS active      =      F    recompile with -DPLUGINS to activate
 
 Dipole corrections
   LMONO      =      F    monopole corrections only (constant potential shift)
   LDIPOL     =      F    correct potential (dipole corrections)
   IDIPOL     =      0    1-x, 2-y, 3-z, 4-all directions 
   EPSILON    =  1.0000000 bulk dielectric constant
   LVACPOTAV  =      F  vacuum potentials using an averaging scheme for the charge density
   VACPOTFLAT =  0.1000000 required flatness to determine vacuum potential
 
Coulomb truncation method
  LTRUNCATE          =      F  Coulomb kernel truncation to be used
  IDIMENSIONALITY    =      3  Dimensionality of cutoff (0 molecules / 2 surfaces)
  ISURFACE           =     -1  Direction of surface normal
  LCOARSEN           =      F  Coarsen the charge grid before padding, preferred

 
 Exchange correlation treatment:
   GGA     = PE    functional components
   XC_C    = 1    coefficients multiplying the functional components
   LIBXC   =     F    Libxc                    
   VOSKOWN =     0    Vosko Wilk Nusair interpolation
   LHFCALC =     F    Hartree Fock is set to
   LHFONE  =     F    Hartree Fock one center treatment
   AEXX    =    0.0000 exact exchange contribution

 Parameters of functionals:
   PE:
     No parameter
 
 Van der Waals corrections
   IVDW    =     0    specifies the selected vdW correction

 Linear response parameters
   LEPSILON=     F    determine dielectric tensor
   LRPA    =     F    only Hartree local field effects (RPA)
   LNABLA  =     F    use nabla operator in PAW spheres
   LVEL    =     F    velocity operator in full k-point grid
   CSHIFT  =0.1000    complex shift for real part using Kramers Kronig
   OMEGAMAX=  -1.0    maximum frequency
   DEG_THRESHOLD= 0.2000000E-02 threshold for treating states as degnerate
   RTIME   =   -0.100 relaxation time in fs
  (WPLASMAI=    0.000 imaginary part of plasma frequency in eV, 0.658/RTIME)
   DFIELD  = 0.0000000 0.0000000 0.0000000 field for delta impulse in time
 
  Optional k-point grid parameters
   LKPOINTS_OPT  =     F    use optional k-point grid
   KPOINTS_OPT_MODE=     1    mode for optional k-point grid
 
 Orbital magnetization related:
   ORBITALMAG=     F  switch on orbital magnetization
   LCHIMAG   =     F  perturbation theory with respect to B field
   DQ        =  0.001000  dq finite difference perturbation B field
   LLRAUG    =     F  two centre corrections for induced B field
   LBONE     =     F  B-component reconstruction in AE one-centre
   LVGVCALC  =     T  calculate vGv susceptibility
   LVGVAPPL  =     F  apply vGv susceptibility instead of pGv for G=0

 Random number generation:
   RANDOM_GENERATOR = DEFAULT
   PCG_SEED         = not used


--------------------------------------------------------------------------------------------------------


 Static calculation
 charge density and potential will be updated during run
 non-spin polarized calculation
 Variant of blocked Davidson
 Davidson routine will perform the subspace rotation
 perform sub-space diagonalisation
    after iterative eigenvector-optimisation
 modified Broyden-mixing scheme, WC =      100.0
 initial mixing is a Kerker type mixing with AMIX =  0.4000 and BMIX =      1.0000
 Hartree-type preconditioning will be used
 using additional bands            48
 real space projection scheme for non local part
 use partial core corrections
 calculate Harris-corrections to forces 
   (improved forces if not selfconsistent)
 use gradient corrections 
 use of overlap-Matrix (Vanderbilt PP)
 Gauss-broadening in eV      SIGMA  =   0.20


--------------------------------------------------------------------------------------------------------


  energy-cutoff  :      500.00
  volume of cell :     7611.37
      direct lattice vectors                 reciprocal lattice vectors
    28.050000000  0.000000000  0.000000000     0.035650624  0.000000000  0.000000000
     0.000000000  8.100000000  0.000000000     0.000000000  0.123456790  0.000000000
     0.000000000  0.000000000 33.500000000     0.000000000  0.000000000  0.029850746

  length of vectors
    28.050000000  8.100000000 33.500000000     0.035650624  0.123456790  0.029850746


 
 k-points in units of 2pi/SCALE and weight: K-Spacing Value to Generate K-Mesh: 0.03
   0.00000000  0.00000000  0.00000000       0.250
   0.00000000  0.03086420  0.00000000       0.500
   0.00000000  0.06172840  0.00000000       0.250
 
 k-points in reciprocal lattice and weights: K-Spacing Value to Generate K-Mesh: 0.03
   0.00000000  0.00000000  0.00000000       0.250
   0.00000000  0.25000000  0.00000000       0.500
   0.00000000  0.50000000  0.00000000       0.250
 
 position of ions in fractional coordinates (direct lattice) 
   0.00830963  0.10061975  0.53165075
   0.00609615  0.27361481  0.53031642
   0.04922103  0.02240210  0.54074328
   0.04724528  0.35770247  0.53508657
   0.09273725  0.10815506  0.53989552
   0.09265597  0.27617284  0.53726269
   0.13577932  0.01951840  0.53932239
   0.13605134  0.35272099  0.53774925
   0.18008128  0.09851420  0.52977313
   0.18067166  0.27230494  0.52991343
   0.22280677  0.01984630  0.52429552
   0.22349911  0.35455062  0.52812836
   0.26601604  0.10815951  0.51316418
   0.26669697  0.27398025  0.51611045
   0.30834046  0.02536815  0.50766269
   0.30697255  0.36356667  0.50946269
   0.35317219  0.11142296  0.50014627
   0.34988128  0.27573457  0.49794328
   0.39432442  0.02749259  0.48874328
   0.39425668  0.35973827  0.48912239
   0.43789661  0.10598494  0.47660000
   0.43575758  0.27616914  0.47413731
   0.48049554  0.02636148  0.46675522
   0.48044920  0.35216914  0.46830149
   0.52372549  0.10076494  0.45661194
   0.52405704  0.27164691  0.45844179
   0.56785740  0.01991741  0.44983881
   0.56836364  0.34731605  0.45572537
   0.61167201  0.10020383  0.44777612
   0.61247415  0.26643457  0.44759104
   0.65781105  0.01630679  0.45092537
   0.65790731  0.35207037  0.45146866
   0.70368984  0.09840235  0.45490448
   0.70426025  0.26410494  0.45473731
   0.74386096  0.01672506  0.46837015
   0.74547237  0.34939383  0.46586866
   0.78875223  0.10108481  0.47465970
   0.78776827  0.26877284  0.47562388
   0.83070588  0.02366481  0.48801194
   0.83100891  0.35545432  0.48756119
   0.87428520  0.10685185  0.50003582
   0.87373619  0.27556420  0.49953433
   0.91265597  0.02251481  0.51647761
   0.91419608  0.35152222  0.51606567
   0.95547950  0.10427074  0.52420597
   0.95563636  0.27121111  0.52377612
   0.00373750  0.61090123  0.54159104
   0.00220733  0.78888889  0.54050448
   0.04608556  0.52532593  0.54544179
   0.04683601  0.85991358  0.54812537
   0.09325490  0.60268395  0.55028060
   0.09287986  0.77257037  0.55229851
   0.13501640  0.52136543  0.54304478
   0.13619037  0.85270247  0.54913433
   0.17991123  0.60065062  0.54174030
   0.18144670  0.77092346  0.54732537
   0.22363351  0.52486790  0.53401791
   0.22501034  0.85412593  0.53444776
   0.26723886  0.60454321  0.52974328
   0.26804421  0.77816667  0.52767463
   0.30921426  0.52797284  0.51544776
   0.30986845  0.85363580  0.51140299
   0.35146881  0.61134938  0.50620000
   0.35373048  0.77947531  0.50581493
   0.39511943  0.52125185  0.49728358
   0.39487344  0.85792222  0.49423582
   0.43973619  0.60190123  0.48922687
   0.43919073  0.76943457  0.48904478
   0.48102317  0.51550864  0.47837015
   0.48151159  0.85653951  0.47475821
   0.52519073  0.60542346  0.47230448
   0.52437433  0.77458642  0.46708060
   0.56948307  0.51668765  0.46460896
   0.56759358  0.85581975  0.45841791
   0.61310873  0.60202222  0.45987761
   0.61238503  0.77280988  0.45791642
   0.65704456  0.51743951  0.45811642
   0.65746881  0.84882963  0.45789254
   0.69978610  0.59939753  0.46993731
   0.69962567  0.76769259  0.47018806
   0.74328342  0.51730864  0.47274627
   0.74382175  0.84793333  0.47102985
   0.78652763  0.60025802  0.48054030
   0.78892335  0.77216667  0.47936716
   0.82754011  0.52560123  0.49435821
   0.82936898  0.85730988  0.49540000
   0.87028520  0.60086667  0.50979104
   0.86920499  0.77047037  0.51026866
   0.91358289  0.52108519  0.52201194
   0.91175758  0.85827901  0.52388955
   0.95388592  0.59682963  0.53794030
   0.95202139  0.78389753  0.53758806
 
 position of ions in cartesian coordinates  (Angst):
   0.23308500  0.81502000 17.81030000
   0.17099700  2.21628000 17.76560000
   1.38065000  0.18145700 18.11490000
   1.32523000  2.89739000 17.92540000
   2.60128000  0.87605600 18.08650000
   2.59900000  2.23700000 17.99830000
   3.80861000  0.15809900 18.06730000
   3.81624000  2.85704000 18.01460000
   5.05128000  0.79796500 17.74740000
   5.06784000  2.20567000 17.75210000
   6.24973000  0.16075500 17.56390000
   6.26915000  2.87186000 17.69230000
   7.46175000  0.87609200 17.19100000
   7.48085000  2.21924000 17.28970000
   8.64895000  0.20548200 17.00670000
   8.61058000  2.94489000 17.06700000
   9.90648000  0.90252600 16.75490000
   9.81417000  2.23345000 16.68110000
  11.06080000  0.22269000 16.37290000
  11.05890000  2.91388000 16.38560000
  12.28300000  0.85847800 15.96610000
  12.22300000  2.23697000 15.88360000
  13.47790000  0.21352800 15.63630000
  13.47660000  2.85257000 15.68810000
  14.69050000  0.81619600 15.29650000
  14.69980000  2.20034000 15.35780000
  15.92840000  0.16133100 15.06960000
  15.94260000  2.81326000 15.26680000
  17.15740000  0.81165100 15.00050000
  17.17990000  2.15812000 14.99430000
  18.45160000  0.13208500 15.10600000
  18.45430000  2.85177000 15.12420000
  19.73850000  0.79705900 15.23930000
  19.75450000  2.13925000 15.23370000
  20.86530000  0.13547300 15.69040000
  20.91050000  2.83009000 15.60660000
  22.12450000  0.81878700 15.90110000
  22.09690000  2.17706000 15.93340000
  23.30130000  0.19168500 16.34840000
  23.30980000  2.87918000 16.33330000
  24.52370000  0.86550000 16.75120000
  24.50830000  2.23207000 16.73440000
  25.60000000  0.18237000 17.30200000
  25.64320000  2.84733000 17.28820000
  26.80120000  0.84459300 17.56090000
  26.80560000  2.19681000 17.54650000
   0.10483700  4.94830000 18.14330000
   0.06191560  6.39000000 18.10690000
   1.29270000  4.25514000 18.27230000
   1.31375000  6.96530000 18.36220000
   2.61580000  4.88174000 18.43440000
   2.60528000  6.25782000 18.50200000
   3.78721000  4.22306000 18.19200000
   3.82014000  6.90689000 18.39600000
   5.04651000  4.86527000 18.14830000
   5.08958000  6.24448000 18.33540000
   6.27292000  4.25143000 17.88960000
   6.31154000  6.91842000 17.90400000
   7.49605000  4.89680000 17.74640000
   7.51864000  6.30315000 17.67710000
   8.67346000  4.27658000 17.26750000
   8.69181000  6.91445000 17.13200000
   9.85870000  4.95193000 16.95770000
   9.92214000  6.31375000 16.94480000
  11.08310000  4.22214000 16.65900000
  11.07620000  6.94917000 16.55690000
  12.33460000  4.87540000 16.38910000
  12.31930000  6.23242000 16.38300000
  13.49270000  4.17562000 16.02540000
  13.50640000  6.93797000 15.90440000
  14.73160000  4.90393000 15.82220000
  14.70870000  6.27415000 15.64720000
  15.97400000  4.18517000 15.56440000
  15.92100000  6.93214000 15.35700000
  17.19770000  4.87638000 15.40590000
  17.17740000  6.25976000 15.34020000
  18.43010000  4.19126000 15.34690000
  18.44200000  6.87552000 15.33940000
  19.62900000  4.85512000 15.74290000
  19.62450000  6.21831000 15.75130000
  20.84910000  4.19020000 15.83700000
  20.86420000  6.86826000 15.77950000
  22.06210000  4.86209000 16.09810000
  22.12930000  6.25455000 16.05880000
  23.21250000  4.25737000 16.56100000
  23.26380000  6.94421000 16.59590000
  24.41150000  4.86702000 17.07800000
  24.38120000  6.24081000 17.09400000
  25.62600000  4.22079000 17.48740000
  25.57480000  6.95206000 17.55030000
  26.75650000  4.83432000 18.02100000
  26.70420000  6.34957000 18.00920000
 


--------------------------------------------------------------------------------------------------------


 k-point     1 :   0.0000 0.0000 0.0000  plane waves:  193173
 k-point     2 :   0.0000 0.2500 0.0000  plane waves:  193166
 k-point     3 :   0.0000 0.5000 0.0000  plane waves:  193226

 maximum and minimum number of plane-waves per node :    193226   193166

 maximum number of plane-waves:    193226
 maximum index in each direction: 
   IXMAX=   51   IYMAX=   14   IZMAX=   61
   IXMIN=  -51   IYMIN=  -15   IZMIN=  -61


 serial   3D FFT for wavefunctions
 parallel 3D FFT for charge:
    minimum data exchange during FFTs selected (reduces bandwidth)


 total amount of memory used by VASP MPI-rank0  2294514. kBytes
=======================================================================

   base                                    :      30000. kBytes
   nonlr-proj                              :      15080. kBytes
   fftplans                                :     436558. kBytes
   grid                                    :     732614. kBytes
   one-center                              :        282. kBytes
   wavefun                                 :    1079980. kBytes
 
     INWAV:  cpu time      0.0000: real time      0.0000
 Broyden mixing: mesh for mixing (old mesh)
   NGX =103   NGY = 29   NGZ =123
  (NGX  =420   NGY  =120   NGZ  =500)
  gives a total of 367401 points

 initial charge density was supplied:
 charge density of overlapping atoms calculated
 number of electron     368.0000000 magnetization 
 keeping initial charge density in first step


--------------------------------------------------------------------------------------------------------


 Maximum index for non-local projection operator          1872
 Maximum index for augmentation-charges          2388 (set IRDMAX)


--------------------------------------------------------------------------------------------------------


 First call to EWALD:  gamma=   0.090
 Maximum number of real-space cells   2x   6x   2
 Maximum number of reciprocal cells   4x   1x   4

    FEWALD:  cpu time      0.1616: real time      0.1617


--------------------------------------- Ionic step        1  -------------------------------------------




--------------------------------------- Iteration      1(   1)  ---------------------------------------


    POTLOK:  cpu time      0.4189: real time      0.4342
    SETDIJ:  cpu time      0.0415: real time      0.0415
     EDDAV:  cpu time     11.2024: real time     11.2090
       DOS:  cpu time      0.0008: real time      0.0008
    --------------------------------------------
      LOOP:  cpu time     11.6636: real time     11.6855

 eigenvalue-minimisations  :  1736
 total energy-change (2. order) : 0.3633448E+04  (-0.1198448E+05)
 number of electron     368.0000000 magnetization 
 augmentation part      368.0000000 magnetization 

 Free energy of the ion-electron system (eV)
  ---------------------------------------------------
  alpha Z        PSCENC =        91.34886789
  Ewald energy   TEWEN  =    120115.56535026
  -Hartree energ DENC   =   -129428.56608438
  -exchange      EXHF   =         0.00000000
  -V(xc)+E(xc)   XCENC  =      1222.28185106
  PAW double counting   =      9984.02826696   -10036.41360137
  entropy T*S    EENTRO =        -0.84039044
  eigenvalues    EBANDS =     -1851.61150784
  atomic energy  EATOM  =     13537.65479391
  Solvation  Ediel_sol  =         0.00000000
  ---------------------------------------------------
  free energy    TOTEN  =      3633.44754605 eV

  energy without entropy =     3634.28793648  energy(sigma->0) =     3633.86774126


--------------------------------------------------------------------------------------------------------




--------------------------------------- Iteration      1(   2)  ---------------------------------------


     EDDAV:  cpu time     13.0972: real time     13.1019
       DOS:  cpu time      0.0007: real time      0.0007
    --------------------------------------------
      LOOP:  cpu time     13.0979: real time     13.1026

 eigenvalue-minimisations  :  2136
 total energy-change (2. order) :-0.3460770E+04  (-0.3200433E+04)
 number of electron     368.0000000 magnetization 
 augmentation part      368.0000000 magnetization 

 Free energy of the ion-electron system (eV)
  ---------------------------------------------------
  alpha Z        PSCENC =        91.34886789
  Ewald energy   TEWEN  =    120115.56535026
  -Hartree energ DENC   =   -129428.56608438
  -exchange      EXHF   =         0.00000000
  -V(xc)+E(xc)   XCENC  =      1222.28185106
  PAW double counting   =      9984.02826696   -10036.41360137
  entropy T*S    EENTRO =        -0.22134520
  eigenvalues    EBANDS =     -5313.00069688
  atomic energy  EATOM  =     13537.65479391
  Solvation  Ediel_sol  =         0.00000000
  ---------------------------------------------------
  free energy    TOTEN  =       172.67740223 eV

  energy without entropy =      172.89874744  energy(sigma->0) =      172.78807484


--------------------------------------------------------------------------------------------------------




--------------------------------------- Iteration      1(   3)  ---------------------------------------


     EDDAV:  cpu time     11.3284: real time     11.3324
       DOS:  cpu time      0.0007: real time      0.0007
    --------------------------------------------
      LOOP:  cpu time     11.3290: real time     11.3331

 eigenvalue-minimisations  :  1792
 total energy-change (2. order) :-0.1007055E+04  (-0.9828474E+03)
 number of electron     368.0000000 magnetization 
 augmentation part      368.0000000 magnetization 

 Free energy of the ion-electron system (eV)
  ---------------------------------------------------
  alpha Z        PSCENC =        91.34886789
  Ewald energy   TEWEN  =    120115.56535026
  -Hartree energ DENC   =   -129428.56608438
  -exchange      EXHF   =         0.00000000
  -V(xc)+E(xc)   XCENC  =      1222.28185106
  PAW double counting   =      9984.02826696   -10036.41360137
  entropy T*S    EENTRO =        -0.04266353
  eigenvalues    EBANDS =     -6320.23448673
  atomic energy  EATOM  =     13537.65479391
  Solvation  Ediel_sol  =         0.00000000
  ---------------------------------------------------
  free energy    TOTEN  =      -834.37770594 eV

  energy without entropy =     -834.33504241  energy(sigma->0) =     -834.35637417


--------------------------------------------------------------------------------------------------------




--------------------------------------- Iteration      1(   4)  ---------------------------------------


     EDDAV:  cpu time     10.9994: real time     11.0033
       DOS:  cpu time      0.0006: real time      0.0006
    --------------------------------------------
      LOOP:  cpu time     11.0001: real time     11.0039

 eigenvalue-minimisations  :  1728
 total energy-change (2. order) :-0.6188824E+02  (-0.6080451E+02)
 number of electron     368.0000000 magnetization 
 augmentation part      368.0000000 magnetization 

 Free energy of the ion-electron system (eV)
  ---------------------------------------------------
  alpha Z        PSCENC =        91.34886789
  Ewald energy   TEWEN  =    120115.56535026
  -Hartree energ DENC   =   -129428.56608438
  -exchange      EXHF   =         0.00000000
  -V(xc)+E(xc)   XCENC  =      1222.28185106
  PAW double counting   =      9984.02826696   -10036.41360137
  entropy T*S    EENTRO =        -0.09111321
  eigenvalues    EBANDS =     -6382.07427884
  atomic energy  EATOM  =     13537.65479391
  Solvation  Ediel_sol  =         0.00000000
  ---------------------------------------------------
  free energy    TOTEN  =      -896.26594773 eV

  energy without entropy =     -896.17483451  energy(sigma->0) =     -896.22039112


--------------------------------------------------------------------------------------------------------




--------------------------------------- Iteration      1(   5)  ---------------------------------------


     EDDAV:  cpu time     11.1768: real time     11.1822
       DOS:  cpu time      0.0007: real time      0.0007
    CHARGE:  cpu time      1.2098: real time      1.2121
    MIXING:  cpu time      0.2743: real time      0.2758
    --------------------------------------------
      LOOP:  cpu time     12.6616: real time     12.6708

 eigenvalue-minimisations  :  1768
 total energy-change (2. order) :-0.1521776E+01  (-0.1499337E+01)
 number of electron     368.0000009 magnetization 
 augmentation part       10.1910243 magnetization 

 Broyden mixing:
  rms(total) = 0.45735E+01    rms(broyden)= 0.45729E+01
  rms(prec ) = 0.46913E+01
  weight for this iteration     100.00

 Free energy of the ion-electron system (eV)
  ---------------------------------------------------
  alpha Z        PSCENC =        91.34886789
  Ewald energy   TEWEN  =    120115.56535026
  -Hartree energ DENC   =   -129428.56608438
  -exchange      EXHF   =         0.00000000
  -V(xc)+E(xc)   XCENC  =      1222.28185106
  PAW double counting   =      9984.02826696   -10036.41360137
  entropy T*S    EENTRO =        -0.09474695
  eigenvalues    EBANDS =     -6383.59242099
  atomic energy  EATOM  =     13537.65479391
  Solvation  Ediel_sol  =         0.00000000
  ---------------------------------------------------
  free energy    TOTEN  =      -897.78772362 eV

  energy without entropy =     -897.69297667  energy(sigma->0) =     -897.74035015


--------------------------------------------------------------------------------------------------------




--------------------------------------- Iteration      1(   6)  ---------------------------------------


    POTLOK:  cpu time      0.3200: real time      0.3201
    SETDIJ:  cpu time      0.0404: real time      0.0404
     EDDAV:  cpu time     10.2315: real time     10.2350
       DOS:  cpu time      0.0007: real time      0.0007
    CHARGE:  cpu time      1.1609: real time      1.1614
    MIXING:  cpu time      0.2770: real time      0.2790
    --------------------------------------------
      LOOP:  cpu time     12.0306: real time     12.0365

 eigenvalue-minimisations  :  1576
 total energy-change (2. order) : 0.5011371E+02  (-0.4776285E+01)
 number of electron     368.0000008 magnetization 
 augmentation part        9.7630723 magnetization 

 Broyden mixing:
  rms(total) = 0.26865E+01    rms(broyden)= 0.26864E+01
  rms(prec ) = 0.27449E+01
  weight for this iteration     100.00

 eigenvalues of (default mixing * dielectric matrix)
  average eigenvalue GAMMA=   2.1815
  2.1815

 Free energy of the ion-electron system (eV)
  ---------------------------------------------------
  alpha Z        PSCENC =        91.34886789
  Ewald energy   TEWEN  =    120115.56535026
  -Hartree energ DENC   =   -130002.18057154
  -exchange      EXHF   =         0.00000000
  -V(xc)+E(xc)   XCENC  =      1245.72124202
  PAW double counting   =     19000.35169336   -19060.41857771
  entropy T*S    EENTRO =        -0.11332195
  eigenvalues    EBANDS =     -5775.60348884
  atomic energy  EATOM  =     13537.65479391
  Solvation  Ediel_sol  =         0.00000000
  ---------------------------------------------------
  free energy    TOTEN  =      -847.67401262 eV

  energy without entropy =     -847.56069067  energy(sigma->0) =     -847.61735164


--------------------------------------------------------------------------------------------------------




--------------------------------------- Iteration      1(   7)  ---------------------------------------


    POTLOK:  cpu time      0.3191: real time      0.3192
    SETDIJ:  cpu time      0.0403: real time      0.0402
     EDDAV:  cpu time     10.1443: real time     10.1501
       DOS:  cpu time      0.0007: real time      0.0007
    CHARGE:  cpu time      1.1536: real time      1.1549
    MIXING:  cpu time      0.2766: real time      0.2787
    --------------------------------------------
      LOOP:  cpu time     11.9347: real time     11.9439

 eigenvalue-minimisations  :  1560
 total energy-change (2. order) : 0.1869505E+02  (-0.6599564E+01)
 number of electron     368.0000008 magnetization 
 augmentation part        9.2051698 magnetization 

 Broyden mixing:
  rms(total) = 0.73829E+00    rms(broyden)= 0.73801E+00
  rms(prec ) = 0.74812E+00
  weight for this iteration     100.00

 eigenvalues of (default mixing * dielectric matrix)
  average eigenvalue GAMMA=   2.1681
  2.1681  2.1681

 Free energy of the ion-electron system (eV)
  ---------------------------------------------------
  alpha Z        PSCENC =        91.34886789
  Ewald energy   TEWEN  =    120115.56535026
  -Hartree energ DENC   =   -130771.61393943
  -exchange      EXHF   =         0.00000000
  -V(xc)+E(xc)   XCENC  =      1276.96952201
  PAW double counting   =     36761.04587549   -36828.07764532
  entropy T*S    EENTRO =        -0.12334186
  eigenvalues    EBANDS =     -5011.74844795
  atomic energy  EATOM  =     13537.65479391
  Solvation  Ediel_sol  =         0.00000000
  ---------------------------------------------------
  free energy    TOTEN  =      -828.97896500 eV

  energy without entropy =     -828.85562314  energy(sigma->0) =     -828.91729407


--------------------------------------------------------------------------------------------------------




--------------------------------------- Iteration      1(   8)  ---------------------------------------


    POTLOK:  cpu time      0.3189: real time      0.3188
    SETDIJ:  cpu time      0.0401: real time      0.0401
     EDDAV:  cpu time     10.3017: real time     10.3069
       DOS:  cpu time      0.0008: real time      0.0008
    CHARGE:  cpu time      1.1537: real time      1.1550
    MIXING:  cpu time      0.2804: real time      0.2813
    --------------------------------------------
      LOOP:  cpu time     12.0955: real time     12.1029

 eigenvalue-minimisations  :  1592
 total energy-change (2. order) : 0.2879396E+00  (-0.2380843E+00)
 number of electron     368.0000008 magnetization 
 augmentation part        9.1878411 magnetization 

 Broyden mixing:
  rms(total) = 0.11396E+00    rms(broyden)= 0.11392E+00
  rms(prec ) = 0.13538E+00
  weight for this iteration     100.00

 eigenvalues of (default mixing * dielectric matrix)
  average eigenvalue GAMMA=   1.8136
  1.0341  2.0245  2.3822

 Free energy of the ion-electron system (eV)
  ---------------------------------------------------
  alpha Z        PSCENC =        91.34886789
  Ewald energy   TEWEN  =    120115.56535026
  -Hartree energ DENC   =   -130865.49156570
  -exchange      EXHF   =         0.00000000
  -V(xc)+E(xc)   XCENC  =      1276.81182977
  PAW double counting   =     40959.85911595   -41024.30367663
  entropy T*S    EENTRO =        -0.11919137
  eigenvalues    EBANDS =     -4920.01654944
  atomic energy  EATOM  =     13537.65479391
  Solvation  Ediel_sol  =         0.00000000
  ---------------------------------------------------
  free energy    TOTEN  =      -828.69102537 eV

  energy without entropy =     -828.57183400  energy(sigma->0) =     -828.63142969


--------------------------------------------------------------------------------------------------------




--------------------------------------- Iteration      1(   9)  ---------------------------------------


    POTLOK:  cpu time      0.3191: real time      0.3190
    SETDIJ:  cpu time      0.0406: real time      0.0405
     EDDAV:  cpu time     10.5073: real time     10.5146
       DOS:  cpu time      0.0007: real time      0.0007
    CHARGE:  cpu time      1.1532: real time      1.1546
    MIXING:  cpu time      0.2857: real time      0.2859
    --------------------------------------------
      LOOP:  cpu time     12.3066: real time     12.3154

 eigenvalue-minimisations  :  1632
 total energy-change (2. order) : 0.1057258E+00  (-0.2558244E-01)
 number of electron     368.0000008 magnetization 
 augmentation part        9.1695910 magnetization 

 Broyden mixing:
  rms(total) = 0.58961E-01    rms(broyden)= 0.58950E-01
  rms(prec ) = 0.81547E-01
  weight for this iteration     100.00

 eigenvalues of (default mixing * dielectric matrix)
  average eigenvalue GAMMA=   1.6198
  2.2655  2.1038  1.2459  0.8639

 Free energy of the ion-electron system (eV)
  ---------------------------------------------------
  alpha Z        PSCENC =        91.34886789
  Ewald energy   TEWEN  =    120115.56535026
  -Hartree energ DENC   =   -130929.09646869
  -exchange      EXHF   =         0.00000000
  -V(xc)+E(xc)   XCENC  =      1277.99840611
  PAW double counting   =     41584.02258546   -41648.40736013
  entropy T*S    EENTRO =        -0.11845392
  eigenvalues    EBANDS =     -4857.55302042
  atomic energy  EATOM  =     13537.65479391
  Solvation  Ediel_sol  =         0.00000000
  ---------------------------------------------------
  free energy    TOTEN  =      -828.58529954 eV

  energy without entropy =     -828.46684561  energy(sigma->0) =     -828.52607258


--------------------------------------------------------------------------------------------------------




--------------------------------------- Iteration      1(  10)  ---------------------------------------


    POTLOK:  cpu time      0.3224: real time      0.3223
    SETDIJ:  cpu time      0.0402: real time      0.0402
     EDDAV:  cpu time     10.9463: real time     10.9504
       DOS:  cpu time      0.0007: real time      0.0007
    CHARGE:  cpu time      1.1537: real time      1.1570
    MIXING:  cpu time      0.2910: real time      0.2920
    --------------------------------------------
      LOOP:  cpu time     12.7543: real time     12.7628

 eigenvalue-minimisations  :  1720
 total energy-change (2. order) : 0.3773020E-01  (-0.5907081E-02)
 number of electron     368.0000008 magnetization 
 augmentation part        9.1567362 magnetization 

 Broyden mixing:
  rms(total) = 0.42619E-01    rms(broyden)= 0.42616E-01
  rms(prec ) = 0.62980E-01
  weight for this iteration     100.00

 eigenvalues of (default mixing * dielectric matrix)
  average eigenvalue GAMMA=   1.6143
  2.3095  2.3095  1.4503  1.1427  0.8595

 Free energy of the ion-electron system (eV)
  ---------------------------------------------------
  alpha Z        PSCENC =        91.34886789
  Ewald energy   TEWEN  =    120115.56535026
  -Hartree energ DENC   =   -130971.35580551
  -exchange      EXHF   =         0.00000000
  -V(xc)+E(xc)   XCENC  =      1278.44184451
  PAW double counting   =     41484.10890500   -41548.44760457
  entropy T*S    EENTRO =        -0.12020691
  eigenvalues    EBANDS =     -4815.74371391
  atomic energy  EATOM  =     13537.65479391
  Solvation  Ediel_sol  =         0.00000000
  ---------------------------------------------------
  free energy    TOTEN  =      -828.54756934 eV

  energy without entropy =     -828.42736243  energy(sigma->0) =     -828.48746589


--------------------------------------------------------------------------------------------------------




--------------------------------------- Iteration      1(  11)  ---------------------------------------


    POTLOK:  cpu time      0.3215: real time      0.3215
    SETDIJ:  cpu time      0.0402: real time      0.0402
     EDDAV:  cpu time     10.2939: real time     10.2978
       DOS:  cpu time      0.0007: real time      0.0007
    CHARGE:  cpu time      1.1674: real time      1.1676
    MIXING:  cpu time      0.2996: real time      0.2995
    --------------------------------------------
      LOOP:  cpu time     12.1233: real time     12.1274

 eigenvalue-minimisations  :  1592
 total energy-change (2. order) : 0.3483962E-01  (-0.2244466E-02)
 number of electron     368.0000008 magnetization 
 augmentation part        9.1525679 magnetization 

 Broyden mixing:
  rms(total) = 0.26524E-01    rms(broyden)= 0.26521E-01
  rms(prec ) = 0.42699E-01
  weight for this iteration     100.00

 eigenvalues of (default mixing * dielectric matrix)
  average eigenvalue GAMMA=   1.6919
  2.6755  2.6755  1.8495  1.0345  0.9582  0.9582

 Free energy of the ion-electron system (eV)
  ---------------------------------------------------
  alpha Z        PSCENC =        91.34886789
  Ewald energy   TEWEN  =    120115.56535026
  -Hartree energ DENC   =   -131032.06990965
  -exchange      EXHF   =         0.00000000
  -V(xc)+E(xc)   XCENC  =      1278.91466949
  PAW double counting   =     41353.93471576   -41418.14643730
  entropy T*S    EENTRO =        -0.12049560
  eigenvalues    EBANDS =     -4755.59428447
  atomic energy  EATOM  =     13537.65479391
  Solvation  Ediel_sol  =         0.00000000
  ---------------------------------------------------
  free energy    TOTEN  =      -828.51272972 eV

  energy without entropy =     -828.39223412  energy(sigma->0) =     -828.45248192


--------------------------------------------------------------------------------------------------------




--------------------------------------- Iteration      1(  12)  ---------------------------------------


    POTLOK:  cpu time      0.3215: real time      0.3216
    SETDIJ:  cpu time      0.0405: real time      0.0405
     EDDAV:  cpu time     10.1272: real time     10.1325
       DOS:  cpu time      0.0007: real time      0.0007
    CHARGE:  cpu time      1.1537: real time      1.1552
    MIXING:  cpu time      0.3060: real time      0.3060
    --------------------------------------------
      LOOP:  cpu time     11.9497: real time     11.9565

 eigenvalue-minimisations  :  1560
 total energy-change (2. order) : 0.1034177E-01  (-0.2510738E-02)
 number of electron     368.0000008 magnetization 
 augmentation part        9.1457484 magnetization 

 Broyden mixing:
  rms(total) = 0.17036E-01    rms(broyden)= 0.17033E-01
  rms(prec ) = 0.26539E-01
  weight for this iteration     100.00

 eigenvalues of (default mixing * dielectric matrix)
  average eigenvalue GAMMA=   1.8756
  4.0443  2.2047  2.2047  1.7097  1.1392  0.9133  0.9133

 Free energy of the ion-electron system (eV)
  ---------------------------------------------------
  alpha Z        PSCENC =        91.34886789
  Ewald energy   TEWEN  =    120115.56535026
  -Hartree energ DENC   =   -131101.49620683
  -exchange      EXHF   =         0.00000000
  -V(xc)+E(xc)   XCENC  =      1279.56610662
  PAW double counting   =     41359.33126408   -41423.49315935
  entropy T*S    EENTRO =        -0.12016210
  eigenvalues    EBANDS =     -4686.85924243
  atomic energy  EATOM  =     13537.65479391
  Solvation  Ediel_sol  =         0.00000000
  ---------------------------------------------------
  free energy    TOTEN  =      -828.50238794 eV

  energy without entropy =     -828.38222584  energy(sigma->0) =     -828.44230689


--------------------------------------------------------------------------------------------------------




--------------------------------------- Iteration      1(  13)  ---------------------------------------


    POTLOK:  cpu time      0.3214: real time      0.3215
    SETDIJ:  cpu time      0.0405: real time      0.0405
     EDDAV:  cpu time     10.0064: real time     10.0116
       DOS:  cpu time      0.0007: real time      0.0007
    CHARGE:  cpu time      1.1536: real time      1.1567
    MIXING:  cpu time      0.3145: real time      0.3146
    --------------------------------------------
      LOOP:  cpu time     11.8372: real time     11.8456

 eigenvalue-minimisations  :  1536
 total energy-change (2. order) :-0.9371593E-02  (-0.1154104E-02)
 number of electron     368.0000008 magnetization 
 augmentation part        9.1412771 magnetization 

 Broyden mixing:
  rms(total) = 0.99094E-02    rms(broyden)= 0.99064E-02
  rms(prec ) = 0.14680E-01
  weight for this iteration     100.00

 eigenvalues of (default mixing * dielectric matrix)
  average eigenvalue GAMMA=   2.0041
  5.1905  2.5956  1.9992  1.9992  1.2242  1.2242  0.8997  0.8997

 Free energy of the ion-electron system (eV)
  ---------------------------------------------------
  alpha Z        PSCENC =        91.34886789
  Ewald energy   TEWEN  =    120115.56535026
  -Hartree energ DENC   =   -131156.78640402
  -exchange      EXHF   =         0.00000000
  -V(xc)+E(xc)   XCENC  =      1279.91512631
  PAW double counting   =     41370.17023498   -41434.33040144
  entropy T*S    EENTRO =        -0.12020017
  eigenvalues    EBANDS =     -4631.92912726
  atomic energy  EATOM  =     13537.65479391
  Solvation  Ediel_sol  =         0.00000000
  ---------------------------------------------------
  free energy    TOTEN  =      -828.51175954 eV

  energy without entropy =     -828.39155937  energy(sigma->0) =     -828.45165945


--------------------------------------------------------------------------------------------------------




--------------------------------------- Iteration      1(  14)  ---------------------------------------


    POTLOK:  cpu time      0.3222: real time      0.3222
    SETDIJ:  cpu time      0.0401: real time      0.0401
     EDDAV:  cpu time     10.2493: real time     10.2545
       DOS:  cpu time      0.0008: real time      0.0008
    CHARGE:  cpu time      1.1547: real time      1.1565
    MIXING:  cpu time      0.3213: real time      0.3216
    --------------------------------------------
      LOOP:  cpu time     12.0884: real time     12.0957

 eigenvalue-minimisations  :  1584
 total energy-change (2. order) :-0.1455565E-01  (-0.1839337E-03)
 number of electron     368.0000008 magnetization 
 augmentation part        9.1408533 magnetization 

 Broyden mixing:
  rms(total) = 0.64328E-02    rms(broyden)= 0.64324E-02
  rms(prec ) = 0.90350E-02
  weight for this iteration     100.00

 eigenvalues of (default mixing * dielectric matrix)
  average eigenvalue GAMMA=   2.0772
  5.9838  2.5786  2.5786  1.9743  1.3890  1.3890  1.0174  0.8920  0.8920

 Free energy of the ion-electron system (eV)
  ---------------------------------------------------
  alpha Z        PSCENC =        91.34886789
  Ewald energy   TEWEN  =    120115.56535026
  -Hartree energ DENC   =   -131179.21712564
  -exchange      EXHF   =         0.00000000
  -V(xc)+E(xc)   XCENC  =      1279.91009550
  PAW double counting   =     41305.68689648   -41369.85066219
  entropy T*S    EENTRO =        -0.12021290
  eigenvalues    EBANDS =     -4609.50431849
  atomic energy  EATOM  =     13537.65479391
  Solvation  Ediel_sol  =         0.00000000
  ---------------------------------------------------
  free energy    TOTEN  =      -828.52631519 eV

  energy without entropy =     -828.40610229  energy(sigma->0) =     -828.46620874


--------------------------------------------------------------------------------------------------------




--------------------------------------- Iteration      1(  15)  ---------------------------------------


    POTLOK:  cpu time      0.3222: real time      0.3223
    SETDIJ:  cpu time      0.0401: real time      0.0401
     EDDAV:  cpu time     10.3318: real time     10.3384
       DOS:  cpu time      0.0007: real time      0.0008
    CHARGE:  cpu time      1.1543: real time      1.1570
    MIXING:  cpu time      0.3316: real time      0.3315
    --------------------------------------------
      LOOP:  cpu time     12.1807: real time     12.1900

 eigenvalue-minimisations  :  1600
 total energy-change (2. order) :-0.1790425E-01  (-0.1228815E-03)
 number of electron     368.0000008 magnetization 
 augmentation part        9.1399841 magnetization 

 Broyden mixing:
  rms(total) = 0.37729E-02    rms(broyden)= 0.37725E-02
  rms(prec ) = 0.53298E-02
  weight for this iteration     100.00

 eigenvalues of (default mixing * dielectric matrix)
  average eigenvalue GAMMA=   2.1715
  7.0617  3.2734  2.3331  1.7875  1.7875  1.3534  1.3534  0.8925  0.8925  0.9804

 Free energy of the ion-electron system (eV)
  ---------------------------------------------------
  alpha Z        PSCENC =        91.34886789
  Ewald energy   TEWEN  =    120115.56535026
  -Hartree energ DENC   =   -131191.59052600
  -exchange      EXHF   =         0.00000000
  -V(xc)+E(xc)   XCENC  =      1279.93077676
  PAW double counting   =     41344.81361732   -41408.98157353
  entropy T*S    EENTRO =        -0.12028894
  eigenvalues    EBANDS =     -4597.16523711
  atomic energy  EATOM  =     13537.65479391
  Solvation  Ediel_sol  =         0.00000000
  ---------------------------------------------------
  free energy    TOTEN  =      -828.54421944 eV

  energy without entropy =     -828.42393050  energy(sigma->0) =     -828.48407497


--------------------------------------------------------------------------------------------------------




--------------------------------------- Iteration      1(  16)  ---------------------------------------


    POTLOK:  cpu time      0.3219: real time      0.3219
    SETDIJ:  cpu time      0.0405: real time      0.0405
     EDDAV:  cpu time     10.3807: real time     10.3843
       DOS:  cpu time      0.0008: real time      0.0008
    CHARGE:  cpu time      1.1667: real time      1.1676
    MIXING:  cpu time      0.3385: real time      0.3402
    --------------------------------------------
      LOOP:  cpu time     12.2491: real time     12.2552

 eigenvalue-minimisations  :  1608
 total energy-change (2. order) :-0.1275531E-01  (-0.7568304E-04)
 number of electron     368.0000008 magnetization 
 augmentation part        9.1397542 magnetization 

 Broyden mixing:
  rms(total) = 0.23717E-02    rms(broyden)= 0.23716E-02
  rms(prec ) = 0.31256E-02
  weight for this iteration     100.00

 eigenvalues of (default mixing * dielectric matrix)
  average eigenvalue GAMMA=   2.2594
  7.6679  3.8133  2.4590  2.4590  1.8774  1.3876  1.3876  0.8916  0.8916  1.0646
  0.9536

 Free energy of the ion-electron system (eV)
  ---------------------------------------------------
  alpha Z        PSCENC =        91.34886789
  Ewald energy   TEWEN  =    120115.56535026
  -Hartree energ DENC   =   -131198.02622439
  -exchange      EXHF   =         0.00000000
  -V(xc)+E(xc)   XCENC  =      1279.91120694
  PAW double counting   =     41325.59318776   -41389.76674834
  entropy T*S    EENTRO =        -0.12027763
  eigenvalues    EBANDS =     -4590.71713112
  atomic energy  EATOM  =     13537.65479391
  Solvation  Ediel_sol  =         0.00000000
  ---------------------------------------------------
  free energy    TOTEN  =      -828.55697474 eV

  energy without entropy =     -828.43669711  energy(sigma->0) =     -828.49683593


--------------------------------------------------------------------------------------------------------




--------------------------------------- Iteration      1(  17)  ---------------------------------------


    POTLOK:  cpu time      0.3223: real time      0.3223
    SETDIJ:  cpu time      0.0403: real time      0.0403
     EDDAV:  cpu time     10.0938: real time     10.0973
       DOS:  cpu time      0.0008: real time      0.0008
    CHARGE:  cpu time      1.1550: real time      1.1562
    MIXING:  cpu time      0.3498: real time      0.3513
    --------------------------------------------
      LOOP:  cpu time     11.9620: real time     11.9682

 eigenvalue-minimisations  :  1552
 total energy-change (2. order) :-0.7423467E-02  (-0.5397207E-04)
 number of electron     368.0000008 magnetization 
 augmentation part        9.1398089 magnetization 

 Broyden mixing:
  rms(total) = 0.10967E-02    rms(broyden)= 0.10967E-02
  rms(prec ) = 0.15055E-02
  weight for this iteration     100.00

 eigenvalues of (default mixing * dielectric matrix)
  average eigenvalue GAMMA=   2.3110
  8.3423  4.5758  2.5966  2.2301  1.9986  1.4533  1.4533  1.3124  0.8920  0.8920
  1.0512  0.9342

 Free energy of the ion-electron system (eV)
  ---------------------------------------------------
  alpha Z        PSCENC =        91.34886789
  Ewald energy   TEWEN  =    120115.56535026
  -Hartree energ DENC   =   -131200.49866795
  -exchange      EXHF   =         0.00000000
  -V(xc)+E(xc)   XCENC  =      1279.89835813
  PAW double counting   =     41331.78852604   -41395.95310032
  entropy T*S    EENTRO =        -0.12029101
  eigenvalues    EBANDS =     -4588.24823516
  atomic energy  EATOM  =     13537.65479391
  Solvation  Ediel_sol  =         0.00000000
  ---------------------------------------------------
  free energy    TOTEN  =      -828.56439821 eV

  energy without entropy =     -828.44410720  energy(sigma->0) =     -828.50425271


--------------------------------------------------------------------------------------------------------




--------------------------------------- Iteration      1(  18)  ---------------------------------------


    POTLOK:  cpu time      0.3222: real time      0.3222
    SETDIJ:  cpu time      0.0400: real time      0.0400
     EDDAV:  cpu time      9.9884: real time      9.9919
       DOS:  cpu time      0.0007: real time      0.0007
    CHARGE:  cpu time      1.1550: real time      1.1568
    MIXING:  cpu time      0.3628: real time      0.3629
    --------------------------------------------
      LOOP:  cpu time     11.8691: real time     11.8745

 eigenvalue-minimisations  :  1528
 total energy-change (2. order) :-0.2412782E-02  (-0.1166372E-04)
 number of electron     368.0000008 magnetization 
 augmentation part        9.1396824 magnetization 

 Broyden mixing:
  rms(total) = 0.75735E-03    rms(broyden)= 0.75731E-03
  rms(prec ) = 0.96362E-03
  weight for this iteration     100.00

 eigenvalues of (default mixing * dielectric matrix)
  average eigenvalue GAMMA=   2.3864
  8.8748  5.0680  2.9098  2.4837  2.0421  2.0421  1.3475  1.3475  0.8927  0.8927
  1.0978  1.0123  1.0123

 Free energy of the ion-electron system (eV)
  ---------------------------------------------------
  alpha Z        PSCENC =        91.34886789
  Ewald energy   TEWEN  =    120115.56535026
  -Hartree energ DENC   =   -131201.79755071
  -exchange      EXHF   =         0.00000000
  -V(xc)+E(xc)   XCENC  =      1279.90011355
  PAW double counting   =     41337.08550496   -41401.25014467
  entropy T*S    EENTRO =        -0.12028216
  eigenvalues    EBANDS =     -4586.95346402
  atomic energy  EATOM  =     13537.65479391
  Solvation  Ediel_sol  =         0.00000000
  ---------------------------------------------------
  free energy    TOTEN  =      -828.56681099 eV

  energy without entropy =     -828.44652884  energy(sigma->0) =     -828.50666991


--------------------------------------------------------------------------------------------------------




--------------------------------------- Iteration      1(  19)  ---------------------------------------


    POTLOK:  cpu time      0.3199: real time      0.3199
    SETDIJ:  cpu time      0.0405: real time      0.0406
     EDDAV:  cpu time      9.0285: real time      9.0317
       DOS:  cpu time      0.0008: real time      0.0008
    CHARGE:  cpu time      1.1552: real time      1.1584
    MIXING:  cpu time      0.3725: real time      0.3724
    --------------------------------------------
      LOOP:  cpu time     10.9173: real time     10.9236

 eigenvalue-minimisations  :  1336
 total energy-change (2. order) :-0.1455438E-02  (-0.5508954E-05)
 number of electron     368.0000008 magnetization 
 augmentation part        9.1396850 magnetization 

 Broyden mixing:
  rms(total) = 0.33353E-03    rms(broyden)= 0.33351E-03
  rms(prec ) = 0.43242E-03
  weight for this iteration     100.00

 eigenvalues of (default mixing * dielectric matrix)
  average eigenvalue GAMMA=   2.3809
  8.9218  5.5895  3.1570  2.4074  2.1061  2.1061  1.3536  1.3536  1.4256  1.2207
  0.8943  0.8943  0.9511  0.9511

 Free energy of the ion-electron system (eV)
  ---------------------------------------------------
  alpha Z        PSCENC =        91.34886789
  Ewald energy   TEWEN  =    120115.56535026
  -Hartree energ DENC   =   -131202.20027486
  -exchange      EXHF   =         0.00000000
  -V(xc)+E(xc)   XCENC  =      1279.89699655
  PAW double counting   =     41332.35434255   -41396.51905629
  entropy T*S    EENTRO =        -0.12028806
  eigenvalues    EBANDS =     -4586.54899837
  atomic energy  EATOM  =     13537.65479391
  Solvation  Ediel_sol  =         0.00000000
  ---------------------------------------------------
  free energy    TOTEN  =      -828.56826643 eV

  energy without entropy =     -828.44797837  energy(sigma->0) =     -828.50812240


--------------------------------------------------------------------------------------------------------




--------------------------------------- Iteration      1(  20)  ---------------------------------------


    POTLOK:  cpu time      0.3226: real time      0.3226
    SETDIJ:  cpu time      0.0404: real time      0.0404
     EDDAV:  cpu time      9.2789: real time      9.2820
       DOS:  cpu time      0.0008: real time      0.0008
    CHARGE:  cpu time      1.1540: real time      1.1560
    MIXING:  cpu time      0.3819: real time      0.3849
    --------------------------------------------
      LOOP:  cpu time     11.1785: real time     11.1866

 eigenvalue-minimisations  :  1384
 total energy-change (2. order) :-0.3809048E-03  (-0.6524087E-06)
 number of electron     368.0000008 magnetization 
 augmentation part        9.1396728 magnetization 

 Broyden mixing:
  rms(total) = 0.19544E-03    rms(broyden)= 0.19543E-03
  rms(prec ) = 0.25347E-03
  weight for this iteration     100.00

 eigenvalues of (default mixing * dielectric matrix)
  average eigenvalue GAMMA=   2.4542
  9.2628  6.0446  3.9268  2.7068  2.4112  1.8739  1.8739  1.3226  1.3226  1.2524
  0.8947  0.8947  1.0989  0.9635  0.9635

 Free energy of the ion-electron system (eV)
  ---------------------------------------------------
  alpha Z        PSCENC =        91.34886789
  Ewald energy   TEWEN  =    120115.56535026
  -Hartree energ DENC   =   -131202.37499553
  -exchange      EXHF   =         0.00000000
  -V(xc)+E(xc)   XCENC  =      1279.89682871
  PAW double counting   =     41332.77514311   -41396.93986788
  entropy T*S    EENTRO =        -0.12028505
  eigenvalues    EBANDS =     -4586.37448274
  atomic energy  EATOM  =     13537.65479391
  Solvation  Ediel_sol  =         0.00000000
  ---------------------------------------------------
  free energy    TOTEN  =      -828.56864734 eV

  energy without entropy =     -828.44836228  energy(sigma->0) =     -828.50850481


--------------------------------------------------------------------------------------------------------




--------------------------------------- Iteration      1(  21)  ---------------------------------------


    POTLOK:  cpu time      0.3199: real time      0.3198
    SETDIJ:  cpu time      0.0404: real time      0.0404
     EDDAV:  cpu time      8.6725: real time      8.6759
       DOS:  cpu time      0.0007: real time      0.0007
    CHARGE:  cpu time      1.1676: real time      1.1678
    MIXING:  cpu time      0.3978: real time      0.3979
    --------------------------------------------
      LOOP:  cpu time     10.5989: real time     10.6025

 eigenvalue-minimisations  :  1264
 total energy-change (2. order) :-0.2489917E-03  (-0.3681494E-06)
 number of electron     368.0000008 magnetization 
 augmentation part        9.1396592 magnetization 

 Broyden mixing:
  rms(total) = 0.10004E-03    rms(broyden)= 0.10003E-03
  rms(prec ) = 0.12189E-03
  weight for this iteration     100.00

 eigenvalues of (default mixing * dielectric matrix)
  average eigenvalue GAMMA=   2.4308
  9.2779  6.2854  4.1187  2.7242  2.3412  2.0706  2.0706  1.3368  1.3368  1.3307
  1.3307  0.8951  0.8951  0.9448  0.9448  0.9890

 Free energy of the ion-electron system (eV)
  ---------------------------------------------------
  alpha Z        PSCENC =        91.34886789
  Ewald energy   TEWEN  =    120115.56535026
  -Hartree energ DENC   =   -131202.51033749
  -exchange      EXHF   =         0.00000000
  -V(xc)+E(xc)   XCENC  =      1279.89674608
  PAW double counting   =     41332.15801389   -41396.32348171
  entropy T*S    EENTRO =        -0.12028499
  eigenvalues    EBANDS =     -4586.23856415
  atomic energy  EATOM  =     13537.65479391
  Solvation  Ediel_sol  =         0.00000000
  ---------------------------------------------------
  free energy    TOTEN  =      -828.56889633 eV

  energy without entropy =     -828.44861133  energy(sigma->0) =     -828.50875383


[...]
   0.106E+02 -.212E+02 0.438E+02   -.109E+02 0.234E+02 -.445E+02   0.134E+01 0.670E+00 0.695E+00   0.318E-05 0.754E-06 -.119E-05
   0.232E+01 -.564E+01 0.560E+02   -.124E+01 0.546E+01 -.567E+02   0.775E+00 -.552E+00 0.107E+01   0.568E-05 -.222E-06 -.314E-05
   0.838E+01 0.171E+02 0.511E+02   -.909E+01 -.188E+02 -.511E+02   -.227E+00 -.607E+00 -.197E+00   0.554E-05 -.558E-07 -.200E-05
   0.186E+02 0.157E+02 0.772E+02   -.194E+02 -.155E+02 -.767E+02   -.110E+01 0.358E+00 -.107E+01   0.691E-05 0.639E-06 -.220E-05
   0.368E+02 -.145E+02 0.137E+03   -.375E+02 0.144E+02 -.138E+03   0.766E+00 -.180E+00 0.158E+01   0.581E-05 0.197E-06 -.196E-05
   0.257E+02 0.106E+01 0.126E+03   -.259E+02 -.224E+01 -.126E+03   -.119E+00 -.114E+01 0.118E+01   0.580E-05 -.129E-06 -.761E-06
   0.119E+02 0.620E+01 0.118E+03   -.119E+02 -.667E+01 -.119E+03   -.194E+00 0.792E+00 0.676E+00   0.395E-05 -.824E-06 -.967E-06
   0.196E+02 0.113E+02 0.164E+03   -.190E+02 -.107E+02 -.164E+03   -.478E+00 0.676E+00 -.484E+00   0.226E-05 0.770E-06 0.280E-05
   0.233E+02 -.175E+02 0.145E+03   -.237E+02 0.171E+02 -.146E+03   -.335E+00 -.317E+00 0.247E+00   0.302E-05 -.184E-05 0.164E-05
   0.166E+02 -.555E+01 0.213E+03   -.172E+02 0.572E+01 -.214E+03   -.522E+00 -.211E-01 0.185E+01   0.467E-06 0.150E-05 0.502E-05
   0.299E+01 -.255E+01 0.134E+03   -.228E+01 0.334E+01 -.134E+03   -.512E-01 0.112E+01 0.195E+00   0.142E-06 -.140E-05 0.191E-05
   -.131E+02 0.170E+02 0.194E+03   0.147E+02 -.181E+02 -.194E+03   0.840E+00 -.375E+00 -.846E+00   -.904E-06 -.160E-06 0.585E-05
   -.700E+01 -.251E+02 0.212E+03   0.779E+01 0.267E+02 -.213E+03   -.125E+00 0.694E+00 0.139E+01   -.100E-05 -.490E-06 0.535E-05
   -.986E+01 -.163E+02 0.186E+03   0.988E+01 0.169E+02 -.186E+03   0.617E-02 0.100E+00 0.210E+00   -.113E-05 -.689E-06 0.406E-05
   -.142E+02 0.173E+02 0.181E+03   0.148E+02 -.190E+02 -.180E+03   -.109E+00 -.493E+00 -.347E+00   -.174E-05 0.671E-07 0.405E-05
   -.114E+02 0.167E+02 0.186E+03   0.101E+02 -.182E+02 -.187E+03   -.110E+01 -.236E-01 0.940E+00   -.240E-05 -.676E-06 0.303E-05
   -.899E+01 -.209E+02 0.187E+03   0.758E+01 0.228E+02 -.187E+03   -.108E+01 0.122E+01 0.169E+00   -.121E-05 -.877E-07 0.339E-05
   -.202E+02 -.897E+01 0.708E+02   0.212E+02 0.896E+01 -.698E+02   0.122E+01 0.270E+00 -.184E+01   -.457E-05 -.744E-06 0.162E-06
   -.217E+02 0.676E+00 0.126E+03   0.216E+02 -.456E+00 -.126E+03   -.147E+00 0.136E+00 0.638E+00   -.355E-05 0.347E-06 0.551E-06
   -.266E+02 0.175E+02 0.116E+03   0.261E+02 -.185E+02 -.117E+03   -.205E+00 -.502E-01 0.121E+01   -.168E-05 -.581E-06 0.321E-06
   -.322E+02 -.150E+02 0.842E+02   0.335E+02 0.159E+02 -.838E+02   0.959E+00 0.414E+00 -.787E+00   -.162E-05 0.208E-05 0.298E-06
   -.270E+02 -.107E+02 0.696E+02   0.279E+02 0.116E+02 -.695E+02   0.203E+00 -.466E+00 0.916E+00   -.132E-05 -.498E-06 -.672E-06
   -.221E+02 0.702E+01 0.793E+02   0.214E+02 -.663E+01 -.796E+02   -.359E+00 -.481E+00 0.111E+01   -.124E-05 0.406E-06 -.159E-05
   -.845E+01 0.154E+02 0.479E+02   0.727E+01 -.158E+02 -.487E+02   -.108E+01 -.500E+00 0.990E-01   -.193E-05 0.249E-06 -.829E-06
   -.115E+02 -.192E+02 0.499E+02   0.111E+02 0.198E+02 -.503E+02   0.385E-01 -.613E+00 0.409E+00   -.168E-05 0.113E-05 -.598E-06
   0.877E-01 0.890E+00 -.481E+02   0.966E-01 -.496E+00 0.484E+02   0.132E+01 0.744E+00 -.321E+00   -.257E-05 -.796E-06 -.119E-05
   0.390E+01 -.863E+01 -.454E+02   -.489E+01 0.100E+02 0.454E+02   0.633E+00 0.448E+00 -.675E+00   -.205E-05 -.422E-06 -.109E-05
   -.598E+01 0.695E+02 -.555E+02   0.367E+01 -.715E+02 0.548E+02   0.138E+01 0.870E+00 0.399E+00   0.893E-05 0.113E-04 -.444E-07
   -.363E+01 -.669E+02 -.523E+02   0.119E+01 0.684E+02 0.515E+02   0.132E+01 -.181E+01 0.416E+00   0.884E-05 -.964E-05 0.497E-06
   0.123E+02 0.486E+02 -.129E+03   -.834E+01 -.479E+02 0.130E+03   -.124E+01 0.439E+00 0.308E+00   0.716E-06 0.653E-05 -.217E-05
   0.161E+02 -.540E+02 -.105E+03   -.122E+02 0.543E+02 0.105E+03   -.364E-02 -.353E+01 0.199E+01   0.292E-05 -.109E-04 -.124E-05
   0.201E+02 -.615E+00 -.163E+03   -.195E+02 0.474E+00 0.164E+03   0.680E+00 0.122E+00 -.162E+01   -.196E-06 0.339E-05 -.112E-05
   0.183E+02 0.204E+02 -.192E+03   -.177E+02 -.222E+02 0.193E+03   0.601E-01 -.536E+00 -.186E+01   -.274E-05 -.606E-05 -.185E-05
   0.238E+02 0.150E+02 -.195E+03   -.261E+02 -.148E+02 0.195E+03   -.117E+01 0.349E+00 -.863E+00   -.437E-05 -.238E-06 -.437E-05
   0.245E+02 -.120E+02 -.211E+03   -.262E+02 0.117E+02 0.211E+03   -.575E+00 0.759E-01 -.153E+00   -.304E-05 -.416E-05 -.465E-05
   -.301E+01 -.575E+01 -.109E+03   0.406E+01 0.528E+01 0.109E+03   0.130E+01 -.664E-01 0.841E+00   -.235E-05 0.142E-05 -.149E-05
   -.138E+02 -.704E+00 -.192E+03   0.148E+02 0.999E+00 0.192E+03   0.472E+00 0.708E+00 -.359E+00   -.124E-05 -.294E-05 -.313E-05
   -.623E+01 0.830E+01 -.128E+03   0.561E+01 -.772E+01 0.128E+03   0.590E+00 0.905E+00 0.861E+00   -.694E-05 0.803E-06 -.649E-06
   -.280E+02 -.180E+02 -.220E+03   0.283E+02 0.180E+02 0.221E+03   -.208E+00 0.438E+00 -.212E+01   -.699E-05 -.294E-05 -.191E-06
   -.112E+02 -.430E+01 -.111E+03   0.111E+02 0.361E+01 0.111E+03   0.338E+00 -.101E+01 0.415E+00   -.403E-05 -.564E-06 0.214E-06
   -.315E+01 0.415E+01 -.128E+03   0.179E+01 -.390E+01 0.128E+03   -.162E+00 0.667E+00 0.105E+00   -.462E-05 -.101E-05 0.115E-05
   -.285E+02 0.588E+01 -.151E+03   0.292E+02 -.486E+01 0.151E+03   0.293E+00 0.701E+00 -.138E+01   -.756E-06 -.930E-06 0.700E-06
   -.311E+02 -.112E+02 -.120E+03   0.322E+02 0.103E+02 0.120E+03   0.171E-01 -.120E+01 -.882E+00   0.583E-06 -.204E-05 0.405E-06
   -.144E+02 -.121E+02 -.597E+02   0.140E+02 0.134E+02 0.600E+02   -.200E+00 -.360E+00 0.169E+00   0.170E-05 -.128E-05 -.653E-06
   0.956E+01 0.830E+01 -.434E+01   -.108E+02 -.743E+01 0.384E+01   -.345E+00 0.146E+01 0.176E+01   0.233E-05 -.861E-07 -.902E-06
   -.158E+02 0.141E+02 -.331E+02   0.170E+02 -.150E+02 0.328E+02   0.116E+01 -.113E+01 0.712E+00   0.385E-05 -.637E-06 -.178E-05
   -.170E+02 -.990E+01 -.507E+02   0.172E+02 0.983E+01 0.517E+02   -.129E+01 -.113E+01 -.992E+00   0.427E-05 -.726E-06 -.176E-05
   -.786E+01 -.166E+02 -.537E+02   0.755E+01 0.185E+02 0.543E+02   0.381E+00 0.770E+00 -.127E+01   0.473E-05 -.814E-06 -.206E-05
   -.158E+02 0.530E+01 0.227E+01   0.175E+02 -.497E+01 -.305E+01   0.552E+00 -.207E+00 0.593E+00   0.489E-05 -.176E-06 -.327E-05
   -.907E+01 0.101E+02 -.392E+02   0.818E+01 -.112E+02 0.393E+02   -.405E+00 0.172E+00 0.541E+00   0.534E-05 -.916E-06 -.401E-05
   -.148E+02 -.211E+02 -.438E+02   0.152E+02 0.229E+02 0.440E+02   0.194E+00 0.116E+01 -.137E+01   0.612E-05 0.682E-06 -.407E-05
   -.107E+02 -.827E+01 -.455E+01   0.119E+02 0.894E+01 0.453E+01   0.703E+00 0.141E+01 -.513E+00   0.355E-05 -.410E-06 -.324E-05
   0.174E+02 0.746E+01 0.320E+02   -.187E+02 -.724E+01 -.317E+02   0.695E-02 -.313E+00 -.397E+00   0.535E-05 0.845E-06 -.289E-05
   -.541E+01 0.131E+02 -.348E+01   0.556E+01 -.143E+02 0.381E+01   0.439E+00 -.854E+00 -.731E+00   0.145E-05 0.121E-05 -.239E-05
   0.823E+01 -.185E+01 0.744E+02   -.839E+01 0.170E+01 -.745E+02   0.526E+00 -.558E+00 0.117E+01   0.528E-06 0.292E-06 -.882E-06
   0.756E+01 -.337E+01 0.272E+02   -.823E+01 0.359E+01 -.271E+02   -.311E+00 0.475E+00 -.868E+00   0.801E-06 -.119E-05 -.260E-06
   0.654E+01 0.176E+02 0.102E+03   -.606E+01 -.182E+02 -.102E+03   0.571E+00 -.788E+00 -.991E+00   -.908E-08 0.169E-05 0.188E-05
   0.445E+01 0.900E+01 0.842E+02   -.516E+01 -.890E+01 -.840E+02   -.238E+00 -.278E+00 0.203E+00   -.578E-06 -.107E-05 0.882E-06
   0.713E+01 -.826E+01 0.105E+03   -.770E+01 0.818E+01 -.105E+03   0.197E+00 -.951E+00 0.334E+00   0.251E-06 0.135E-05 0.146E-05
   -.785E+01 -.830E+01 0.120E+03   0.830E+01 0.888E+01 -.120E+03   0.118E-01 0.940E-01 0.127E+01   0.558E-06 -.555E-06 0.204E-05
   -.991E+01 0.881E+01 0.117E+03   0.101E+02 -.836E+01 -.117E+03   -.646E+00 0.589E+00 0.908E+00   0.770E-06 0.135E-05 0.180E-05
   0.641E+01 0.155E+02 0.698E+00   -.696E+01 -.165E+02 -.615E+00   0.690E-01 -.102E+00 -.116E+01   -.293E-06 0.222E-05 -.268E-07
   0.561E+01 -.151E+02 -.941E+01   -.581E+01 0.158E+02 0.103E+02   0.337E+00 -.190E+00 -.217E+01   -.667E-06 -.144E-05 -.368E-06
   -.917E+01 -.401E+01 0.423E+02   0.899E+01 0.388E+01 -.423E+02   0.622E+00 0.180E+00 -.361E+00   -.352E-05 0.136E-05 -.476E-06
   -.196E+02 0.129E+02 0.757E+02   0.205E+02 -.132E+02 -.759E+02   0.193E+00 0.817E+00 0.111E+01   -.447E-05 -.134E-05 -.387E-06
   -.127E+02 0.536E+01 0.646E+02   0.122E+02 -.413E+01 -.648E+02   0.689E+00 0.722E+00 0.111E+01   -.172E-05 0.124E-05 -.952E-06
   -.303E+02 -.114E+02 0.905E+02   0.303E+02 0.113E+02 -.905E+02   -.182E+01 -.578E+00 0.131E+01   -.127E-05 -.183E-05 -.883E-06
   -.789E+01 -.723E+01 -.219E+02   0.869E+01 0.605E+01 0.226E+02   0.163E+01 -.147E+01 -.113E+01   -.181E-05 0.502E-06 -.118E-05
   0.506E+01 0.894E+01 -.285E+02   -.545E+01 -.929E+01 0.290E+02   -.136E+00 -.110E+01 -.215E+01   -.209E-05 -.169E-05 -.272E-06
   0.666E+01 0.182E+02 -.613E+02   -.676E+01 -.182E+02 0.614E+02   -.666E+00 0.101E+01 -.100E-01   0.175E-05 0.158E-05 -.679E-06
   0.713E+01 -.103E+02 -.702E+02   -.618E+01 0.103E+02 0.706E+02   0.224E+00 0.859E+00 0.648E+00   0.226E-05 -.115E-05 -.282E-06
   0.967E+01 -.916E+01 -.918E+02   -.916E+01 0.873E+01 0.912E+02   -.670E+00 -.444E-01 0.834E+00   -.216E-05 0.459E-05 -.216E-05
   0.284E+02 0.110E+02 -.121E+03   -.297E+02 -.123E+02 0.121E+03   -.256E+00 -.227E+00 -.164E+00   -.552E-05 -.478E-05 -.297E-05
   0.344E+02 0.552E+02 -.194E+03   -.379E+02 -.548E+02 0.195E+03   -.256E+00 0.348E+01 -.202E+01   0.358E-05 0.726E-05 -.266E-05
   0.329E+02 -.398E+02 -.191E+03   -.364E+02 0.380E+02 0.192E+03   0.140E+01 -.215E+01 -.118E+01   0.218E-05 -.103E-04 -.333E-05
 -----------------------------------------------------------------------------------------------
   -.162E+00 0.864E+00 0.694E+00   0.490E-12 0.206E-12 0.654E-12   0.138E+00 -.661E+00 -.743E+00   -.228E-05 -.430E-05 -.327E-04
 
 
 POSITION                                       TOTAL-FORCE (eV/Angst)
 -----------------------------------------------------------------------------------
      0.23309      0.81502     17.81030        -1.407784      2.231910     -0.224421
      0.17100      2.21628     17.76560         1.909013     -1.237105     -0.059005
      1.38065      0.18146     18.11490         0.420271      1.512127      0.058891
      1.32523      2.89739     17.92540         1.098989      1.409861      1.274262
      2.60128      0.87606     18.08650         0.209606     -0.983553     -0.347128
      2.59900      2.23700     17.99830        -1.703039     -0.841325     -0.368502
      3.80861      0.15810     18.06730         1.240690      0.632171      0.346188
      3.81624      2.85704     18.01460         1.502423      0.683541     -0.697697
      5.05128      0.79796     17.74740        -1.780269      1.375054      0.185601
      5.06784      2.20567     17.75210        -2.119157     -0.899987      0.637762
      6.24973      0.16075     17.56390         1.380804     -0.071173      0.091711
      6.26915      2.87186     17.69230         0.976699      0.451188     -0.809882
      7.46175      0.87609     17.19100        -1.453359     -2.285953      0.730756
      7.48085      2.21924     17.28970        -2.667611      1.689288      0.719011
      8.64895      0.20548     17.00670         1.981593     -0.741604     -0.283626
      8.61058      2.94489     17.06700         3.117679     -2.294473     -0.809298
      9.90648      0.90253     16.75490        -2.658449     -2.038556     -0.923640
      9.81417      2.23345     16.68110         1.037129      2.841912     -0.069167
     11.06080      0.22269     16.37290         1.860327     -0.740317      0.314424
     11.05890      2.91388     16.38560        -0.939656     -2.357986     -0.267439
     12.28300      0.85848     15.96610        -1.960587      0.524688     -0.542002
     12.22300      2.23697     15.88360         0.135726     -0.300011      0.950075
     13.47790      0.21353     15.63630        -0.353743     -2.321645      0.811102
     13.47660      2.85257     15.68810        -0.116560      0.324778      0.442389
     14.69050      0.81620     15.29650         0.066279      1.212179     -0.828923
     14.69980      2.20034     15.35780        -0.776639     -0.766418     -0.158065
     15.92840      0.16133     15.06960        -1.140367      0.142702      1.139354
     15.94260      2.81326     15.26680         0.657191      1.911446      0.310276
     17.15740      0.81165     15.00050         2.430387     -1.481934     -0.904257
     17.17990      2.15812     14.99430         0.661100      2.293246      0.668862
     18.45160      0.13209     15.10600         0.029535      0.700653      0.029471
     18.45430      2.85177     15.12420         0.492103     -2.180229     -0.244505
     19.73850      0.79706     15.23930        -2.398898     -1.465072      0.223635
     19.75450      2.13925     15.23370        -2.484642      3.082934     -0.168881
     20.86530      0.13547     15.69040         2.191279      0.264239     -0.847670
     20.91050      2.83009     15.60660        -0.254648      0.353674      0.399244
     22.12450      0.81879     15.90110        -0.685306     -1.056146      0.225928
     22.09690      2.17706     15.93340         2.235871      1.305301     -0.409010
     23.30130      0.19169     16.34840         1.166522      0.420141      1.012831
     23.30980      2.87918     16.33330        -1.036970     -0.093201      0.747160
     24.52370      0.86550     16.75120        -2.255981     -0.847678     -0.708119
     24.50830      2.23207     16.73440        -0.314104     -0.048736     -0.005502
     25.60000      0.18237     17.30200         1.500616      1.136181     -0.052981
     25.64320      2.84733     17.28820        -0.351346      1.836452     -0.578756
     26.80120      0.84459     17.56090        -0.924228     -1.087132     -0.343338
     26.80560      2.19681     17.54650        -1.119483     -0.349983     -0.446436
      0.10484      4.94830     18.14330         2.751561      1.207343      0.898395
      0.06192      6.39000     18.10690         3.848483     -3.253291      2.077374
      1.29270      4.25514     18.27230         1.310012     -0.021095     -0.933571
      1.31375      6.96530     18.36220         0.592166     -2.312966     -0.448636
      2.61580      4.88174     18.43440        -3.484585      0.533969     -0.189528
      2.60528      6.25782     18.50200        -2.293366     -0.152407      0.153136
      3.78721      4.22306     18.19200         2.356038     -0.538429      0.235775
      3.82014      6.90689     18.39600         1.552814      1.000506     -0.442432
      5.04651      4.86527     18.14830        -0.025741      1.483533      1.080244
      5.08958      6.24448     18.33540         0.043079      0.459666     -1.338179
      6.27292      4.25143     17.88960         0.160284     -1.704836      0.110641
      6.31154      6.91842     17.90400        -1.522524      0.911126      0.356064
      7.49605      4.89680     17.74640         0.932950      1.716072     -0.804176
      7.51864      6.30315     17.67710         1.129716     -2.151442     -0.534226
      8.67346      4.27658     17.26750        -0.630404      0.931323      0.478211
      8.69181      6.91445     17.13200        -1.556118      2.329156      1.266041
      9.85870      4.95193     16.95770         2.296252     -1.967190      0.480655
      9.92214      6.31375     16.94480        -1.079455     -1.198813     -0.006532
     11.08310      4.22214     16.65900         0.078603      2.701148     -0.594432
     11.07620      6.94917     16.55690         2.232105      0.115370     -0.180313
     12.33460      4.87540     16.38910        -1.300476     -0.935052      0.645528
     12.31930      6.23242     16.38300         0.618833      2.963339     -1.111560
     13.49270      4.17562     16.02540         1.948850      2.076502     -0.526340
     13.50640      6.93797     15.90440        -1.327970     -0.098400     -0.034902
     14.73160      4.90393     15.82220         0.594377     -2.020764     -0.398188
     14.70870      6.27415     15.64720         0.364479     -0.705012      1.001614
     15.97400      4.18517     15.56440        -0.982044      0.688256     -0.765980
     15.92100      6.93214     15.35700         1.052071     -1.439231     -0.676619
     17.19770      4.87638     15.40590        -0.941725     -0.175938      0.395310
     17.17740      6.25976     15.34020        -0.376235     -1.033654      0.568610
     18.43010      4.19126     15.34690         0.460531      0.675211      1.016923
     18.44200      6.87552     15.33940        -0.465576      1.036104      0.463412
     19.62900      4.85512     15.74290        -0.477083     -1.085653     -1.072134
     19.62450      6.21831     15.75130         0.133974      0.499314     -1.318410
     20.84910      4.19020     15.83700         0.440079      0.053424     -0.363906
     20.86420      6.86826     15.77950         1.076791      0.454230      0.866618
     22.06210      4.86209     16.09810         0.099542      1.949655      0.969120
     22.12930      6.25455     16.05880        -1.756860     -0.652624      1.294234
     23.21250      4.25737     16.56100         2.430597     -2.650949     -0.422307
     23.26380      6.94421     16.59590        -0.519190     -1.449350     -1.618319
     24.41150      4.86702     17.07800        -0.766677      1.024718      0.049834
     24.38120      6.24081     17.09400         1.182618      0.856768      1.021338
     25.62600      4.22079     17.48740        -0.157809     -0.473085      0.165196
     25.57480      6.95206     17.55030        -1.530384     -1.514522     -0.630533
     26.75650      4.83432     18.02100        -3.752039      3.931359     -1.120729
     26.70420      6.34957     18.00920        -2.139548     -3.908843     -0.283008
 -----------------------------------------------------------------------------------
    total drift:                               -0.024506      0.202709     -0.048604


--------------------------------------------------------------------------------------------------------



  FREE ENERGIE OF THE ION-ELECTRON SYSTEM (eV)
  ---------------------------------------------------
  free  energy   TOTEN  =      -828.56899948 eV

  energy  without entropy=     -828.44871406  energy(sigma->0) =     -828.50885677
 


--------------------------------------------------------------------------------------------------------


    POTLOK:  cpu time      0.4544: real time      0.4546


--------------------------------------------------------------------------------------------------------


     LOOP+:  cpu time    323.8155: real time    324.0086
    4ORBIT:  cpu time      0.0000: real time      0.0000

 total amount of memory used by VASP MPI-rank0  2294514. kBytes
=======================================================================

   base                                    :      30000. kBytes
   nonlr-proj                              :      15080. kBytes
   fftplans                                :     436558. kBytes
   grid                                    :     732614. kBytes
   one-center                              :        282. kBytes
   wavefun                                 :    1079980. kBytes
 
  
  
 General timing and accounting informations for this job:
 ========================================================
  
                  Total CPU time used (sec):      357.094
                            User time (sec):      349.077
                          System time (sec):        8.017
                         Elapsed time (sec):      357.372
  
                   Maximum memory used (kb):     3733052.
                   Average memory used (kb):          N/A
  
                          Minor page faults:      3091855
                          Major page faults:         5018
                 Voluntary context switches:         9554
