<?xml version="1.0" encoding="ISO-8859-1"?>
<modeling>
 <generator>
  <i name="program" type="string">vasp </i>
  <i name="version" type="string">6.5.0  </i>
  <i name="subversion" type="string">16Dec24 (build Feb 19 2025 19:45:31) complex                          parallel </i>
  <i name="platform" type="string">LinuxNV </i>
  <i name="date" type="string">2025 10 25 </i>
  <i name="time" type="string">15:39:49 </i>
 </generator>
 <incar>
  <i type="int" name="ISTART">     0</i>
  <i type="string" name="PREC">Accurate   (Precision level)</i>
  <i type="string" name="ALGO">Normal</i>
  <i type="int" name="ISPIN">     1</i>
  <i type="int" name="ICHARG">     2</i>
  <i type="int" name="NELM">   150</i>
  <i type="int" name="IBRION">    -1</i>
  <i name="EDIFF">      0.00000100</i>
  <i type="int" name="NSW">     0</i>
  <i name="ENCUT">    500.00000000</i>
  <i type="string" name="LREAL">Auto         (Projection operators: automatic)</i>
  <i type="int" name="ISMEAR">     0</i>
  <i type="logical" name="KGAMMA"> T  </i>
  <i type="logical" name="LWAVE"> F  </i>
  <i type="logical" name="LCHARG"> F  </i>
 </incar>
 <primitive_cell>
  <structure name="primitive_cell" >
   <crystal>
    <varray name="basis" >
     <v>      28.05000000       0.00000000       0.00000000 </v>
     <v>       0.00000000       8.10000000       0.00000000 </v>
     <v>       0.00000000       0.00000000      33.50000000 </v>
    </varray>
    <i name="volume">   7611.36750000 </i>
    <varray name="rec_basis" >
     <v>       0.03565062       0.00000000       0.00000000 </v>
     <v>       0.00000000       0.12345679       0.00000000 </v>
     <v>       0.00000000       0.00000000       0.02985075 </v>
    </varray>
   </crystal>
   <varray name="positions" >
    <v>       0.00830963       0.10061975       0.53165075 </v>
    <v>       0.00609615       0.27361481       0.53031642 </v>
    <v>       0.04922103       0.02240210       0.54074328 </v>
    <v>       0.04724528       0.35770247       0.53508657 </v>
    <v>       0.09273725       0.10815506       0.53989552 </v>
    <v>       0.09265597       0.27617284       0.53726269 </v>
    <v>       0.13577932       0.01951840       0.53932239 </v>
    <v>       0.13605134       0.35272099       0.53774925 </v>
    <v>       0.18008128       0.09851420       0.52977313 </v>
    <v>       0.18067166       0.27230494       0.52991343 </v>
    <v>       0.22280677       0.01984630       0.52429552 </v>
    <v>       0.22349911       0.35455062       0.52812836 </v>
    <v>       0.26601604       0.10815951       0.51316418 </v>
    <v>       0.26669697       0.27398025       0.51611045 </v>
    <v>       0.30834046       0.02536815       0.50766269 </v>
    <v>       0.30697255       0.36356667       0.50946269 </v>
    <v>       0.35317219       0.11142296       0.50014627 </v>
    <v>       0.34988128       0.27573457       0.49794328 </v>
    <v>       0.39432442       0.02749259       0.48874328 </v>
    <v>       0.39425668       0.35973827       0.48912239 </v>
    <v>       0.43789661       0.10598494       0.47660000 </v>
    <v>       0.43575758       0.27616914       0.47413731 </v>
    <v>       0.48049554       0.02636148       0.46675522 </v>
    <v>       0.48044920       0.35216914       0.46830149 </v>
    <v>       0.52372549       0.10076494       0.45661194 </v>
    <v>       0.52405704       0.27164691       0.45844179 </v>
    <v>       0.56785740       0.01991741       0.44983881 </v>
    <v>       0.56836364       0.34731605       0.45572537 </v>
    <v>       0.61167201       0.10020383       0.44777612 </v>
    <v>       0.61247415       0.26643457       0.44759104 </v>
    <v>       0.65781105       0.01630679       0.45092537 </v>
    <v>       0.65790731       0.35207037       0.45146866 </v>
    <v>       0.70368984       0.09840235       0.45490448 </v>
    <v>       0.70426025       0.26410494       0.45473731 </v>
    <v>       0.74386096       0.01672506       0.46837015 </v>
    <v>       0.74547237       0.34939383       0.46586866 </v>
    <v>       0.78875223       0.10108481       0.47465970 </v>
    <v>       0.78776827       0.26877284       0.47562388 </v>
    <v>       0.83070588       0.02366481       0.48801194 </v>
    <v>       0.83100891       0.35545432       0.48756119 </v>
    <v>       0.87428520       0.10685185       0.50003582 </v>
    <v>       0.87373619       0.27556420       0.49953433 </v>
    <v>       0.91265597       0.02251481       0.51647761 </v>
    <v>       0.91419608       0.35152222       0.51606567 </v>
    <v>       0.95547950       0.10427074       0.52420597 </v>
    <v>       0.95563636       0.27121111       0.52377612 </v>
    <v>       0.00373750       0.61090123       0.54159104 </v>
    <v>       0.00220733       0.78888889       0.54050448 </v>
    <v>       0.04608556       0.52532593       0.54544179 </v>
    <v>       0.04683601       0.85991358       0.54812537 </v>
    <v>       0.09325490       0.60268395       0.55028060 </v>
    <v>       0.09287986       0.77257037       0.55229851 </v>
    <v>       0.13501640       0.52136543       0.54304478 </v>
    <v>       0.13619037       0.85270247       0.54913433 </v>
    <v>       0.17991123       0.60065062       0.54174030 </v>
    <v>       0.18144670       0.77092346       0.54732537 </v>
    <v>       0.22363351       0.52486790       0.53401791 </v>
    <v>       0.22501034       0.85412593       0.53444776 </v>
    <v>       0.26723886       0.60454321       0.52974328 </v>
    <v>       0.26804421       0.77816667       0.52767463 </v>
    <v>       0.30921426       0.52797284       0.51544776 </v>
    <v>       0.30986845       0.85363580       0.51140299 </v>
    <v>       0.35146881       0.61134938       0.50620000 </v>
    <v>       0.35373048       0.77947531       0.50581493 </v>
    <v>       0.39511943       0.52125185       0.49728358 </v>
    <v>       0.39487344       0.85792222       0.49423582 </v>
    <v>       0.43973619       0.60190123       0.48922687 </v>
    <v>       0.43919073       0.76943457       0.48904478 </v>
    <v>       0.48102317       0.51550864       0.47837015 </v>
    <v>       0.48151159       0.85653951       0.47475821 </v>
    <v>       0.52519073       0.60542346       0.47230448 </v>
    <v>       0.52437433       0.77458642       0.46708060 </v>
    <v>       0.56948307       0.51668765       0.46460896 </v>
    <v>       0.56759358       0.85581975       0.45841791 </v>
    <v>       0.61310873       0.60202222       0.45987761 </v>
    <v>       0.61238503       0.77280988       0.45791642 </v>
    <v>       0.65704456       0.51743951       0.45811642 </v>
    <v>       0.65746881       0.84882963       0.45789254 </v>
    <v>       0.69978610       0.59939753       0.46993731 </v>
    <v>       0.69962567       0.76769259       0.47018806 </v>
    <v>       0.74328342       0.51730864       0.47274627 </v>
    <v>       0.74382175       0.84793333       0.47102985 </v>
    <v>       0.78652763       0.60025802       0.48054030 </v>
    <v>       0.78892335       0.77216667       0.47936716 </v>
    <v>       0.82754011       0.52560123       0.49435821 </v>
    <v>       0.82936898       0.85730988       0.49540000 </v>
    <v>       0.87028520       0.60086667       0.50979104 </v>
    <v>       0.86920499       0.77047037       0.51026866 </v>
    <v>       0.91358289       0.52108519       0.52201194 </v>
    <v>       0.91175758       0.85827901       0.52388955 </v>
    <v>       0.95388592       0.59682963       0.53794030 </v>
    <v>       0.95202139       0.78389753       0.53758806 </v>
   </varray>
  </structure>
  <varray name="primitive_index" >
   <v type="int" >        1 </v>
   <v type="int" >        2 </v>
   <v type="int" >        3 </v>
   <v type="int" >        4 </v>
   <v type="int" >        5 </v>
   <v type="int" >        6 </v>
   <v type="int" >        7 </v>
   <v type="int" >        8 </v>
   <v type="int" >        9 </v>
   <v type="int" >       10 </v>
   <v type="int" >       11 </v>
   <v type="int" >       12 </v>
   <v type="int" >       13 </v>
   <v type="int" >       14 </v>
   <v type="int" >       15 </v>
   <v type="int" >       16 </v>
   <v type="int" >       17 </v>
   <v type="int" >       18 </v>
   <v type="int" >       19 </v>
   <v type="int" >       20 </v>
   <v type="int" >       21 </v>
   <v type="int" >       22 </v>
   <v type="int" >       23 </v>
   <v type="int" >       24 </v>
   <v type="int" >       25 </v>
   <v type="int" >       26 </v>
   <v type="int" >       27 </v>
   <v type="int" >       28 </v>
   <v type="int" >       29 </v>
   <v type="int" >       30 </v>
   <v type="int" >       31 </v>
   <v type="int" >       32 </v>
   <v type="int" >       33 </v>
   <v type="int" >       34 </v>
   <v type="int" >       35 </v>
   <v type="int" >       36 </v>
   <v type="int" >       37 </v>
   <v type="int" >       38 </v>
   <v type="int" >       39 </v>
   <v type="int" >       40 </v>
   <v type="int" >       41 </v>
   <v type="int" >       42 </v>
   <v type="int" >       43 </v>
   <v type="int" >       44 </v>
   <v type="int" >       45 </v>
   <v type="int" >       46 </v>
   <v type="int" >       47 </v>
   <v type="int" >       48 </v>
   <v type="int" >       49 </v>
   <v type="int" >       50 </v>
   <v type="int" >       51 </v>
   <v type="int" >       52 </v>
   <v type="int" >       53 </v>
   <v type="int" >       54 </v>
   <v type="int" >       55 </v>
   <v type="int" >       56 </v>
   <v type="int" >       57 </v>
   <v type="int" >       58 </v>
   <v type="int" >       59 </v>
   <v type="int" >       60 </v>
   <v type="int" >       61 </v>
   <v type="int" >       62 </v>
   <v type="int" >       63 </v>
   <v type="int" >       64 </v>
   <v type="int" >       65 </v>
   <v type="int" >       66 </v>
   <v type="int" >       67 </v>
   <v type="int" >       68 </v>
   <v type="int" >       69 </v>
   <v type="int" >       70 </v>
   <v type="int" >       71 </v>
   <v type="int" >       72 </v>
   <v type="int" >       73 </v>
   <v type="int" >       74 </v>
   <v type="int" >       75 </v>
   <v type="int" >       76 </v>
   <v type="int" >       77 </v>
   <v type="int" >       78 </v>
   <v type="int" >       79 </v>
   <v type="int" >       80 </v>
   <v type="int" >       81 </v>
   <v type="int" >       82 </v>
   <v type="int" >       83 </v>
   <v type="int" >       84 </v>
   <v type="int" >       85 </v>
   <v type="int" >       86 </v>
   <v type="int" >       87 </v>
   <v type="int" >       88 </v>
   <v type="int" >       89 </v>
   <v type="int" >       90 </v>
   <v type="int" >       91 </v>
   <v type="int" >       92 </v>
  </varray>
 </primitive_cell>
 <kpoints>
  <generation param="Gamma">
   <v type="int" name="divisions">       1        4        1 </v>
   <v name="usershift">      0.00000000       0.00000000       0.00000000 </v>
   <v name="genvec1">      1.00000000       0.00000000       0.00000000 </v>
   <v name="genvec2">      0.00000000       0.25000000       0.00000000 </v>
   <v name="genvec3">      0.00000000       0.00000000       1.00000000 </v>
   <v name="shift">      0.00000000       0.00000000       0.00000000 </v>
  </generation>
  <varray name="kpointlist" >
   <v>       0.00000000       0.00000000       0.00000000 </v>
   <v>       0.00000000       0.25000000       0.00000000 </v>
   <v>       0.00000000       0.50000000       0.00000000 </v>
  </varray>
  <varray name="weights" >
   <v>       0.25000000 </v>
   <v>       0.50000000 </v>
   <v>       0.25000000 </v>
  </varray>
 </kpoints>
 <parameters>
  <separator name="general" >
   <i type="string" name="SYSTEM">unknown system</i>
   <i type="logical" name="LCOMPAT"> F  </i>
  </separator>
  <separator name="electronic" >
   <i type="string" name="PREC">accura</i>
   <i name="ENMAX">    500.00000000</i>
   <i name="ENAUG">    644.87300000</i>
   <i name="EDIFF">      0.00000100</i>
   <i type="int" name="IALGO">    38</i>
   <i type="int" name="IWAVPR">    10</i>
   <i type="int" name="NBANDS">   232</i>
   <i type="int" name="NBANDSLOW">    -1</i>
   <i type="int" name="NBANDSHIGH">    -1</i>
   <i name="NELECT">    368.00000000</i>
   <i type="int" name="TURBO">     0</i>
   <i type="int" name="IRESTART">     0</i>
   <i type="int" name="NREBOOT">     0</i>
   <i type="int" name="NMIN">     0</i>
   <i name="EREF">      0.00000000</i>
   <separator name="electronic smearing" >
    <i type="int" name="ISMEAR">     0</i>
    <i name="SIGMA">      0.20000000</i>
    <i name="KSPACING">      0.50000000</i>
    <i type="logical" name="KGAMMA"> T  </i>
    <i type="logical" name="KBLOWUP"> T  </i>
   </separator>
   <separator name="electronic projectors" >
    <i type="logical" name="LREAL"> T  </i>
    <v name="ROPT">     -0.00025000</v>
    <i type="int" name="LMAXPAW">  -100</i>
    <i type="int" name="LMAXMIX">     2</i>
    <i type="logical" name="NLSPLINE"> F  </i>
   </separator>
   <separator name="electronic startup" >
    <i type="int" name="ISTART">     0</i>
    <i type="int" name="ICHARG">     2</i>
    <i type="int" name="INIWAV">     1</i>
   </separator>
   <separator name="electronic spin" >
    <i type="int" name="ISPIN">     1</i>
    <i type="logical" name="LNONCOLLINEAR"> F  </i>
    <v name="MAGMOM">      1.00000000      1.00000000      1.00000000      1.00000000      1.00000000      1.00000000      1.00000000      1.00000000      1.00000000      1.00000000      1.00000000      1.00000000      1.00000000      1.00000000      1.00000000      1.00000000      1.00000000      1.00000000      1.00000000      1.00000000
      1.00000000      1.00000000      1.00000000      1.00000000      1.00000000      1.00000000      1.00000000      1.00000000      1.00000000      1.00000000      1.00000000      1.00000000      1.00000000      1.00000000      1.00000000      1.00000000      1.00000000      1.00000000      1.00000000      1.00000000
      1.00000000      1.00000000      1.00000000      1.00000000      1.00000000      1.00000000      1.00000000      1.00000000      1.00000000      1.00000000      1.00000000      1.00000000      1.00000000      1.00000000      1.00000000      1.00000000      1.00000000      1.00000000      1.00000000      1.00000000
      1.00000000      1.00000000      1.00000000      1.00000000      1.00000000      1.00000000      1.00000000      1.00000000      1.00000000      1.00000000      1.00000000      1.00000000      1.00000000      1.00000000      1.00000000      1.00000000      1.00000000      1.00000000      1.00000000      1.00000000
      1.00000000      1.00000000      1.00000000      1.00000000      1.00000000      1.00000000      1.00000000      1.00000000      1.00000000      1.00000000      1.00000000      1.00000000</v>
    <i name="NUPDOWN">     -1.00000000</i>
    <i type="logical" name="LSORBIT"> F  </i>
    <v name="SAXIS">      0.00000000      0.00000000      1.00000000</v>
    <i type="logical" name="LSPIRAL"> F  </i>
    <v name="QSPIRAL">      0.00000000      0.00000000      0.00000000</v>
    <i type="logical" name="LZEROZ"> F  </i>
   </separator>
   <separator name="electronic exchange-correlation" >
    <i type="logical" name="LASPH"> F  </i>
   </separator>
   <separator name="electronic convergence" >
    <i type="int" name="NELM">   150</i>
    <i type="int" name="NELMDL">    -5</i>
    <i type="int" name="NELMIN">     2</i>
    <i name="ENINI">    500.00000000</i>
    <separator name="electronic convergence detail" >
     <i type="logical" name="LDIAG"> T  </i>
     <i type="logical" name="LSUBROT"> F  </i>
     <i name="WEIMIN">      0.00000000</i>
     <i name="EBREAK">      0.00000000</i>
     <i name="DEPER">      0.30000000</i>
     <i type="int" name="NRMM">     4</i>
     <i name="TIME">      0.40000000</i>
    </separator>
   </separator>
   <separator name="electronic mixer" >
    <i name="AMIX">      0.40000000</i>
    <i name="BMIX">      1.00000000</i>
    <i name="AMIN">      0.10000000</i>
    <i name="AMIX_MAG">      1.60000000</i>
    <i name="BMIX_MAG">      1.00000000</i>
    <separator name="electronic mixer details" >
     <i type="int" name="IMIX">     4</i>
     <i type="logical" name="MIXFIRST"> F  </i>
     <i type="int" name="MAXMIX">   -45</i>
     <i name="WC">    100.00000000</i>
     <i type="int" name="INIMIX">     1</i>
     <i type="int" name="MIXPRE">     1</i>
     <i type="int" name="MREMOVE">     5</i>
    </separator>
   </separator>
   <separator name="electronic dipolcorrection" >
    <i type="logical" name="LDIPOL"> F  </i>
    <i type="logical" name="LMONO"> F  </i>
    <i type="int" name="IDIPOL">     0</i>
    <i name="EPSILON">      1.00000000</i>
    <v name="DIPOL">   -100.00000000   -100.00000000   -100.00000000</v>
    <i name="EFIELD">      0.00000000</i>
    <i type="logical" name="LVACPOTAV"> F  </i>
   </separator>
  </separator>
  <separator name="grids" >
   <i type="int" name="NGX">   210</i>
   <i type="int" name="NGY">    60</i>
   <i type="int" name="NGZ">   250</i>
   <i type="int" name="NGXF">   420</i>
   <i type="int" name="NGYF">   120</i>
   <i type="int" name="NGZF">   500</i>
   <i type="logical" name="ADDGRID"> F  </i>
  </separator>
  <separator name="ionic" >
   <i type="int" name="NSW">     0</i>
   <i type="int" name="IBRION">    -1</i>
   <i type="int" name="MDALGO">     0</i>
   <i type="int" name="ISIF">     2</i>
   <i name="PSTRESS">      0.00000000</i>
   <i name="EDIFFG">      0.00001000</i>
   <i type="int" name="NFREE">     0</i>
   <i name="POTIM">      0.50000000</i>
   <i name="SMASS">     -3.00000000</i>
   <i name="SCALEE">      1.00000000</i>
  </separator>
  <separator name="ionic md" >
   <i name="TEBEG">      0.00010000</i>
   <i name="TEEND">      0.00010000</i>
   <i type="int" name="NBLOCK">     1</i>
   <i type="int" name="KBLOCK">     1</i>
   <i type="int" name="NPACO">   256</i>
   <i name="APACO">     10.00000000</i>
  </separator>
  <separator name="symmetry" >
   <i type="int" name="ISYM">     2</i>
   <i name="SYMPREC">      0.00001000</i>
  </separator>
  <separator name="dos" >
   <i type="int" name="LORBIT">     0</i>
   <v name="RWIGS">     -1.00000000</v>
   <i type="int" name="NEDOS">   301</i>
   <i name="EMIN">     10.00000000</i>
   <i name="EMAX">    -10.00000000</i>
   <i name="EFERMI">      0.00000000</i>
  </separator>
  <separator name="writing" >
   <i type="int" name="NWRITE">     2</i>
   <i type="logical" name="LWAVE"> F  </i>
   <i type="logical" name="LDOWNSAMPLE"> F  </i>
   <i type="logical" name="LCHARG"> F  </i>
   <i type="logical" name="LPARD"> F  </i>
   <i type="logical" name="LVTOT"> F  </i>
   <i type="logical" name="LVHAR"> F  </i>
   <i type="logical" name="LELF"> F  </i>
   <i type="logical" name="LOPTICS"> F  </i>
   <v name="STM">      0.00000000      0.00000000      0.00000000      0.00000000      0.00000000      0.00000000      0.00000000</v>
  </separator>
  <separator name="performance" >
   <i type="int" name="NPAR">     2</i>
   <i type="int" name="NSIM">     4</i>
   <i type="int" name="NBLK">    -1</i>
   <i type="logical" name="LPLANE"> T  </i>
   <i type="logical" name="LSCALAPACK"> T  </i>
   <i type="logical" name="LSCAAWARE"> F  </i>
   <i type="logical" name="LSCALU"> F  </i>
   <i type="logical" name="LASYNC"> F  </i>
   <i type="logical" name="LORBITALREAL"> F  </i>
  </separator>
  <separator name="miscellaneous" >
   <i type="int" name="IDIOT">     3</i>
   <i type="int" name="PHON_NSTRUCT">    -1</i>
   <i type="logical" name="LMUSIC"> F  </i>
   <v name="POMASS">     12.01100000</v>
   <v name="DARWINR">      0.00000000</v>
   <v name="DARWINV">      1.00000000</v>
   <i type="logical" name="LCORR"> T  </i>
  </separator>
  <i type="logical" name="GGA_COMPAT"> T  </i>
  <i type="logical" name="LBERRY"> F  </i>
  <i type="int" name="ICORELEVEL">     0</i>
  <i type="logical" name="LDAU"> F  </i>
  <i type="int" name="I_CONSTRAINED_M">     0</i>
  <separator name="electronic exchange-correlation" >
   <i type="string" name="GGA    ">PE</i>
   <i type="string" name="XC_C">1</i>
   <i type="int" name="VOSKOWN">     0</i>
   <i type="logical" name="LHFCALC"> F  </i>
   <i type="string" name="PRECFOCK"></i>
   <i type="logical" name="LSYMGRAD"> F  </i>
   <i type="logical" name="LHFONE"> F  </i>
   <i type="logical" name="LRHFCALC"> F  </i>
   <i type="logical" name="LTHOMAS"> F  </i>
   <i type="logical" name="LMODELHF"> F  </i>
   <i type="logical" name="LFOCKACE"> F  </i>
   <i name="ENCUT4O">     -1.00000000</i>
   <i type="int" name="EXXOEP">     0</i>
   <i type="int" name="FOURORBIT">     0</i>
   <i name="AEXX">      0.00000000</i>
   <i name="HFALPHA">      0.00000000</i>
   <i name="MCALPHA">      0.00000000</i>
   <i name="ALDAX">      1.00000000</i>
   <i name="AGGAX">      1.00000000</i>
   <i name="AMGGAX">      1.00000000</i>
   <i name="ALDAC">      1.00000000</i>
   <i name="AGGAC">      1.00000000</i>
   <i name="AMGGAC">      1.00000000</i>
   <i type="int" name="NKREDX">     1</i>
   <i type="int" name="NKREDY">     1</i>
   <i type="int" name="NKREDZ">     1</i>
   <i type="logical" name="SHIFTRED"> F  </i>
   <i type="logical" name="ODDONLY"> F  </i>
   <i type="logical" name="EVENONLY"> F  </i>
   <i type="int" name="LMAXFOCK">     0</i>
   <i type="int" name="NMAXFOCKAE">     0</i>
   <i type="logical" name="LFOCKAEDFT"> F  </i>
   <i name="HFSCREEN">      0.00000000</i>
   <i name="HFSCREENC">      0.00000000</i>
   <i type="int" name="NBANDSGWLOW">     0</i>
  </separator>
  <separator name="vdW DFT" >
   <i type="logical" name="LUSE_VDW"> F  </i>
   <i type="int" name="IVDW_NL">    -1</i>
   <i type="logical" name="LSPIN_VDW"> F  </i>
   <i name="ZAB_VDW">     -0.84910000</i>
   <i name="GAMMA_VDW">      1.39626340</i>
   <i name="ALPHA_VDW">      0.00000000</i>
   <i name="PARAM1">      0.12340000</i>
   <i name="PARAM2">      1.00000000</i>
   <i name="BPARAM">      6.30000000</i>
   <i name="CPARAM">      0.00930000</i>
  </separator>
  <separator name="model GW" >
   <i type="int" name="MODEL_GW">     0</i>
   <i name="MODEL_EPS0">     49.63935326</i>
   <i name="MODEL_ALPHA">      1.00000000</i>
  </separator>
  <separator name="linear response parameters" >
   <i type="logical" name="LEPSILON"> F  </i>
   <i type="logical" name="LRPA"> F  </i>
   <i type="logical" name="LNABLA"> F  </i>
   <i type="logical" name="LVEL"> F  </i>
   <i name="CSHIFT">      0.10000000</i>
   <i name="OMEGAMAX">     -1.00000000</i>
   <i name="DEG_THRESHOLD">      0.00200000</i>
   <i name="RTIME">     -0.10000000</i>
   <i name="WPLASMAI">      0.00000000</i>
   <v name="DFIELD">      0.00000000      0.00000000      0.00000000</v>
   <v name="WPLASMA">      0.00000000      0.00000000      0.00000000      0.00000000      0.00000000      0.00000000      0.00000000      0.00000000      0.00000000</v>
  </separator>
  <separator name="orbital magnetization" >
   <i type="logical" name="NUCIND"> F  </i>
   <v name="MAGPOS">      0.00000000      0.00000000      0.00000000</v>
   <i type="logical" name="LNICSALL"> T  </i>
   <i type="logical" name="ORBITALMAG"> F  </i>
   <i type="logical" name="LMAGBLOCH"> F  </i>
   <i type="logical" name="LCHIMAG"> F  </i>
   <i type="logical" name="LGAUGE"> T  </i>
   <i type="int" name="MAGATOM">     0</i>
   <v name="MAGDIPOL">      0.00000000      0.00000000      0.00000000</v>
   <v name="AVECCONST">      0.00000000      0.00000000      0.00000000</v>
  </separator>
  <separator name="response functions" >
   <i type="logical" name="LALL_IN_ONE"> F  </i>
   <i type="int" name="IALL_IN_ONE">    -1</i>
   <i type="int" name="NBANDS_WAVE">    -1</i>
   <i type="logical" name="LFINITE_TEMPERATURE"> F  </i>
   <i type="logical" name="LADDER"> F  </i>
   <i type="logical" name="LRPAFORCE"> F  </i>
   <i type="logical" name="LFXC"> F  </i>
   <i type="logical" name="LHARTREE"> T  </i>
   <i type="int" name="IBSE">     2</i>
   <v type="int" name="KPOINT">    -1     0     0     0</v>
   <i type="logical" name="LTCTC"> F  </i>
   <i type="logical" name="LTCTE"> F  </i>
   <i type="logical" name="LTETE"> F  </i>
   <i type="logical" name="LTRIPLET"> F  </i>
   <i type="logical" name="LFXCEPS"> F  </i>
   <i type="logical" name="LFXHEG"> F  </i>
   <i type="int" name="NATURALO">     2</i>
   <i type="logical" name="LHOLEGF"> F  </i>
   <i type="logical" name="L2ORDER"> F  </i>
   <i type="logical" name="LDMP1"> F  </i>
   <i type="logical" name="LMP2LT"> F  </i>
   <i type="logical" name="LSMP2LT"> F  </i>
   <i type="logical" name="LGWLF"> F  </i>
   <i name="ENCUTGW">     -1.60000002</i>
   <i name="ENCUTGWSOFT">     -1.60000002</i>
   <i name="ENCUTLF">     -1.00000000</i>
   <i type="logical" name="ESF_SPLINES"> F  </i>
   <i name="ESF_CONV">      0.01000000</i>
   <i type="int" name="ESF_NINTER">    15</i>
   <i type="int" name="LMAXMP2">    -1</i>
   <i name="SCISSOR">      0.00000000</i>
   <i type="int" name="NOMEGA">     0</i>
   <i type="int" name="NOMEGAR">     0</i>
   <i type="int" name="NBANDSGW">    -1</i>
   <i type="int" name="NBANDSO">    -1</i>
   <i type="int" name="NBANDSV">    -1</i>
   <i type="int" name="NELMGW">     1</i>
   <i type="int" name="NELMHF">     1</i>
   <i type="int" name="DIM">     3</i>
   <i type="int" name="IESPILON">     4</i>
   <i type="int" name="ANTIRES">     0</i>
   <i name="OMEGAMAX">    -30.00000000</i>
   <i name="OMEGAMIN">    -30.00000000</i>
   <i name="OMEGATL">   -200.00000000</i>
   <i type="int" name="OMEGAGRID">     0</i>
   <i name="CSHIFT">     -0.10000000</i>
   <i type="logical" name="LSELFENERGY"> F  </i>
   <i type="logical" name="LSPECTRAL"> F  </i>
   <i type="logical" name="LSPECTRALGW"> F  </i>
   <i type="logical" name="LSINGLES"> F  </i>
   <i type="logical" name="LFERMIGW"> F  </i>
   <i type="logical" name="ODDONLYGW"> F  </i>
   <i type="logical" name="EVENONLYGW"> F  </i>
   <i type="int" name="NKREDLFX">     1</i>
   <i type="int" name="NKREDLFY">     1</i>
   <i type="int" name="NKREDLFZ">     1</i>
   <i type="int" name="MAXMEM">  2800</i>
   <i type="int" name="TELESCOPE">     0</i>
   <i type="int" name="NTAUPAR">    -1</i>
   <i type="int" name="NOMEGAPAR">    -1</i>
   <i name="DAMP_NEWTON">      0.80000001</i>
   <i name="LAMBDA">      1.00000000</i>
  </separator>
  <separator name="External order field" >
   <i name="OFIELD_KAPPA">      0.00000000</i>
   <v name="OFIELD_K">      0.00000000      0.00000000      0.00000000</v>
   <i name="OFIELD_Q6_NEAR">      0.00000000</i>
   <i name="OFIELD_Q6_FAR">      0.00000000</i>
   <i name="OFIELD_A">      0.00000000</i>
  </separator>
  <separator name="optional k-points parameters" >
   <i type="int" name="KPOINTS_OPT_MODE">     1</i>
   <i type="logical" name="LKPOINTS_OPT"> F  </i>
  </separator>
 </parameters>
 <atominfo>
  <atoms>      92 </atoms>
  <types>       1 </types>
  <array name="atoms" >
   <dimension dim="1">ion</dimension>
   <field type="string">element</field>
   <field type="int">atomtype</field>
   <set>
    <rc><c>C </c><c>   1</c></rc>
    <rc><c>C </c><c>   1</c></rc>
    <rc><c>C </c><c>   1</c></rc>
    <rc><c>C </c><c>   1</c></rc>
    <rc><c>C </c><c>   1</c></rc>
    <rc><c>C </c><c>   1</c></rc>
    <rc><c>C </c><c>   1</c></rc>
    <rc><c>C </c><c>   1</c></rc>
    <rc><c>C </c><c>   1</c></rc>
    <rc><c>C </c><c>   1</c></rc>
    <rc><c>C </c><c>   1</c></rc>
    <rc><c>C </c><c>   1</c></rc>
    <rc><c>C </c><c>   1</c></rc>
    <rc><c>C </c><c>   1</c></rc>
    <rc><c>C </c><c>   1</c></rc>
    <rc><c>C </c><c>   1</c></rc>
    <rc><c>C </c><c>   1</c></rc>
    <rc><c>C </c><c>   1</c></rc>
    <rc><c>C </c><c>   1</c></rc>
    <rc><c>C </c><c>   1</c></rc>
    <rc><c>C </c><c>   1</c></rc>
    <rc><c>C </c><c>   1</c></rc>
    <rc><c>C </c><c>   1</c></rc>
    <rc><c>C </c><c>   1</c></rc>
    <rc><c>C </c><c>   1</c></rc>
    <rc><c>C </c><c>   1</c></rc>
    <rc><c>C </c><c>   1</c></rc>
    <rc><c>C </c><c>   1</c></rc>
    <rc><c>C </c><c>   1</c></rc>
    <rc><c>C </c><c>   1</c></rc>
    <rc><c>C </c><c>   1</c></rc>
    <rc><c>C </c><c>   1</c></rc>
    <rc><c>C </c><c>   1</c></rc>
    <rc><c>C </c><c>   1</c></rc>
    <rc><c>C </c><c>   1</c></rc>
    <rc><c>C </c><c>   1</c></rc>
    <rc><c>C </c><c>   1</c></rc>
    <rc><c>C </c><c>   1</c></rc>
    <rc><c>C </c><c>   1</c></rc>
    <rc><c>C </c><c>   1</c></rc>
    <rc><c>C </c><c>   1</c></rc>
    <rc><c>C </c><c>   1</c></rc>
    <rc><c>C </c><c>   1</c></rc>
    <rc><c>C </c><c>   1</c></rc>
    <rc><c>C </c><c>   1</c></rc>
    <rc><c>C </c><c>   1</c></rc>
    <rc><c>C </c><c>   1</c></rc>
    <rc><c>C </c><c>   1</c></rc>
    <rc><c>C </c><c>   1</c></rc>
    <rc><c>C </c><c>   1</c></rc>
    <rc><c>C </c><c>   1</c></rc>
    <rc><c>C </c><c>   1</c></rc>
    <rc><c>C </c><c>   1</c></rc>
    <rc><c>C </c><c>   1</c></rc>
    <rc><c>C </c><c>   1</c></rc>
    <rc><c>C </c><c>   1</c></rc>
    <rc><c>C </c><c>   1</c></rc>
    <rc><c>C </c><c>   1</c></rc>
    <rc><c>C </c><c>   1</c></rc>
    <rc><c>C </c><c>   1</c></rc>
    <rc><c>C </c><c>   1</c></rc>
    <rc><c>C </c><c>   1</c></rc>
    <rc><c>C </c><c>   1</c></rc>
    <rc><c>C </c><c>   1</c></rc>
    <rc><c>C </c><c>   1</c></rc>
    <rc><c>C </c><c>   1</c></rc>
    <rc><c>C </c><c>   1</c></rc>
    <rc><c>C </c><c>   1</c></rc>
    <rc><c>C </c><c>   1</c></rc>
    <rc><c>C </c><c>   1</c></rc>
    <rc><c>C </c><c>   1</c></rc>
    <rc><c>C </c><c>   1</c></rc>
    <rc><c>C </c><c>   1</c></rc>
    <rc><c>C </c><c>   1</c></rc>
    <rc><c>C </c><c>   1</c></rc>
    <rc><c>C </c><c>   1</c></rc>
    <rc><c>C </c><c>   1</c></rc>
    <rc><c>C </c><c>   1</c></rc>
    <rc><c>C </c><c>   1</c></rc>
    <rc><c>C </c><c>   1</c></rc>
    <rc><c>C </c><c>   1</c></rc>
    <rc><c>C </c><c>   1</c></rc>
    <rc><c>C </c><c>   1</c></rc>
    <rc><c>C </c><c>   1</c></rc>
    <rc><c>C </c><c>   1</c></rc>
    <rc><c>C </c><c>   1</c></rc>
    <rc><c>C </c><c>   1</c></rc>
    <rc><c>C </c><c>   1</c></rc>
    <rc><c>C </c><c>   1</c></rc>
    <rc><c>C </c><c>   1</c></rc>
    <rc><c>C </c><c>   1</c></rc>
    <rc><c>C </c><c>   1</c></rc>
   </set>
  </array>
  <array name="atomtypes" >
   <dimension dim="1">type</dimension>
   <field type="int">atomspertype</field>
   <field type="string">element</field>
   <field>mass</field>
   <field>valence</field>
   <field type="string">pseudopotential</field>
   <set>
    <rc><c>  92</c><c>C </c><c>     12.01100000</c><c>      4.00000000</c><c>  PAW_PBE C 08Apr2002                   </c></rc>
   </set>
  </array>
 </atominfo>
 <structure name="initialpos" >
  <crystal>
   <varray name="basis" >
    <v>      28.05000000       0.00000000       0.00000000 </v>
    <v>       0.00000000       8.10000000       0.00000000 </v>
    <v>       0.00000000       0.00000000      33.50000000 </v>
   </varray>
   <i name="volume">   7611.36750000 </i>
   <varray name="rec_basis" >
    <v>       0.03565062       0.00000000       0.00000000 </v>
    <v>       0.00000000       0.12345679       0.00000000 </v>
    <v>       0.00000000       0.00000000       0.02985075 </v>
   </varray>
  </crystal>
  <varray name="positions" >
   <v>       0.00830963       0.10061975       0.53165075 </v>
   <v>       0.00609615       0.27361481       0.53031642 </v>
   <v>       0.04922103       0.02240210       0.54074328 </v>
   <v>       0.04724528       0.35770247       0.53508657 </v>
   <v>       0.09273725       0.10815506       0.53989552 </v>
   <v>       0.09265597       0.27617284       0.53726269 </v>
   <v>       0.13577932       0.01951840       0.53932239 </v>
   <v>       0.13605134       0.35272099       0.53774925 </v>
   <v>       0.18008128       0.09851420       0.52977313 </v>
   <v>       0.18067166       0.27230494       0.52991343 </v>
   <v>       0.22280677       0.01984630       0.52429552 </v>
   <v>       0.22349911       0.35455062       0.52812836 </v>
   <v>       0.26601604       0.10815951       0.51316418 </v>
   <v>       0.26669697       0.27398025       0.51611045 </v>
   <v>       0.30834046       0.02536815       0.50766269 </v>
   <v>       0.30697255       0.36356667       0.50946269 </v>
   <v>       0.35317219       0.11142296       0.50014627 </v>
   <v>       0.34988128       0.27573457       0.49794328 </v>
   <v>       0.39432442       0.02749259       0.48874328 </v>
   <v>       0.39425668       0.35973827       0.48912239 </v>
   <v>       0.43789661       0.10598494       0.47660000 </v>
   <v>       0.43575758       0.27616914       0.47413731 </v>
   <v>       0.48049554       0.02636148       0.46675522 </v>
   <v>       0.48044920       0.35216914       0.46830149 </v>
   <v>       0.52372549       0.10076494       0.45661194 </v>
   <v>       0.52405704       0.27164691       0.45844179 </v>
   <v>       0.56785740       0.01991741       0.44983881 </v>
   <v>       0.56836364       0.34731605       0.45572537 </v>
   <v>       0.61167201       0.10020383       0.44777612 </v>
   <v>       0.61247415       0.26643457       0.44759104 </v>
   <v>       0.65781105       0.01630679       0.45092537 </v>
   <v>       0.65790731       0.35207037       0.45146866 </v>
   <v>       0.70368984       0.09840235       0.45490448 </v>
   <v>       0.70426025       0.26410494       0.45473731 </v>
   <v>       0.74386096       0.01672506       0.46837015 </v>
   <v>       0.74547237       0.34939383       0.46586866 </v>
   <v>       0.78875223       0.10108481       0.47465970 </v>
   <v>       0.78776827       0.26877284       0.47562388 </v>
   <v>       0.83070588       0.02366481       0.48801194 </v>
   <v>       0.83100891       0.35545432       0.48756119 </v>
   <v>       0.87428520       0.10685185       0.50003582 </v>
   <v>       0.87373619       0.27556420       0.49953433 </v>
   <v>       0.91265597       0.02251481       0.51647761 </v>
   <v>       0.91419608       0.35152222       0.51606567 </v>
   <v>       0.95547950       0.10427074       0.52420597 </v>
   <v>       0.95563636       0.27121111       0.52377612 </v>
   <v>       0.00373750       0.61090123       0.54159104 </v>
   <v>       0.00220733       0.78888889       0.54050448 </v>
   <v>       0.04608556       0.52532593       0.54544179 </v>
   <v>       0.04683601       0.85991358       0.54812537 </v>
   <v>       0.09325490       0.60268395       0.55028060 </v>
   <v>       0.09287986       0.77257037       0.55229851 </v>
   <v>       0.13501640       0.52136543       0.54304478 </v>
   <v>       0.13619037       0.85270247       0.54913433 </v>
   <v>       0.17991123       0.60065062       0.54174030 </v>
   <v>       0.18144670       0.77092346       0.54732537 </v>
   <v>       0.22363351       0.52486790       0.53401791 </v>
   <v>       0.22501034       0.85412593       0.53444776 </v>
   <v>       0.26723886       0.60454321       0.52974328 </v>
   <v>       0.26804421       0.77816667       0.52767463 </v>
   <v>       0.30921426       0.52797284       0.51544776 </v>
   <v>       0.30986845       0.85363580       0.51140299 </v>
   <v>       0.35146881       0.61134938       0.50620000 </v>
   <v>       0.35373048       0.77947531       0.50581493 </v>
   <v>       0.39511943       0.52125185       0.49728358 </v>
   <v>       0.39487344       0.85792222       0.49423582 </v>
   <v>       0.43973619       0.60190123       0.48922687 </v>
   <v>       0.43919073       0.76943457       0.48904478 </v>
   <v>       0.48102317       0.51550864       0.47837015 </v>
   <v>       0.48151159       0.85653951       0.47475821 </v>
   <v>       0.52519073       0.60542346       0.47230448 </v>
   <v>       0.52437433       0.77458642       0.46708060 </v>
   <v>       0.56948307       0.51668765       0.46460896 </v>
   <v>       0.56759358       0.85581975       0.45841791 </v>
   <v>       0.61310873       0.60202222       0.45987761 </v>
   <v>       0.61238503       0.77280988       0.45791642 </v>
   <v>       0.65704456       0.51743951       0.45811642 </v>
   <v>       0.65746881       0.84882963       0.45789254 </v>
   <v>       0.69978610       0.59939753       0.46993731 </v>
   <v>       0.69962567       0.76769259       0.47018806 </v>
   <v>       0.74328342       0.51730864       0.47274627 </v>
   <v>       0.74382175       0.84793333       0.47102985 </v>
   <v>       0.78652763       0.60025802       0.48054030 </v>
   <v>       0.78892335       0.77216667       0.47936716 </v>
   <v>       0.82754011       0.52560123       0.49435821 </v>
   <v>       0.82936898       0.85730988       0.49540000 </v>
   <v>       0.87028520       0.60086667       0.50979104 </v>
   <v>       0.86920499       0.77047037       0.51026866 </v>
   <v>       0.91358289       0.52108519       0.52201194 </v>
   <v>       0.91175758       0.85827901       0.52388955 </v>
   <v>       0.95388592       0.59682963       0.53794030 </v>
   <v>       0.95202139       0.78389753       0.53758806 </v>
  </varray>
 </structure>
 <calculation>
  <scstep>
   <time name="dav">   11.20   11.21</time>
   <time name="total">   11.66   11.69</time>
   <energy>
    <i name="alphaZ">     91.34886789 </i>
    <i name="ewald"> 120115.56535026 </i>
    <i name="hartreedc">-129428.56608438 </i>
    <i name="XCdc">   1222.28185106 </i>
    <i name="pawpsdc">   9984.02826696 </i>
    <i name="pawaedc"> -10036.41360137 </i>
    <i name="eentropy">     -0.84039044 </i>
    <i name="bandstr">  -1851.61150784 </i>
    <i name="atom">  13537.65479391 </i>
    <i name="e_fr_energy">   3633.44754605 </i>
    <i name="e_wo_entrp">   3634.28793648 </i>
    <i name="e_0_energy">   3633.86774126 </i>
   </energy>
  </scstep>
  <scstep>
   <time name="dav">   13.10   13.10</time>
   <time name="total">   13.10   13.10</time>
   <energy>
    <i name="e_fr_energy">    172.67740223 </i>
    <i name="e_wo_entrp">    172.89874744 </i>
    <i name="e_0_energy">    172.78807484 </i>
   </energy>
  </scstep>
  <scstep>
   <time name="dav">   11.33   11.33</time>
   <time name="total">   11.33   11.33</time>
   <energy>
    <i name="e_fr_energy">   -834.37770594 </i>
    <i name="e_wo_entrp">   -834.33504241 </i>
    <i name="e_0_energy">   -834.35637417 </i>
   </energy>
  </scstep>
  <scstep>
   <time name="dav">   11.00   11.00</time>
   <time name="total">   11.00   11.00</time>
   <energy>
    <i name="e_fr_energy">   -896.26594773 </i>
    <i name="e_wo_entrp">   -896.17483451 </i>
    <i name="e_0_energy">   -896.22039112 </i>
   </energy>
  </scstep>
  <scstep>
   <time name="dav">   11.18   11.18</time>
   <time name="total">   12.66   12.67</time>
   <energy>
    <i name="e_fr_energy">   -897.78772362 </i>
    <i name="e_wo_entrp">   -897.69297667 </i>
    <i name="e_0_energy">   -897.74035015 </i>
   </energy>
  </scstep>
  <scstep>
   <time name="dav">   10.23   10.23</time>
   <time name="total">   12.03   12.04</time>
   <energy>
    <i name="e_fr_energy">   -847.67401262 </i>
    <i name="e_wo_entrp">   -847.56069067 </i>
    <i name="e_0_energy">   -847.61735164 </i>
   </energy>
  </scstep>
  <scstep>
   <time name="dav">   10.14   10.15</time>
   <time name="total">   11.93   11.94</time>
   <energy>
    <i name="e_fr_energy">   -828.97896500 </i>
    <i name="e_wo_entrp">   -828.85562314 </i>
    <i name="e_0_energy">   -828.91729407 </i>
   </energy>
  </scstep>
  <scstep>
   <time name="dav">   10.30   10.31</time>
   <time name="total">   12.10   12.10</time>
   <energy>
    <i name="e_fr_energy">   -828.69102537 </i>
    <i name="e_wo_entrp">   -828.57183400 </i>
    <i name="e_0_energy">   -828.63142969 </i>
   </energy>
  </scstep>
  <scstep>
   <time name="dav">   10.51   10.51</time>
   <time name="total">   12.31   12.32</time>
   <energy>
    <i name="e_fr_energy">   -828.58529954 </i>
    <i name="e_wo_entrp">   -828.46684561 </i>
    <i name="e_0_energy">   -828.52607258 </i>
   </energy>
  </scstep>
  <scstep>
   <time name="dav">   10.95   10.95</time>
   <time name="total">   12.75   12.76</time>
   <energy>
    <i name="e_fr_energy">   -828.54756934 </i>
    <i name="e_wo_entrp">   -828.42736243 </i>
    <i name="e_0_energy">   -828.48746589 </i>
   </energy>
  </scstep>
  <scstep>
   <time name="dav">   10.29   10.30</time>
   <time name="total">   12.12   12.13</time>
   <energy>
    <i name="e_fr_energy">   -828.51272972 </i>
    <i name="e_wo_entrp">   -828.39223412 </i>
    <i name="e_0_energy">   -828.45248192 </i>
   </energy>
  </scstep>
  <scstep>
   <time name="dav">   10.13   10.13</time>
   <time name="total">   11.95   11.96</time>
   <energy>
    <i name="e_fr_energy">   -828.50238794 </i>
    <i name="e_wo_entrp">   -828.38222584 </i>
    <i name="e_0_energy">   -828.44230689 </i>
   </energy>
  </scstep>
  <scstep>
   <time name="dav">   10.01   10.01</time>
   <time name="total">   11.84   11.85</time>
   <energy>
    <i name="e_fr_energy">   -828.51175954 </i>
    <i name="e_wo_entrp">   -828.39155937 </i>
    <i name="e_0_energy">   -828.45165945 </i>
   </energy>
  </scstep>
  <scstep>
   <time name="dav">   10.25   10.25</time>
   <time name="total">   12.09   12.10</time>
   <energy>
    <i name="e_fr_energy">   -828.52631519 </i>
    <i name="e_wo_entrp">   -828.40610229 </i>
    <i name="e_0_energy">   -828.46620874 </i>
   </energy>
  </scstep>
  <scstep>
   <time name="dav">   10.33   10.34</time>
   <time name="total">   12.18   12.19</time>
   <energy>
    <i name="e_fr_energy">   -828.54421944 </i>
    <i name="e_wo_entrp">   -828.42393050 </i>
    <i name="e_0_energy">   -828.48407497 </i>
   </energy>
  </scstep>
  <scstep>
   <time name="dav">   10.38   10.38</time>
   <time name="total">   12.25   12.26</time>
   <energy>
    <i name="e_fr_energy">   -828.55697474 </i>
    <i name="e_wo_entrp">   -828.43669711 </i>
    <i name="e_0_energy">   -828.49683593 </i>
   </energy>
  </scstep>
  <scstep>
   <time name="dav">   10.09   10.10</time>
   <time name="total">   11.96   11.97</time>
   <energy>
    <i name="e_fr_energy">   -828.56439821 </i>
    <i name="e_wo_entrp">   -828.44410720 </i>
    <i name="e_0_energy">   -828.50425271 </i>
   </energy>
  </scstep>
  <scstep>
   <time name="dav">    9.99    9.99</time>
   <time name="total">   11.87   11.87</time>
   <energy>
    <i name="e_fr_energy">   -828.56681099 </i>
    <i name="e_wo_entrp">   -828.44652884 </i>
    <i name="e_0_energy">   -828.50666991 </i>
   </energy>
  </scstep>
  <scstep>
   <time name="dav">    9.03    9.03</time>
   <time name="total">   10.92   10.92</time>
   <energy>
    <i name="e_fr_energy">   -828.56826643 </i>
    <i name="e_wo_entrp">   -828.44797837 </i>
    <i name="e_0_energy">   -828.50812240 </i>
   </energy>
  </scstep>
  <scstep>
   <time name="dav">    9.28    9.28</time>
   <time name="total">   11.18   11.19</time>
   <energy>
    <i name="e_fr_energy">   -828.56864734 </i>
    <i name="e_wo_entrp">   -828.44836228 </i>
    <i name="e_0_energy">   -828.50850481 </i>
   </energy>
  </scstep>
  <scstep>
   <time name="dav">    8.67    8.68</time>
   <time name="total">   10.60   10.60</time>
   <energy>
    <i name="e_fr_energy">   -828.56889633 </i>
    <i name="e_wo_entrp">   -828.44861133 </i>
    <i name="e_0_energy">   -828.50875383 </i>
   </energy>
  </scstep>
  <scstep>
   <time name="dav">    7.64    7.64</time>
   <time name="total">    9.57    9.57</time>
   <energy>
    <i name="e_fr_energy">   -828.56894847 </i>
    <i name="e_wo_entrp">   -828.44866284 </i>
    <i name="e_0_energy">   -828.50880565 </i>
   </energy>
  </scstep>
  <scstep>
   <time name="dav">    7.06    7.06</time>
   <time name="total">    9.00    9.01</time>
   <energy>
    <i name="e_fr_energy">   -828.56898037 </i>
    <i name="e_wo_entrp">   -828.44869474 </i>
    <i name="e_0_energy">   -828.50883756 </i>
   </energy>
  </scstep>
  <scstep>
   <time name="dav">    7.19    7.19</time>
   <time name="total">    9.14    9.15</time>
   <energy>
    <i name="e_fr_energy">   -828.56898896 </i>
    <i name="e_wo_entrp">   -828.44870375 </i>
    <i name="e_0_energy">   -828.50884635 </i>
   </energy>
  </scstep>
  <scstep>
   <time name="dav">    6.86    6.86</time>
   <time name="total">    8.83    8.83</time>
   <energy>
    <i name="e_fr_energy">   -828.56899395 </i>
    <i name="e_wo_entrp">   -828.44870855 </i>
    <i name="e_0_energy">   -828.50885125 </i>
   </energy>
  </scstep>
  <scstep>
   <time name="dav">    7.28    7.28</time>
   <time name="total">    9.28    9.28</time>
   <energy>
    <i name="e_fr_energy">   -828.56899652 </i>
    <i name="e_wo_entrp">   -828.44871103 </i>
    <i name="e_0_energy">   -828.50885377 </i>
   </energy>
  </scstep>
  <scstep>
   <time name="dav">    7.11    7.11</time>
   <time name="total">    9.11    9.12</time>
   <energy>
    <i name="e_fr_energy">   -828.56899848 </i>
    <i name="e_wo_entrp">   -828.44871308 </i>
    <i name="e_0_energy">   -828.50885578 </i>
   </energy>
  </scstep>
  <scstep>
   <time name="dav">    7.20    7.20</time>
   <time name="total">    7.56    7.56</time>
   <energy>
    <i name="alphaZ">     91.34886789 </i>
    <i name="ewald"> 120115.56535026 </i>
    <i name="hartreedc">-131202.59864543 </i>
    <i name="XCdc">   1279.89686951 </i>
    <i name="pawpsdc">  41332.50716520 </i>
    <i name="pawaedc"> -41396.67234364 </i>
    <i name="eentropy">     -0.12028542 </i>
    <i name="bandstr">  -4586.15077175 </i>
    <i name="atom">  13537.65479391 </i>
    <i name="e_fr_energy">   -828.56899948 </i>
    <i name="e_wo_entrp">   -828.44871406 </i>
    <i name="e_0_energy">   -828.50885677 </i>
   </energy>
  </scstep>
  <structure>
   <crystal>
    <varray name="basis" >
     <v>      28.05000000       0.00000000       0.00000000 </v>
     <v>       0.00000000       8.10000000       0.00000000 </v>
     <v>       0.00000000       0.00000000      33.50000000 </v>
    </varray>
    <i name="volume">   7611.36750000 </i>
    <varray name="rec_basis" >
     <v>       0.03565062       0.00000000       0.00000000 </v>
     <v>       0.00000000       0.12345679       0.00000000 </v>
     <v>       0.00000000       0.00000000       0.02985075 </v>
    </varray>
   </crystal>
   <varray name="positions" >
    <v>       0.00830963       0.10061975       0.53165075 </v>
    <v>       0.00609615       0.27361481       0.53031642 </v>
    <v>       0.04922103       0.02240210       0.54074328 </v>
    <v>       0.04724528       0.35770247       0.53508657 </v>
    <v>       0.09273725       0.10815506       0.53989552 </v>
    <v>       0.09265597       0.27617284       0.53726269 </v>
    <v>       0.13577932       0.01951840       0.53932239 </v>
    <v>       0.13605134       0.35272099       0.53774925 </v>
    <v>       0.18008128       0.09851420       0.52977313 </v>
    <v>       0.18067166       0.27230494       0.52991343 </v>
    <v>       0.22280677       0.01984630       0.52429552 </v>
    <v>       0.22349911       0.35455062       0.52812836 </v>
    <v>       0.26601604       0.10815951       0.51316418 </v>
    <v>       0.26669697       0.27398025       0.51611045 </v>
    <v>       0.30834046       0.02536815       0.50766269 </v>
    <v>       0.30697255       0.36356667       0.50946269 </v>
    <v>       0.35317219       0.11142296       0.50014627 </v>
    <v>       0.34988128       0.27573457       0.49794328 </v>
    <v>       0.39432442       0.02749259       0.48874328 </v>
    <v>       0.39425668       0.35973827       0.48912239 </v>
    <v>       0.43789661       0.10598494       0.47660000 </v>
    <v>       0.43575758       0.27616914       0.47413731 </v>
    <v>       0.48049554       0.02636148       0.46675522 </v>
    <v>       0.48044920       0.35216914       0.46830149 </v>
    <v>       0.52372549       0.10076494       0.45661194 </v>
    <v>       0.52405704       0.27164691       0.45844179 </v>
    <v>       0.56785740       0.01991741       0.44983881 </v>
    <v>       0.56836364       0.34731605       0.45572537 </v>
    <v>       0.61167201       0.10020383       0.44777612 </v>
    <v>       0.61247415       0.26643457       0.44759104 </v>
    <v>       0.65781105       0.01630679       0.45092537 </v>
    <v>       0.65790731       0.35207037       0.45146866 </v>
    <v>       0.70368984       0.09840235       0.45490448 </v>
    <v>       0.70426025       0.26410494       0.45473731 </v>
    <v>       0.74386096       0.01672506       0.46837015 </v>
    <v>       0.74547237       0.34939383       0.46586866 </v>
    <v>       0.78875223       0.10108481       0.47465970 </v>
    <v>       0.78776827       0.26877284       0.47562388 </v>
    <v>       0.83070588       0.02366481       0.48801194 </v>
    <v>       0.83100891       0.35545432       0.48756119 </v>
    <v>       0.87428520       0.10685185       0.50003582 </v>
    <v>       0.87373619       0.27556420       0.49953433 </v>
    <v>       0.91265597       0.02251481       0.51647761 </v>
    <v>       0.91419608       0.35152222       0.51606567 </v>
    <v>       0.95547950       0.10427074       0.52420597 </v>
    <v>       0.95563636       0.27121111       0.52377612 </v>
    <v>       0.00373750       0.61090123       0.54159104 </v>
    <v>       0.00220733       0.78888889       0.54050448 </v>
    <v>       0.04608556       0.52532593       0.54544179 </v>
    <v>       0.04683601       0.85991358       0.54812537 </v>
    <v>       0.09325490       0.60268395       0.55028060 </v>
    <v>       0.09287986       0.77257037       0.55229851 </v>
    <v>       0.13501640       0.52136543       0.54304478 </v>
    <v>       0.13619037       0.85270247       0.54913433 </v>
    <v>       0.17991123       0.60065062       0.54174030 </v>
    <v>       0.18144670       0.77092346       0.54732537 </v>
    <v>       0.22363351       0.52486790       0.53401791 </v>
    <v>       0.22501034       0.85412593       0.53444776 </v>
    <v>       0.26723886       0.60454321       0.52974328 </v>
    <v>       0.26804421       0.77816667       0.52767463 </v>
    <v>       0.30921426       0.52797284       0.51544776 </v>
    <v>       0.30986845       0.85363580       0.51140299 </v>
    <v>       0.35146881       0.61134938       0.50620000 </v>
    <v>       0.35373048       0.77947531       0.50581493 </v>
    <v>       0.39511943       0.52125185       0.49728358 </v>
    <v>       0.39487344       0.85792222       0.49423582 </v>
    <v>       0.43973619       0.60190123       0.48922687 </v>
    <v>       0.43919073       0.76943457       0.48904478 </v>
    <v>       0.48102317       0.51550864       0.47837015 </v>
    <v>       0.48151159       0.85653951       0.47475821 </v>
    <v>       0.52519073       0.60542346       0.47230448 </v>
    <v>       0.52437433       0.77458642       0.46708060 </v>
    <v>       0.56948307       0.51668765       0.46460896 </v>
    <v>       0.56759358       0.85581975       0.45841791 </v>
    <v>       0.61310873       0.60202222       0.45987761 </v>
    <v>       0.61238503       0.77280988       0.45791642 </v>
    <v>       0.65704456       0.51743951       0.45811642 </v>
    <v>       0.65746881       0.84882963       0.45789254 </v>
    <v>       0.69978610       0.59939753       0.46993731 </v>
    <v>       0.69962567       0.76769259       0.47018806 </v>
    <v>       0.74328342       0.51730864       0.47274627 </v>
    <v>       0.74382175       0.84793333       0.47102985 </v>
    <v>       0.78652763       0.60025802       0.48054030 </v>
    <v>       0.78892335       0.77216667       0.47936716 </v>
    <v>       0.82754011       0.52560123       0.49435821 </v>
    <v>       0.82936898       0.85730988       0.49540000 </v>
    <v>       0.87028520       0.60086667       0.50979104 </v>
    <v>       0.86920499       0.77047037       0.51026866 </v>
    <v>       0.91358289       0.52108519       0.52201194 </v>
    <v>       0.91175758       0.85827901       0.52388955 </v>
    <v>       0.95388592       0.59682963       0.53794030 </v>
    <v>       0.95202139       0.78389753       0.53758806 </v>
   </varray>
  </structure>
  <varray name="forces" >
   <v>      -1.40778423       2.23191040      -0.22442081 </v>
   <v>       1.90901306      -1.23710467      -0.05900472 </v>
   <v>       0.42027065       1.51212743       0.05889114 </v>
   <v>       1.09898870       1.40986110       1.27426224 </v>
   <v>       0.20960623      -0.98355255      -0.34712760 </v>
   <v>      -1.70303911      -0.84132478      -0.36850167 </v>
   <v>       1.24069038       0.63217099       0.34618776 </v>
   <v>       1.50242265       0.68354067      -0.69769712 </v>
   <v>      -1.78026897       1.37505431       0.18560105 </v>
   <v>      -2.11915728      -0.89998662       0.63776184 </v>
   <v>       1.38080356      -0.07117280       0.09171115 </v>
   <v>       0.97669855       0.45118809      -0.80988229 </v>
   <v>      -1.45335948      -2.28595292       0.73075622 </v>
   <v>      -2.66761141       1.68928811       0.71901086 </v>
   <v>       1.98159269      -0.74160382      -0.28362556 </v>
   <v>       3.11767851      -2.29447255      -0.80929841 </v>
   <v>      -2.65844856      -2.03855610      -0.92364019 </v>
   <v>       1.03712918       2.84191223      -0.06916722 </v>
   <v>       1.86032670      -0.74031702       0.31442417 </v>
   <v>      -0.93965636      -2.35798576      -0.26743923 </v>
   <v>      -1.96058749       0.52468817      -0.54200169 </v>
   <v>       0.13572607      -0.30001054       0.95007457 </v>
   <v>      -0.35374284      -2.32164466       0.81110241 </v>
   <v>      -0.11656016       0.32477765       0.44238942 </v>
   <v>       0.06627945       1.21217862      -0.82892262 </v>
   <v>      -0.77663904      -0.76641838      -0.15806517 </v>
   <v>      -1.14036664       0.14270208       1.13935352 </v>
   <v>       0.65719144       1.91144594       0.31027591 </v>
   <v>       2.43038689      -1.48193394      -0.90425690 </v>
   <v>       0.66110026       2.29324554       0.66886237 </v>
   <v>       0.02953519       0.70065295       0.02947123 </v>
   <v>       0.49210333      -2.18022861      -0.24450531 </v>
   <v>      -2.39889808      -1.46507156       0.22363526 </v>
   <v>      -2.48464244       3.08293370      -0.16888088 </v>
   <v>       2.19127861       0.26423874      -0.84766999 </v>
   <v>      -0.25464806       0.35367442       0.39924415 </v>
   <v>      -0.68530568      -1.05614585       0.22592846 </v>
   <v>       2.23587117       1.30530110      -0.40900987 </v>
   <v>       1.16652185       0.42014061       1.01283087 </v>
   <v>      -1.03696952      -0.09320059       0.74715971 </v>
   <v>      -2.25598069      -0.84767759      -0.70811886 </v>
   <v>      -0.31410442      -0.04873606      -0.00550175 </v>
   <v>       1.50061645       1.13618123      -0.05298131 </v>
   <v>      -0.35134573       1.83645196      -0.57875574 </v>
   <v>      -0.92422829      -1.08713207      -0.34333844 </v>
   <v>      -1.11948305      -0.34998347      -0.44643572 </v>
   <v>       2.75156099       1.20734312       0.89839494 </v>
   <v>       3.84848255      -3.25329058       2.07737404 </v>
   <v>       1.31001183      -0.02109505      -0.93357085 </v>
   <v>       0.59216555      -2.31296594      -0.44863631 </v>
   <v>      -3.48458529       0.53396887      -0.18952836 </v>
   <v>      -2.29336556      -0.15240653       0.15313588 </v>
   <v>       2.35603773      -0.53842869       0.23577542 </v>
   <v>       1.55281372       1.00050624      -0.44243250 </v>
   <v>      -0.02574059       1.48353271       1.08024402 </v>
   <v>       0.04307857       0.45966603      -1.33817867 </v>
   <v>       0.16028378      -1.70483632       0.11064142 </v>
   <v>      -1.52252351       0.91112563       0.35606393 </v>
   <v>       0.93294997       1.71607179      -0.80417574 </v>
   <v>       1.12971649      -2.15144239      -0.53422633 </v>
   <v>      -0.63040373       0.93132325       0.47821100 </v>
   <v>      -1.55611756       2.32915649       1.26604053 </v>
   <v>       2.29625207      -1.96719022       0.48065500 </v>
   <v>      -1.07945494      -1.19881318      -0.00653163 </v>
   <v>       0.07860290       2.70114845      -0.59443177 </v>
   <v>       2.23210510       0.11536997      -0.18031313 </v>
   <v>      -1.30047558      -0.93505216       0.64552824 </v>
   <v>       0.61883301       2.96333913      -1.11155985 </v>
   <v>       1.94885013       2.07650185      -0.52634009 </v>
   <v>      -1.32797043      -0.09839974      -0.03490186 </v>
   <v>       0.59437694      -2.02076434      -0.39818809 </v>
   <v>       0.36447913      -0.70501180       1.00161395 </v>
   <v>      -0.98204425       0.68825588      -0.76597968 </v>
   <v>       1.05207062      -1.43923105      -0.67661887 </v>
   <v>      -0.94172472      -0.17593780       0.39530994 </v>
   <v>      -0.37623517      -1.03365389       0.56861024 </v>
   <v>       0.46053089       0.67521107       1.01692300 </v>
   <v>      -0.46557643       1.03610363       0.46341226 </v>
   <v>      -0.47708318      -1.08565278      -1.07213402 </v>
   <v>       0.13397428       0.49931365      -1.31840982 </v>
   <v>       0.44007930       0.05342385      -0.36390641 </v>
   <v>       1.07679119       0.45422953       0.86661758 </v>
   <v>       0.09954175       1.94965475       0.96912029 </v>
   <v>      -1.75686001      -0.65262359       1.29423413 </v>
   <v>       2.43059714      -2.65094883      -0.42230669 </v>
   <v>      -0.51918993      -1.44934967      -1.61831886 </v>
   <v>      -0.76667667       1.02471826       0.04983441 </v>
   <v>       1.18261819       0.85676777       1.02133763 </v>
   <v>      -0.15780882      -0.47308548       0.16519639 </v>
   <v>      -1.53038427      -1.51452177      -0.63053327 </v>
   <v>      -3.75203925       3.93135939      -1.12072910 </v>
   <v>      -2.13954791      -3.90884262      -0.28300758 </v>
  </varray>
  <varray name="stress" >
   <v>       0.97786156       0.29186731       0.17040105 </v>
   <v>       0.29186731      54.07423749      -0.33966419 </v>
   <v>       0.17040105      -0.33966419      -1.06497848 </v>
  </varray>
  <energy>
   <i name="e_fr_energy">   -828.56899948 </i>
   <i name="e_wo_entrp">   -828.44871406 </i>
   <i name="e_0_energy">   -828.50885677 </i>
  </energy>
  <time name="totalsc">  323.82  324.01</time>
  <eigenvalues>
   <array>
    <dimension dim="1">band</dimension>
    <dimension dim="2">kpoint</dimension>
    <dimension dim="3">spin</dimension>
    <field>eigene</field>
    <field>occ</field>
    <set>
     <set comment="spin 1">
      <set comment="kpoint 1">
       <r>  -23.1837    1.0000 </r>
       <r>  -23.0732    1.0000 </r>
       <r>  -23.0273    1.0000 </r>
       <r>  -22.7093    1.0000 </r>
       <r>  -22.6114    1.0000 </r>
       <r>  -22.1891    1.0000 </r>
       <r>  -22.0224    1.0000 </r>
       <r>  -21.9991    1.0000 </r>
       <r>  -21.5434    1.0000 </r>
       <r>  -21.4995    1.0000 </r>
       <r>  -21.4479    1.0000 </r>
       <r>  -21.3733    1.0000 </r>
       <r>  -21.2423    1.0000 </r>
       <r>  -21.2169    1.0000 </r>
       <r>  -21.1808    1.0000 </r>
       <r>  -21.1594    1.0000 </r>
       <r>  -21.0015    1.0000 </r>
       <r>  -20.9038    1.0000 </r>
       <r>  -20.7697    1.0000 </r>
       <r>  -20.5864    1.0000 </r>
       <r>  -20.4064    1.0000 </r>
       <r>  -20.3946    1.0000 </r>
       <r>  -20.1443    1.0000 </r>
       <r>  -20.0879    1.0000 </r>
       <r>  -19.9570    1.0000 </r>
       <r>  -19.7814    1.0000 </r>
       <r>  -19.5307    1.0000 </r>
       <r>  -19.4450    1.0000 </r>
       <r>  -19.2443    1.0000 </r>
       <r>  -18.9002    1.0000 </r>
       <r>  -18.7166    1.0000 </r>
       <r>  -18.6621    1.0000 </r>
       <r>  -18.5583    1.0000 </r>
       <r>  -18.4398    1.0000 </r>
       <r>  -18.2285    1.0000 </r>
       <r>  -17.6366    1.0000 </r>
       <r>  -17.3727    1.0000 </r>
       <r>  -17.2264    1.0000 </r>
       <r>  -17.0511    1.0000 </r>
       <r>  -16.9473    1.0000 </r>
       <r>  -16.8352    1.0000 </r>
       <r>  -16.7616    1.0000 </r>
       <r>  -16.6992    1.0000 </r>
       <r>  -16.6514    1.0000 </r>
       <r>  -16.6189    1.0000 </r>
       <r>  -16.5407    1.0000 </r>
       <r>  -16.5072    1.0000 </r>
       <r>  -16.4864    1.0000 </r>
       <r>  -16.3754    1.0000 </r>
       <r>  -16.3612    1.0000 </r>
       <r>  -16.2806    1.0000 </r>
       <r>  -16.1506    1.0000 </r>
       <r>  -16.1344    1.0000 </r>
       <r>  -16.0745    1.0000 </r>
       <r>  -15.8839    1.0000 </r>
       <r>  -15.6397    1.0000 </r>
       <r>  -15.4347    1.0000 </r>
       <r>  -15.3235    1.0000 </r>
       <r>  -15.2776    1.0000 </r>
       <r>  -15.2026    1.0000 </r>
       <r>  -15.1041    1.0000 </r>
       <r>  -14.9485    1.0000 </r>
       <r>  -14.4042    1.0000 </r>
       <r>  -14.1931    1.0000 </r>
       <r>  -14.1421    1.0000 </r>
       <r>  -14.0689    1.0000 </r>
       <r>  -13.9136    1.0000 </r>
       <r>  -13.7582    1.0000 </r>
       <r>  -13.7265    1.0000 </r>
       <r>  -13.6342    1.0000 </r>
       <r>  -13.4887    1.0000 </r>
       <r>  -13.3898    1.0000 </r>
       <r>  -13.2915    1.0000 </r>
       <r>  -13.2373    1.0000 </r>
       <r>  -13.0336    1.0000 </r>
       <r>  -12.9100    1.0000 </r>
       <r>  -12.6854    1.0000 </r>
       <r>  -12.4606    1.0000 </r>
       <r>  -12.1694    1.0000 </r>
       <r>  -12.1469    1.0000 </r>
       <r>  -12.0703    1.0000 </r>
       <r>  -12.0011    1.0000 </r>
       <r>  -11.9603    1.0000 </r>
       <r>  -11.8192    1.0000 </r>
       <r>  -11.7533    1.0000 </r>
       <r>  -11.5632    1.0000 </r>
       <r>  -11.3608    1.0000 </r>
       <r>  -11.2115    1.0000 </r>
       <r>  -11.1712    1.0000 </r>
       <r>  -11.0633    1.0000 </r>
       <r>  -10.9307    1.0000 </r>
       <r>  -10.9150    1.0000 </r>
       <r>  -10.7926    1.0000 </r>
       <r>  -10.7668    1.0000 </r>
       <r>  -10.7164    1.0000 </r>
       <r>  -10.6228    1.0000 </r>
       <r>  -10.5700    1.0000 </r>
       <r>  -10.5458    1.0000 </r>
       <r>  -10.4885    1.0000 </r>
       <r>  -10.4505    1.0000 </r>
       <r>  -10.3926    1.0000 </r>
       <r>  -10.3299    1.0000 </r>
       <r>  -10.2799    1.0000 </r>
       <r>  -10.1917    1.0000 </r>
       <r>  -10.1128    1.0000 </r>
       <r>   -9.9891    1.0000 </r>
       <r>   -9.8661    1.0000 </r>
       <r>   -9.8350    1.0000 </r>
       <r>   -9.7760    1.0000 </r>
       <r>   -9.7016    1.0000 </r>
       <r>   -9.6354    1.0000 </r>
       <r>   -9.6232    1.0000 </r>
       <r>   -9.5982    1.0000 </r>
       <r>   -9.5834    1.0000 </r>
       <r>   -9.5648    1.0000 </r>
       <r>   -9.5355    1.0000 </r>
       <r>   -9.5157    1.0000 </r>
       <r>   -9.4800    1.0000 </r>
       <r>   -9.4263    1.0000 </r>
       <r>   -9.4173    1.0000 </r>
       <r>   -9.3673    1.0000 </r>
       <r>   -9.3469    1.0000 </r>
       <r>   -9.3148    1.0000 </r>
       <r>   -9.2962    1.0000 </r>
       <r>   -9.2873    1.0000 </r>
       <r>   -9.2325    1.0000 </r>
       <r>   -9.2017    1.0000 </r>
       <r>   -9.1756    1.0000 </r>
       <r>   -9.1082    1.0000 </r>
       <r>   -9.0865    1.0000 </r>
       <r>   -9.0619    1.0000 </r>
       <r>   -9.0515    1.0000 </r>
       <r>   -9.0133    1.0000 </r>
       <r>   -8.9934    1.0000 </r>
       <r>   -8.9704    1.0000 </r>
       <r>   -8.9030    1.0000 </r>
       <r>   -8.8673    1.0000 </r>
       <r>   -8.7811    1.0000 </r>
       <r>   -8.7558    1.0000 </r>
       <r>   -8.7030    1.0000 </r>
       <r>   -8.6629    1.0000 </r>
       <r>   -8.6251    1.0000 </r>
       <r>   -8.6122    1.0000 </r>
       <r>   -8.4763    1.0000 </r>
       <r>   -8.3881    1.0000 </r>
       <r>   -8.3143    1.0000 </r>
       <r>   -8.0726    1.0000 </r>
       <r>   -7.9961    1.0000 </r>
       <r>   -7.9338    1.0000 </r>
       <r>   -7.7671    1.0000 </r>
       <r>   -7.6750    1.0000 </r>
       <r>   -7.5993    1.0000 </r>
       <r>   -7.5318    1.0000 </r>
       <r>   -7.4743    1.0000 </r>
       <r>   -7.4410    1.0000 </r>
       <r>   -7.3386    1.0000 </r>
       <r>   -7.1986    1.0000 </r>
       <r>   -7.0968    1.0000 </r>
       <r>   -7.0296    1.0000 </r>
       <r>   -6.9443    1.0000 </r>
       <r>   -6.8868    1.0000 </r>
       <r>   -6.7269    1.0000 </r>
       <r>   -6.5694    1.0000 </r>
       <r>   -6.4966    1.0000 </r>
       <r>   -6.4317    1.0000 </r>
       <r>   -6.2514    1.0000 </r>
       <r>   -6.1208    1.0000 </r>
       <r>   -6.1175    1.0000 </r>
       <r>   -5.9907    1.0000 </r>
       <r>   -5.9385    1.0000 </r>
       <r>   -5.9289    1.0000 </r>
       <r>   -5.8515    1.0000 </r>
       <r>   -5.5711    1.0000 </r>
       <r>   -5.0988    1.0000 </r>
       <r>   -4.9603    1.0000 </r>
       <r>   -4.8995    1.0000 </r>
       <r>   -4.5452    1.0000 </r>
       <r>   -4.5069    1.0000 </r>
       <r>   -4.4605    1.0000 </r>
       <r>   -4.4408    1.0000 </r>
       <r>   -4.4227    1.0000 </r>
       <r>   -3.7525    1.0000 </r>
       <r>   -3.6870    0.9998 </r>
       <r>   -3.1964    0.5336 </r>
       <r>   -3.0517    0.1738 </r>
       <r>   -2.7634    0.0015 </r>
       <r>   -2.6699    0.0001 </r>
       <r>   -2.5210    0.0000 </r>
       <r>   -2.2494    0.0000 </r>
       <r>   -2.1045    0.0000 </r>
       <r>   -1.7277    0.0000 </r>
       <r>   -1.6804    0.0000 </r>
       <r>   -1.5273    0.0000 </r>
       <r>   -1.4679    0.0000 </r>
       <r>   -1.4226    0.0000 </r>
       <r>   -1.3773    0.0000 </r>
       <r>   -1.2572    0.0000 </r>
       <r>   -0.8493    0.0000 </r>
       <r>   -0.7944    0.0000 </r>
       <r>   -0.6709    0.0000 </r>
       <r>   -0.5681    0.0000 </r>
       <r>   -0.4300    0.0000 </r>
       <r>   -0.0547    0.0000 </r>
       <r>    0.0707    0.0000 </r>
       <r>    0.1031    0.0000 </r>
       <r>    0.1452    0.0000 </r>
       <r>    0.3343    0.0000 </r>
       <r>    0.6080    0.0000 </r>
       <r>    0.6662    0.0000 </r>
       <r>    0.6971    0.0000 </r>
       <r>    0.7678    0.0000 </r>
       <r>    0.8467    0.0000 </r>
       <r>    0.9088    0.0000 </r>
       <r>    0.9124    0.0000 </r>
       <r>    0.9268    0.0000 </r>
       <r>    0.9819    0.0000 </r>
       <r>    1.1051    0.0000 </r>
       <r>    1.1502    0.0000 </r>
       <r>    1.1576    0.0000 </r>
       <r>    1.2178    0.0000 </r>
       <r>    1.3143    0.0000 </r>
       <r>    1.3222    0.0000 </r>
       <r>    1.3305    0.0000 </r>
       <r>    1.4050    0.0000 </r>
       <r>    1.4606    0.0000 </r>
       <r>    1.5508    0.0000 </r>
       <r>    1.5686    0.0000 </r>
       <r>    1.7103    0.0000 </r>
       <r>    1.7219    0.0000 </r>
       <r>    1.7296    0.0000 </r>
       <r>    1.7305    0.0000 </r>
       <r>    1.8662    0.0000 </r>
      </set>
      <set comment="kpoint 2">
       <r>  -23.0987    1.0000 </r>
       <r>  -22.9860    1.0000 </r>
       <r>  -22.9268    1.0000 </r>
       <r>  -22.6283    1.0000 </r>
       <r>  -22.5152    1.0000 </r>
       <r>  -22.3493    1.0000 </r>
       <r>  -22.2040    1.0000 </r>
       <r>  -22.1230    1.0000 </r>
       <r>  -21.9502    1.0000 </r>
       <r>  -21.8952    1.0000 </r>
       <r>  -21.8210    1.0000 </r>
       <r>  -21.7049    1.0000 </r>
       <r>  -21.2630    1.0000 </r>
       <r>  -21.1508    1.0000 </r>
       <r>  -21.0763    1.0000 </r>
       <r>  -20.9489    1.0000 </r>
       <r>  -20.6298    1.0000 </r>
       <r>  -20.5522    1.0000 </r>
       <r>  -20.5213    1.0000 </r>
       <r>  -20.3170    1.0000 </r>
       <r>  -20.1814    1.0000 </r>
       <r>  -20.1184    1.0000 </r>
       <r>  -20.0423    1.0000 </r>
       <r>  -19.9397    1.0000 </r>
       <r>  -19.8611    1.0000 </r>
       <r>  -19.5561    1.0000 </r>
       <r>  -19.5032    1.0000 </r>
       <r>  -19.1437    1.0000 </r>
       <r>  -19.0604    1.0000 </r>
       <r>  -18.8862    1.0000 </r>
       <r>  -18.6656    1.0000 </r>
       <r>  -18.5877    1.0000 </r>
       <r>  -18.5831    1.0000 </r>
       <r>  -18.3027    1.0000 </r>
       <r>  -18.1968    1.0000 </r>
       <r>  -18.1126    1.0000 </r>
       <r>  -18.0625    1.0000 </r>
       <r>  -18.0240    1.0000 </r>
       <r>  -17.8155    1.0000 </r>
       <r>  -17.7605    1.0000 </r>
       <r>  -17.4732    1.0000 </r>
       <r>  -17.3678    1.0000 </r>
       <r>  -17.3122    1.0000 </r>
       <r>  -17.1573    1.0000 </r>
       <r>  -17.0631    1.0000 </r>
       <r>  -16.6446    1.0000 </r>
       <r>  -16.2991    1.0000 </r>
       <r>  -16.1849    1.0000 </r>
       <r>  -16.0703    1.0000 </r>
       <r>  -15.9132    1.0000 </r>
       <r>  -15.8616    1.0000 </r>
       <r>  -15.6849    1.0000 </r>
       <r>  -15.5977    1.0000 </r>
       <r>  -15.3557    1.0000 </r>
       <r>  -15.2958    1.0000 </r>
       <r>  -15.2700    1.0000 </r>
       <r>  -15.1605    1.0000 </r>
       <r>  -15.0977    1.0000 </r>
       <r>  -15.0063    1.0000 </r>
       <r>  -14.9803    1.0000 </r>
       <r>  -14.9392    1.0000 </r>
       <r>  -14.7333    1.0000 </r>
       <r>  -14.5565    1.0000 </r>
       <r>  -14.3622    1.0000 </r>
       <r>  -14.2596    1.0000 </r>
       <r>  -14.2073    1.0000 </r>
       <r>  -14.0067    1.0000 </r>
       <r>  -13.8372    1.0000 </r>
       <r>  -13.3642    1.0000 </r>
       <r>  -13.2516    1.0000 </r>
       <r>  -13.2143    1.0000 </r>
       <r>  -13.1302    1.0000 </r>
       <r>  -12.9227    1.0000 </r>
       <r>  -12.8556    1.0000 </r>
       <r>  -12.8050    1.0000 </r>
       <r>  -12.7700    1.0000 </r>
       <r>  -12.6826    1.0000 </r>
       <r>  -12.5506    1.0000 </r>
       <r>  -12.3834    1.0000 </r>
       <r>  -12.3137    1.0000 </r>
       <r>  -12.1869    1.0000 </r>
       <r>  -12.1014    1.0000 </r>
       <r>  -12.0474    1.0000 </r>
       <r>  -12.0023    1.0000 </r>
       <r>  -11.6737    1.0000 </r>
       <r>  -11.6049    1.0000 </r>
       <r>  -11.4923    1.0000 </r>
       <r>  -11.4058    1.0000 </r>
       <r>  -11.2779    1.0000 </r>
       <r>  -11.2168    1.0000 </r>
       <r>  -11.0884    1.0000 </r>
       <r>  -11.0380    1.0000 </r>
       <r>  -10.9722    1.0000 </r>
       <r>  -10.9610    1.0000 </r>
       <r>  -10.8875    1.0000 </r>
       <r>  -10.8770    1.0000 </r>
       <r>  -10.8726    1.0000 </r>
       <r>  -10.8287    1.0000 </r>
       <r>  -10.7522    1.0000 </r>
       <r>  -10.6847    1.0000 </r>
       <r>  -10.5881    1.0000 </r>
       <r>  -10.5083    1.0000 </r>
       <r>  -10.4595    1.0000 </r>
       <r>  -10.4237    1.0000 </r>
       <r>  -10.3794    1.0000 </r>
       <r>  -10.3286    1.0000 </r>
       <r>  -10.2377    1.0000 </r>
       <r>  -10.0998    1.0000 </r>
       <r>  -10.0645    1.0000 </r>
       <r>   -9.9975    1.0000 </r>
       <r>   -9.9759    1.0000 </r>
       <r>   -9.9220    1.0000 </r>
       <r>   -9.9009    1.0000 </r>
       <r>   -9.8364    1.0000 </r>
       <r>   -9.7883    1.0000 </r>
       <r>   -9.7228    1.0000 </r>
       <r>   -9.6672    1.0000 </r>
       <r>   -9.6293    1.0000 </r>
       <r>   -9.5807    1.0000 </r>
       <r>   -9.5481    1.0000 </r>
       <r>   -9.5204    1.0000 </r>
       <r>   -9.4541    1.0000 </r>
       <r>   -9.4148    1.0000 </r>
       <r>   -9.3410    1.0000 </r>
       <r>   -9.2833    1.0000 </r>
       <r>   -9.2106    1.0000 </r>
       <r>   -9.0178    1.0000 </r>
       <r>   -8.9614    1.0000 </r>
       <r>   -8.8805    1.0000 </r>
       <r>   -8.8169    1.0000 </r>
       <r>   -8.7931    1.0000 </r>
       <r>   -8.7043    1.0000 </r>
       <r>   -8.6551    1.0000 </r>
       <r>   -8.5997    1.0000 </r>
       <r>   -8.5722    1.0000 </r>
       <r>   -8.5387    1.0000 </r>
       <r>   -8.4896    1.0000 </r>
       <r>   -8.4109    1.0000 </r>
       <r>   -8.3859    1.0000 </r>
       <r>   -8.3215    1.0000 </r>
       <r>   -8.2395    1.0000 </r>
       <r>   -8.1801    1.0000 </r>
       <r>   -8.1345    1.0000 </r>
       <r>   -8.0847    1.0000 </r>
       <r>   -8.0173    1.0000 </r>
       <r>   -7.9760    1.0000 </r>
       <r>   -7.9264    1.0000 </r>
       <r>   -7.8411    1.0000 </r>
       <r>   -7.7983    1.0000 </r>
       <r>   -7.7154    1.0000 </r>
       <r>   -7.6531    1.0000 </r>
       <r>   -7.5069    1.0000 </r>
       <r>   -7.4532    1.0000 </r>
       <r>   -7.3927    1.0000 </r>
       <r>   -7.3287    1.0000 </r>
       <r>   -7.2361    1.0000 </r>
       <r>   -7.0912    1.0000 </r>
       <r>   -7.0073    1.0000 </r>
       <r>   -6.9351    1.0000 </r>
       <r>   -6.8829    1.0000 </r>
       <r>   -6.8189    1.0000 </r>
       <r>   -6.6645    1.0000 </r>
       <r>   -6.5852    1.0000 </r>
       <r>   -6.5090    1.0000 </r>
       <r>   -6.4553    1.0000 </r>
       <r>   -6.3253    1.0000 </r>
       <r>   -6.1308    1.0000 </r>
       <r>   -6.0507    1.0000 </r>
       <r>   -5.9969    1.0000 </r>
       <r>   -5.9398    1.0000 </r>
       <r>   -5.7964    1.0000 </r>
       <r>   -5.7604    1.0000 </r>
       <r>   -5.7191    1.0000 </r>
       <r>   -5.6637    1.0000 </r>
       <r>   -5.5801    1.0000 </r>
       <r>   -5.4967    1.0000 </r>
       <r>   -5.1732    1.0000 </r>
       <r>   -5.1305    1.0000 </r>
       <r>   -4.7186    1.0000 </r>
       <r>   -4.6478    1.0000 </r>
       <r>   -4.5385    1.0000 </r>
       <r>   -4.4503    1.0000 </r>
       <r>   -4.3691    1.0000 </r>
       <r>   -3.3676    0.9023 </r>
       <r>   -3.0736    0.2165 </r>
       <r>   -2.5574    0.0000 </r>
       <r>   -2.1084    0.0000 </r>
       <r>   -2.0741    0.0000 </r>
       <r>   -1.5965    0.0000 </r>
       <r>   -1.5347    0.0000 </r>
       <r>   -1.4267    0.0000 </r>
       <r>   -1.3714    0.0000 </r>
       <r>   -1.3425    0.0000 </r>
       <r>   -1.2748    0.0000 </r>
       <r>   -1.1209    0.0000 </r>
       <r>   -1.0287    0.0000 </r>
       <r>   -0.9393    0.0000 </r>
       <r>   -0.8940    0.0000 </r>
       <r>   -0.7789    0.0000 </r>
       <r>   -0.3525    0.0000 </r>
       <r>   -0.2383    0.0000 </r>
       <r>   -0.1352    0.0000 </r>
       <r>   -0.0340    0.0000 </r>
       <r>    0.0631    0.0000 </r>
       <r>    0.1063    0.0000 </r>
       <r>    0.2120    0.0000 </r>
       <r>    0.2652    0.0000 </r>
       <r>    0.3215    0.0000 </r>
       <r>    0.3871    0.0000 </r>
       <r>    0.7687    0.0000 </r>
       <r>    0.8161    0.0000 </r>
       <r>    0.8430    0.0000 </r>
       <r>    1.0350    0.0000 </r>
       <r>    1.0594    0.0000 </r>
       <r>    1.0845    0.0000 </r>
       <r>    1.1234    0.0000 </r>
       <r>    1.1654    0.0000 </r>
       <r>    1.2221    0.0000 </r>
       <r>    1.2928    0.0000 </r>
       <r>    1.2991    0.0000 </r>
       <r>    1.3598    0.0000 </r>
       <r>    1.3745    0.0000 </r>
       <r>    1.4282    0.0000 </r>
       <r>    1.4550    0.0000 </r>
       <r>    1.4685    0.0000 </r>
       <r>    1.4859    0.0000 </r>
       <r>    1.5476    0.0000 </r>
       <r>    1.5932    0.0000 </r>
       <r>    1.6082    0.0000 </r>
       <r>    1.6682    0.0000 </r>
       <r>    1.7007    0.0000 </r>
       <r>    1.7193    0.0000 </r>
      </set>
      <set comment="kpoint 3">
       <r>  -22.9560    1.0000 </r>
       <r>  -22.7393    1.0000 </r>
       <r>  -22.7342    1.0000 </r>
       <r>  -22.6208    1.0000 </r>
       <r>  -22.6176    1.0000 </r>
       <r>  -22.5594    1.0000 </r>
       <r>  -22.3626    1.0000 </r>
       <r>  -22.2591    1.0000 </r>
       <r>  -22.2183    1.0000 </r>
       <r>  -22.1635    1.0000 </r>
       <r>  -21.7201    1.0000 </r>
       <r>  -21.6649    1.0000 </r>
       <r>  -21.6388    1.0000 </r>
       <r>  -21.4961    1.0000 </r>
       <r>  -20.9275    1.0000 </r>
       <r>  -20.8395    1.0000 </r>
       <r>  -20.7121    1.0000 </r>
       <r>  -20.6093    1.0000 </r>
       <r>  -19.9575    1.0000 </r>
       <r>  -19.8383    1.0000 </r>
       <r>  -19.6623    1.0000 </r>
       <r>  -19.6411    1.0000 </r>
       <r>  -19.5648    1.0000 </r>
       <r>  -19.5121    1.0000 </r>
       <r>  -19.4653    1.0000 </r>
       <r>  -19.3795    1.0000 </r>
       <r>  -19.2875    1.0000 </r>
       <r>  -19.2533    1.0000 </r>
       <r>  -19.0792    1.0000 </r>
       <r>  -19.0630    1.0000 </r>
       <r>  -18.9861    1.0000 </r>
       <r>  -18.9304    1.0000 </r>
       <r>  -18.6538    1.0000 </r>
       <r>  -18.5761    1.0000 </r>
       <r>  -18.5365    1.0000 </r>
       <r>  -18.4662    1.0000 </r>
       <r>  -18.3691    1.0000 </r>
       <r>  -18.2332    1.0000 </r>
       <r>  -18.1722    1.0000 </r>
       <r>  -18.0513    1.0000 </r>
       <r>  -17.7415    1.0000 </r>
       <r>  -17.7280    1.0000 </r>
       <r>  -17.6750    1.0000 </r>
       <r>  -17.6344    1.0000 </r>
       <r>  -16.9554    1.0000 </r>
       <r>  -16.7133    1.0000 </r>
       <r>  -16.3582    1.0000 </r>
       <r>  -16.1971    1.0000 </r>
       <r>  -16.1250    1.0000 </r>
       <r>  -16.0134    1.0000 </r>
       <r>  -15.9930    1.0000 </r>
       <r>  -15.9319    1.0000 </r>
       <r>  -15.3078    1.0000 </r>
       <r>  -15.2018    1.0000 </r>
       <r>  -15.1379    1.0000 </r>
       <r>  -15.0632    1.0000 </r>
       <r>  -14.9035    1.0000 </r>
       <r>  -14.8569    1.0000 </r>
       <r>  -14.7758    1.0000 </r>
       <r>  -14.6632    1.0000 </r>
       <r>  -14.0198    1.0000 </r>
       <r>  -13.9993    1.0000 </r>
       <r>  -13.8177    1.0000 </r>
       <r>  -13.7597    1.0000 </r>
       <r>  -13.7206    1.0000 </r>
       <r>  -13.6891    1.0000 </r>
       <r>  -13.6545    1.0000 </r>
       <r>  -13.6266    1.0000 </r>
       <r>  -13.5865    1.0000 </r>
       <r>  -13.5509    1.0000 </r>
       <r>  -13.5216    1.0000 </r>
       <r>  -13.4914    1.0000 </r>
       <r>  -13.4406    1.0000 </r>
       <r>  -13.3251    1.0000 </r>
       <r>  -13.0432    1.0000 </r>
       <r>  -12.9891    1.0000 </r>
       <r>  -12.3528    1.0000 </r>
       <r>  -12.2947    1.0000 </r>
       <r>  -12.1770    1.0000 </r>
       <r>  -12.1532    1.0000 </r>
       <r>  -12.1480    1.0000 </r>
       <r>  -12.0583    1.0000 </r>
       <r>  -11.9974    1.0000 </r>
       <r>  -11.9525    1.0000 </r>
       <r>  -11.9403    1.0000 </r>
       <r>  -11.8105    1.0000 </r>
       <r>  -11.7698    1.0000 </r>
       <r>  -11.7352    1.0000 </r>
       <r>  -11.6689    1.0000 </r>
       <r>  -11.5843    1.0000 </r>
       <r>  -11.3233    1.0000 </r>
       <r>  -11.2680    1.0000 </r>
       <r>  -11.2047    1.0000 </r>
       <r>  -11.1443    1.0000 </r>
       <r>  -11.0356    1.0000 </r>
       <r>  -10.9719    1.0000 </r>
       <r>  -10.8171    1.0000 </r>
       <r>  -10.7416    1.0000 </r>
       <r>  -10.7298    1.0000 </r>
       <r>  -10.6591    1.0000 </r>
       <r>  -10.6116    1.0000 </r>
       <r>  -10.5617    1.0000 </r>
       <r>  -10.5265    1.0000 </r>
       <r>  -10.5142    1.0000 </r>
       <r>  -10.4926    1.0000 </r>
       <r>  -10.4395    1.0000 </r>
       <r>  -10.3735    1.0000 </r>
       <r>  -10.3406    1.0000 </r>
       <r>  -10.2884    1.0000 </r>
       <r>  -10.2676    1.0000 </r>
       <r>  -10.1868    1.0000 </r>
       <r>  -10.1622    1.0000 </r>
       <r>  -10.1069    1.0000 </r>
       <r>  -10.0883    1.0000 </r>
       <r>  -10.0503    1.0000 </r>
       <r>  -10.0126    1.0000 </r>
       <r>   -9.9782    1.0000 </r>
       <r>   -9.9400    1.0000 </r>
       <r>   -9.7721    1.0000 </r>
       <r>   -9.7043    1.0000 </r>
       <r>   -9.4199    1.0000 </r>
       <r>   -9.3801    1.0000 </r>
       <r>   -9.3416    1.0000 </r>
[...]
       <r>   -22.6661    13.7961     7.1602 </r>
       <r>   -22.5692    14.8970     8.6027 </r>
       <r>   -22.4724    14.1193     9.9699 </r>
       <r>   -22.3756    13.1191    11.2403 </r>
       <r>   -22.2787    13.7912    12.5757 </r>
       <r>   -22.1819    15.2174    14.0493 </r>
       <r>   -22.0851    15.5781    15.5577 </r>
       <r>   -21.9882    14.9348    17.0039 </r>
       <r>   -21.8914    14.3009    18.3887 </r>
       <r>   -21.7946    13.8639    19.7312 </r>
       <r>   -21.6977    13.3411    21.0230 </r>
       <r>   -21.6009    12.5415    22.2375 </r>
       <r>   -21.5041    11.6079    23.3615 </r>
       <r>   -21.4072    11.2248    24.4484 </r>
       <r>   -21.3104    12.2287    25.6326 </r>
       <r>   -21.2136    14.3568    27.0228 </r>
       <r>   -21.1167    15.8368    28.5563 </r>
       <r>   -21.0199    15.5437    30.0615 </r>
       <r>   -20.9231    14.1114    31.4279 </r>
       <r>   -20.8262    12.6623    32.6540 </r>
       <r>   -20.7294    12.3460    33.8495 </r>
       <r>   -20.6326    13.5273    35.1594 </r>
       <r>   -20.5357    14.5811    36.5713 </r>
       <r>   -20.4389    13.9077    37.9181 </r>
       <r>   -20.3421    12.4691    39.1255 </r>
       <r>   -20.2452    12.3345    40.3199 </r>
       <r>   -20.1484    13.9817    41.6738 </r>
       <r>   -20.0516    15.9359    43.2169 </r>
       <r>   -19.9547    16.5036    44.8150 </r>
       <r>   -19.8579    15.2841    46.2950 </r>
       <r>   -19.7611    13.4932    47.6016 </r>
       <r>   -19.6642    13.2851    48.8880 </r>
       <r>   -19.5674    15.0891    50.3491 </r>
       <r>   -19.4706    16.2984    51.9273 </r>
       <r>   -19.3737    15.0546    53.3851 </r>
       <r>   -19.2769    13.1267    54.6562 </r>
       <r>   -19.1801    12.7906    55.8948 </r>
       <r>   -19.0832    13.7058    57.2219 </r>
       <r>   -18.9864    14.1195    58.5892 </r>
       <r>   -18.8896    13.4519    59.8918 </r>
       <r>   -18.7927    13.2477    61.1746 </r>
       <r>   -18.6959    15.2520    62.6515 </r>
       <r>   -18.5991    18.1206    64.4061 </r>
       <r>   -18.5022    18.5572    66.2031 </r>
       <r>   -18.4054    16.5472    67.8054 </r>
       <r>   -18.3086    15.3341    69.2902 </r>
       <r>   -18.2117    16.2257    70.8614 </r>
       <r>   -18.1149    17.1277    72.5199 </r>
       <r>   -18.0181    15.9015    74.0597 </r>
       <r>   -17.9212    13.4161    75.3588 </r>
       <r>   -17.8244    12.3180    76.5516 </r>
       <r>   -17.7276    12.7852    77.7897 </r>
       <r>   -17.6307    12.5833    79.0081 </r>
       <r>   -17.5339    11.4373    80.1156 </r>
       <r>   -17.4371    11.1120    81.1917 </r>
       <r>   -17.3402    11.8017    82.3344 </r>
       <r>   -17.2434    12.1797    83.5138 </r>
       <r>   -17.1466    11.8909    84.6653 </r>
       <r>   -17.0497    11.3044    85.7599 </r>
       <r>   -16.9529    10.4857    86.7753 </r>
       <r>   -16.8561    10.0490    87.7483 </r>
       <r>   -16.7592    10.9845    88.8120 </r>
       <r>   -16.6624    12.7633    90.0479 </r>
       <r>   -16.5656    13.7059    91.3751 </r>
       <r>   -16.4687    13.7025    92.7019 </r>
       <r>   -16.3719    14.3063    94.0873 </r>
       <r>   -16.2751    16.1572    95.6518 </r>
       <r>   -16.1783    18.2787    97.4218 </r>
       <r>   -16.0814    19.3706    99.2975 </r>
       <r>   -15.9846    18.7840   101.1164 </r>
       <r>   -15.8878    16.6557   102.7292 </r>
       <r>   -15.7909    13.7592   104.0616 </r>
       <r>   -15.6941    11.3650   105.1621 </r>
       <r>   -15.5973    10.1824   106.1481 </r>
       <r>   -15.5004    10.4929   107.1641 </r>
       <r>   -15.4036    13.2973   108.4517 </r>
       <r>   -15.3068    18.2623   110.2201 </r>
       <r>   -15.2099    22.5390   112.4027 </r>
       <r>   -15.1131    24.1192   114.7382 </r>
       <r>   -15.0163    23.2871   116.9931 </r>
       <r>   -14.9194    20.5867   118.9866 </r>
       <r>   -14.8226    16.6004   120.5941 </r>
       <r>   -14.7258    12.7098   121.8248 </r>
       <r>   -14.6289     9.9679   122.7900 </r>
       <r>   -14.5321     8.5716   123.6200 </r>
       <r>   -14.4353     8.6845   124.4610 </r>
       <r>   -14.3384    10.2534   125.4539 </r>
       <r>   -14.2416    12.3315   126.6480 </r>
       <r>   -14.1448    13.7394   127.9784 </r>
       <r>   -14.0479    14.2634   129.3595 </r>
       <r>   -13.9511    14.5771   130.7711 </r>
       <r>   -13.8543    15.4626   132.2684 </r>
       <r>   -13.7574    17.0445   133.9188 </r>
       <r>   -13.6606    18.3538   135.6961 </r>
       <r>   -13.5638    18.5612   137.4934 </r>
       <r>   -13.4669    18.1816   139.2540 </r>
       <r>   -13.3701    18.1194   141.0086 </r>
       <r>   -13.2733    18.1780   142.7688 </r>
       <r>   -13.1764    17.4186   144.4555 </r>
       <r>   -13.0796    16.0632   146.0109 </r>
       <r>   -12.9828    15.5738   147.5190 </r>
       <r>   -12.8859    16.2875   149.0962 </r>
       <r>   -12.7891    16.6500   150.7084 </r>
       <r>   -12.6923    15.3294   152.1928 </r>
       <r>   -12.5954    13.0439   153.4559 </r>
       <r>   -12.4986    11.8351   154.6019 </r>
       <r>   -12.4018    13.0122   155.8619 </r>
       <r>   -12.3049    16.3832   157.4484 </r>
       <r>   -12.2081    21.0279   159.4845 </r>
       <r>   -12.1113    25.2382   161.9284 </r>
       <r>   -12.0144    26.3680   164.4817 </r>
       <r>   -11.9176    23.5775   166.7648 </r>
       <r>   -11.8208    19.7248   168.6748 </r>
       <r>   -11.7239    17.8210   170.4005 </r>
       <r>   -11.6271    17.4571   172.0909 </r>
       <r>   -11.5303    16.9462   173.7319 </r>
       <r>   -11.4334    16.5629   175.3357 </r>
       <r>   -11.3366    17.6963   177.0493 </r>
       <r>   -11.2398    20.3976   179.0244 </r>
       <r>   -11.1429    23.7050   181.3199 </r>
       <r>   -11.0461    27.4961   183.9824 </r>
       <r>   -10.9493    31.6718   187.0493 </r>
       <r>   -10.8524    34.6509   190.4046 </r>
       <r>   -10.7556    35.3032   193.8231 </r>
       <r>   -10.6588    35.1140   197.2233 </r>
       <r>   -10.5619    36.1746   200.7262 </r>
       <r>   -10.4651    37.8349   204.3899 </r>
       <r>   -10.3683    37.5656   208.0274 </r>
       <r>   -10.2714    34.9752   211.4142 </r>
       <r>   -10.1746    32.7310   214.5836 </r>
       <r>   -10.0778    32.9548   217.7747 </r>
       <r>    -9.9809    34.4256   221.1083 </r>
       <r>    -9.8841    34.9150   224.4892 </r>
       <r>    -9.7873    34.7887   227.8579 </r>
       <r>    -9.6904    36.0016   231.3440 </r>
       <r>    -9.5936    38.6788   235.0894 </r>
       <r>    -9.4968    40.9612   239.0558 </r>
       <r>    -9.3999    41.5128   243.0756 </r>
       <r>    -9.3031    39.9326   246.9424 </r>
       <r>    -9.2063    36.3632   250.4636 </r>
       <r>    -9.1094    32.8096   253.6406 </r>
       <r>    -9.0126    31.5991   256.7004 </r>
       <r>    -8.9158    32.1732   259.8159 </r>
       <r>    -8.8189    32.9292   263.0045 </r>
       <r>    -8.7221    33.6962   266.2674 </r>
       <r>    -8.6253    34.1662   269.5758 </r>
       <r>    -8.5284    33.6186   272.8312 </r>
       <r>    -8.4316    32.5837   275.9864 </r>
       <r>    -8.3348    31.8245   279.0680 </r>
       <r>    -8.2380    30.8829   282.0585 </r>
       <r>    -8.1411    29.3113   284.8968 </r>
       <r>    -8.0443    27.5706   287.5666 </r>
       <r>    -7.9475    26.2317   290.1066 </r>
       <r>    -7.8506    25.5293   292.5787 </r>
       <r>    -7.7538    25.6109   295.0587 </r>
       <r>    -7.6570    26.3404   297.6093 </r>
       <r>    -7.5601    27.4270   300.2652 </r>
       <r>    -7.4633    28.5371   303.0285 </r>
       <r>    -7.3665    28.8099   305.8182 </r>
       <r>    -7.2696    27.7400   308.5044 </r>
       <r>    -7.1728    26.2378   311.0451 </r>
       <r>    -7.0760    25.6978   313.5335 </r>
       <r>    -6.9791    26.2500   316.0753 </r>
       <r>    -6.8823    26.3101   318.6230 </r>
       <r>    -6.7855    24.8675   321.0310 </r>
       <r>    -6.6886    23.3251   323.2896 </r>
       <r>    -6.5918    23.1245   325.5289 </r>
       <r>    -6.4950    23.2760   327.7827 </r>
       <r>    -6.3981    22.1204   329.9247 </r>
       <r>    -6.3013    19.8816   331.8499 </r>
       <r>    -6.2045    18.6144   333.6524 </r>
       <r>    -6.1076    20.1460   335.6032 </r>
       <r>    -6.0108    23.6324   337.8916 </r>
       <r>    -5.9140    26.2076   340.4294 </r>
       <r>    -5.8171    26.5060   342.9960 </r>
       <r>    -5.7203    25.2239   345.4385 </r>
       <r>    -5.6235    22.7872   347.6451 </r>
       <r>    -5.5266    18.8800   349.4733 </r>
       <r>    -5.4298    14.1348   350.8420 </r>
       <r>    -5.3330    11.0469   351.9117 </r>
       <r>    -5.2361    11.2671   353.0027 </r>
       <r>    -5.1393    12.6033   354.2231 </r>
       <r>    -5.0425    11.7800   355.3638 </r>
       <r>    -4.9456     9.0485   356.2400 </r>
       <r>    -4.8488     7.1482   356.9322 </r>
       <r>    -4.7520     7.7340   357.6811 </r>
       <r>    -4.6551    10.5760   358.7052 </r>
       <r>    -4.5583    14.1894   360.0792 </r>
       <r>    -4.4615    16.1679   361.6448 </r>
       <r>    -4.3646    14.3922   363.0385 </r>
       <r>    -4.2678     9.5783   363.9660 </r>
       <r>    -4.1710     5.0152   364.4516 </r>
       <r>    -4.0741     2.7730   364.7201 </r>
       <r>    -3.9773     2.3846   364.9510 </r>
       <r>    -3.8805     2.9267   365.2344 </r>
       <r>    -3.7836     3.8054   365.6029 </r>
       <r>    -3.6868     4.1192   366.0018 </r>
       <r>    -3.5900     3.5196   366.3426 </r>
       <r>    -3.4931     2.9938   366.6325 </r>
       <r>    -3.3963     3.3879   366.9605 </r>
       <r>    -3.2995     4.3162   367.3785 </r>
       <r>    -3.2026     5.3083   367.8925 </r>
       <r>    -3.1058     6.2752   368.5002 </r>
       <r>    -3.0090     6.5772   369.1370 </r>
       <r>    -2.9121     5.7708   369.6959 </r>
       <r>    -2.8153     4.8748   370.1679 </r>
       <r>    -2.7185     5.1712   370.6686 </r>
       <r>    -2.6216     6.4619   371.2944 </r>
       <r>    -2.5248     7.2091   371.9924 </r>
       <r>    -2.4280     6.3807   372.6103 </r>
       <r>    -2.3311     5.1534   373.1093 </r>
       <r>    -2.2343     5.5093   373.6428 </r>
       <r>    -2.1375     7.1947   374.3395 </r>
       <r>    -2.0406     7.8171   375.0964 </r>
       <r>    -1.9438     6.4687   375.7228 </r>
       <r>    -1.8470     5.5935   376.2644 </r>
       <r>    -1.7501     7.8361   377.0232 </r>
       <r>    -1.6533    12.7875   378.2615 </r>
       <r>    -1.5565    18.0198   380.0064 </r>
       <r>    -1.4596    21.6230   382.1002 </r>
       <r>    -1.3628    22.6965   384.2980 </r>
       <r>    -1.2660    21.2677   386.3574 </r>
       <r>    -1.1691    18.8294   388.1807 </r>
       <r>    -1.0723    17.2151   389.8477 </r>
       <r>    -0.9755    16.7842   391.4730 </r>
       <r>    -0.8786    16.5800   393.0784 </r>
       <r>    -0.7818    15.5854   394.5876 </r>
       <r>    -0.6850    13.6213   395.9066 </r>
       <r>    -0.5881    11.5005   397.0202 </r>
       <r>    -0.4913    10.3277   398.0203 </r>
       <r>    -0.3945    10.5931   399.0461 </r>
       <r>    -0.2977    12.1314   400.2208 </r>
       <r>    -0.2008    14.6040   401.6349 </r>
       <r>    -0.1040    17.3335   403.3134 </r>
       <r>    -0.0072    19.3725   405.1893 </r>
       <r>     0.0897    20.3741   407.1622 </r>
       <r>     0.1865    20.7331   409.1698 </r>
       <r>     0.2833    20.8230   411.1862 </r>
       <r>     0.3802    20.3409   413.1558 </r>
       <r>     0.4770    19.2806   415.0228 </r>
       <r>     0.5738    19.3659   416.8981 </r>
       <r>     0.6707    22.1756   419.0454 </r>
       <r>     0.7675    26.4582   421.6074 </r>
       <r>     0.8643    29.7410   424.4873 </r>
       <r>     0.9612    31.9244   427.5787 </r>
       <r>     1.0580    35.0866   430.9762 </r>
       <r>     1.1548    39.9493   434.8446 </r>
       <r>     1.2517    45.0441   439.2064 </r>
       <r>     1.3485    48.8573   443.9374 </r>
       <r>     1.4453    50.4009   448.8178 </r>
       <r>     1.5422    48.3865   453.5032 </r>
       <r>     1.6390    41.8609   457.5568 </r>
       <r>     1.7358    31.5750   460.6143 </r>
       <r>     1.8327    19.8827   462.5396 </r>
       <r>     1.9295     9.9273   463.5008 </r>
       <r>     2.0263     3.7900   463.8678 </r>
       <r>     2.1232     1.0905   463.9734 </r>
       <r>     2.2200     0.2337   463.9961 </r>
       <r>     2.3168     0.0363   463.9996 </r>
       <r>     2.4137     0.0039   464.0000 </r>
       <r>     2.5105     0.0003   464.0000 </r>
       <r>     2.6073     0.0000   464.0000 </r>
       <r>     2.7042     0.0000   464.0000 </r>
       <r>     2.8010     0.0000   464.0000 </r>
       <r>     2.8978     0.0000   464.0000 </r>
       <r>     2.9947     0.0000   464.0000 </r>
       <r>     3.0915     0.0000   464.0000 </r>
       <r>     3.1883     0.0000   464.0000 </r>
       <r>     3.2852     0.0000   464.0000 </r>
       <r>     3.3820     0.0000   464.0000 </r>
       <r>     3.4788     0.0000   464.0000 </r>
       <r>     3.5757     0.0000   464.0000 </r>
       <r>     3.6725     0.0000   464.0000 </r>
       <r>     3.7693     0.0000   464.0000 </r>
       <r>     3.8662     0.0000   464.0000 </r>
      </set>
     </set>
    </array>
   </total>
  </dos>
 </calculation>
 <structure name="finalpos" >
  <crystal>
   <varray name="basis" >
    <v>      28.05000000       0.00000000       0.00000000 </v>
    <v>       0.00000000       8.10000000       0.00000000 </v>
    <v>       0.00000000       0.00000000      33.50000000 </v>
   </varray>
   <i name="volume">   7611.36750000 </i>
   <varray name="rec_basis" >
    <v>       0.03565062       0.00000000       0.00000000 </v>
    <v>       0.00000000       0.12345679       0.00000000 </v>
    <v>       0.00000000       0.00000000       0.02985075 </v>
   </varray>
  </crystal>
  <varray name="positions" >
   <v>       0.00830963       0.10061975       0.53165075 </v>
   <v>       0.00609615       0.27361481       0.53031642 </v>
   <v>       0.04922103       0.02240210       0.54074328 </v>
   <v>       0.04724528       0.35770247       0.53508657 </v>
   <v>       0.09273725       0.10815506       0.53989552 </v>
   <v>       0.09265597       0.27617284       0.53726269 </v>
   <v>       0.13577932       0.01951840       0.53932239 </v>
   <v>       0.13605134       0.35272099       0.53774925 </v>
   <v>       0.18008128       0.09851420       0.52977313 </v>
   <v>       0.18067166       0.27230494       0.52991343 </v>
   <v>       0.22280677       0.01984630       0.52429552 </v>
   <v>       0.22349911       0.35455062       0.52812836 </v>
   <v>       0.26601604       0.10815951       0.51316418 </v>
   <v>       0.26669697       0.27398025       0.51611045 </v>
   <v>       0.30834046       0.02536815       0.50766269 </v>
   <v>       0.30697255       0.36356667       0.50946269 </v>
   <v>       0.35317219       0.11142296       0.50014627 </v>
   <v>       0.34988128       0.27573457       0.49794328 </v>
   <v>       0.39432442       0.02749259       0.48874328 </v>
   <v>       0.39425668       0.35973827       0.48912239 </v>
   <v>       0.43789661       0.10598494       0.47660000 </v>
   <v>       0.43575758       0.27616914       0.47413731 </v>
   <v>       0.48049554       0.02636148       0.46675522 </v>
   <v>       0.48044920       0.35216914       0.46830149 </v>
   <v>       0.52372549       0.10076494       0.45661194 </v>
   <v>       0.52405704       0.27164691       0.45844179 </v>
   <v>       0.56785740       0.01991741       0.44983881 </v>
   <v>       0.56836364       0.34731605       0.45572537 </v>
   <v>       0.61167201       0.10020383       0.44777612 </v>
   <v>       0.61247415       0.26643457       0.44759104 </v>
   <v>       0.65781105       0.01630679       0.45092537 </v>
   <v>       0.65790731       0.35207037       0.45146866 </v>
   <v>       0.70368984       0.09840235       0.45490448 </v>
   <v>       0.70426025       0.26410494       0.45473731 </v>
   <v>       0.74386096       0.01672506       0.46837015 </v>
   <v>       0.74547237       0.34939383       0.46586866 </v>
   <v>       0.78875223       0.10108481       0.47465970 </v>
   <v>       0.78776827       0.26877284       0.47562388 </v>
   <v>       0.83070588       0.02366481       0.48801194 </v>
   <v>       0.83100891       0.35545432       0.48756119 </v>
   <v>       0.87428520       0.10685185       0.50003582 </v>
   <v>       0.87373619       0.27556420       0.49953433 </v>
   <v>       0.91265597       0.02251481       0.51647761 </v>
   <v>       0.91419608       0.35152222       0.51606567 </v>
   <v>       0.95547950       0.10427074       0.52420597 </v>
   <v>       0.95563636       0.27121111       0.52377612 </v>
   <v>       0.00373750       0.61090123       0.54159104 </v>
   <v>       0.00220733       0.78888889       0.54050448 </v>
   <v>       0.04608556       0.52532593       0.54544179 </v>
   <v>       0.04683601       0.85991358       0.54812537 </v>
   <v>       0.09325490       0.60268395       0.55028060 </v>
   <v>       0.09287986       0.77257037       0.55229851 </v>
   <v>       0.13501640       0.52136543       0.54304478 </v>
   <v>       0.13619037       0.85270247       0.54913433 </v>
   <v>       0.17991123       0.60065062       0.54174030 </v>
   <v>       0.18144670       0.77092346       0.54732537 </v>
   <v>       0.22363351       0.52486790       0.53401791 </v>
   <v>       0.22501034       0.85412593       0.53444776 </v>
   <v>       0.26723886       0.60454321       0.52974328 </v>
   <v>       0.26804421       0.77816667       0.52767463 </v>
   <v>       0.30921426       0.52797284       0.51544776 </v>
   <v>       0.30986845       0.85363580       0.51140299 </v>
   <v>       0.35146881       0.61134938       0.50620000 </v>
   <v>       0.35373048       0.77947531       0.50581493 </v>
   <v>       0.39511943       0.52125185       0.49728358 </v>
   <v>       0.39487344       0.85792222       0.49423582 </v>
   <v>       0.43973619       0.60190123       0.48922687 </v>
   <v>       0.43919073       0.76943457       0.48904478 </v>
   <v>       0.48102317       0.51550864       0.47837015 </v>
   <v>       0.48151159       0.85653951       0.47475821 </v>
   <v>       0.52519073       0.60542346       0.47230448 </v>
   <v>       0.52437433       0.77458642       0.46708060 </v>
   <v>       0.56948307       0.51668765       0.46460896 </v>
   <v>       0.56759358       0.85581975       0.45841791 </v>
   <v>       0.61310873       0.60202222       0.45987761 </v>
   <v>       0.61238503       0.77280988       0.45791642 </v>
   <v>       0.65704456       0.51743951       0.45811642 </v>
   <v>       0.65746881       0.84882963       0.45789254 </v>
   <v>       0.69978610       0.59939753       0.46993731 </v>
   <v>       0.69962567       0.76769259       0.47018806 </v>
   <v>       0.74328342       0.51730864       0.47274627 </v>
   <v>       0.74382175       0.84793333       0.47102985 </v>
   <v>       0.78652763       0.60025802       0.48054030 </v>
   <v>       0.78892335       0.77216667       0.47936716 </v>
   <v>       0.82754011       0.52560123       0.49435821 </v>
   <v>       0.82936898       0.85730988       0.49540000 </v>
   <v>       0.87028520       0.60086667       0.50979104 </v>
   <v>       0.86920499       0.77047037       0.51026866 </v>
   <v>       0.91358289       0.52108519       0.52201194 </v>
   <v>       0.91175758       0.85827901       0.52388955 </v>
   <v>       0.95388592       0.59682963       0.53794030 </v>
   <v>       0.95202139       0.78389753       0.53758806 </v>
  </varray>
 </structure>
</modeling>
