unknown system                          
            1
    28.050000    0.000000    0.000000
     0.000000    8.100000    0.000000
     0.000000    0.000000   33.500000
   C 
    92
Direct configuration=     1
   0.00830963  0.10061975  0.53165075
   0.00609615  0.27361481  0.53031642
   0.04922103  0.02240210  0.54074328
   0.04724528  0.35770247  0.53508657
   0.09273725  0.10815506  0.53989552
   0.09265597  0.27617284  0.53726269
   0.13577932  0.01951840  0.53932239
   0.13605134  0.35272099  0.53774925
   0.18008128  0.09851420  0.52977313
   0.18067166  0.27230494  0.52991343
   0.22280677  0.01984630  0.52429552
   0.22349911  0.35455062  0.52812836
   0.26601604  0.10815951  0.51316418
   0.26669697  0.27398025  0.51611045
   0.30834046  0.02536815  0.50766269
   0.30697255  0.36356667  0.50946269
   0.35317219  0.11142296  0.50014627
   0.34988128  0.27573457  0.49794328
   0.39432442  0.02749259  0.48874328
   0.39425668  0.35973827  0.48912239
   0.43789661  0.10598494  0.47660000
   0.43575758  0.27616914  0.47413731
   0.48049554  0.02636148  0.46675522
   0.48044920  0.35216914  0.46830149
   0.52372549  0.10076494  0.45661194
   0.52405704  0.27164691  0.45844179
   0.56785740  0.01991741  0.44983881
   0.56836364  0.34731605  0.45572537
   0.61167201  0.10020383  0.44777612
   0.61247415  0.26643457  0.44759104
   0.65781105  0.01630679  0.45092537
   0.65790731  0.35207037  0.45146866
   0.70368984  0.09840235  0.45490448
   0.70426025  0.26410494  0.45473731
   0.74386096  0.01672506  0.46837015
   0.74547237  0.34939383  0.46586866
   0.78875223  0.10108481  0.47465970
   0.78776827  0.26877284  0.47562388
   0.83070588  0.02366481  0.48801194
   0.83100891  0.35545432  0.48756119
   0.87428520  0.10685185  0.50003582
   0.87373619  0.27556420  0.49953433
   0.91265597  0.02251481  0.51647761
   0.91419608  0.35152222  0.51606567
   0.95547950  0.10427074  0.52420597
   0.95563636  0.27121111  0.52377612
   0.00373750  0.61090123  0.54159104
   0.00220733  0.78888889  0.54050448
   0.04608556  0.52532593  0.54544179
   0.04683601  0.85991358  0.54812537
   0.09325490  0.60268395  0.55028060
   0.09287986  0.77257037  0.55229851
   0.13501640  0.52136543  0.54304478
   0.13619037  0.85270247  0.54913433
   0.17991123  0.60065062  0.54174030
   0.18144670  0.77092346  0.54732537
   0.22363351  0.52486790  0.53401791
   0.22501034  0.85412593  0.53444776
   0.26723886  0.60454321  0.52974328
   0.26804421  0.77816667  0.52767463
   0.30921426  0.52797284  0.51544776
   0.30986845  0.85363580  0.51140299
   0.35146881  0.61134938  0.50620000
   0.35373048  0.77947531  0.50581493
   0.39511943  0.52125185  0.49728358
   0.39487344  0.85792222  0.49423582
   0.43973619  0.60190123  0.48922687
   0.43919073  0.76943457  0.48904478
   0.48102317  0.51550864  0.47837015
   0.48151159  0.85653951  0.47475821
   0.52519073  0.60542346  0.47230448
   0.52437433  0.77458642  0.46708060
   0.56948307  0.51668765  0.46460896
   0.56759358  0.85581975  0.45841791
   0.61310873  0.60202222  0.45987761
   0.61238503  0.77280988  0.45791642
   0.65704456  0.51743951  0.45811642
   0.65746881  0.84882963  0.45789254
   0.69978610  0.59939753  0.46993731
   0.69962567  0.76769259  0.47018806
   0.74328342  0.51730864  0.47274627
   0.74382175  0.84793333  0.47102985
   0.78652763  0.60025802  0.48054030
   0.78892335  0.77216667  0.47936716
   0.82754011  0.52560123  0.49435821
   0.82936898  0.85730988  0.49540000
   0.87028520  0.60086667  0.50979104
   0.86920499  0.77047037  0.51026866
   0.91358289  0.52108519  0.52201194
   0.91175758  0.85827901  0.52388955
   0.95388592  0.59682963  0.53794030
   0.95202139  0.78389753  0.53758806
