       N       E                     dE             d eps       ncg     rms          rms(c)
DAV:   1     0.376412559589E+04    0.37641E+04   -0.11865E+05  1688   0.105E+03
DAV:   2     0.194891202626E+03   -0.35692E+04   -0.33094E+04  2152   0.240E+02
DAV:   3    -0.835582049622E+03   -0.10305E+04   -0.10082E+04  1800   0.136E+02
DAV:   4    -0.898074500241E+03   -0.62492E+02   -0.61480E+02  1720   0.433E+01
DAV:   5    -0.899597672065E+03   -0.15232E+01   -0.15028E+01  1776   0.659E+00    0.459E+01
DAV:   6    -0.848987320415E+03    0.50610E+02   -0.48098E+01  1576   0.127E+01    0.270E+01
DAV:   7    -0.830114545579E+03    0.18873E+02   -0.66873E+01  1560   0.145E+01    0.744E+00
DAV:   8    -0.829818511509E+03    0.29603E+00   -0.24521E+00  1608   0.337E+00    0.996E-01
DAV:   9    -0.829707476347E+03    0.11104E+00   -0.28548E-01  1624   0.106E+00    0.574E-01
DAV:  10    -0.829670497558E+03    0.36979E-01   -0.55987E-02  1744   0.465E-01    0.366E-01
DAV:  11    -0.829640887451E+03    0.29610E-01   -0.20217E-02  1584   0.239E-01    0.250E-01
DAV:  12    -0.829634766407E+03    0.61210E-02   -0.27835E-02  1544   0.241E-01    0.153E-01
DAV:  13    -0.829647306558E+03   -0.12540E-01   -0.88372E-03  1568   0.149E-01    0.885E-02
DAV:  14    -0.829665003328E+03   -0.17697E-01   -0.12480E-03  1592   0.727E-02    0.571E-02
DAV:  15    -0.829684983782E+03   -0.19980E-01   -0.17988E-03  1608   0.626E-02    0.323E-02
DAV:  16    -0.829693508248E+03   -0.85245E-02   -0.46317E-04  1616   0.370E-02    0.209E-02
DAV:  17    -0.829699223254E+03   -0.57150E-02   -0.39526E-04  1560   0.256E-02    0.104E-02
DAV:  18    -0.829700917257E+03   -0.16940E-02   -0.60844E-05  1688   0.108E-02    0.625E-03
DAV:  19    -0.829702172104E+03   -0.12548E-02   -0.55469E-05  1376   0.885E-03    0.371E-03
DAV:  20    -0.829702475138E+03   -0.30303E-03   -0.48020E-06  1376   0.294E-03    0.225E-03
DAV:  21    -0.829702710342E+03   -0.23520E-03   -0.31179E-06  1248   0.214E-03    0.962E-04
DAV:  22    -0.829702750492E+03   -0.40150E-04   -0.14585E-07  1064   0.678E-04    0.622E-04
DAV:  23    -0.829702782774E+03   -0.32282E-04   -0.22998E-07   920   0.653E-04    0.267E-04
DAV:  24    -0.829702790359E+03   -0.75843E-05   -0.58551E-08   976   0.374E-04    0.146E-04
DAV:  25    -0.829702794786E+03   -0.44278E-05   -0.39370E-08   904   0.286E-04    0.110E-04
DAV:  26    -0.829702796627E+03   -0.18410E-05   -0.14368E-08   976   0.178E-04    0.672E-05
DAV:  27    -0.829702798214E+03   -0.15871E-05   -0.83946E-09   952   0.126E-04    0.401E-05
DAV:  28    -0.829702799181E+03   -0.96674E-06   -0.36291E-09   936   0.947E-05
   1 F= -.82970280E+03 E0= -.82965748E+03  d E =-.906363E-01
