       N       E                     dE             d eps       ncg     rms          rms(c)
DAV:   1     0.370263566087E+04    0.37026E+04   -0.11899E+05  1712   0.105E+03
DAV:   2     0.183321961624E+03   -0.35193E+04   -0.32629E+04  2136   0.239E+02
DAV:   3    -0.834068399099E+03   -0.10174E+04   -0.99682E+03  1800   0.135E+02
DAV:   4    -0.896312097288E+03   -0.62244E+02   -0.61212E+02  1736   0.430E+01
DAV:   5    -0.897828916286E+03   -0.15168E+01   -0.14971E+01  1776   0.646E+00    0.455E+01
DAV:   6    -0.848319920512E+03    0.49509E+02   -0.47259E+01  1568   0.125E+01    0.267E+01
DAV:   7    -0.829860126622E+03    0.18460E+02   -0.65120E+01  1544   0.143E+01    0.732E+00
DAV:   8    -0.829570373633E+03    0.28975E+00   -0.23607E+00  1592   0.328E+00    0.987E-01
DAV:   9    -0.829464682238E+03    0.10569E+00   -0.24612E-01  1648   0.962E-01    0.565E-01
DAV:  10    -0.829426591727E+03    0.38091E-01   -0.47441E-02  1760   0.424E-01    0.368E-01
DAV:  11    -0.829395852402E+03    0.30739E-01   -0.21454E-02  1568   0.242E-01    0.240E-01
DAV:  12    -0.829390826963E+03    0.50254E-02   -0.25216E-02  1568   0.230E-01    0.151E-01
DAV:  13    -0.829403191227E+03   -0.12364E-01   -0.85808E-03  1552   0.140E-01    0.831E-02
DAV:  14    -0.829419881975E+03   -0.16691E-01   -0.10808E-03  1616   0.621E-02    0.560E-02
DAV:  15    -0.829441555017E+03   -0.21673E-01   -0.20180E-03  1560   0.652E-02    0.309E-02
DAV:  16    -0.829449395705E+03   -0.78407E-02   -0.41717E-04  1616   0.339E-02    0.214E-02
DAV:  17    -0.829454850888E+03   -0.54552E-02   -0.37085E-04  1584   0.247E-02    0.101E-02
DAV:  18    -0.829456412822E+03   -0.15619E-02   -0.53733E-05  1704   0.106E-02    0.629E-03
DAV:  19    -0.829457561108E+03   -0.11483E-02   -0.45233E-05  1392   0.883E-03    0.368E-03
DAV:  20    -0.829457886519E+03   -0.32541E-03   -0.57645E-06  1400   0.349E-03    0.233E-03
DAV:  21    -0.829458109526E+03   -0.22301E-03   -0.25503E-06  1224   0.259E-03    0.104E-03
DAV:  22    -0.829458168985E+03   -0.59459E-04   -0.36914E-07  1072   0.115E-03    0.748E-04
DAV:  23    -0.829458201471E+03   -0.32487E-04   -0.26233E-07   976   0.973E-04    0.458E-04
DAV:  24    -0.829458217711E+03   -0.16239E-04   -0.12127E-07   968   0.653E-04    0.390E-04
DAV:  25    -0.829458222271E+03   -0.45599E-05   -0.37143E-08   968   0.531E-04    0.147E-04
DAV:  26    -0.829458226377E+03   -0.41068E-05   -0.38226E-08   912   0.325E-04    0.212E-04
DAV:  27    -0.829458227485E+03   -0.11074E-05   -0.83707E-09  1008   0.248E-04    0.836E-05
DAV:  28    -0.829458229278E+03   -0.17931E-05   -0.85034E-09   952   0.167E-04    0.108E-04
DAV:  29    -0.829458229955E+03   -0.67728E-06   -0.32214E-09   968   0.128E-04
   1 F= -.82945823E+03 E0= -.82942326E+03  d E =-.699388E-01
