<?xml version="1.0" encoding="ISO-8859-1"?>
<modeling>
 <generator>
  <i name="program" type="string">vasp </i>
  <i name="version" type="string">6.5.0  </i>
  <i name="subversion" type="string">16Dec24 (build Feb 19 2025 19:45:31) complex                          parallel </i>
  <i name="platform" type="string">LinuxNV </i>
  <i name="date" type="string">2025 10 25 </i>
  <i name="time" type="string">11:32:56 </i>
 </generator>
 <incar>
  <i type="int" name="ISTART">     0</i>
  <i type="string" name="PREC">Accurate   (Precision level)</i>
  <i type="string" name="ALGO">Normal</i>
  <i type="int" name="ISPIN">     1</i>
  <i type="int" name="ICHARG">     2</i>
  <i type="int" name="NELM">   150</i>
  <i type="int" name="IBRION">    -1</i>
  <i name="EDIFF">      0.00000100</i>
  <i type="int" name="NSW">     0</i>
  <i name="ENCUT">    500.00000000</i>
  <i type="string" name="LREAL">Auto         (Projection operators: automatic)</i>
  <i type="int" name="ISMEAR">     0</i>
  <i type="logical" name="KGAMMA"> T  </i>
  <i type="logical" name="LWAVE"> F  </i>
  <i type="logical" name="LCHARG"> F  </i>
 </incar>
 <primitive_cell>
  <structure name="primitive_cell" >
   <crystal>
    <varray name="basis" >
     <v>      28.05000000       0.00000000       0.00000000 </v>
     <v>       0.00000000       8.10000000       0.00000000 </v>
     <v>       0.00000000       0.00000000      33.50000000 </v>
    </varray>
    <i name="volume">   7611.36750000 </i>
    <varray name="rec_basis" >
     <v>       0.03565062       0.00000000       0.00000000 </v>
     <v>       0.00000000       0.12345679       0.00000000 </v>
     <v>       0.00000000       0.00000000       0.02985075 </v>
    </varray>
   </crystal>
   <varray name="positions" >
    <v>       0.01048121       0.09517963       0.46061791 </v>
    <v>       0.01014107       0.27405309       0.45753731 </v>
    <v>       0.04563922       0.02325383       0.48230448 </v>
    <v>       0.05188770       0.35164568       0.46541194 </v>
    <v>       0.08916649       0.11236815       0.48980896 </v>
    <v>       0.09414795       0.27118642       0.47979701 </v>
    <v>       0.13149198       0.02480222       0.50321194 </v>
    <v>       0.13707130       0.35912469       0.48948657 </v>
    <v>       0.17526417       0.10670284       0.50848358 </v>
    <v>       0.17865098       0.27170123       0.49971940 </v>
    <v>       0.21846881       0.02131667       0.52132836 </v>
    <v>       0.22460178       0.35569136       0.50454627 </v>
    <v>       0.26136827       0.10037284       0.53100000 </v>
    <v>       0.26206275       0.27026667       0.52134627 </v>
    <v>       0.30527487       0.01948333       0.53851045 </v>
    <v>       0.30775116       0.35091852       0.52508358 </v>
    <v>       0.34961105       0.10010864       0.54543582 </v>
    <v>       0.34991836       0.26645556       0.53668955 </v>
    <v>       0.39462745       0.01969333       0.54643881 </v>
    <v>       0.39462389       0.35115679       0.53729552 </v>
    <v>       0.43955793       0.10279247       0.54722388 </v>
    <v>       0.44106239       0.27292593       0.54039104 </v>
    <v>       0.48420677       0.02488469       0.54401194 </v>
    <v>       0.48237790       0.35594691       0.53308955 </v>
    <v>       0.52829947       0.10970580       0.53571343 </v>
    <v>       0.52703030       0.28037901       0.53193134 </v>
    <v>       0.57314082       0.02961136       0.53230746 </v>
    <v>       0.57151515       0.35537160       0.52193433 </v>
    <v>       0.61589661       0.10881012       0.52348955 </v>
    <v>       0.61443137       0.27415556       0.51392537 </v>
    <v>       0.65995722       0.01977531       0.51609552 </v>
    <v>       0.65659180       0.35828272       0.50480000 </v>
    <v>       0.70428877       0.09802679       0.50751642 </v>
    <v>       0.70042781       0.26953457       0.49968657 </v>
    <v>       0.74573619       0.01716370       0.49418209 </v>
    <v>       0.73935116       0.34545679       0.48204179 </v>
    <v>       0.78627094       0.09883074       0.48260597 </v>
    <v>       0.78340107       0.26806049       0.47507761 </v>
    <v>       0.82888057       0.01808988       0.47388955 </v>
    <v>       0.82660963       0.35172222       0.46259104 </v>
    <v>       0.87485561       0.10224741       0.47087761 </v>
    <v>       0.87140107       0.27037407       0.45876716 </v>
    <v>       0.91644207       0.02025025       0.46251045 </v>
    <v>       0.91448841       0.35322222       0.45216716 </v>
    <v>       0.95872727       0.10458728       0.45401493 </v>
    <v>       0.95931907       0.27509753       0.45282985 </v>
    <v>       0.01077266       0.60394691       0.45303284 </v>
    <v>       0.00936563       0.77217284       0.46286567 </v>
    <v>       0.05228913       0.52794198       0.46516418 </v>
    <v>       0.04739251       0.85875432       0.47977015 </v>
    <v>       0.09294866       0.60470494       0.47765075 </v>
    <v>       0.09003351       0.77205556       0.48599701 </v>
    <v>       0.13742674       0.52556173       0.48709254 </v>
    <v>       0.13183922       0.85672963       0.49953433 </v>
    <v>       0.18018610       0.60544691       0.49545373 </v>
    <v>       0.17771301       0.77106049       0.50341791 </v>
    <v>       0.22534367       0.52334198       0.50157612 </v>
    <v>       0.21822995       0.85192840       0.51716119 </v>
    <v>       0.26634688       0.60186790       0.51406269 </v>
    <v>       0.26268663       0.76654321       0.52469552 </v>
    <v>       0.30935080       0.52145185       0.52176119 </v>
    <v>       0.30555722       0.84872716       0.53546269 </v>
    <v>       0.35075080       0.60184198       0.53345373 </v>
    <v>       0.35048378       0.77115556       0.53997313 </v>
    <v>       0.39393939       0.51690988       0.53000000 </v>
    <v>       0.39567201       0.84994691       0.54629851 </v>
    <v>       0.43922282       0.60769877       0.53137910 </v>
    <v>       0.43951872       0.77603580       0.54200597 </v>
    <v>       0.48286275       0.52537160       0.52890746 </v>
    <v>       0.48436720       0.85564938       0.54290746 </v>
    <v>       0.52512299       0.61297654       0.52479104 </v>
    <v>       0.52850624       0.77931481       0.53527761 </v>
    <v>       0.56926916       0.52367654       0.51836119 </v>
    <v>       0.57117291       0.85610370       0.52833731 </v>
    <v>       0.61158289       0.61160000       0.50846567 </v>
    <v>       0.61405348       0.77997778       0.51462687 </v>
    <v>       0.65345098       0.52496543       0.49814328 </v>
    <v>       0.65911230       0.85661481       0.50805970 </v>
    <v>       0.69724777       0.60406049       0.48879104 </v>
    <v>       0.69870945       0.77454568       0.49222090 </v>
    <v>       0.73971836       0.52172840       0.47815224 </v>
    <v>       0.74173619       0.85229136       0.48597313 </v>
    <v>       0.78211765       0.60342716       0.46660896 </v>
    <v>       0.78219608       0.77410247       0.47028060 </v>
    <v>       0.82599287       0.52457654       0.45657313 </v>
    <v>       0.82719786       0.85251852       0.46644478 </v>
    <v>       0.87101961       0.60638889       0.45164478 </v>
    <v>       0.87145098       0.77041358       0.45997910 </v>
    <v>       0.91434225       0.52213951       0.44465672 </v>
    <v>       0.91547237       0.85210000       0.46005373 </v>
    <v>       0.95876292       0.60227654       0.44743881 </v>
    <v>       0.95861319       0.76755062       0.45777015 </v>
   </varray>
  </structure>
  <varray name="primitive_index" >
   <v type="int" >        1 </v>
   <v type="int" >        2 </v>
   <v type="int" >        3 </v>
   <v type="int" >        4 </v>
   <v type="int" >        5 </v>
   <v type="int" >        6 </v>
   <v type="int" >        7 </v>
   <v type="int" >        8 </v>
   <v type="int" >        9 </v>
   <v type="int" >       10 </v>
   <v type="int" >       11 </v>
   <v type="int" >       12 </v>
   <v type="int" >       13 </v>
   <v type="int" >       14 </v>
   <v type="int" >       15 </v>
   <v type="int" >       16 </v>
   <v type="int" >       17 </v>
   <v type="int" >       18 </v>
   <v type="int" >       19 </v>
   <v type="int" >       20 </v>
   <v type="int" >       21 </v>
   <v type="int" >       22 </v>
   <v type="int" >       23 </v>
   <v type="int" >       24 </v>
   <v type="int" >       25 </v>
   <v type="int" >       26 </v>
   <v type="int" >       27 </v>
   <v type="int" >       28 </v>
   <v type="int" >       29 </v>
   <v type="int" >       30 </v>
   <v type="int" >       31 </v>
   <v type="int" >       32 </v>
   <v type="int" >       33 </v>
   <v type="int" >       34 </v>
   <v type="int" >       35 </v>
   <v type="int" >       36 </v>
   <v type="int" >       37 </v>
   <v type="int" >       38 </v>
   <v type="int" >       39 </v>
   <v type="int" >       40 </v>
   <v type="int" >       41 </v>
   <v type="int" >       42 </v>
   <v type="int" >       43 </v>
   <v type="int" >       44 </v>
   <v type="int" >       45 </v>
   <v type="int" >       46 </v>
   <v type="int" >       47 </v>
   <v type="int" >       48 </v>
   <v type="int" >       49 </v>
   <v type="int" >       50 </v>
   <v type="int" >       51 </v>
   <v type="int" >       52 </v>
   <v type="int" >       53 </v>
   <v type="int" >       54 </v>
   <v type="int" >       55 </v>
   <v type="int" >       56 </v>
   <v type="int" >       57 </v>
   <v type="int" >       58 </v>
   <v type="int" >       59 </v>
   <v type="int" >       60 </v>
   <v type="int" >       61 </v>
   <v type="int" >       62 </v>
   <v type="int" >       63 </v>
   <v type="int" >       64 </v>
   <v type="int" >       65 </v>
   <v type="int" >       66 </v>
   <v type="int" >       67 </v>
   <v type="int" >       68 </v>
   <v type="int" >       69 </v>
   <v type="int" >       70 </v>
   <v type="int" >       71 </v>
   <v type="int" >       72 </v>
   <v type="int" >       73 </v>
   <v type="int" >       74 </v>
   <v type="int" >       75 </v>
   <v type="int" >       76 </v>
   <v type="int" >       77 </v>
   <v type="int" >       78 </v>
   <v type="int" >       79 </v>
   <v type="int" >       80 </v>
   <v type="int" >       81 </v>
   <v type="int" >       82 </v>
   <v type="int" >       83 </v>
   <v type="int" >       84 </v>
   <v type="int" >       85 </v>
   <v type="int" >       86 </v>
   <v type="int" >       87 </v>
   <v type="int" >       88 </v>
   <v type="int" >       89 </v>
   <v type="int" >       90 </v>
   <v type="int" >       91 </v>
   <v type="int" >       92 </v>
  </varray>
 </primitive_cell>
 <kpoints>
  <generation param="Gamma">
   <v type="int" name="divisions">       1        4        1 </v>
   <v name="usershift">      0.00000000       0.00000000       0.00000000 </v>
   <v name="genvec1">      1.00000000       0.00000000       0.00000000 </v>
   <v name="genvec2">      0.00000000       0.25000000       0.00000000 </v>
   <v name="genvec3">      0.00000000       0.00000000       1.00000000 </v>
   <v name="shift">      0.00000000       0.00000000       0.00000000 </v>
  </generation>
  <varray name="kpointlist" >
   <v>       0.00000000       0.00000000       0.00000000 </v>
   <v>       0.00000000       0.25000000       0.00000000 </v>
   <v>       0.00000000       0.50000000       0.00000000 </v>
  </varray>
  <varray name="weights" >
   <v>       0.25000000 </v>
   <v>       0.50000000 </v>
   <v>       0.25000000 </v>
  </varray>
 </kpoints>
 <parameters>
  <separator name="general" >
   <i type="string" name="SYSTEM">unknown system</i>
   <i type="logical" name="LCOMPAT"> F  </i>
  </separator>
  <separator name="electronic" >
   <i type="string" name="PREC">accura</i>
   <i name="ENMAX">    500.00000000</i>
   <i name="ENAUG">    644.87300000</i>
   <i name="EDIFF">      0.00000100</i>
   <i type="int" name="IALGO">    38</i>
   <i type="int" name="IWAVPR">    10</i>
   <i type="int" name="NBANDS">   232</i>
   <i type="int" name="NBANDSLOW">    -1</i>
   <i type="int" name="NBANDSHIGH">    -1</i>
   <i name="NELECT">    368.00000000</i>
   <i type="int" name="TURBO">     0</i>
   <i type="int" name="IRESTART">     0</i>
   <i type="int" name="NREBOOT">     0</i>
   <i type="int" name="NMIN">     0</i>
   <i name="EREF">      0.00000000</i>
   <separator name="electronic smearing" >
    <i type="int" name="ISMEAR">     0</i>
    <i name="SIGMA">      0.20000000</i>
    <i name="KSPACING">      0.50000000</i>
    <i type="logical" name="KGAMMA"> T  </i>
    <i type="logical" name="KBLOWUP"> T  </i>
   </separator>
   <separator name="electronic projectors" >
    <i type="logical" name="LREAL"> T  </i>
    <v name="ROPT">     -0.00025000</v>
    <i type="int" name="LMAXPAW">  -100</i>
    <i type="int" name="LMAXMIX">     2</i>
    <i type="logical" name="NLSPLINE"> F  </i>
   </separator>
   <separator name="electronic startup" >
    <i type="int" name="ISTART">     0</i>
    <i type="int" name="ICHARG">     2</i>
    <i type="int" name="INIWAV">     1</i>
   </separator>
   <separator name="electronic spin" >
    <i type="int" name="ISPIN">     1</i>
    <i type="logical" name="LNONCOLLINEAR"> F  </i>
    <v name="MAGMOM">      1.00000000      1.00000000      1.00000000      1.00000000      1.00000000      1.00000000      1.00000000      1.00000000      1.00000000      1.00000000      1.00000000      1.00000000      1.00000000      1.00000000      1.00000000      1.00000000      1.00000000      1.00000000      1.00000000      1.00000000
      1.00000000      1.00000000      1.00000000      1.00000000      1.00000000      1.00000000      1.00000000      1.00000000      1.00000000      1.00000000      1.00000000      1.00000000      1.00000000      1.00000000      1.00000000      1.00000000      1.00000000      1.00000000      1.00000000      1.00000000
      1.00000000      1.00000000      1.00000000      1.00000000      1.00000000      1.00000000      1.00000000      1.00000000      1.00000000      1.00000000      1.00000000      1.00000000      1.00000000      1.00000000      1.00000000      1.00000000      1.00000000      1.00000000      1.00000000      1.00000000
      1.00000000      1.00000000      1.00000000      1.00000000      1.00000000      1.00000000      1.00000000      1.00000000      1.00000000      1.00000000      1.00000000      1.00000000      1.00000000      1.00000000      1.00000000      1.00000000      1.00000000      1.00000000      1.00000000      1.00000000
      1.00000000      1.00000000      1.00000000      1.00000000      1.00000000      1.00000000      1.00000000      1.00000000      1.00000000      1.00000000      1.00000000      1.00000000</v>
    <i name="NUPDOWN">     -1.00000000</i>
    <i type="logical" name="LSORBIT"> F  </i>
    <v name="SAXIS">      0.00000000      0.00000000      1.00000000</v>
    <i type="logical" name="LSPIRAL"> F  </i>
    <v name="QSPIRAL">      0.00000000      0.00000000      0.00000000</v>
    <i type="logical" name="LZEROZ"> F  </i>
   </separator>
   <separator name="electronic exchange-correlation" >
    <i type="logical" name="LASPH"> F  </i>
   </separator>
   <separator name="electronic convergence" >
    <i type="int" name="NELM">   150</i>
    <i type="int" name="NELMDL">    -5</i>
    <i type="int" name="NELMIN">     2</i>
    <i name="ENINI">    500.00000000</i>
    <separator name="electronic convergence detail" >
     <i type="logical" name="LDIAG"> T  </i>
     <i type="logical" name="LSUBROT"> F  </i>
     <i name="WEIMIN">      0.00000000</i>
     <i name="EBREAK">      0.00000000</i>
     <i name="DEPER">      0.30000000</i>
     <i type="int" name="NRMM">     4</i>
     <i name="TIME">      0.40000000</i>
    </separator>
   </separator>
   <separator name="electronic mixer" >
    <i name="AMIX">      0.40000000</i>
    <i name="BMIX">      1.00000000</i>
    <i name="AMIN">      0.10000000</i>
    <i name="AMIX_MAG">      1.60000000</i>
    <i name="BMIX_MAG">      1.00000000</i>
    <separator name="electronic mixer details" >
     <i type="int" name="IMIX">     4</i>
     <i type="logical" name="MIXFIRST"> F  </i>
     <i type="int" name="MAXMIX">   -45</i>
     <i name="WC">    100.00000000</i>
     <i type="int" name="INIMIX">     1</i>
     <i type="int" name="MIXPRE">     1</i>
     <i type="int" name="MREMOVE">     5</i>
    </separator>
   </separator>
   <separator name="electronic dipolcorrection" >
    <i type="logical" name="LDIPOL"> F  </i>
    <i type="logical" name="LMONO"> F  </i>
    <i type="int" name="IDIPOL">     0</i>
    <i name="EPSILON">      1.00000000</i>
    <v name="DIPOL">   -100.00000000   -100.00000000   -100.00000000</v>
    <i name="EFIELD">      0.00000000</i>
    <i type="logical" name="LVACPOTAV"> F  </i>
   </separator>
  </separator>
  <separator name="grids" >
   <i type="int" name="NGX">   210</i>
   <i type="int" name="NGY">    60</i>
   <i type="int" name="NGZ">   250</i>
   <i type="int" name="NGXF">   420</i>
   <i type="int" name="NGYF">   120</i>
   <i type="int" name="NGZF">   500</i>
   <i type="logical" name="ADDGRID"> F  </i>
  </separator>
  <separator name="ionic" >
   <i type="int" name="NSW">     0</i>
   <i type="int" name="IBRION">    -1</i>
   <i type="int" name="MDALGO">     0</i>
   <i type="int" name="ISIF">     2</i>
   <i name="PSTRESS">      0.00000000</i>
   <i name="EDIFFG">      0.00001000</i>
   <i type="int" name="NFREE">     0</i>
   <i name="POTIM">      0.50000000</i>
   <i name="SMASS">     -3.00000000</i>
   <i name="SCALEE">      1.00000000</i>
  </separator>
  <separator name="ionic md" >
   <i name="TEBEG">      0.00010000</i>
   <i name="TEEND">      0.00010000</i>
   <i type="int" name="NBLOCK">     1</i>
   <i type="int" name="KBLOCK">     1</i>
   <i type="int" name="NPACO">   256</i>
   <i name="APACO">     10.00000000</i>
  </separator>
  <separator name="symmetry" >
   <i type="int" name="ISYM">     2</i>
   <i name="SYMPREC">      0.00001000</i>
  </separator>
  <separator name="dos" >
   <i type="int" name="LORBIT">     0</i>
   <v name="RWIGS">     -1.00000000</v>
   <i type="int" name="NEDOS">   301</i>
   <i name="EMIN">     10.00000000</i>
   <i name="EMAX">    -10.00000000</i>
   <i name="EFERMI">      0.00000000</i>
  </separator>
  <separator name="writing" >
   <i type="int" name="NWRITE">     2</i>
   <i type="logical" name="LWAVE"> F  </i>
   <i type="logical" name="LDOWNSAMPLE"> F  </i>
   <i type="logical" name="LCHARG"> F  </i>
   <i type="logical" name="LPARD"> F  </i>
   <i type="logical" name="LVTOT"> F  </i>
   <i type="logical" name="LVHAR"> F  </i>
   <i type="logical" name="LELF"> F  </i>
   <i type="logical" name="LOPTICS"> F  </i>
   <v name="STM">      0.00000000      0.00000000      0.00000000      0.00000000      0.00000000      0.00000000      0.00000000</v>
  </separator>
  <separator name="performance" >
   <i type="int" name="NPAR">     2</i>
   <i type="int" name="NSIM">     4</i>
   <i type="int" name="NBLK">    -1</i>
   <i type="logical" name="LPLANE"> T  </i>
   <i type="logical" name="LSCALAPACK"> T  </i>
   <i type="logical" name="LSCAAWARE"> F  </i>
   <i type="logical" name="LSCALU"> F  </i>
   <i type="logical" name="LASYNC"> F  </i>
   <i type="logical" name="LORBITALREAL"> F  </i>
  </separator>
  <separator name="miscellaneous" >
   <i type="int" name="IDIOT">     3</i>
   <i type="int" name="PHON_NSTRUCT">    -1</i>
   <i type="logical" name="LMUSIC"> F  </i>
   <v name="POMASS">     12.01100000</v>
   <v name="DARWINR">      0.00000000</v>
   <v name="DARWINV">      1.00000000</v>
   <i type="logical" name="LCORR"> T  </i>
  </separator>
  <i type="logical" name="GGA_COMPAT"> T  </i>
  <i type="logical" name="LBERRY"> F  </i>
  <i type="int" name="ICORELEVEL">     0</i>
  <i type="logical" name="LDAU"> F  </i>
  <i type="int" name="I_CONSTRAINED_M">     0</i>
  <separator name="electronic exchange-correlation" >
   <i type="string" name="GGA    ">PE</i>
   <i type="string" name="XC_C">1</i>
   <i type="int" name="VOSKOWN">     0</i>
   <i type="logical" name="LHFCALC"> F  </i>
   <i type="string" name="PRECFOCK"></i>
   <i type="logical" name="LSYMGRAD"> F  </i>
   <i type="logical" name="LHFONE"> F  </i>
   <i type="logical" name="LRHFCALC"> F  </i>
   <i type="logical" name="LTHOMAS"> F  </i>
   <i type="logical" name="LMODELHF"> F  </i>
   <i type="logical" name="LFOCKACE"> F  </i>
   <i name="ENCUT4O">     -1.00000000</i>
   <i type="int" name="EXXOEP">     0</i>
   <i type="int" name="FOURORBIT">     0</i>
   <i name="AEXX">      0.00000000</i>
   <i name="HFALPHA">      0.00000000</i>
   <i name="MCALPHA">      0.00000000</i>
   <i name="ALDAX">      1.00000000</i>
   <i name="AGGAX">      1.00000000</i>
   <i name="AMGGAX">      1.00000000</i>
   <i name="ALDAC">      1.00000000</i>
   <i name="AGGAC">      1.00000000</i>
   <i name="AMGGAC">      1.00000000</i>
   <i type="int" name="NKREDX">     1</i>
   <i type="int" name="NKREDY">     1</i>
   <i type="int" name="NKREDZ">     1</i>
   <i type="logical" name="SHIFTRED"> F  </i>
   <i type="logical" name="ODDONLY"> F  </i>
   <i type="logical" name="EVENONLY"> F  </i>
   <i type="int" name="LMAXFOCK">     0</i>
   <i type="int" name="NMAXFOCKAE">     0</i>
   <i type="logical" name="LFOCKAEDFT"> F  </i>
   <i name="HFSCREEN">      0.00000000</i>
   <i name="HFSCREENC">      0.00000000</i>
   <i type="int" name="NBANDSGWLOW">     0</i>
  </separator>
  <separator name="vdW DFT" >
   <i type="logical" name="LUSE_VDW"> F  </i>
   <i type="int" name="IVDW_NL">    -1</i>
   <i type="logical" name="LSPIN_VDW"> F  </i>
   <i name="ZAB_VDW">     -0.84910000</i>
   <i name="GAMMA_VDW">      1.39626340</i>
   <i name="ALPHA_VDW">      0.00000000</i>
   <i name="PARAM1">      0.12340000</i>
   <i name="PARAM2">      1.00000000</i>
   <i name="BPARAM">      6.30000000</i>
   <i name="CPARAM">      0.00930000</i>
  </separator>
  <separator name="model GW" >
   <i type="int" name="MODEL_GW">     0</i>
   <i name="MODEL_EPS0">     49.63935326</i>
   <i name="MODEL_ALPHA">      1.00000000</i>
  </separator>
  <separator name="linear response parameters" >
   <i type="logical" name="LEPSILON"> F  </i>
   <i type="logical" name="LRPA"> F  </i>
   <i type="logical" name="LNABLA"> F  </i>
   <i type="logical" name="LVEL"> F  </i>
   <i name="CSHIFT">      0.10000000</i>
   <i name="OMEGAMAX">     -1.00000000</i>
   <i name="DEG_THRESHOLD">      0.00200000</i>
   <i name="RTIME">     -0.10000000</i>
   <i name="WPLASMAI">      0.00000000</i>
   <v name="DFIELD">      0.00000000      0.00000000      0.00000000</v>
   <v name="WPLASMA">      0.00000000      0.00000000      0.00000000      0.00000000      0.00000000      0.00000000      0.00000000      0.00000000      0.00000000</v>
  </separator>
  <separator name="orbital magnetization" >
   <i type="logical" name="NUCIND"> F  </i>
   <v name="MAGPOS">      0.00000000      0.00000000      0.00000000</v>
   <i type="logical" name="LNICSALL"> T  </i>
   <i type="logical" name="ORBITALMAG"> F  </i>
   <i type="logical" name="LMAGBLOCH"> F  </i>
   <i type="logical" name="LCHIMAG"> F  </i>
   <i type="logical" name="LGAUGE"> T  </i>
   <i type="int" name="MAGATOM">     0</i>
   <v name="MAGDIPOL">      0.00000000      0.00000000      0.00000000</v>
   <v name="AVECCONST">      0.00000000      0.00000000      0.00000000</v>
  </separator>
  <separator name="response functions" >
   <i type="logical" name="LALL_IN_ONE"> F  </i>
   <i type="int" name="IALL_IN_ONE">    -1</i>
   <i type="int" name="NBANDS_WAVE">    -1</i>
   <i type="logical" name="LFINITE_TEMPERATURE"> F  </i>
   <i type="logical" name="LADDER"> F  </i>
   <i type="logical" name="LRPAFORCE"> F  </i>
   <i type="logical" name="LFXC"> F  </i>
   <i type="logical" name="LHARTREE"> T  </i>
   <i type="int" name="IBSE">     2</i>
   <v type="int" name="KPOINT">    -1     0     0     0</v>
   <i type="logical" name="LTCTC"> F  </i>
   <i type="logical" name="LTCTE"> F  </i>
   <i type="logical" name="LTETE"> F  </i>
   <i type="logical" name="LTRIPLET"> F  </i>
   <i type="logical" name="LFXCEPS"> F  </i>
   <i type="logical" name="LFXHEG"> F  </i>
   <i type="int" name="NATURALO">     2</i>
   <i type="logical" name="LHOLEGF"> F  </i>
   <i type="logical" name="L2ORDER"> F  </i>
   <i type="logical" name="LDMP1"> F  </i>
   <i type="logical" name="LMP2LT"> F  </i>
   <i type="logical" name="LSMP2LT"> F  </i>
   <i type="logical" name="LGWLF"> F  </i>
   <i name="ENCUTGW">     -1.60000002</i>
   <i name="ENCUTGWSOFT">     -1.60000002</i>
   <i name="ENCUTLF">     -1.00000000</i>
   <i type="logical" name="ESF_SPLINES"> F  </i>
   <i name="ESF_CONV">      0.01000000</i>
   <i type="int" name="ESF_NINTER">    15</i>
   <i type="int" name="LMAXMP2">    -1</i>
   <i name="SCISSOR">      0.00000000</i>
   <i type="int" name="NOMEGA">     0</i>
   <i type="int" name="NOMEGAR">     0</i>
   <i type="int" name="NBANDSGW">    -1</i>
   <i type="int" name="NBANDSO">    -1</i>
   <i type="int" name="NBANDSV">    -1</i>
   <i type="int" name="NELMGW">     1</i>
   <i type="int" name="NELMHF">     1</i>
   <i type="int" name="DIM">     3</i>
   <i type="int" name="IESPILON">     4</i>
   <i type="int" name="ANTIRES">     0</i>
   <i name="OMEGAMAX">    -30.00000000</i>
   <i name="OMEGAMIN">    -30.00000000</i>
   <i name="OMEGATL">   -200.00000000</i>
   <i type="int" name="OMEGAGRID">     0</i>
   <i name="CSHIFT">     -0.10000000</i>
   <i type="logical" name="LSELFENERGY"> F  </i>
   <i type="logical" name="LSPECTRAL"> F  </i>
   <i type="logical" name="LSPECTRALGW"> F  </i>
   <i type="logical" name="LSINGLES"> F  </i>
   <i type="logical" name="LFERMIGW"> F  </i>
   <i type="logical" name="ODDONLYGW"> F  </i>
   <i type="logical" name="EVENONLYGW"> F  </i>
   <i type="int" name="NKREDLFX">     1</i>
   <i type="int" name="NKREDLFY">     1</i>
   <i type="int" name="NKREDLFZ">     1</i>
   <i type="int" name="MAXMEM">  2800</i>
   <i type="int" name="TELESCOPE">     0</i>
   <i type="int" name="NTAUPAR">    -1</i>
   <i type="int" name="NOMEGAPAR">    -1</i>
   <i name="DAMP_NEWTON">      0.80000001</i>
   <i name="LAMBDA">      1.00000000</i>
  </separator>
  <separator name="External order field" >
   <i name="OFIELD_KAPPA">      0.00000000</i>
   <v name="OFIELD_K">      0.00000000      0.00000000      0.00000000</v>
   <i name="OFIELD_Q6_NEAR">      0.00000000</i>
   <i name="OFIELD_Q6_FAR">      0.00000000</i>
   <i name="OFIELD_A">      0.00000000</i>
  </separator>
  <separator name="optional k-points parameters" >
   <i type="int" name="KPOINTS_OPT_MODE">     1</i>
   <i type="logical" name="LKPOINTS_OPT"> F  </i>
  </separator>
 </parameters>
 <atominfo>
  <atoms>      92 </atoms>
  <types>       1 </types>
  <array name="atoms" >
   <dimension dim="1">ion</dimension>
   <field type="string">element</field>
   <field type="int">atomtype</field>
   <set>
    <rc><c>C </c><c>   1</c></rc>
    <rc><c>C </c><c>   1</c></rc>
    <rc><c>C </c><c>   1</c></rc>
    <rc><c>C </c><c>   1</c></rc>
    <rc><c>C </c><c>   1</c></rc>
    <rc><c>C </c><c>   1</c></rc>
    <rc><c>C </c><c>   1</c></rc>
    <rc><c>C </c><c>   1</c></rc>
    <rc><c>C </c><c>   1</c></rc>
    <rc><c>C </c><c>   1</c></rc>
    <rc><c>C </c><c>   1</c></rc>
    <rc><c>C </c><c>   1</c></rc>
    <rc><c>C </c><c>   1</c></rc>
    <rc><c>C </c><c>   1</c></rc>
    <rc><c>C </c><c>   1</c></rc>
    <rc><c>C </c><c>   1</c></rc>
    <rc><c>C </c><c>   1</c></rc>
    <rc><c>C </c><c>   1</c></rc>
    <rc><c>C </c><c>   1</c></rc>
    <rc><c>C </c><c>   1</c></rc>
    <rc><c>C </c><c>   1</c></rc>
    <rc><c>C </c><c>   1</c></rc>
    <rc><c>C </c><c>   1</c></rc>
    <rc><c>C </c><c>   1</c></rc>
    <rc><c>C </c><c>   1</c></rc>
    <rc><c>C </c><c>   1</c></rc>
    <rc><c>C </c><c>   1</c></rc>
    <rc><c>C </c><c>   1</c></rc>
    <rc><c>C </c><c>   1</c></rc>
    <rc><c>C </c><c>   1</c></rc>
    <rc><c>C </c><c>   1</c></rc>
    <rc><c>C </c><c>   1</c></rc>
    <rc><c>C </c><c>   1</c></rc>
    <rc><c>C </c><c>   1</c></rc>
    <rc><c>C </c><c>   1</c></rc>
    <rc><c>C </c><c>   1</c></rc>
    <rc><c>C </c><c>   1</c></rc>
    <rc><c>C </c><c>   1</c></rc>
    <rc><c>C </c><c>   1</c></rc>
    <rc><c>C </c><c>   1</c></rc>
    <rc><c>C </c><c>   1</c></rc>
    <rc><c>C </c><c>   1</c></rc>
    <rc><c>C </c><c>   1</c></rc>
    <rc><c>C </c><c>   1</c></rc>
    <rc><c>C </c><c>   1</c></rc>
    <rc><c>C </c><c>   1</c></rc>
    <rc><c>C </c><c>   1</c></rc>
    <rc><c>C </c><c>   1</c></rc>
    <rc><c>C </c><c>   1</c></rc>
    <rc><c>C </c><c>   1</c></rc>
    <rc><c>C </c><c>   1</c></rc>
    <rc><c>C </c><c>   1</c></rc>
    <rc><c>C </c><c>   1</c></rc>
    <rc><c>C </c><c>   1</c></rc>
    <rc><c>C </c><c>   1</c></rc>
    <rc><c>C </c><c>   1</c></rc>
    <rc><c>C </c><c>   1</c></rc>
    <rc><c>C </c><c>   1</c></rc>
    <rc><c>C </c><c>   1</c></rc>
    <rc><c>C </c><c>   1</c></rc>
    <rc><c>C </c><c>   1</c></rc>
    <rc><c>C </c><c>   1</c></rc>
    <rc><c>C </c><c>   1</c></rc>
    <rc><c>C </c><c>   1</c></rc>
    <rc><c>C </c><c>   1</c></rc>
    <rc><c>C </c><c>   1</c></rc>
    <rc><c>C </c><c>   1</c></rc>
    <rc><c>C </c><c>   1</c></rc>
    <rc><c>C </c><c>   1</c></rc>
    <rc><c>C </c><c>   1</c></rc>
    <rc><c>C </c><c>   1</c></rc>
    <rc><c>C </c><c>   1</c></rc>
    <rc><c>C </c><c>   1</c></rc>
    <rc><c>C </c><c>   1</c></rc>
    <rc><c>C </c><c>   1</c></rc>
    <rc><c>C </c><c>   1</c></rc>
    <rc><c>C </c><c>   1</c></rc>
    <rc><c>C </c><c>   1</c></rc>
    <rc><c>C </c><c>   1</c></rc>
    <rc><c>C </c><c>   1</c></rc>
    <rc><c>C </c><c>   1</c></rc>
    <rc><c>C </c><c>   1</c></rc>
    <rc><c>C </c><c>   1</c></rc>
    <rc><c>C </c><c>   1</c></rc>
    <rc><c>C </c><c>   1</c></rc>
    <rc><c>C </c><c>   1</c></rc>
    <rc><c>C </c><c>   1</c></rc>
    <rc><c>C </c><c>   1</c></rc>
    <rc><c>C </c><c>   1</c></rc>
    <rc><c>C </c><c>   1</c></rc>
    <rc><c>C </c><c>   1</c></rc>
    <rc><c>C </c><c>   1</c></rc>
   </set>
  </array>
  <array name="atomtypes" >
   <dimension dim="1">type</dimension>
   <field type="int">atomspertype</field>
   <field type="string">element</field>
   <field>mass</field>
   <field>valence</field>
   <field type="string">pseudopotential</field>
   <set>
    <rc><c>  92</c><c>C </c><c>     12.01100000</c><c>      4.00000000</c><c>  PAW_PBE C 08Apr2002                   </c></rc>
   </set>
  </array>
 </atominfo>
 <structure name="initialpos" >
  <crystal>
   <varray name="basis" >
    <v>      28.05000000       0.00000000       0.00000000 </v>
    <v>       0.00000000       8.10000000       0.00000000 </v>
    <v>       0.00000000       0.00000000      33.50000000 </v>
   </varray>
   <i name="volume">   7611.36750000 </i>
   <varray name="rec_basis" >
    <v>       0.03565062       0.00000000       0.00000000 </v>
    <v>       0.00000000       0.12345679       0.00000000 </v>
    <v>       0.00000000       0.00000000       0.02985075 </v>
   </varray>
  </crystal>
  <varray name="positions" >
   <v>       0.01048121       0.09517963       0.46061791 </v>
   <v>       0.01014107       0.27405309       0.45753731 </v>
   <v>       0.04563922       0.02325383       0.48230448 </v>
   <v>       0.05188770       0.35164568       0.46541194 </v>
   <v>       0.08916649       0.11236815       0.48980896 </v>
   <v>       0.09414795       0.27118642       0.47979701 </v>
   <v>       0.13149198       0.02480222       0.50321194 </v>
   <v>       0.13707130       0.35912469       0.48948657 </v>
   <v>       0.17526417       0.10670284       0.50848358 </v>
   <v>       0.17865098       0.27170123       0.49971940 </v>
   <v>       0.21846881       0.02131667       0.52132836 </v>
   <v>       0.22460178       0.35569136       0.50454627 </v>
   <v>       0.26136827       0.10037284       0.53100000 </v>
   <v>       0.26206275       0.27026667       0.52134627 </v>
   <v>       0.30527487       0.01948333       0.53851045 </v>
   <v>       0.30775116       0.35091852       0.52508358 </v>
   <v>       0.34961105       0.10010864       0.54543582 </v>
   <v>       0.34991836       0.26645556       0.53668955 </v>
   <v>       0.39462745       0.01969333       0.54643881 </v>
   <v>       0.39462389       0.35115679       0.53729552 </v>
   <v>       0.43955793       0.10279247       0.54722388 </v>
   <v>       0.44106239       0.27292593       0.54039104 </v>
   <v>       0.48420677       0.02488469       0.54401194 </v>
   <v>       0.48237790       0.35594691       0.53308955 </v>
   <v>       0.52829947       0.10970580       0.53571343 </v>
   <v>       0.52703030       0.28037901       0.53193134 </v>
   <v>       0.57314082       0.02961136       0.53230746 </v>
   <v>       0.57151515       0.35537160       0.52193433 </v>
   <v>       0.61589661       0.10881012       0.52348955 </v>
   <v>       0.61443137       0.27415556       0.51392537 </v>
   <v>       0.65995722       0.01977531       0.51609552 </v>
   <v>       0.65659180       0.35828272       0.50480000 </v>
   <v>       0.70428877       0.09802679       0.50751642 </v>
   <v>       0.70042781       0.26953457       0.49968657 </v>
   <v>       0.74573619       0.01716370       0.49418209 </v>
   <v>       0.73935116       0.34545679       0.48204179 </v>
   <v>       0.78627094       0.09883074       0.48260597 </v>
   <v>       0.78340107       0.26806049       0.47507761 </v>
   <v>       0.82888057       0.01808988       0.47388955 </v>
   <v>       0.82660963       0.35172222       0.46259104 </v>
   <v>       0.87485561       0.10224741       0.47087761 </v>
   <v>       0.87140107       0.27037407       0.45876716 </v>
   <v>       0.91644207       0.02025025       0.46251045 </v>
   <v>       0.91448841       0.35322222       0.45216716 </v>
   <v>       0.95872727       0.10458728       0.45401493 </v>
   <v>       0.95931907       0.27509753       0.45282985 </v>
   <v>       0.01077266       0.60394691       0.45303284 </v>
   <v>       0.00936563       0.77217284       0.46286567 </v>
   <v>       0.05228913       0.52794198       0.46516418 </v>
   <v>       0.04739251       0.85875432       0.47977015 </v>
   <v>       0.09294866       0.60470494       0.47765075 </v>
   <v>       0.09003351       0.77205556       0.48599701 </v>
   <v>       0.13742674       0.52556173       0.48709254 </v>
   <v>       0.13183922       0.85672963       0.49953433 </v>
   <v>       0.18018610       0.60544691       0.49545373 </v>
   <v>       0.17771301       0.77106049       0.50341791 </v>
   <v>       0.22534367       0.52334198       0.50157612 </v>
   <v>       0.21822995       0.85192840       0.51716119 </v>
   <v>       0.26634688       0.60186790       0.51406269 </v>
   <v>       0.26268663       0.76654321       0.52469552 </v>
   <v>       0.30935080       0.52145185       0.52176119 </v>
   <v>       0.30555722       0.84872716       0.53546269 </v>
   <v>       0.35075080       0.60184198       0.53345373 </v>
   <v>       0.35048378       0.77115556       0.53997313 </v>
   <v>       0.39393939       0.51690988       0.53000000 </v>
   <v>       0.39567201       0.84994691       0.54629851 </v>
   <v>       0.43922282       0.60769877       0.53137910 </v>
   <v>       0.43951872       0.77603580       0.54200597 </v>
   <v>       0.48286275       0.52537160       0.52890746 </v>
   <v>       0.48436720       0.85564938       0.54290746 </v>
   <v>       0.52512299       0.61297654       0.52479104 </v>
   <v>       0.52850624       0.77931481       0.53527761 </v>
   <v>       0.56926916       0.52367654       0.51836119 </v>
   <v>       0.57117291       0.85610370       0.52833731 </v>
   <v>       0.61158289       0.61160000       0.50846567 </v>
   <v>       0.61405348       0.77997778       0.51462687 </v>
   <v>       0.65345098       0.52496543       0.49814328 </v>
   <v>       0.65911230       0.85661481       0.50805970 </v>
   <v>       0.69724777       0.60406049       0.48879104 </v>
   <v>       0.69870945       0.77454568       0.49222090 </v>
   <v>       0.73971836       0.52172840       0.47815224 </v>
   <v>       0.74173619       0.85229136       0.48597313 </v>
   <v>       0.78211765       0.60342716       0.46660896 </v>
   <v>       0.78219608       0.77410247       0.47028060 </v>
   <v>       0.82599287       0.52457654       0.45657313 </v>
   <v>       0.82719786       0.85251852       0.46644478 </v>
   <v>       0.87101961       0.60638889       0.45164478 </v>
   <v>       0.87145098       0.77041358       0.45997910 </v>
   <v>       0.91434225       0.52213951       0.44465672 </v>
   <v>       0.91547237       0.85210000       0.46005373 </v>
   <v>       0.95876292       0.60227654       0.44743881 </v>
   <v>       0.95861319       0.76755062       0.45777015 </v>
  </varray>
 </structure>
 <calculation>
  <scstep>
   <time name="dav">   11.06   11.07</time>
   <time name="total">   11.53   11.55</time>
   <energy>
    <i name="alphaZ">     91.34886789 </i>
    <i name="ewald"> 120320.86971547 </i>
    <i name="hartreedc">-129645.45460801 </i>
    <i name="XCdc">   1221.69347449 </i>
    <i name="pawpsdc">   9984.02826696 </i>
    <i name="pawaedc"> -10036.41360137 </i>
    <i name="eentropy">     -0.89997981 </i>
    <i name="bandstr">  -1770.19126866 </i>
    <i name="atom">  13537.65479391 </i>
    <i name="e_fr_energy">   3702.63566087 </i>
    <i name="e_wo_entrp">   3703.53564068 </i>
    <i name="e_0_energy">   3703.08565077 </i>
   </energy>
  </scstep>
  <scstep>
   <time name="dav">   13.07   13.08</time>
   <time name="total">   13.07   13.08</time>
   <energy>
    <i name="e_fr_energy">    183.32196162 </i>
    <i name="e_wo_entrp">    183.56709698 </i>
    <i name="e_0_energy">    183.44452930 </i>
   </energy>
  </scstep>
  <scstep>
   <time name="dav">   11.35   11.36</time>
   <time name="total">   11.35   11.36</time>
   <energy>
    <i name="e_fr_energy">   -834.06839910 </i>
    <i name="e_wo_entrp">   -834.02885859 </i>
    <i name="e_0_energy">   -834.04862884 </i>
   </energy>
  </scstep>
  <scstep>
   <time name="dav">   11.01   11.01</time>
   <time name="total">   11.01   11.01</time>
   <energy>
    <i name="e_fr_energy">   -896.31209729 </i>
    <i name="e_wo_entrp">   -896.26135020 </i>
    <i name="e_0_energy">   -896.28672375 </i>
   </energy>
  </scstep>
  <scstep>
   <time name="dav">   11.19   11.20</time>
   <time name="total">   12.67   12.68</time>
   <energy>
    <i name="e_fr_energy">   -897.82891629 </i>
    <i name="e_wo_entrp">   -897.77685720 </i>
    <i name="e_0_energy">   -897.80288674 </i>
   </energy>
  </scstep>
  <scstep>
   <time name="dav">   10.17   10.17</time>
   <time name="total">   11.96   11.97</time>
   <energy>
    <i name="e_fr_energy">   -848.31992051 </i>
    <i name="e_wo_entrp">   -848.25771132 </i>
    <i name="e_0_energy">   -848.28881592 </i>
   </energy>
  </scstep>
  <scstep>
   <time name="dav">   10.04   10.04</time>
   <time name="total">   11.84   11.84</time>
   <energy>
    <i name="e_fr_energy">   -829.86012662 </i>
    <i name="e_wo_entrp">   -829.78829641 </i>
    <i name="e_0_energy">   -829.82421151 </i>
   </energy>
  </scstep>
  <scstep>
   <time name="dav">   10.29   10.30</time>
   <time name="total">   12.09   12.09</time>
   <energy>
    <i name="e_fr_energy">   -829.57037363 </i>
    <i name="e_wo_entrp">   -829.50028922 </i>
    <i name="e_0_energy">   -829.53533143 </i>
   </energy>
  </scstep>
  <scstep>
   <time name="dav">   10.57   10.58</time>
   <time name="total">   12.38   12.38</time>
   <energy>
    <i name="e_fr_energy">   -829.46468224 </i>
    <i name="e_wo_entrp">   -829.39514021 </i>
    <i name="e_0_energy">   -829.42991122 </i>
   </energy>
  </scstep>
  <scstep>
   <time name="dav">   11.12   11.13</time>
   <time name="total">   12.93   12.94</time>
   <energy>
    <i name="e_fr_energy">   -829.42659173 </i>
    <i name="e_wo_entrp">   -829.35707766 </i>
    <i name="e_0_energy">   -829.39183469 </i>
   </energy>
  </scstep>
  <scstep>
   <time name="dav">   10.16   10.16</time>
   <time name="total">   11.98   11.99</time>
   <energy>
    <i name="e_fr_energy">   -829.39585240 </i>
    <i name="e_wo_entrp">   -829.32598766 </i>
    <i name="e_0_energy">   -829.36092003 </i>
   </energy>
  </scstep>
  <scstep>
   <time name="dav">   10.15   10.16</time>
   <time name="total">   11.98   11.98</time>
   <energy>
    <i name="e_fr_energy">   -829.39082696 </i>
    <i name="e_wo_entrp">   -829.32092776 </i>
    <i name="e_0_energy">   -829.35587736 </i>
   </energy>
  </scstep>
  <scstep>
   <time name="dav">   10.06   10.06</time>
   <time name="total">   11.89   11.89</time>
   <energy>
    <i name="e_fr_energy">   -829.40319123 </i>
    <i name="e_wo_entrp">   -829.33330604 </i>
    <i name="e_0_energy">   -829.36824864 </i>
   </energy>
  </scstep>
  <scstep>
   <time name="dav">   10.39   10.40</time>
   <time name="total">   12.23   12.24</time>
   <energy>
    <i name="e_fr_energy">   -829.41988197 </i>
    <i name="e_wo_entrp">   -829.34999960 </i>
    <i name="e_0_energy">   -829.38494079 </i>
   </energy>
  </scstep>
  <scstep>
   <time name="dav">   10.10   10.10</time>
   <time name="total">   11.94   11.95</time>
   <energy>
    <i name="e_fr_energy">   -829.44155502 </i>
    <i name="e_wo_entrp">   -829.37162771 </i>
    <i name="e_0_energy">   -829.40659137 </i>
   </energy>
  </scstep>
  <scstep>
   <time name="dav">   10.39   10.40</time>
   <time name="total">   12.26   12.26</time>
   <energy>
    <i name="e_fr_energy">   -829.44939570 </i>
    <i name="e_wo_entrp">   -829.37948318 </i>
    <i name="e_0_energy">   -829.41443944 </i>
   </energy>
  </scstep>
  <scstep>
   <time name="dav">   10.22   10.23</time>
   <time name="total">   12.08   12.09</time>
   <energy>
    <i name="e_fr_energy">   -829.45485089 </i>
    <i name="e_wo_entrp">   -829.38492777 </i>
    <i name="e_0_energy">   -829.41988933 </i>
   </energy>
  </scstep>
  <scstep>
   <time name="dav">   10.83   10.83</time>
   <time name="total">   12.70   12.71</time>
   <energy>
    <i name="e_fr_energy">   -829.45641282 </i>
    <i name="e_wo_entrp">   -829.38646926 </i>
    <i name="e_0_energy">   -829.42144104 </i>
   </energy>
  </scstep>
  <scstep>
   <time name="dav">    9.30    9.31</time>
   <time name="total">   11.20   11.20</time>
   <energy>
    <i name="e_fr_energy">   -829.45756111 </i>
    <i name="e_wo_entrp">   -829.38762369 </i>
    <i name="e_0_energy">   -829.42259240 </i>
   </energy>
  </scstep>
  <scstep>
   <time name="dav">    9.38    9.38</time>
   <time name="total">   11.28   11.28</time>
   <energy>
    <i name="e_fr_energy">   -829.45788652 </i>
    <i name="e_wo_entrp">   -829.38794870 </i>
    <i name="e_0_energy">   -829.42291761 </i>
   </energy>
  </scstep>
  <scstep>
   <time name="dav">    8.49    8.49</time>
   <time name="total">   10.41   10.42</time>
   <energy>
    <i name="e_fr_energy">   -829.45810953 </i>
    <i name="e_wo_entrp">   -829.38816970 </i>
    <i name="e_0_energy">   -829.42313961 </i>
   </energy>
  </scstep>
  <scstep>
   <time name="dav">    7.77    7.77</time>
   <time name="total">    9.70    9.70</time>
   <energy>
    <i name="e_fr_energy">   -829.45816898 </i>
    <i name="e_wo_entrp">   -829.38823015 </i>
    <i name="e_0_energy">   -829.42319957 </i>
   </energy>
  </scstep>
  <scstep>
   <time name="dav">    7.26    7.27</time>
   <time name="total">    9.20    9.21</time>
   <energy>
    <i name="e_fr_energy">   -829.45820147 </i>
    <i name="e_wo_entrp">   -829.38826268 </i>
    <i name="e_0_energy">   -829.42323207 </i>
   </energy>
  </scstep>
  <scstep>
   <time name="dav">    7.22    7.22</time>
   <time name="total">    9.17    9.18</time>
   <energy>
    <i name="e_fr_energy">   -829.45821771 </i>
    <i name="e_wo_entrp">   -829.38827875 </i>
    <i name="e_0_energy">   -829.42324823 </i>
   </energy>
  </scstep>
  <scstep>
   <time name="dav">    7.23    7.23</time>
   <time name="total">    9.20    9.21</time>
   <energy>
    <i name="e_fr_energy">   -829.45822227 </i>
    <i name="e_wo_entrp">   -829.38828342 </i>
    <i name="e_0_energy">   -829.42325284 </i>
   </energy>
  </scstep>
  <scstep>
   <time name="dav">    6.94    6.94</time>
   <time name="total">    8.94    8.94</time>
   <energy>
    <i name="e_fr_energy">   -829.45822638 </i>
    <i name="e_wo_entrp">   -829.38828752 </i>
    <i name="e_0_energy">   -829.42325695 </i>
   </energy>
  </scstep>
  <scstep>
   <time name="dav">    7.46    7.46</time>
   <time name="total">    9.46    9.46</time>
   <energy>
    <i name="e_fr_energy">   -829.45822748 </i>
    <i name="e_wo_entrp">   -829.38828871 </i>
    <i name="e_0_energy">   -829.42325810 </i>
   </energy>
  </scstep>
  <scstep>
   <time name="dav">    7.16    7.16</time>
   <time name="total">    9.18    9.19</time>
   <energy>
    <i name="e_fr_energy">   -829.45822928 </i>
    <i name="e_wo_entrp">   -829.38829048 </i>
    <i name="e_0_energy">   -829.42325988 </i>
   </energy>
  </scstep>
  <scstep>
   <time name="dav">    7.25    7.25</time>
   <time name="total">    7.61    7.61</time>
   <energy>
    <i name="alphaZ">     91.34886789 </i>
    <i name="ewald"> 120320.86971547 </i>
    <i name="hartreedc">-131408.58561585 </i>
    <i name="XCdc">   1278.99007750 </i>
    <i name="pawpsdc">  41088.45185309 </i>
    <i name="pawaedc"> -41152.51457784 </i>
    <i name="eentropy">     -0.06993885 </i>
    <i name="bandstr">  -4585.60340528 </i>
    <i name="atom">  13537.65479391 </i>
    <i name="e_fr_energy">   -829.45822996 </i>
    <i name="e_wo_entrp">   -829.38829111 </i>
    <i name="e_0_energy">   -829.42326053 </i>
   </energy>
  </scstep>
  <structure>
   <crystal>
    <varray name="basis" >
     <v>      28.05000000       0.00000000       0.00000000 </v>
     <v>       0.00000000       8.10000000       0.00000000 </v>
     <v>       0.00000000       0.00000000      33.50000000 </v>
    </varray>
    <i name="volume">   7611.36750000 </i>
    <varray name="rec_basis" >
     <v>       0.03565062       0.00000000       0.00000000 </v>
     <v>       0.00000000       0.12345679       0.00000000 </v>
     <v>       0.00000000       0.00000000       0.02985075 </v>
    </varray>
   </crystal>
   <varray name="positions" >
    <v>       0.01048121       0.09517963       0.46061791 </v>
    <v>       0.01014107       0.27405309       0.45753731 </v>
    <v>       0.04563922       0.02325383       0.48230448 </v>
    <v>       0.05188770       0.35164568       0.46541194 </v>
    <v>       0.08916649       0.11236815       0.48980896 </v>
    <v>       0.09414795       0.27118642       0.47979701 </v>
    <v>       0.13149198       0.02480222       0.50321194 </v>
    <v>       0.13707130       0.35912469       0.48948657 </v>
    <v>       0.17526417       0.10670284       0.50848358 </v>
    <v>       0.17865098       0.27170123       0.49971940 </v>
    <v>       0.21846881       0.02131667       0.52132836 </v>
    <v>       0.22460178       0.35569136       0.50454627 </v>
    <v>       0.26136827       0.10037284       0.53100000 </v>
    <v>       0.26206275       0.27026667       0.52134627 </v>
    <v>       0.30527487       0.01948333       0.53851045 </v>
    <v>       0.30775116       0.35091852       0.52508358 </v>
    <v>       0.34961105       0.10010864       0.54543582 </v>
    <v>       0.34991836       0.26645556       0.53668955 </v>
    <v>       0.39462745       0.01969333       0.54643881 </v>
    <v>       0.39462389       0.35115679       0.53729552 </v>
    <v>       0.43955793       0.10279247       0.54722388 </v>
    <v>       0.44106239       0.27292593       0.54039104 </v>
    <v>       0.48420677       0.02488469       0.54401194 </v>
    <v>       0.48237790       0.35594691       0.53308955 </v>
    <v>       0.52829947       0.10970580       0.53571343 </v>
    <v>       0.52703030       0.28037901       0.53193134 </v>
    <v>       0.57314082       0.02961136       0.53230746 </v>
    <v>       0.57151515       0.35537160       0.52193433 </v>
    <v>       0.61589661       0.10881012       0.52348955 </v>
    <v>       0.61443137       0.27415556       0.51392537 </v>
    <v>       0.65995722       0.01977531       0.51609552 </v>
    <v>       0.65659180       0.35828272       0.50480000 </v>
    <v>       0.70428877       0.09802679       0.50751642 </v>
    <v>       0.70042781       0.26953457       0.49968657 </v>
    <v>       0.74573619       0.01716370       0.49418209 </v>
    <v>       0.73935116       0.34545679       0.48204179 </v>
    <v>       0.78627094       0.09883074       0.48260597 </v>
    <v>       0.78340107       0.26806049       0.47507761 </v>
    <v>       0.82888057       0.01808988       0.47388955 </v>
    <v>       0.82660963       0.35172222       0.46259104 </v>
    <v>       0.87485561       0.10224741       0.47087761 </v>
    <v>       0.87140107       0.27037407       0.45876716 </v>
    <v>       0.91644207       0.02025025       0.46251045 </v>
    <v>       0.91448841       0.35322222       0.45216716 </v>
    <v>       0.95872727       0.10458728       0.45401493 </v>
    <v>       0.95931907       0.27509753       0.45282985 </v>
    <v>       0.01077266       0.60394691       0.45303284 </v>
    <v>       0.00936563       0.77217284       0.46286567 </v>
    <v>       0.05228913       0.52794198       0.46516418 </v>
    <v>       0.04739251       0.85875432       0.47977015 </v>
    <v>       0.09294866       0.60470494       0.47765075 </v>
    <v>       0.09003351       0.77205556       0.48599701 </v>
    <v>       0.13742674       0.52556173       0.48709254 </v>
    <v>       0.13183922       0.85672963       0.49953433 </v>
    <v>       0.18018610       0.60544691       0.49545373 </v>
    <v>       0.17771301       0.77106049       0.50341791 </v>
    <v>       0.22534367       0.52334198       0.50157612 </v>
    <v>       0.21822995       0.85192840       0.51716119 </v>
    <v>       0.26634688       0.60186790       0.51406269 </v>
    <v>       0.26268663       0.76654321       0.52469552 </v>
    <v>       0.30935080       0.52145185       0.52176119 </v>
    <v>       0.30555722       0.84872716       0.53546269 </v>
    <v>       0.35075080       0.60184198       0.53345373 </v>
    <v>       0.35048378       0.77115556       0.53997313 </v>
    <v>       0.39393939       0.51690988       0.53000000 </v>
    <v>       0.39567201       0.84994691       0.54629851 </v>
    <v>       0.43922282       0.60769877       0.53137910 </v>
    <v>       0.43951872       0.77603580       0.54200597 </v>
    <v>       0.48286275       0.52537160       0.52890746 </v>
    <v>       0.48436720       0.85564938       0.54290746 </v>
    <v>       0.52512299       0.61297654       0.52479104 </v>
    <v>       0.52850624       0.77931481       0.53527761 </v>
    <v>       0.56926916       0.52367654       0.51836119 </v>
    <v>       0.57117291       0.85610370       0.52833731 </v>
    <v>       0.61158289       0.61160000       0.50846567 </v>
    <v>       0.61405348       0.77997778       0.51462687 </v>
    <v>       0.65345098       0.52496543       0.49814328 </v>
    <v>       0.65911230       0.85661481       0.50805970 </v>
    <v>       0.69724777       0.60406049       0.48879104 </v>
    <v>       0.69870945       0.77454568       0.49222090 </v>
    <v>       0.73971836       0.52172840       0.47815224 </v>
    <v>       0.74173619       0.85229136       0.48597313 </v>
    <v>       0.78211765       0.60342716       0.46660896 </v>
    <v>       0.78219608       0.77410247       0.47028060 </v>
    <v>       0.82599287       0.52457654       0.45657313 </v>
    <v>       0.82719786       0.85251852       0.46644478 </v>
    <v>       0.87101961       0.60638889       0.45164478 </v>
    <v>       0.87145098       0.77041358       0.45997910 </v>
    <v>       0.91434225       0.52213951       0.44465672 </v>
    <v>       0.91547237       0.85210000       0.46005373 </v>
    <v>       0.95876292       0.60227654       0.44743881 </v>
    <v>       0.95861319       0.76755062       0.45777015 </v>
   </varray>
  </structure>
  <varray name="forces" >
   <v>      -0.50277312       3.62554609       0.65771454 </v>
   <v>       2.46920230      -2.30046229       0.01139585 </v>
   <v>       1.00892467       2.69591941      -0.90626102 </v>
   <v>       0.61198367       2.04606435       0.11191593 </v>
   <v>       0.94434686      -2.60640832       0.90123090 </v>
   <v>      -0.81712057       1.78984968       0.16659902 </v>
   <v>      -0.76578719       0.90092936      -0.59467083 </v>
   <v>      -0.36848910      -2.28529981      -1.10543900 </v>
   <v>       1.39181305      -0.58190798       0.80898131 </v>
   <v>       1.04333634       1.35935336       0.46148126 </v>
   <v>      -1.39268070       0.01068166      -0.37950836 </v>
   <v>      -2.88988820      -2.11508918       0.11676562 </v>
   <v>      -0.08173109       1.65185190      -1.00745859 </v>
   <v>       3.06098816      -0.42341514       0.36045017 </v>
   <v>      -0.21152735      -0.25925688       0.79752826 </v>
   <v>      -0.39597521      -0.87889708       0.22904114 </v>
   <v>      -0.32253663       0.16587046      -1.23657305 </v>
   <v>       0.58274142       0.94328681       0.44414075 </v>
   <v>       0.31270047       0.57942713       1.48470908 </v>
   <v>       0.71223755      -0.92849355      -0.93160220 </v>
   <v>       0.13457828       1.09112456      -0.84497247 </v>
   <v>      -3.65241778      -0.82385158       0.34498750 </v>
   <v>       0.59546437       0.19896953       0.11521614 </v>
   <v>       1.82169886       0.92105473      -0.19013366 </v>
   <v>      -0.43777613       0.20314468       1.09599120 </v>
   <v>       1.22209599      -1.95902809      -0.35298681 </v>
   <v>      -1.10186572      -1.35235711      -0.31750122 </v>
   <v>      -1.80219565       0.73486665      -0.48648868 </v>
   <v>       1.38974793      -0.75940882      -0.58820373 </v>
   <v>       0.04241898      -0.20230434       1.82416082 </v>
   <v>       0.54909723       1.84491029       0.07845615 </v>
   <v>       0.09901685      -1.36249624      -0.69084690 </v>
   <v>      -1.59074593       2.15094877      -0.53016503 </v>
   <v>      -0.40067183      -0.48620025       0.22832101 </v>
   <v>      -1.63341738       0.09970174       0.48146755 </v>
   <v>       1.46034582       2.56102753      -0.02295206 </v>
   <v>       0.92684399       1.86475564      -0.42986956 </v>
   <v>       1.30197128      -0.03363604       0.19997887 </v>
   <v>       1.93131276       0.61742518       0.34454542 </v>
   <v>      -0.58118821       0.48508720      -0.61898943 </v>
   <v>      -3.08296183       1.31326187      -1.89714958 </v>
   <v>      -0.09200509      -1.05470556       1.89108877 </v>
   <v>       1.24267950       0.49183129       0.15411424 </v>
   <v>       1.03969709       0.54029563      -1.17651153 </v>
   <v>      -1.44002272      -0.35639195       0.88315225 </v>
   <v>      -2.61592907      -1.21058886      -0.65101155 </v>
   <v>       2.31121076       1.34038393       1.30432769 </v>
   <v>       1.44793969      -0.24108499       0.33267492 </v>
   <v>      -1.31634206      -3.51767345      -1.46871653 </v>
   <v>      -0.73607027      -4.30457808      -0.30519610 </v>
   <v>       1.72611684       1.84783775       1.09742349 </v>
   <v>       1.20965061       0.59725305       0.31100730 </v>
   <v>      -0.86364162       0.32608060      -0.86466924 </v>
   <v>       1.07809179      -1.98648232       0.00638063 </v>
   <v>       1.02070078       0.02752333       0.25359539 </v>
   <v>      -1.78965967       1.28682574      -0.02091960 </v>
   <v>      -1.84348130       0.20703321      -0.41436874 </v>
   <v>       1.66451243      -0.32973764       0.83439686 </v>
   <v>       0.04190529       1.49011442       0.57746192 </v>
   <v>       0.00921036       0.73842284      -0.92182309 </v>
   <v>      -0.69998630      -0.94974650       0.32925214 </v>
   <v>       0.03524855       0.47354060       0.62716229 </v>
   <v>       0.39929474       0.91554662      -1.18483946 </v>
   <v>       0.27323708      -1.14318604      -0.25745058 </v>
   <v>       2.24466542       1.92994665       1.42961418 </v>
   <v>      -2.00368206       0.98960826      -0.46658325 </v>
   <v>      -1.55935017      -0.21810411       0.80895673 </v>
   <v>       1.00893873      -2.64204289      -0.79208180 </v>
   <v>      -1.16512694       0.66820255      -0.35239317 </v>
   <v>      -0.04746509       0.44325506       0.21209087 </v>
   <v>       2.33374504      -1.29028257       0.91659704 </v>
   <v>      -1.69580689      -2.22047732      -1.40732785 </v>
   <v>      -0.20794795       1.99410085      -0.55871752 </v>
   <v>       2.46605160       2.20853540       0.40137370 </v>
   <v>      -0.17340160      -0.81818236       0.17784759 </v>
   <v>      -0.56613825      -0.96707638      -0.19043796 </v>
   <v>       1.28983525       0.26185265       0.16198384 </v>
   <v>      -2.04506676      -0.94534387       0.47245356 </v>
   <v>      -0.19303594       0.49547249      -0.51157072 </v>
   <v>      -0.41040344      -0.93650812       0.53883782 </v>
   <v>      -0.50928638      -1.80803568      -0.32872481 </v>
   <v>       1.11509254       0.05071970      -0.31303463 </v>
   <v>       0.04524915       0.20143861      -0.28850380 </v>
   <v>       0.85870175      -0.83002578      -0.02035541 </v>
   <v>      -0.13700888      -1.63275046       0.59723966 </v>
   <v>       0.16423214      -0.24658071       0.62768766 </v>
   <v>      -1.09069843      -0.98680127      -0.29060340 </v>
   <v>      -0.58110278       0.79636624      -0.64698869 </v>
   <v>       0.98559416      -0.20272425       0.95007462 </v>
   <v>       0.94675438      -0.81648404       0.73904636 </v>
   <v>      -1.96283211       0.65800334      -0.12483179 </v>
   <v>      -2.79398114       0.17885857      -1.21148660 </v>
  </varray>
  <varray name="stress" >
   <v>       1.89718172       0.24905642      -0.05702819 </v>
   <v>       0.24905642      49.05806932       0.43202763 </v>
   <v>      -0.05702819       0.43202763      -0.62632156 </v>
  </varray>
  <energy>
   <i name="e_fr_energy">   -829.45822996 </i>
   <i name="e_wo_entrp">   -829.38829111 </i>
   <i name="e_0_energy">   -829.42326053 </i>
  </energy>
  <time name="totalsc">  334.78  334.97</time>
  <eigenvalues>
   <array>
    <dimension dim="1">band</dimension>
    <dimension dim="2">kpoint</dimension>
    <dimension dim="3">spin</dimension>
    <field>eigene</field>
    <field>occ</field>
    <set>
     <set comment="spin 1">
      <set comment="kpoint 1">
       <r>  -23.2175    1.0000 </r>
       <r>  -23.0721    1.0000 </r>
       <r>  -22.9882    1.0000 </r>
       <r>  -22.6985    1.0000 </r>
       <r>  -22.5839    1.0000 </r>
       <r>  -22.3882    1.0000 </r>
       <r>  -22.0404    1.0000 </r>
       <r>  -21.9925    1.0000 </r>
       <r>  -21.5382    1.0000 </r>
       <r>  -21.4517    1.0000 </r>
       <r>  -21.4141    1.0000 </r>
       <r>  -21.3223    1.0000 </r>
       <r>  -21.2757    1.0000 </r>
       <r>  -21.2134    1.0000 </r>
       <r>  -21.1128    1.0000 </r>
       <r>  -21.0634    1.0000 </r>
       <r>  -21.0046    1.0000 </r>
       <r>  -20.9346    1.0000 </r>
       <r>  -20.8517    1.0000 </r>
       <r>  -20.4985    1.0000 </r>
       <r>  -20.4291    1.0000 </r>
       <r>  -20.3582    1.0000 </r>
       <r>  -20.2280    1.0000 </r>
       <r>  -20.0825    1.0000 </r>
       <r>  -19.9311    1.0000 </r>
       <r>  -19.7236    1.0000 </r>
       <r>  -19.5694    1.0000 </r>
       <r>  -19.4284    1.0000 </r>
       <r>  -19.2523    1.0000 </r>
       <r>  -18.9064    1.0000 </r>
       <r>  -18.6808    1.0000 </r>
       <r>  -18.5796    1.0000 </r>
       <r>  -18.5388    1.0000 </r>
       <r>  -18.3249    1.0000 </r>
       <r>  -18.1795    1.0000 </r>
       <r>  -17.5718    1.0000 </r>
       <r>  -17.2739    1.0000 </r>
       <r>  -17.1878    1.0000 </r>
       <r>  -17.1289    1.0000 </r>
       <r>  -17.0052    1.0000 </r>
       <r>  -16.9360    1.0000 </r>
       <r>  -16.6985    1.0000 </r>
       <r>  -16.6575    1.0000 </r>
       <r>  -16.6465    1.0000 </r>
       <r>  -16.5868    1.0000 </r>
       <r>  -16.5474    1.0000 </r>
       <r>  -16.5269    1.0000 </r>
       <r>  -16.4927    1.0000 </r>
       <r>  -16.4180    1.0000 </r>
       <r>  -16.3039    1.0000 </r>
       <r>  -16.2346    1.0000 </r>
       <r>  -16.1560    1.0000 </r>
       <r>  -16.0577    1.0000 </r>
       <r>  -15.9889    1.0000 </r>
       <r>  -15.9723    1.0000 </r>
       <r>  -15.5663    1.0000 </r>
       <r>  -15.4188    1.0000 </r>
       <r>  -15.3569    1.0000 </r>
       <r>  -15.2940    1.0000 </r>
       <r>  -15.2167    1.0000 </r>
       <r>  -15.1952    1.0000 </r>
       <r>  -15.0262    1.0000 </r>
       <r>  -14.4204    1.0000 </r>
       <r>  -14.2160    1.0000 </r>
       <r>  -14.1138    1.0000 </r>
       <r>  -14.0091    1.0000 </r>
       <r>  -13.9002    1.0000 </r>
       <r>  -13.7287    1.0000 </r>
       <r>  -13.6879    1.0000 </r>
       <r>  -13.6747    1.0000 </r>
       <r>  -13.5230    1.0000 </r>
       <r>  -13.3426    1.0000 </r>
       <r>  -13.2342    1.0000 </r>
       <r>  -13.2050    1.0000 </r>
       <r>  -13.1248    1.0000 </r>
       <r>  -12.9072    1.0000 </r>
       <r>  -12.6438    1.0000 </r>
       <r>  -12.3820    1.0000 </r>
       <r>  -12.1761    1.0000 </r>
       <r>  -12.0587    1.0000 </r>
       <r>  -12.0218    1.0000 </r>
       <r>  -11.9942    1.0000 </r>
       <r>  -11.9229    1.0000 </r>
       <r>  -11.8117    1.0000 </r>
       <r>  -11.7888    1.0000 </r>
       <r>  -11.5293    1.0000 </r>
       <r>  -11.3260    1.0000 </r>
       <r>  -11.2048    1.0000 </r>
       <r>  -11.1173    1.0000 </r>
       <r>  -11.0917    1.0000 </r>
       <r>  -10.9753    1.0000 </r>
       <r>  -10.8803    1.0000 </r>
       <r>  -10.7822    1.0000 </r>
       <r>  -10.7365    1.0000 </r>
       <r>  -10.6803    1.0000 </r>
       <r>  -10.6388    1.0000 </r>
       <r>  -10.5788    1.0000 </r>
       <r>  -10.4863    1.0000 </r>
       <r>  -10.4684    1.0000 </r>
       <r>  -10.4362    1.0000 </r>
       <r>  -10.3956    1.0000 </r>
       <r>  -10.3131    1.0000 </r>
       <r>  -10.2584    1.0000 </r>
       <r>  -10.2139    1.0000 </r>
       <r>  -10.1265    1.0000 </r>
       <r>   -9.9967    1.0000 </r>
       <r>   -9.9388    1.0000 </r>
       <r>   -9.9071    1.0000 </r>
       <r>   -9.8682    1.0000 </r>
       <r>   -9.7398    1.0000 </r>
       <r>   -9.7046    1.0000 </r>
       <r>   -9.6677    1.0000 </r>
       <r>   -9.6383    1.0000 </r>
       <r>   -9.6163    1.0000 </r>
       <r>   -9.5918    1.0000 </r>
       <r>   -9.5388    1.0000 </r>
       <r>   -9.5063    1.0000 </r>
       <r>   -9.4672    1.0000 </r>
       <r>   -9.4455    1.0000 </r>
       <r>   -9.4177    1.0000 </r>
       <r>   -9.3809    1.0000 </r>
       <r>   -9.3718    1.0000 </r>
       <r>   -9.3682    1.0000 </r>
       <r>   -9.3199    1.0000 </r>
       <r>   -9.2961    1.0000 </r>
       <r>   -9.2359    1.0000 </r>
       <r>   -9.2186    1.0000 </r>
       <r>   -9.1729    1.0000 </r>
       <r>   -9.1624    1.0000 </r>
       <r>   -9.0962    1.0000 </r>
       <r>   -9.0633    1.0000 </r>
       <r>   -9.0171    1.0000 </r>
       <r>   -8.9885    1.0000 </r>
       <r>   -8.9324    1.0000 </r>
       <r>   -8.9173    1.0000 </r>
       <r>   -8.8760    1.0000 </r>
       <r>   -8.8569    1.0000 </r>
       <r>   -8.8101    1.0000 </r>
       <r>   -8.7486    1.0000 </r>
       <r>   -8.6692    1.0000 </r>
       <r>   -8.6581    1.0000 </r>
       <r>   -8.6031    1.0000 </r>
       <r>   -8.5937    1.0000 </r>
       <r>   -8.5723    1.0000 </r>
       <r>   -8.4918    1.0000 </r>
       <r>   -8.3103    1.0000 </r>
       <r>   -8.0501    1.0000 </r>
       <r>   -7.9771    1.0000 </r>
       <r>   -7.8907    1.0000 </r>
       <r>   -7.7490    1.0000 </r>
       <r>   -7.6629    1.0000 </r>
       <r>   -7.6312    1.0000 </r>
       <r>   -7.5400    1.0000 </r>
       <r>   -7.4599    1.0000 </r>
       <r>   -7.4264    1.0000 </r>
       <r>   -7.3382    1.0000 </r>
       <r>   -7.3147    1.0000 </r>
       <r>   -7.1206    1.0000 </r>
       <r>   -6.9970    1.0000 </r>
       <r>   -6.8672    1.0000 </r>
       <r>   -6.8015    1.0000 </r>
       <r>   -6.7484    1.0000 </r>
       <r>   -6.5682    1.0000 </r>
       <r>   -6.5388    1.0000 </r>
       <r>   -6.4734    1.0000 </r>
       <r>   -6.2180    1.0000 </r>
       <r>   -6.1718    1.0000 </r>
       <r>   -6.0152    1.0000 </r>
       <r>   -5.9969    1.0000 </r>
       <r>   -5.9391    1.0000 </r>
       <r>   -5.9052    1.0000 </r>
       <r>   -5.8856    1.0000 </r>
       <r>   -5.7614    1.0000 </r>
       <r>   -5.1077    1.0000 </r>
       <r>   -4.9480    1.0000 </r>
       <r>   -4.9264    1.0000 </r>
       <r>   -4.5706    1.0000 </r>
       <r>   -4.5360    1.0000 </r>
       <r>   -4.4511    1.0000 </r>
       <r>   -4.4369    1.0000 </r>
       <r>   -4.3476    1.0000 </r>
       <r>   -3.8263    1.0000 </r>
       <r>   -3.6718    1.0000 </r>
       <r>   -3.1589    0.6197 </r>
       <r>   -3.0209    0.2510 </r>
       <r>   -2.7548    0.0053 </r>
       <r>   -2.6760    0.0009 </r>
       <r>   -2.6580    0.0006 </r>
       <r>   -2.1925    0.0000 </r>
       <r>   -2.1217    0.0000 </r>
       <r>   -1.6693    0.0000 </r>
       <r>   -1.5724    0.0000 </r>
       <r>   -1.5202    0.0000 </r>
       <r>   -1.4651    0.0000 </r>
       <r>   -1.4582    0.0000 </r>
       <r>   -1.4187    0.0000 </r>
       <r>   -1.3132    0.0000 </r>
       <r>   -1.0847    0.0000 </r>
       <r>   -0.8158    0.0000 </r>
       <r>   -0.7116    0.0000 </r>
       <r>   -0.5184    0.0000 </r>
       <r>   -0.4537    0.0000 </r>
       <r>   -0.0492    0.0000 </r>
       <r>    0.0242    0.0000 </r>
       <r>    0.0818    0.0000 </r>
       <r>    0.1739    0.0000 </r>
       <r>    0.2575    0.0000 </r>
       <r>    0.6262    0.0000 </r>
       <r>    0.6592    0.0000 </r>
       <r>    0.6794    0.0000 </r>
       <r>    0.6994    0.0000 </r>
       <r>    0.8499    0.0000 </r>
       <r>    0.8943    0.0000 </r>
       <r>    0.9173    0.0000 </r>
       <r>    0.9366    0.0000 </r>
       <r>    0.9727    0.0000 </r>
       <r>    0.9916    0.0000 </r>
       <r>    1.1508    0.0000 </r>
       <r>    1.1585    0.0000 </r>
       <r>    1.2171    0.0000 </r>
       <r>    1.3165    0.0000 </r>
       <r>    1.3259    0.0000 </r>
       <r>    1.3352    0.0000 </r>
       <r>    1.4045    0.0000 </r>
       <r>    1.4559    0.0000 </r>
       <r>    1.5494    0.0000 </r>
       <r>    1.5660    0.0000 </r>
       <r>    1.6596    0.0000 </r>
       <r>    1.6963    0.0000 </r>
       <r>    1.7292    0.0000 </r>
       <r>    1.7306    0.0000 </r>
       <r>    1.7862    0.0000 </r>
      </set>
      <set comment="kpoint 2">
       <r>  -23.1342    1.0000 </r>
       <r>  -22.9748    1.0000 </r>
       <r>  -22.8907    1.0000 </r>
       <r>  -22.6141    1.0000 </r>
       <r>  -22.5568    1.0000 </r>
       <r>  -22.4844    1.0000 </r>
       <r>  -22.1814    1.0000 </r>
       <r>  -22.0623    1.0000 </r>
       <r>  -21.9498    1.0000 </r>
       <r>  -21.9014    1.0000 </r>
       <r>  -21.8087    1.0000 </r>
       <r>  -21.6710    1.0000 </r>
       <r>  -21.2737    1.0000 </r>
       <r>  -21.1417    1.0000 </r>
       <r>  -21.0626    1.0000 </r>
       <r>  -20.9657    1.0000 </r>
       <r>  -20.6259    1.0000 </r>
       <r>  -20.5622    1.0000 </r>
       <r>  -20.4743    1.0000 </r>
       <r>  -20.2951    1.0000 </r>
       <r>  -20.1904    1.0000 </r>
       <r>  -20.1161    1.0000 </r>
       <r>  -20.0339    1.0000 </r>
       <r>  -19.9269    1.0000 </r>
       <r>  -19.8351    1.0000 </r>
       <r>  -19.5525    1.0000 </r>
       <r>  -19.5082    1.0000 </r>
       <r>  -19.1218    1.0000 </r>
       <r>  -19.0718    1.0000 </r>
       <r>  -18.8750    1.0000 </r>
       <r>  -18.6459    1.0000 </r>
       <r>  -18.5198    1.0000 </r>
       <r>  -18.4899    1.0000 </r>
       <r>  -18.2795    1.0000 </r>
       <r>  -18.1820    1.0000 </r>
       <r>  -18.0859    1.0000 </r>
       <r>  -18.0686    1.0000 </r>
       <r>  -17.9373    1.0000 </r>
       <r>  -17.8170    1.0000 </r>
       <r>  -17.7959    1.0000 </r>
       <r>  -17.4401    1.0000 </r>
       <r>  -17.3626    1.0000 </r>
       <r>  -17.3095    1.0000 </r>
       <r>  -17.0994    1.0000 </r>
       <r>  -17.0545    1.0000 </r>
       <r>  -16.5952    1.0000 </r>
       <r>  -16.3777    1.0000 </r>
       <r>  -16.1938    1.0000 </r>
       <r>  -16.1039    1.0000 </r>
       <r>  -15.9021    1.0000 </r>
       <r>  -15.7923    1.0000 </r>
       <r>  -15.6671    1.0000 </r>
       <r>  -15.6217    1.0000 </r>
       <r>  -15.3398    1.0000 </r>
       <r>  -15.2860    1.0000 </r>
       <r>  -15.2410    1.0000 </r>
       <r>  -15.1498    1.0000 </r>
       <r>  -15.1023    1.0000 </r>
       <r>  -15.0023    1.0000 </r>
       <r>  -14.9421    1.0000 </r>
       <r>  -14.9263    1.0000 </r>
       <r>  -14.7600    1.0000 </r>
       <r>  -14.5687    1.0000 </r>
       <r>  -14.3703    1.0000 </r>
       <r>  -14.3008    1.0000 </r>
       <r>  -14.1592    1.0000 </r>
       <r>  -13.9456    1.0000 </r>
       <r>  -13.9107    1.0000 </r>
       <r>  -13.3676    1.0000 </r>
       <r>  -13.2497    1.0000 </r>
       <r>  -13.1863    1.0000 </r>
       <r>  -13.1486    1.0000 </r>
       <r>  -12.9255    1.0000 </r>
       <r>  -12.8519    1.0000 </r>
       <r>  -12.7934    1.0000 </r>
       <r>  -12.7371    1.0000 </r>
       <r>  -12.5952    1.0000 </r>
       <r>  -12.5770    1.0000 </r>
       <r>  -12.3961    1.0000 </r>
       <r>  -12.3086    1.0000 </r>
       <r>  -12.1584    1.0000 </r>
       <r>  -12.1216    1.0000 </r>
       <r>  -12.0365    1.0000 </r>
       <r>  -11.9860    1.0000 </r>
       <r>  -11.7307    1.0000 </r>
       <r>  -11.6539    1.0000 </r>
       <r>  -11.4391    1.0000 </r>
       <r>  -11.3567    1.0000 </r>
       <r>  -11.2509    1.0000 </r>
       <r>  -11.2128    1.0000 </r>
       <r>  -11.0921    1.0000 </r>
       <r>  -11.0444    1.0000 </r>
       <r>  -10.9880    1.0000 </r>
       <r>  -10.9538    1.0000 </r>
       <r>  -10.9053    1.0000 </r>
       <r>  -10.8963    1.0000 </r>
       <r>  -10.8668    1.0000 </r>
       <r>  -10.8049    1.0000 </r>
       <r>  -10.7660    1.0000 </r>
       <r>  -10.6924    1.0000 </r>
       <r>  -10.5764    1.0000 </r>
       <r>  -10.5245    1.0000 </r>
       <r>  -10.4568    1.0000 </r>
       <r>  -10.4127    1.0000 </r>
       <r>  -10.3860    1.0000 </r>
       <r>  -10.3282    1.0000 </r>
       <r>  -10.2695    1.0000 </r>
       <r>  -10.1002    1.0000 </r>
       <r>  -10.0829    1.0000 </r>
       <r>  -10.0286    1.0000 </r>
       <r>  -10.0137    1.0000 </r>
       <r>   -9.9431    1.0000 </r>
       <r>   -9.8667    1.0000 </r>
       <r>   -9.8105    1.0000 </r>
       <r>   -9.7408    1.0000 </r>
       <r>   -9.7128    1.0000 </r>
       <r>   -9.6391    1.0000 </r>
       <r>   -9.6157    1.0000 </r>
       <r>   -9.5750    1.0000 </r>
       <r>   -9.5424    1.0000 </r>
       <r>   -9.5026    1.0000 </r>
       <r>   -9.4371    1.0000 </r>
       <r>   -9.3783    1.0000 </r>
       <r>   -9.3582    1.0000 </r>
       <r>   -9.2655    1.0000 </r>
       <r>   -9.2137    1.0000 </r>
       <r>   -9.0492    1.0000 </r>
       <r>   -8.9228    1.0000 </r>
       <r>   -8.8885    1.0000 </r>
       <r>   -8.8355    1.0000 </r>
       <r>   -8.7711    1.0000 </r>
       <r>   -8.7265    1.0000 </r>
       <r>   -8.6452    1.0000 </r>
       <r>   -8.5926    1.0000 </r>
       <r>   -8.5823    1.0000 </r>
       <r>   -8.5381    1.0000 </r>
       <r>   -8.5165    1.0000 </r>
       <r>   -8.4461    1.0000 </r>
       <r>   -8.4195    1.0000 </r>
       <r>   -8.3311    1.0000 </r>
       <r>   -8.2932    1.0000 </r>
       <r>   -8.2405    1.0000 </r>
       <r>   -8.1702    1.0000 </r>
       <r>   -8.0459    1.0000 </r>
       <r>   -8.0245    1.0000 </r>
       <r>   -7.9758    1.0000 </r>
       <r>   -7.9293    1.0000 </r>
       <r>   -7.8331    1.0000 </r>
       <r>   -7.7721    1.0000 </r>
       <r>   -7.7498    1.0000 </r>
       <r>   -7.6675    1.0000 </r>
       <r>   -7.5252    1.0000 </r>
       <r>   -7.4437    1.0000 </r>
       <r>   -7.3932    1.0000 </r>
       <r>   -7.3176    1.0000 </r>
       <r>   -7.2622    1.0000 </r>
       <r>   -7.1411    1.0000 </r>
       <r>   -7.0093    1.0000 </r>
       <r>   -6.9114    1.0000 </r>
       <r>   -6.8750    1.0000 </r>
       <r>   -6.8040    1.0000 </r>
       <r>   -6.6278    1.0000 </r>
       <r>   -6.5929    1.0000 </r>
       <r>   -6.5658    1.0000 </r>
       <r>   -6.5044    1.0000 </r>
       <r>   -6.2575    1.0000 </r>
       <r>   -6.1684    1.0000 </r>
       <r>   -6.1126    1.0000 </r>
       <r>   -6.0464    1.0000 </r>
       <r>   -5.9458    1.0000 </r>
       <r>   -5.8218    1.0000 </r>
       <r>   -5.7484    1.0000 </r>
       <r>   -5.7250    1.0000 </r>
       <r>   -5.6565    1.0000 </r>
       <r>   -5.5415    1.0000 </r>
       <r>   -5.4953    1.0000 </r>
       <r>   -5.1950    1.0000 </r>
       <r>   -5.1231    1.0000 </r>
       <r>   -4.7142    1.0000 </r>
       <r>   -4.6570    1.0000 </r>
       <r>   -4.4885    1.0000 </r>
       <r>   -4.4367    1.0000 </r>
       <r>   -4.3629    1.0000 </r>
       <r>   -3.5198    0.9979 </r>
       <r>   -2.8975    0.0613 </r>
       <r>   -2.6459    0.0004 </r>
       <r>   -2.1353    0.0000 </r>
       <r>   -2.0730    0.0000 </r>
       <r>   -1.6304    0.0000 </r>
       <r>   -1.5519    0.0000 </r>
       <r>   -1.4560    0.0000 </r>
       <r>   -1.3861    0.0000 </r>
       <r>   -1.3336    0.0000 </r>
       <r>   -1.3100    0.0000 </r>
       <r>   -1.1000    0.0000 </r>
       <r>   -1.0462    0.0000 </r>
       <r>   -0.9480    0.0000 </r>
       <r>   -0.8730    0.0000 </r>
       <r>   -0.7516    0.0000 </r>
       <r>   -0.5460    0.0000 </r>
       <r>   -0.2603    0.0000 </r>
       <r>   -0.1498    0.0000 </r>
       <r>   -0.1030    0.0000 </r>
       <r>   -0.0599    0.0000 </r>
       <r>    0.0999    0.0000 </r>
       <r>    0.1789    0.0000 </r>
       <r>    0.2460    0.0000 </r>
       <r>    0.3400    0.0000 </r>
       <r>    0.3553    0.0000 </r>
       <r>    0.7997    0.0000 </r>
       <r>    0.8309    0.0000 </r>
       <r>    0.8394    0.0000 </r>
       <r>    0.9811    0.0000 </r>
       <r>    1.0311    0.0000 </r>
       <r>    1.0540    0.0000 </r>
       <r>    1.0702    0.0000 </r>
       <r>    1.1236    0.0000 </r>
       <r>    1.2114    0.0000 </r>
       <r>    1.2937    0.0000 </r>
       <r>    1.3011    0.0000 </r>
       <r>    1.3498    0.0000 </r>
       <r>    1.3600    0.0000 </r>
       <r>    1.4026    0.0000 </r>
       <r>    1.4524    0.0000 </r>
       <r>    1.4647    0.0000 </r>
       <r>    1.4760    0.0000 </r>
       <r>    1.5261    0.0000 </r>
       <r>    1.5465    0.0000 </r>
       <r>    1.5886    0.0000 </r>
       <r>    1.6332    0.0000 </r>
       <r>    1.6762    0.0000 </r>
       <r>    1.7163    0.0000 </r>
      </set>
      <set comment="kpoint 3">
       <r>  -22.9489    1.0000 </r>
       <r>  -22.8329    1.0000 </r>
       <r>  -22.7137    1.0000 </r>
       <r>  -22.6748    1.0000 </r>
       <r>  -22.6098    1.0000 </r>
       <r>  -22.5486    1.0000 </r>
       <r>  -22.3178    1.0000 </r>
       <r>  -22.2588    1.0000 </r>
       <r>  -22.2074    1.0000 </r>
       <r>  -22.1485    1.0000 </r>
       <r>  -21.7170    1.0000 </r>
       <r>  -21.6440    1.0000 </r>
       <r>  -21.6162    1.0000 </r>
       <r>  -21.5231    1.0000 </r>
       <r>  -20.9190    1.0000 </r>
       <r>  -20.8598    1.0000 </r>
       <r>  -20.7439    1.0000 </r>
       <r>  -20.5939    1.0000 </r>
       <r>  -19.9754    1.0000 </r>
       <r>  -19.8620    1.0000 </r>
       <r>  -19.6156    1.0000 </r>
       <r>  -19.5304    1.0000 </r>
       <r>  -19.5255    1.0000 </r>
       <r>  -19.5087    1.0000 </r>
       <r>  -19.4230    1.0000 </r>
       <r>  -19.3997    1.0000 </r>
       <r>  -19.2971    1.0000 </r>
       <r>  -19.2409    1.0000 </r>
       <r>  -19.0635    1.0000 </r>
       <r>  -19.0548    1.0000 </r>
       <r>  -19.0086    1.0000 </r>
       <r>  -18.9051    1.0000 </r>
       <r>  -18.6489    1.0000 </r>
       <r>  -18.5691    1.0000 </r>
       <r>  -18.4851    1.0000 </r>
       <r>  -18.4793    1.0000 </r>
       <r>  -18.2727    1.0000 </r>
       <r>  -18.2056    1.0000 </r>
       <r>  -18.1672    1.0000 </r>
       <r>  -18.1033    1.0000 </r>
       <r>  -17.7425    1.0000 </r>
       <r>  -17.6697    1.0000 </r>
       <r>  -17.6164    1.0000 </r>
       <r>  -17.5755    1.0000 </r>
       <r>  -16.9088    1.0000 </r>
       <r>  -16.8269    1.0000 </r>
       <r>  -16.3208    1.0000 </r>
       <r>  -16.2414    1.0000 </r>
       <r>  -16.0567    1.0000 </r>
       <r>  -16.0361    1.0000 </r>
       <r>  -15.9328    1.0000 </r>
       <r>  -15.9115    1.0000 </r>
       <r>  -15.3053    1.0000 </r>
       <r>  -15.2538    1.0000 </r>
       <r>  -15.0941    1.0000 </r>
       <r>  -15.0327    1.0000 </r>
       <r>  -14.8473    1.0000 </r>
       <r>  -14.8419    1.0000 </r>
       <r>  -14.7378    1.0000 </r>
       <r>  -14.6907    1.0000 </r>
       <r>  -14.0775    1.0000 </r>
       <r>  -13.9714    1.0000 </r>
       <r>  -13.7662    1.0000 </r>
       <r>  -13.7395    1.0000 </r>
       <r>  -13.7038    1.0000 </r>
       <r>  -13.6797    1.0000 </r>
       <r>  -13.6611    1.0000 </r>
       <r>  -13.6108    1.0000 </r>
       <r>  -13.5826    1.0000 </r>
       <r>  -13.5433    1.0000 </r>
       <r>  -13.4808    1.0000 </r>
       <r>  -13.4622    1.0000 </r>
       <r>  -13.3830    1.0000 </r>
       <r>  -13.3536    1.0000 </r>
       <r>  -13.1669    1.0000 </r>
       <r>  -13.0484    1.0000 </r>
       <r>  -12.3889    1.0000 </r>
       <r>  -12.2827    1.0000 </r>
       <r>  -12.2244    1.0000 </r>
       <r>  -12.1588    1.0000 </r>
       <r>  -12.1028    1.0000 </r>
       <r>  -12.0817    1.0000 </r>
       <r>  -11.9887    1.0000 </r>
       <r>  -11.9504    1.0000 </r>
       <r>  -11.9273    1.0000 </r>
       <r>  -11.8841    1.0000 </r>
       <r>  -11.8191    1.0000 </r>
       <r>  -11.7674    1.0000 </r>
       <r>  -11.6786    1.0000 </r>
       <r>  -11.6169    1.0000 </r>
       <r>  -11.3837    1.0000 </r>
       <r>  -11.2730    1.0000 </r>
       <r>  -11.2149    1.0000 </r>
       <r>  -11.1047    1.0000 </r>
       <r>  -11.0546    1.0000 </r>
       <r>  -10.9695    1.0000 </r>
       <r>  -10.8034    1.0000 </r>
       <r>  -10.7580    1.0000 </r>
       <r>  -10.6856    1.0000 </r>
       <r>  -10.6419    1.0000 </r>
       <r>  -10.5525    1.0000 </r>
       <r>  -10.5357    1.0000 </r>
       <r>  -10.5114    1.0000 </r>
       <r>  -10.4685    1.0000 </r>
       <r>  -10.4543    1.0000 </r>
       <r>  -10.4190    1.0000 </r>
       <r>  -10.3580    1.0000 </r>
       <r>  -10.3301    1.0000 </r>
       <r>  -10.2812    1.0000 </r>
       <r>  -10.2607    1.0000 </r>
       <r>  -10.2353    1.0000 </r>
       <r>  -10.1885    1.0000 </r>
       <r>  -10.1356    1.0000 </r>
       <r>  -10.0790    1.0000 </r>
       <r>  -10.0280    1.0000 </r>
[...]
       <r>   -22.7039    14.1929     6.7434 </r>
       <r>   -22.6072    16.0894     8.2989 </r>
       <r>   -22.5105    16.3494     9.8795 </r>
       <r>   -22.4138    14.2126    11.2536 </r>
       <r>   -22.3171    12.1293    12.4262 </r>
       <r>   -22.2205    12.0989    13.5959 </r>
       <r>   -22.1238    13.4319    14.8945 </r>
       <r>   -22.0271    14.5400    16.3002 </r>
       <r>   -21.9304    14.6388    17.7155 </r>
       <r>   -21.8337    13.8910    19.0585 </r>
       <r>   -21.7371    13.0981    20.3248 </r>
       <r>   -21.6404    12.6360    21.5464 </r>
       <r>   -21.5437    12.0613    22.7125 </r>
       <r>   -21.4470    11.4434    23.8189 </r>
       <r>   -21.3504    11.6840    24.9484 </r>
       <r>   -21.2537    13.1440    26.2192 </r>
       <r>   -21.1570    15.1480    27.6837 </r>
       <r>   -21.0603    16.6406    29.2925 </r>
       <r>   -20.9636    16.5652    30.8940 </r>
       <r>   -20.8670    14.5828    32.3039 </r>
       <r>   -20.7703    12.1062    33.4743 </r>
       <r>   -20.6736    11.3479    34.5714 </r>
       <r>   -20.5769    12.5723    35.7869 </r>
       <r>   -20.4802    13.7677    37.1179 </r>
       <r>   -20.3836    13.7269    38.4450 </r>
       <r>   -20.2869    13.4372    39.7441 </r>
       <r>   -20.1902    13.9665    41.0944 </r>
       <r>   -20.0935    15.0035    42.5449 </r>
       <r>   -19.9968    15.6163    44.0547 </r>
       <r>   -19.9002    15.0584    45.5105 </r>
       <r>   -19.8035    13.4185    46.8078 </r>
       <r>   -19.7068    12.4581    48.0123 </r>
       <r>   -19.6101    14.0128    49.3670 </r>
       <r>   -19.5134    16.6178    50.9736 </r>
       <r>   -19.4168    16.8803    52.6056 </r>
       <r>   -19.3201    14.6528    54.0222 </r>
       <r>   -19.2234    12.9442    55.2736 </r>
       <r>   -19.1267    13.2442    56.5541 </r>
       <r>   -19.0301    14.0367    57.9111 </r>
       <r>   -18.9334    13.4939    59.2157 </r>
       <r>   -18.8367    12.0069    60.3765 </r>
       <r>   -18.7400    11.7772    61.5151 </r>
       <r>   -18.6433    14.1110    62.8794 </r>
       <r>   -18.5467    17.1237    64.5349 </r>
       <r>   -18.4500    17.9026    66.2657 </r>
       <r>   -18.3533    16.9699    67.9063 </r>
       <r>   -18.2566    17.1000    69.5595 </r>
       <r>   -18.1599    18.2006    71.3192 </r>
       <r>   -18.0633    17.7348    73.0337 </r>
       <r>   -17.9666    15.3643    74.5192 </r>
       <r>   -17.8699    13.2599    75.8011 </r>
       <r>   -17.7732    12.4116    77.0011 </r>
       <r>   -17.6765    11.8808    78.1497 </r>
       <r>   -17.5799    11.2236    79.2348 </r>
       <r>   -17.4832    11.0615    80.3042 </r>
       <r>   -17.3865    11.6862    81.4340 </r>
       <r>   -17.2898    12.4786    82.6404 </r>
       <r>   -17.1931    12.9411    83.8916 </r>
       <r>   -17.0965    13.0968    85.1577 </r>
       <r>   -16.9998    12.4906    86.3653 </r>
       <r>   -16.9031    10.8878    87.4179 </r>
       <r>   -16.8064     9.6412    88.3501 </r>
       <r>   -16.7098    10.4117    89.3567 </r>
       <r>   -16.6131    12.7833    90.5925 </r>
       <r>   -16.5164    14.6076    92.0048 </r>
       <r>   -16.4197    15.0561    93.4604 </r>
       <r>   -16.3230    15.3419    94.9436 </r>
       <r>   -16.2264    16.3424    96.5236 </r>
       <r>   -16.1297    17.6031    98.2255 </r>
       <r>   -16.0330    18.1927    99.9843 </r>
       <r>   -15.9363    17.3820   101.6648 </r>
       <r>   -15.8396    15.2293   103.1372 </r>
       <r>   -15.7430    12.8727   104.3817 </r>
       <r>   -15.6463    11.3261   105.4767 </r>
       <r>   -15.5496    10.7493   106.5159 </r>
       <r>   -15.4529    11.9967   107.6757 </r>
       <r>   -15.3562    16.0589   109.2283 </r>
       <r>   -15.2596    21.0409   111.2625 </r>
       <r>   -15.1629    23.6507   113.5490 </r>
       <r>   -15.0662    23.3033   115.8020 </r>
       <r>   -14.9695    21.4053   117.8714 </r>
       <r>   -14.8728    18.6921   119.6786 </r>
       <r>   -14.7762    15.4340   121.1707 </r>
       <r>   -14.6795    12.1853   122.3488 </r>
       <r>   -14.5828     9.6742   123.2841 </r>
       <r>   -14.4861     8.6514   124.1205 </r>
       <r>   -14.3895     9.2595   125.0157 </r>
       <r>   -14.2928    10.6262   126.0430 </r>
       <r>   -14.1961    11.8610   127.1898 </r>
       <r>   -14.0994    12.9815   128.4448 </r>
       <r>   -14.0027    14.2296   129.8205 </r>
       <r>   -13.9061    15.3496   131.3045 </r>
       <r>   -13.8094    16.3369   132.8839 </r>
       <r>   -13.7127    17.5617   134.5818 </r>
       <r>   -13.6160    18.3663   136.3574 </r>
       <r>   -13.5193    18.1017   138.1075 </r>
       <r>   -13.4227    17.8643   139.8346 </r>
       <r>   -13.3260    18.7149   141.6439 </r>
       <r>   -13.2293    19.7243   143.5508 </r>
       <r>   -13.1326    18.9664   145.3845 </r>
       <r>   -13.0359    16.3608   146.9663 </r>
       <r>   -12.9393    14.2941   148.3482 </r>
       <r>   -12.8426    14.0510   149.7066 </r>
       <r>   -12.7459    14.3114   151.0902 </r>
       <r>   -12.6492    13.9255   152.4366 </r>
       <r>   -12.5525    13.2251   153.7151 </r>
       <r>   -12.4559    13.2174   154.9930 </r>
       <r>   -12.3592    14.7699   156.4209 </r>
       <r>   -12.2625    17.9463   158.1560 </r>
       <r>   -12.1658    22.1606   160.2984 </r>
       <r>   -12.0691    25.8813   162.8006 </r>
       <r>   -11.9725    26.8432   165.3958 </r>
       <r>   -11.8758    24.5795   167.7721 </r>
       <r>   -11.7791    21.0631   169.8085 </r>
       <r>   -11.6824    17.8144   171.5308 </r>
       <r>   -11.5858    15.0645   172.9872 </r>
       <r>   -11.4891    13.7714   174.3186 </r>
       <r>   -11.3924    15.1502   175.7833 </r>
       <r>   -11.2957    18.6399   177.5854 </r>
       <r>   -11.1990    22.6668   179.7768 </r>
       <r>   -11.1024    26.5379   182.3425 </r>
       <r>   -11.0057    30.1649   185.2588 </r>
       <r>   -10.9090    32.8589   188.4356 </r>
       <r>   -10.8123    33.8159   191.7048 </r>
       <r>   -10.7156    33.5598   194.9494 </r>
       <r>   -10.6190    34.0424   198.2406 </r>
       <r>   -10.5223    36.5103   201.7704 </r>
       <r>   -10.4256    39.2142   205.5616 </r>
       <r>   -10.3289    39.1701   209.3485 </r>
       <r>   -10.2322    36.3916   212.8668 </r>
       <r>   -10.1356    33.9475   216.1488 </r>
       <r>   -10.0389    33.5922   219.3965 </r>
       <r>    -9.9422    33.8711   222.6711 </r>
       <r>    -9.8455    33.6530   225.9247 </r>
       <r>    -9.7488    34.3140   229.2421 </r>
       <r>    -9.6522    36.7300   232.7931 </r>
       <r>    -9.5555    39.5482   236.6166 </r>
       <r>    -9.4588    41.4842   240.6273 </r>
       <r>    -9.3621    41.8453   244.6729 </r>
       <r>    -9.2655    39.4177   248.4837 </r>
       <r>    -9.1688    34.5030   251.8194 </r>
       <r>    -9.0721    30.3137   254.7502 </r>
       <r>    -8.9754    29.5787   257.6098 </r>
       <r>    -8.8787    31.5778   260.6627 </r>
       <r>    -8.7821    34.0990   263.9594 </r>
       <r>    -8.6854    36.1526   267.4546 </r>
       <r>    -8.5887    37.1790   271.0490 </r>
       <r>    -8.4920    36.2826   274.5568 </r>
       <r>    -8.3953    33.8649   277.8308 </r>
       <r>    -8.2987    31.0639   280.8340 </r>
       <r>    -8.2020    28.0575   283.5466 </r>
       <r>    -8.1053    25.4783   286.0098 </r>
       <r>    -8.0086    24.6862   288.3965 </r>
       <r>    -7.9119    25.7349   290.8845 </r>
       <r>    -7.8153    27.5394   293.5470 </r>
       <r>    -7.7186    28.8434   296.3355 </r>
       <r>    -7.6219    28.9754   299.1369 </r>
       <r>    -7.5252    28.7204   301.9135 </r>
       <r>    -7.4285    28.7298   304.6911 </r>
       <r>    -7.3319    28.0145   307.3995 </r>
       <r>    -7.2352    25.8523   309.8989 </r>
       <r>    -7.1385    23.5611   312.1768 </r>
       <r>    -7.0418    22.9475   314.3953 </r>
       <r>    -6.9452    24.0758   316.7229 </r>
       <r>    -6.8485    25.4337   319.1819 </r>
       <r>    -6.7518    25.8758   321.6835 </r>
       <r>    -6.6551    25.8344   324.1812 </r>
       <r>    -6.5584    25.3364   326.6307 </r>
       <r>    -6.4618    22.9585   328.8503 </r>
       <r>    -6.3651    19.6296   330.7480 </r>
       <r>    -6.2684    18.6597   332.5520 </r>
       <r>    -6.1717    20.4113   334.5254 </r>
       <r>    -6.0750    22.5813   336.7085 </r>
       <r>    -5.9784    24.2762   339.0555 </r>
       <r>    -5.8817    25.5573   341.5264 </r>
       <r>    -5.7850    25.7842   344.0192 </r>
       <r>    -5.6883    24.2738   346.3660 </r>
       <r>    -5.5916    20.9402   348.3904 </r>
       <r>    -5.4950    16.3188   349.9681 </r>
       <r>    -5.3983    11.9543   351.1239 </r>
       <r>    -5.3016    10.2562   352.1154 </r>
       <r>    -5.2049    11.6584   353.2425 </r>
       <r>    -5.1082    12.9937   354.4988 </r>
       <r>    -5.0116    11.5904   355.6193 </r>
       <r>    -4.9149     8.7267   356.4630 </r>
       <r>    -4.8182     7.2117   357.1602 </r>
       <r>    -4.7215     8.2269   357.9556 </r>
       <r>    -4.6249    11.0507   359.0240 </r>
       <r>    -4.5282    14.1346   360.3905 </r>
       <r>    -4.4315    15.5561   361.8944 </r>
       <r>    -4.3348    13.7074   363.2197 </r>
       <r>    -4.2381     9.3812   364.1266 </r>
       <r>    -4.1415     5.3631   364.6451 </r>
       <r>    -4.0448     3.3192   364.9660 </r>
       <r>    -3.9481     2.9983   365.2559 </r>
       <r>    -3.8514     3.4415   365.5886 </r>
       <r>    -3.7547     3.8483   365.9607 </r>
       <r>    -3.6581     4.0744   366.3546 </r>
       <r>    -3.5614     4.1706   366.7578 </r>
       <r>    -3.4647     3.7560   367.1209 </r>
       <r>    -3.3680     2.7729   367.3890 </r>
       <r>    -3.2713     2.0725   367.5894 </r>
       <r>    -3.1747     2.3442   367.8160 </r>
       <r>    -3.0780     3.3713   368.1419 </r>
       <r>    -2.9813     4.7342   368.5996 </r>
       <r>    -2.8846     6.4088   369.2192 </r>
       <r>    -2.7879     8.4856   370.0396 </r>
       <r>    -2.6913    10.1852   371.0243 </r>
       <r>    -2.5946     9.7063   371.9627 </r>
       <r>    -2.4979     6.7336   372.6137 </r>
       <r>    -2.4012     3.7673   372.9779 </r>
       <r>    -2.3046     3.3551   373.3023 </r>
       <r>    -2.2079     5.5149   373.8355 </r>
       <r>    -2.1112     7.7714   374.5868 </r>
       <r>    -2.0145     7.5924   375.3208 </r>
       <r>    -1.9178     5.6854   375.8705 </r>
       <r>    -1.8212     5.5265   376.4048 </r>
       <r>    -1.7245     9.3419   377.3079 </r>
       <r>    -1.6278    15.7233   378.8281 </r>
       <r>    -1.5311    21.1651   380.8743 </r>
       <r>    -1.4344    23.3934   383.1359 </r>
       <r>    -1.3378    22.4957   385.3108 </r>
       <r>    -1.2411    20.0721   387.2514 </r>
       <r>    -1.1444    18.1683   389.0078 </r>
       <r>    -1.0477    17.2810   390.6786 </r>
       <r>    -0.9510    16.2647   392.2510 </r>
       <r>    -0.8544    14.9272   393.6942 </r>
       <r>    -0.7577    14.2027   395.0673 </r>
       <r>    -0.6610    14.2431   396.4443 </r>
       <r>    -0.5643    14.0308   397.8008 </r>
       <r>    -0.4676    12.6798   399.0266 </r>
       <r>    -0.3710    11.2425   400.1136 </r>
       <r>    -0.2743    12.0765   401.2811 </r>
       <r>    -0.1776    15.4289   402.7728 </r>
       <r>    -0.0809    18.5625   404.5674 </r>
       <r>     0.0157    19.4185   406.4447 </r>
       <r>     0.1124    19.2765   408.3084 </r>
       <r>     0.2091    20.0041   410.2423 </r>
       <r>     0.3058    20.7974   412.2530 </r>
       <r>     0.4025    19.8887   414.1758 </r>
       <r>     0.4991    18.1291   415.9286 </r>
       <r>     0.5958    18.4828   417.7155 </r>
       <r>     0.6925    22.1879   419.8606 </r>
       <r>     0.7892    27.7357   422.5420 </r>
       <r>     0.8859    32.8664   425.7195 </r>
       <r>     0.9825    36.2124   429.2205 </r>
       <r>     1.0792    37.9639   432.8908 </r>
       <r>     1.1759    39.8937   436.7477 </r>
       <r>     1.2726    43.7990   440.9822 </r>
       <r>     1.3693    48.5466   445.6756 </r>
       <r>     1.4659    50.6126   450.5688 </r>
       <r>     1.5626    47.4888   455.1600 </r>
       <r>     1.6593    39.0822   458.9384 </r>
       <r>     1.7560    27.3773   461.5852 </r>
       <r>     1.8527    15.5652   463.0901 </r>
       <r>     1.9493     6.7571   463.7433 </r>
       <r>     2.0460     2.1184   463.9481 </r>
       <r>     2.1427     0.4612   463.9927 </r>
       <r>     2.2394     0.0681   463.9993 </r>
       <r>     2.3360     0.0067   464.0000 </r>
       <r>     2.4327     0.0004   464.0000 </r>
       <r>     2.5294     0.0000   464.0000 </r>
       <r>     2.6261     0.0000   464.0000 </r>
       <r>     2.7228     0.0000   464.0000 </r>
       <r>     2.8194     0.0000   464.0000 </r>
       <r>     2.9161     0.0000   464.0000 </r>
       <r>     3.0128     0.0000   464.0000 </r>
       <r>     3.1095     0.0000   464.0000 </r>
       <r>     3.2062     0.0000   464.0000 </r>
       <r>     3.3028     0.0000   464.0000 </r>
       <r>     3.3995     0.0000   464.0000 </r>
       <r>     3.4962     0.0000   464.0000 </r>
       <r>     3.5929     0.0000   464.0000 </r>
       <r>     3.6896     0.0000   464.0000 </r>
       <r>     3.7862     0.0000   464.0000 </r>
      </set>
     </set>
    </array>
   </total>
  </dos>
 </calculation>
 <structure name="finalpos" >
  <crystal>
   <varray name="basis" >
    <v>      28.05000000       0.00000000       0.00000000 </v>
    <v>       0.00000000       8.10000000       0.00000000 </v>
    <v>       0.00000000       0.00000000      33.50000000 </v>
   </varray>
   <i name="volume">   7611.36750000 </i>
   <varray name="rec_basis" >
    <v>       0.03565062       0.00000000       0.00000000 </v>
    <v>       0.00000000       0.12345679       0.00000000 </v>
    <v>       0.00000000       0.00000000       0.02985075 </v>
   </varray>
  </crystal>
  <varray name="positions" >
   <v>       0.01048121       0.09517963       0.46061791 </v>
   <v>       0.01014107       0.27405309       0.45753731 </v>
   <v>       0.04563922       0.02325383       0.48230448 </v>
   <v>       0.05188770       0.35164568       0.46541194 </v>
   <v>       0.08916649       0.11236815       0.48980896 </v>
   <v>       0.09414795       0.27118642       0.47979701 </v>
   <v>       0.13149198       0.02480222       0.50321194 </v>
   <v>       0.13707130       0.35912469       0.48948657 </v>
   <v>       0.17526417       0.10670284       0.50848358 </v>
   <v>       0.17865098       0.27170123       0.49971940 </v>
   <v>       0.21846881       0.02131667       0.52132836 </v>
   <v>       0.22460178       0.35569136       0.50454627 </v>
   <v>       0.26136827       0.10037284       0.53100000 </v>
   <v>       0.26206275       0.27026667       0.52134627 </v>
   <v>       0.30527487       0.01948333       0.53851045 </v>
   <v>       0.30775116       0.35091852       0.52508358 </v>
   <v>       0.34961105       0.10010864       0.54543582 </v>
   <v>       0.34991836       0.26645556       0.53668955 </v>
   <v>       0.39462745       0.01969333       0.54643881 </v>
   <v>       0.39462389       0.35115679       0.53729552 </v>
   <v>       0.43955793       0.10279247       0.54722388 </v>
   <v>       0.44106239       0.27292593       0.54039104 </v>
   <v>       0.48420677       0.02488469       0.54401194 </v>
   <v>       0.48237790       0.35594691       0.53308955 </v>
   <v>       0.52829947       0.10970580       0.53571343 </v>
   <v>       0.52703030       0.28037901       0.53193134 </v>
   <v>       0.57314082       0.02961136       0.53230746 </v>
   <v>       0.57151515       0.35537160       0.52193433 </v>
   <v>       0.61589661       0.10881012       0.52348955 </v>
   <v>       0.61443137       0.27415556       0.51392537 </v>
   <v>       0.65995722       0.01977531       0.51609552 </v>
   <v>       0.65659180       0.35828272       0.50480000 </v>
   <v>       0.70428877       0.09802679       0.50751642 </v>
   <v>       0.70042781       0.26953457       0.49968657 </v>
   <v>       0.74573619       0.01716370       0.49418209 </v>
   <v>       0.73935116       0.34545679       0.48204179 </v>
   <v>       0.78627094       0.09883074       0.48260597 </v>
   <v>       0.78340107       0.26806049       0.47507761 </v>
   <v>       0.82888057       0.01808988       0.47388955 </v>
   <v>       0.82660963       0.35172222       0.46259104 </v>
   <v>       0.87485561       0.10224741       0.47087761 </v>
   <v>       0.87140107       0.27037407       0.45876716 </v>
   <v>       0.91644207       0.02025025       0.46251045 </v>
   <v>       0.91448841       0.35322222       0.45216716 </v>
   <v>       0.95872727       0.10458728       0.45401493 </v>
   <v>       0.95931907       0.27509753       0.45282985 </v>
   <v>       0.01077266       0.60394691       0.45303284 </v>
   <v>       0.00936563       0.77217284       0.46286567 </v>
   <v>       0.05228913       0.52794198       0.46516418 </v>
   <v>       0.04739251       0.85875432       0.47977015 </v>
   <v>       0.09294866       0.60470494       0.47765075 </v>
   <v>       0.09003351       0.77205556       0.48599701 </v>
   <v>       0.13742674       0.52556173       0.48709254 </v>
   <v>       0.13183922       0.85672963       0.49953433 </v>
   <v>       0.18018610       0.60544691       0.49545373 </v>
   <v>       0.17771301       0.77106049       0.50341791 </v>
   <v>       0.22534367       0.52334198       0.50157612 </v>
   <v>       0.21822995       0.85192840       0.51716119 </v>
   <v>       0.26634688       0.60186790       0.51406269 </v>
   <v>       0.26268663       0.76654321       0.52469552 </v>
   <v>       0.30935080       0.52145185       0.52176119 </v>
   <v>       0.30555722       0.84872716       0.53546269 </v>
   <v>       0.35075080       0.60184198       0.53345373 </v>
   <v>       0.35048378       0.77115556       0.53997313 </v>
   <v>       0.39393939       0.51690988       0.53000000 </v>
   <v>       0.39567201       0.84994691       0.54629851 </v>
   <v>       0.43922282       0.60769877       0.53137910 </v>
   <v>       0.43951872       0.77603580       0.54200597 </v>
   <v>       0.48286275       0.52537160       0.52890746 </v>
   <v>       0.48436720       0.85564938       0.54290746 </v>
   <v>       0.52512299       0.61297654       0.52479104 </v>
   <v>       0.52850624       0.77931481       0.53527761 </v>
   <v>       0.56926916       0.52367654       0.51836119 </v>
   <v>       0.57117291       0.85610370       0.52833731 </v>
   <v>       0.61158289       0.61160000       0.50846567 </v>
   <v>       0.61405348       0.77997778       0.51462687 </v>
   <v>       0.65345098       0.52496543       0.49814328 </v>
   <v>       0.65911230       0.85661481       0.50805970 </v>
   <v>       0.69724777       0.60406049       0.48879104 </v>
   <v>       0.69870945       0.77454568       0.49222090 </v>
   <v>       0.73971836       0.52172840       0.47815224 </v>
   <v>       0.74173619       0.85229136       0.48597313 </v>
   <v>       0.78211765       0.60342716       0.46660896 </v>
   <v>       0.78219608       0.77410247       0.47028060 </v>
   <v>       0.82599287       0.52457654       0.45657313 </v>
   <v>       0.82719786       0.85251852       0.46644478 </v>
   <v>       0.87101961       0.60638889       0.45164478 </v>
   <v>       0.87145098       0.77041358       0.45997910 </v>
   <v>       0.91434225       0.52213951       0.44465672 </v>
   <v>       0.91547237       0.85210000       0.46005373 </v>
   <v>       0.95876292       0.60227654       0.44743881 </v>
   <v>       0.95861319       0.76755062       0.45777015 </v>
  </varray>
 </structure>
</modeling>
