unknown system                          
            1
    28.050000    0.000000    0.000000
     0.000000    8.100000    0.000000
     0.000000    0.000000   33.500000
   C 
    92
Direct configuration=     1
   0.01048121  0.09517963  0.46061791
   0.01014107  0.27405309  0.45753731
   0.04563922  0.02325383  0.48230448
   0.05188770  0.35164568  0.46541194
   0.08916649  0.11236815  0.48980896
   0.09414795  0.27118642  0.47979701
   0.13149198  0.02480222  0.50321194
   0.13707130  0.35912469  0.48948657
   0.17526417  0.10670284  0.50848358
   0.17865098  0.27170123  0.49971940
   0.21846881  0.02131667  0.52132836
   0.22460178  0.35569136  0.50454627
   0.26136827  0.10037284  0.53100000
   0.26206275  0.27026667  0.52134627
   0.30527487  0.01948333  0.53851045
   0.30775116  0.35091852  0.52508358
   0.34961105  0.10010864  0.54543582
   0.34991836  0.26645556  0.53668955
   0.39462745  0.01969333  0.54643881
   0.39462389  0.35115679  0.53729552
   0.43955793  0.10279247  0.54722388
   0.44106239  0.27292593  0.54039104
   0.48420677  0.02488469  0.54401194
   0.48237790  0.35594691  0.53308955
   0.52829947  0.10970580  0.53571343
   0.52703030  0.28037901  0.53193134
   0.57314082  0.02961136  0.53230746
   0.57151515  0.35537160  0.52193433
   0.61589661  0.10881012  0.52348955
   0.61443137  0.27415556  0.51392537
   0.65995722  0.01977531  0.51609552
   0.65659180  0.35828272  0.50480000
   0.70428877  0.09802679  0.50751642
   0.70042781  0.26953457  0.49968657
   0.74573619  0.01716370  0.49418209
   0.73935116  0.34545679  0.48204179
   0.78627094  0.09883074  0.48260597
   0.78340107  0.26806049  0.47507761
   0.82888057  0.01808988  0.47388955
   0.82660963  0.35172222  0.46259104
   0.87485561  0.10224741  0.47087761
   0.87140107  0.27037407  0.45876716
   0.91644207  0.02025025  0.46251045
   0.91448841  0.35322222  0.45216716
   0.95872727  0.10458728  0.45401493
   0.95931907  0.27509753  0.45282985
   0.01077266  0.60394691  0.45303284
   0.00936563  0.77217284  0.46286567
   0.05228913  0.52794198  0.46516418
   0.04739251  0.85875432  0.47977015
   0.09294866  0.60470494  0.47765075
   0.09003351  0.77205556  0.48599701
   0.13742674  0.52556173  0.48709254
   0.13183922  0.85672963  0.49953433
   0.18018610  0.60544691  0.49545373
   0.17771301  0.77106049  0.50341791
   0.22534367  0.52334198  0.50157612
   0.21822995  0.85192840  0.51716119
   0.26634688  0.60186790  0.51406269
   0.26268663  0.76654321  0.52469552
   0.30935080  0.52145185  0.52176119
   0.30555722  0.84872716  0.53546269
   0.35075080  0.60184198  0.53345373
   0.35048378  0.77115556  0.53997313
   0.39393939  0.51690988  0.53000000
   0.39567201  0.84994691  0.54629851
   0.43922282  0.60769877  0.53137910
   0.43951872  0.77603580  0.54200597
   0.48286275  0.52537160  0.52890746
   0.48436720  0.85564938  0.54290746
   0.52512299  0.61297654  0.52479104
   0.52850624  0.77931481  0.53527761
   0.56926916  0.52367654  0.51836119
   0.57117291  0.85610370  0.52833731
   0.61158289  0.61160000  0.50846567
   0.61405348  0.77997778  0.51462687
   0.65345098  0.52496543  0.49814328
   0.65911230  0.85661481  0.50805970
   0.69724777  0.60406049  0.48879104
   0.69870945  0.77454568  0.49222090
   0.73971836  0.52172840  0.47815224
   0.74173619  0.85229136  0.48597313
   0.78211765  0.60342716  0.46660896
   0.78219608  0.77410247  0.47028060
   0.82599287  0.52457654  0.45657313
   0.82719786  0.85251852  0.46644478
   0.87101961  0.60638889  0.45164478
   0.87145098  0.77041358  0.45997910
   0.91434225  0.52213951  0.44465672
   0.91547237  0.85210000  0.46005373
   0.95876292  0.60227654  0.44743881
   0.95861319  0.76755062  0.45777015
