       N       E                     dE             d eps       ncg     rms          rms(c)
DAV:   1     0.364051763903E+04    0.36405E+04   -0.11981E+05  1728   0.105E+03
DAV:   2     0.175104713111E+03   -0.34654E+04   -0.32075E+04  2128   0.237E+02
DAV:   3    -0.835897011150E+03   -0.10110E+04   -0.98634E+03  1800   0.134E+02
DAV:   4    -0.897695743285E+03   -0.61799E+02   -0.60719E+02  1728   0.427E+01
DAV:   5    -0.899241545162E+03   -0.15458E+01   -0.15233E+01  1752   0.656E+00    0.458E+01
DAV:   6    -0.848835680434E+03    0.50406E+02   -0.47935E+01  1576   0.127E+01    0.269E+01
DAV:   7    -0.830029435029E+03    0.18806E+02   -0.66555E+01  1552   0.146E+01    0.741E+00
DAV:   8    -0.829737793761E+03    0.29164E+00   -0.24566E+00  1600   0.337E+00    0.101E+00
DAV:   9    -0.829624293441E+03    0.11350E+00   -0.27540E-01  1648   0.103E+00    0.576E-01
DAV:  10    -0.829584865253E+03    0.39428E-01   -0.51334E-02  1760   0.444E-01    0.361E-01
DAV:  11    -0.829556036595E+03    0.28829E-01   -0.20425E-02  1568   0.237E-01    0.249E-01
DAV:  12    -0.829551340429E+03    0.46962E-02   -0.26834E-02  1544   0.240E-01    0.151E-01
DAV:  13    -0.829563287049E+03   -0.11947E-01   -0.82320E-03  1584   0.141E-01    0.882E-02
DAV:  14    -0.829581814403E+03   -0.18527E-01   -0.13373E-03  1584   0.693E-02    0.538E-02
DAV:  15    -0.829601532658E+03   -0.19718E-01   -0.16608E-03  1584   0.603E-02    0.315E-02
DAV:  16    -0.829610892066E+03   -0.93594E-02   -0.57735E-04  1600   0.362E-02    0.200E-02
DAV:  17    -0.829615320326E+03   -0.44283E-02   -0.24363E-04  1608   0.205E-02    0.111E-02
DAV:  18    -0.829617526572E+03   -0.22062E-02   -0.87962E-05  1608   0.129E-02    0.557E-03
DAV:  19    -0.829618519666E+03   -0.99309E-03   -0.32872E-05  1360   0.746E-03    0.381E-03
DAV:  20    -0.829618887021E+03   -0.36735E-03   -0.57082E-06  1376   0.338E-03    0.206E-03
DAV:  21    -0.829619090502E+03   -0.20348E-03   -0.27038E-06  1272   0.227E-03    0.951E-04
DAV:  22    -0.829619136768E+03   -0.46266E-04   -0.19213E-07  1048   0.892E-04    0.644E-04
DAV:  23    -0.829619168965E+03   -0.32198E-04   -0.24427E-07   944   0.748E-04    0.336E-04
DAV:  24    -0.829619178740E+03   -0.97747E-05   -0.72816E-08   952   0.464E-04    0.208E-04
DAV:  25    -0.829619183967E+03   -0.52264E-05   -0.30550E-08   936   0.362E-04    0.125E-04
DAV:  26    -0.829619186643E+03   -0.26764E-05   -0.24717E-08   936   0.239E-04    0.116E-04
DAV:  27    -0.829619188503E+03   -0.18605E-05   -0.63595E-09   944   0.197E-04    0.810E-05
DAV:  28    -0.829619189866E+03   -0.13629E-05   -0.65310E-09   920   0.136E-04    0.678E-05
DAV:  29    -0.829619190278E+03   -0.41191E-06   -0.18594E-09   928   0.966E-05
   1 F= -.82961919E+03 E0= -.82958834E+03  d E =-.617082E-01
