 vasp.6.5.0 16Dec24 (build Feb 19 2025 19:45:31) complex                         
 executed on              LinuxNV date 2025.10.25  17:49:20
 running    2 mpi-ranks, on    1 nodes
 distrk:  each k-point on    2 cores,    1 groups
 distr:  one band on NCORE=   1 cores,    2 groups
 Offloading initialized ...    2 GPUs detected


--------------------------------------------------------------------------------------------------------


 INCAR:
   ISTART = 0            (Not Read existing wavefunction
   ISPIN = 1            (Non-Spin polarised DFT, Default\=1)
   ICHARG = 2            (The initial guess charge density is generated by superposition of atomic charge density)
   LREAL = Auto         (Projection operators: automatic)
   ENCUT = 500          (Cut-off energy for plane wave basis set, in eV)
   LWAVE = .FALSE.       (Write WAVECAR or not)
   LCHARG = .FALSE.       (Write CHGCAR or not)
   PREC = Accurate   (Precision level)
   KGAMMA = .TRUE.
   ALGO = Normal
   NSW = 0           (Default: NSW \= 0)
   IBRION = -1           (Ions are not moved)
   ISMEAR = 0
   EDIFF = 1E-06        (SCF energy convergence
   NELM = 150          (Max electronic SCF steps)

 POTCAR:    PAW_PBE C 08Apr2002                   
 POTCAR:    PAW_PBE C 08Apr2002                   
   SHA256 =  253f7b50bb8d59471dbedb8285d89021f4a42ed1a2c5d38a03a736e69125dd95 C/POTCAR              
   COPYR  = (c) Copyright 08Apr2002 Georg Kresse                                                    
   COPYR  = This file is part of the software VASP. Any use, copying, and all other rights are regul
   COPYR  = If you do not have a valid VASP license, you may not use, copy or distribute this file. 
   VRHFIN =C: s2p2                                                                                  
   LEXCH  = PE                                                                                      
   EATOM  =   147.1560 eV,   10.8157 Ry                                                             
                                                                                                    
   TITEL  = PAW_PBE C 08Apr2002                                                                     
   LULTRA =        F    use ultrasoft PP ?                                                          
   IUNSCR =        1    unscreen: 0-lin 1-nonlin 2-no                                               
   RPACOR =    1.200    partial core radius                                                         
   POMASS =   12.011; ZVAL   =    4.000    mass and valenz                                          
   RCORE  =    1.500    outmost cutoff radius                                                       
   RWIGS  =    1.630; RWIGS  =    0.863    wigner-seitz radius (au A)                               
   ENMAX  =  400.000; ENMIN  =  300.000 eV                                                          
   ICORE  =        2    local potential                                                             
   LCOR   =        T    correct aug charges                                                         
   LPAW   =        T    paw PP                                                                      
   EAUG   =  644.873                                                                                
   DEXC   =    0.000                                                                                
   RMAX   =    1.529    core radius for proj-oper                                                   
   RAUG   =    1.300    factor for augmentation sphere                                              
   RDEP   =    1.501    radius for radial grids                                                     
   RDEPT  =    1.300    core radius for aug-charge                                                  
                                                                                                    
   Atomic configuration                                                                             
    4 entries                                                                                       
     n  l   j            E        occ.                                                              
     1  0  0.50      -273.3789   2.0000                                                             
     2  0  0.50       -13.7508   2.0000                                                             
     2  1  0.50        -5.2854   2.0000                                                             
     3  2  1.50        -5.4423   0.0000                                                             
   Description                                                                                      
     l       E           TYP  RCUT    TYP  RCUT                                                     
     0    -13.7508458     23  1.200                                                                 
     0     -8.2022199     23  1.200                                                                 
     1     -5.2854383     23  1.500                                                                 
     1     34.0145650     23  1.500                                                                 
     2     -5.4423304      7  1.500                                                                 
  local pseudopotential read in
  partial core-charges read in
  partial kinetic energy density read in
  atomic valenz-charges read in
  non local Contribution for L=            0  read in
    real space projection operators read in
  non local Contribution for L=            0  read in
    real space projection operators read in
  non local Contribution for L=            1  read in
    real space projection operators read in
  non local Contribution for L=            1  read in
    real space projection operators read in
    PAW grid and wavefunctions read in
 
   number of l-projection  operators is LMAX  =            4
   number of lm-projection operators is LMMAX =            8
 
 Optimization of the real space projectors (new method)

 maximal supplied QI-value         = 25.13
 optimisation between [QCUT,QGAM] = [ 11.31, 22.87] = [ 35.82,146.48] Ry 
 Optimized for a Real-space Cutoff    1.03 Angstroem

   l    n(q)    QCUT    max X(q) W(low)/X(q) W(high)/X(q)  e(spline) 
   0      7    11.310   115.676    0.20E-03    0.90E-03    0.20E-06
   0      7    11.310    87.132    0.20E-03    0.89E-03    0.19E-06
   1      6    11.310     4.429    0.16E-03    0.28E-03    0.12E-06
   1      6    11.310     2.733    0.12E-03    0.21E-03    0.99E-07
  PAW_PBE C 08Apr2002                   :
 energy of atom  1       EATOM= -147.1560
 kinetic energy error for atom=    0.0076 (will be added to EATOM!!)
 
 
 POSCAR:  C
  positions in cartesian coordinates
  No initial velocities read in


 exchange-correlation table for PE
   RHO(1)=    0.500       N(1)  =     2000
   RHO(2)=  100.500       N(2)  =     4000
 


--------------------------------------------------------------------------------------------------------


 ion  position               nearest neighbor table
   1  0.003  0.102  0.482-   3 1.37   2 1.38  45 1.53  46 2.07
   2  0.002  0.272  0.484-   1 1.38   4 1.40  46 1.53  45 2.07
   3  0.046  0.021  0.480-   1 1.37   5 1.40  50 1.41
   4  0.046  0.354  0.478-  49 1.37   2 1.40   6 1.42
   5  0.088  0.102  0.470-   6 1.39   3 1.40   7 1.44
   6  0.088  0.272  0.465-   5 1.39   8 1.41   4 1.42
   7  0.134  0.020  0.472-  54 1.38   5 1.44   9 1.45
   8  0.132  0.348  0.462-   6 1.41  10 1.42  53 1.43
   9  0.178  0.104  0.464-  10 1.29  11 1.40   7 1.45
  10  0.176  0.261  0.458-   9 1.29   8 1.42  12 1.45
  11  0.221  0.019  0.458-  58 1.35   9 1.40  13 1.43
  12  0.222  0.343  0.456-  57 1.37  14 1.38  10 1.45
  13  0.266  0.103  0.458-  14 1.34  11 1.43  15 1.46
  14  0.266  0.267  0.453-  13 1.34  12 1.38  16 1.43
  15  0.312  0.019  0.461-  62 1.35  17 1.41  13 1.46
  16  0.311  0.350  0.455-  61 1.36  18 1.41  14 1.43
  17  0.355  0.102  0.469-  18 1.39  19 1.40  15 1.41
  18  0.355  0.272  0.462-  17 1.39  16 1.41  20 1.43
  19  0.398  0.025  0.479-  66 1.35  17 1.40  21 1.44
  20  0.400  0.351  0.469-  65 1.41  22 1.42  18 1.43
  21  0.442  0.109  0.487-  22 1.37  23 1.41  19 1.44
  22  0.444  0.276  0.480-  21 1.37  20 1.42  24 1.44
  23  0.484  0.022  0.496-  70 1.37  21 1.41  25 1.43
  24  0.487  0.361  0.491-  69 1.34  26 1.38  22 1.44
  25  0.527  0.107  0.506-  26 1.40  27 1.40  23 1.43
  26  0.526  0.279  0.506-  24 1.38  28 1.40  25 1.40
  27  0.569  0.024  0.517-  74 1.36  29 1.38  25 1.40
  28  0.568  0.357  0.518-  73 1.36  26 1.40  30 1.41
  29  0.611  0.106  0.525-  27 1.38  30 1.40  31 1.44
  30  0.612  0.279  0.524-  29 1.40  28 1.41  32 1.43
  31  0.656  0.021  0.531-  78 1.35  33 1.42  29 1.44
  32  0.654  0.356  0.540-  77 1.38  34 1.42  30 1.43
  33  0.699  0.109  0.538-  34 1.33  35 1.41  31 1.42
  34  0.698  0.273  0.541-  33 1.33  36 1.41  32 1.42
  35  0.742  0.025  0.542-  82 1.33  37 1.40  33 1.41
  36  0.742  0.358  0.547-  81 1.35  34 1.41  38 1.43
  37  0.786  0.109  0.539-  38 1.37  39 1.40  35 1.40
  38  0.787  0.277  0.542-  37 1.37  36 1.43  40 1.43
  39  0.829  0.025  0.534-  41 1.37  86 1.38  37 1.40
  40  0.831  0.360  0.537-  85 1.35  42 1.42  38 1.43
  41  0.869  0.101  0.520-  42 1.35  39 1.37  43 1.43
  42  0.871  0.267  0.523-  41 1.35  40 1.42  44 1.45
  43  0.911  0.011  0.509-  90 1.36  45 1.39  41 1.43
  44  0.915  0.354  0.517-  46 1.38  89 1.40  42 1.45
  45  0.950  0.097  0.495-  43 1.39  46 1.40   1 1.53   2 2.07
  46  0.950  0.270  0.495-  44 1.38  45 1.40   2 1.53   1 2.07
  47  0.010  0.597  0.504-  49 1.36  48 1.40  91 1.47
  48  0.008  0.770  0.502-  50 1.39  47 1.40  92 1.51  91 1.97
  49  0.048  0.519  0.487-  47 1.36   4 1.37  51 1.46
  50  0.050  0.852  0.491-  48 1.39   3 1.41  52 1.43
  51  0.092  0.604  0.478-  52 1.36  53 1.37  49 1.46
  52  0.094  0.771  0.483-  51 1.36  54 1.36  50 1.43
  53  0.134  0.522  0.469-  51 1.37  55 1.43   8 1.43
  54  0.135  0.850  0.472-  52 1.36   7 1.38  56 1.45
  55  0.179  0.595  0.462-  56 1.38  53 1.43  57 1.44
  56  0.178  0.764  0.461-  55 1.38  58 1.43  54 1.45
  57  0.223  0.511  0.454-  12 1.37  59 1.39  55 1.44
  58  0.222  0.853  0.457-  11 1.35  60 1.42  56 1.43
  59  0.266  0.598  0.455-  60 1.38  57 1.39  61 1.45
  60  0.266  0.768  0.458-  59 1.38  58 1.42  62 1.44
  61  0.312  0.518  0.456-  16 1.36  59 1.45  63 1.47
  62  0.311  0.852  0.461-  15 1.35  64 1.42  60 1.44
  63  0.357  0.605  0.464-  65 1.36  64 1.37  61 1.47
  64  0.355  0.772  0.470-  63 1.37  66 1.41  62 1.42
  65  0.399  0.525  0.470-  63 1.36  20 1.41  67 1.44
  66  0.397  0.858  0.479-  19 1.35  64 1.41  68 1.43
  67  0.440  0.608  0.486-  68 1.38  69 1.44  65 1.44
  68  0.440  0.777  0.491-  67 1.38  70 1.39  66 1.43
  69  0.483  0.524  0.497-  24 1.34  71 1.41  67 1.44
  70  0.482  0.855  0.502-  23 1.37  68 1.39  72 1.42
  71  0.525  0.605  0.510-  72 1.37  73 1.41  69 1.41
  72  0.526  0.775  0.512-  71 1.37  74 1.41  70 1.42
  73  0.568  0.525  0.521-  28 1.36  71 1.41  75 1.49
  74  0.569  0.856  0.519-  27 1.36  72 1.41  76 1.45
  75  0.611  0.608  0.536-  76 1.35  77 1.40  73 1.49
  76  0.612  0.773  0.533-  75 1.35  78 1.44  74 1.45
  77  0.654  0.525  0.544-  32 1.38  75 1.40  79 1.43
  78  0.655  0.860  0.542-  31 1.35  80 1.38  76 1.44
  79  0.698  0.610  0.552-  80 1.41  81 1.41  77 1.43
  80  0.697  0.784  0.552-  78 1.38  79 1.41  82 1.43
  81  0.742  0.524  0.550-  36 1.35  79 1.41  83 1.42
  82  0.743  0.866  0.552-  35 1.33  84 1.41  80 1.43
  83  0.786  0.608  0.552-  84 1.39  81 1.42  85 1.44
  84  0.786  0.779  0.553-  83 1.39  82 1.41  86 1.42
  85  0.830  0.526  0.542-  40 1.35  87 1.42  83 1.44
  86  0.829  0.856  0.540-  39 1.38  88 1.39  84 1.42
  87  0.874  0.608  0.536-  88 1.34  85 1.42  89 1.46
  88  0.872  0.772  0.535-  87 1.34  86 1.39  90 1.42
  89  0.918  0.524  0.525-  91 1.37  44 1.40  87 1.46
  90  0.914  0.850  0.520-  43 1.36  92 1.37  88 1.42
  91  0.959  0.604  0.514-  89 1.37  92 1.40  47 1.47  48 1.97
  92  0.957  0.776  0.517-  90 1.37  91 1.40  48 1.51
 
  LATTYP: Found a simple orthorhombic cell.
 ALAT       =     8.1000000000
 B/A-ratio  =     3.4629629630
 C/A-ratio  =     4.1358024691
  
  Lattice vectors:
  
 A1 = (   0.0000000000,  -8.1000000000,   0.0000000000)
 A2 = (  28.0500000000,   0.0000000000,   0.0000000000)
 A3 = (   0.0000000000,   0.0000000000,  33.5000000000)


Analysis of symmetry for initial positions (statically):
=====================================================================
 Subroutine PRICEL returns:
 Original cell was already a primitive cell.
 

 Routine SETGRP: Setting up the symmetry group for a 
 simple orthorhombic supercell.


 Subroutine GETGRP returns: Found  1 space group operations
 (whereof  1 operations were pure point group operations)
 out of a pool of  8 trial point group operations.


The static configuration has the point symmetry C_1 .


Analysis of symmetry for dynamics (positions and initial velocities):
=====================================================================
 Subroutine PRICEL returns:
 Original cell was already a primitive cell.
 

 Routine SETGRP: Setting up the symmetry group for a 
 simple orthorhombic supercell.


 Subroutine GETGRP returns: Found  1 space group operations
 (whereof  1 operations were pure point group operations)
 out of a pool of  8 trial point group operations.


The dynamic configuration has the point symmetry C_1 .


 Subroutine INISYM returns: Found  1 space group operations
 (whereof  1 operations are pure point group operations),
 and found     1 'primitive' translations


----------------------------------------------------------------------------------------

                                     Primitive cell                                     

  volume of cell :    7611.3675

  direct lattice vectors                    reciprocal lattice vectors
    28.050000000  0.000000000  0.000000000     0.035650624  0.000000000  0.000000000
     0.000000000  8.100000000  0.000000000     0.000000000  0.123456790  0.000000000
     0.000000000  0.000000000 33.500000000     0.000000000  0.000000000  0.029850746

  length of vectors
    28.050000000  8.100000000 33.500000000     0.035650624  0.123456790  0.029850746

  position of ions in fractional coordinates (direct lattice)
     0.002761661  0.102022716  0.481701493
     0.002287704  0.272288889  0.483808955
     0.045673797  0.020555679  0.480122388
     0.045545811  0.353782716  0.477761194
     0.088286988  0.101790617  0.470289552
     0.087665241  0.271504938  0.465020896
     0.133746168  0.019603704  0.471561194
     0.132436364  0.348249383  0.461582090
     0.178349376  0.103747037  0.464208955
     0.176337968  0.261413580  0.458298507
     0.221325490  0.019030864  0.458271642
     0.222130125  0.342762963  0.456223881
     0.266081996  0.102518148  0.458379104
     0.266169697  0.266734568  0.453197015
     0.311957932  0.018759383  0.460749254
     0.311075579  0.350455556  0.455325373
     0.355004991  0.102382346  0.468764179
     0.355361854  0.272270370  0.462202985
     0.397932264  0.024576049  0.478970149
     0.400028520  0.351406173  0.469149254
     0.442131907  0.108731481  0.486934328
     0.443632799  0.275644444  0.480334328
     0.484306595  0.021952099  0.496125373
     0.486777184  0.360780247  0.490650746
     0.527486631  0.107085062  0.505961194
     0.525750446  0.279404938  0.505964179
     0.569219251  0.023697901  0.517143284
     0.567896613  0.356729630  0.517817910
     0.611319073  0.106012469  0.524719403
     0.612245989  0.278917284  0.523755224
     0.655650624  0.021244074  0.530994030
     0.654124777  0.356456790  0.539573134
     0.698663102  0.108911852  0.537922388
     0.698402852  0.272897531  0.541349254
     0.742352941  0.024876667  0.542471642
     0.741903743  0.357758025  0.546871642
     0.785900178  0.108784321  0.538820896
     0.786695187  0.277049383  0.541737313
     0.828923351  0.024580123  0.533722388
     0.831329768  0.359787654  0.537113433
     0.869461676  0.100696543  0.519982090
     0.871147950  0.267308642  0.523241791
     0.911326203  0.011064235  0.509379104
     0.915479501  0.354313580  0.516662687
     0.950360071  0.096797284  0.494570149
     0.949515152  0.269925926  0.494820896
     0.009753797  0.597420988  0.503746269
     0.008134439  0.770432099  0.501534328
     0.047965775  0.518591358  0.487331343
     0.049806061  0.852333333  0.490886567
     0.092485918  0.604103704  0.478397015
     0.093850267  0.770704938  0.482585075
     0.133585027  0.521804938  0.469310448
     0.134685918  0.849613580  0.471602985
     0.178999643  0.594520988  0.461725373
     0.178255615  0.764325926  0.461331343
     0.223180749  0.511179012  0.453629851
     0.221955437  0.852725926  0.456952239
     0.265624242  0.598406173  0.455283582
     0.266054902  0.767746914  0.458214925
     0.311789305  0.518283951  0.455898507
     0.310872014  0.852472840  0.461328358
     0.356795009  0.604501235  0.464286567
     0.354680570  0.772302469  0.470143284
     0.398923351  0.525058025  0.470238806
     0.397158645  0.858058025  0.478600000
     0.440285205  0.608256790  0.486035821
     0.440017825  0.777041975  0.490901493
     0.483490196  0.523658025  0.496907463
     0.482249554  0.854577778  0.501850746
     0.525044563  0.605466667  0.510089552
     0.525711230  0.775024691  0.511925373
     0.567582888  0.524670370  0.520919403
     0.569237077  0.856482716  0.519014925
     0.611475936  0.607771605  0.536226866
     0.611746881  0.773439506  0.532889552
     0.654181818  0.525077778  0.544405970
     0.655393939  0.859944444  0.541591045
     0.697939394  0.610197531  0.552214925
     0.697408200  0.784498765  0.552492537
     0.741547237  0.523544444  0.549737313
     0.742524064  0.865635802  0.551620896
     0.785942959  0.608400000  0.551928358
     0.786014260  0.779419753  0.552570149
     0.829721925  0.525724691  0.541785075
     0.829237077  0.856114815  0.540492537
     0.873907308  0.607718519  0.535707463
     0.871900178  0.772362963  0.534847761
     0.918196078  0.523748148  0.525197015
     0.913682709  0.849756790  0.520182090
     0.959144385  0.604348148  0.514432836
     0.957379679  0.776250617  0.516764179

  ion indices of the primitive-cell ions
   primitive index   ion index
                 1           1
                 2           2
                 3           3
                 4           4
                 5           5
                 6           6
                 7           7
                 8           8
                 9           9
                10          10
                11          11
                12          12
                13          13
                14          14
                15          15
                16          16
                17          17
                18          18
                19          19
                20          20
                21          21
                22          22
                23          23
                24          24
                25          25
                26          26
                27          27
                28          28
                29          29
                30          30
                31          31
                32          32
                33          33
                34          34
                35          35
                36          36
                37          37
                38          38
                39          39
                40          40
                41          41
                42          42
                43          43
                44          44
                45          45
                46          46
                47          47
                48          48
                49          49
                50          50
                51          51
                52          52
                53          53
                54          54
                55          55
                56          56
                57          57
                58          58
                59          59
                60          60
                61          61
                62          62
                63          63
                64          64
                65          65
                66          66
                67          67
                68          68
                69          69
                70          70
                71          71
                72          72
                73          73
                74          74
                75          75
                76          76
                77          77
                78          78
                79          79
                80          80
                81          81
                82          82
                83          83
                84          84
                85          85
                86          86
                87          87
                88          88
                89          89
                90          90
                91          91
                92          92

----------------------------------------------------------------------------------------

 
 
 KPOINTS: K-Spacing Value to Generate K-Mesh: 0.03

Automatic generation of k-mesh.
 Grid dimensions read from file:
 generate k-points for:    1    4    1

 Generating k-lattice:

  Cartesian coordinates                     Fractional coordinates (reciprocal lattice)
     0.035650624  0.000000000  0.000000000     1.000000000  0.000000000  0.000000000
     0.000000000  0.030864198  0.000000000     0.000000000  0.250000000  0.000000000
     0.000000000  0.000000000  0.029850746     0.000000000  0.000000000  1.000000000

  Length of vectors
     0.035650624  0.030864198  0.029850746

  Shift w.r.t. Gamma in fractional coordinates (k-lattice)
     0.000000000  0.000000000  0.000000000

 
 Subroutine IBZKPT returns following result:
 ===========================================
 
 Found      3 irreducible k-points:
 
 Following reciprocal coordinates:
            Coordinates               Weight
  0.000000  0.000000  0.000000      1.000000
  0.000000  0.250000  0.000000      2.000000
  0.000000  0.500000  0.000000      1.000000
 
 Following cartesian coordinates:
            Coordinates               Weight
  0.000000  0.000000  0.000000      1.000000
  0.000000  0.030864  0.000000      2.000000
  0.000000  0.061728  0.000000      1.000000
 


--------------------------------------------------------------------------------------------------------




 Dimension of arrays:
   k-points           NKPTS =      3   k-points in BZ     NKDIM =      3   number of bands    NBANDS=    232
   number of dos      NEDOS =    301   number of ions     NIONS =     92
   non local maximal  LDIM  =      4   non local SUM 2l+1 LMDIM =      8
   total plane-waves  NPLWV = ******
   max r-space proj   IRMAX =   1967   max aug-charges    IRDMAX=   5083
   dimension x,y,z NGX =   210 NGY =   60 NGZ =  250
   dimension x,y,z NGXF=   420 NGYF=  120 NGZF=  500
   support grid    NGXF=   420 NGYF=  120 NGZF=  500
   ions per type =              92
   NGX,Y,Z   is equivalent  to a cutoff of  12.45, 12.31, 12.41 a.u.
   NGXF,Y,Z  is equivalent  to a cutoff of  24.89, 24.63, 24.81 a.u.

 SYSTEM =  unknown system                          
 POSCAR =   C                                      

 Startparameter for this run:
   NWRITE =      2    write-flag & timer
   PREC   = accura    normal or accurate (medium, high low for compatibility)
   ISTART =      0    job   : 0-new  1-cont  2-samecut
   ICHARG =      2    charge: 1-file 2-atom 10-const
   ISPIN  =      1    spin polarized calculation?
   LNONCOLLINEAR =      F non collinear calculations
   LSORBIT =      F    spin-orbit coupling
   INIWAV =      1    electr: 0-lowe 1-rand  2-diag
   LASPH  =      F    aspherical Exc in radial PAW
 Electronic Relaxation 1
   ENCUT  =  500.0 eV  36.75 Ry    6.06 a.u.  51.14 14.77 61.08*2*pi/ulx,y,z
   ENINI  =  500.0     initial cutoff
   ENAUG  =  644.9 eV  augmentation charge cutoff
   NELM   =    150;   NELMIN=  2; NELMDL= -5     # of ELM steps 
   EDIFF  = 0.1E-05   stopping-criterion for ELM
   LREAL  =      T    real-space projection
   NLSPLINE    = F    spline interpolate recip. space projectors
   LCOMPAT=      F    compatible to vasp.4.4
   GGA_COMPAT  = T    GGA compatible to vasp.4.4-vasp.4.6
   LMAXPAW     = -100 max onsite density
   LMAXMIX     =    2 max onsite mixed and CHGCAR
   VOSKOWN=      0    Vosko Wilk Nusair interpolation
   ROPT   =   -0.00025
 Ionic relaxation
   EDIFFG = 0.1E-04   stopping-criterion for IOM
   NSW    =      0    number of steps for IOM
   NBLOCK =      1;   KBLOCK =      1    inner block; outer block 
   IBRION =     -1    ionic relax: 0-MD 1-quasi-New 2-CG
   NFREE  =      0    steps in history (QN), initial steepest desc. (CG)
   ISIF   =      2    stress and relaxation
   IWAVPR =     10    prediction:  0-non 1-charg 2-wave 3-comb
   ISYM   =      2    0-nonsym 1-usesym 2-fastsym
   LCORR  =      T    Harris-Foulkes like correction to forces

   POTIM  = 0.5000    time-step for ionic-motion
   TEIN   =    0.0    initial temperature
   TEBEG  =    0.0;   TEEND  =   0.0 temperature during run
   SMASS  =  -3.00    Nose mass-parameter (am)
   estimated Nose-frequenzy (Omega)   =  0.10E-29 period in steps = 0.13E+47 mass=  -0.180E-25a.u.
   SCALEE = 1.0000    scale energy and forces
   NPACO  =    256;   APACO  = 10.0  distance and # of slots for P.C.
   PSTRESS=    0.0 pullay stress

  Mass of Ions in am
   POMASS =  12.01
  Ionic Valenz
   ZVAL   =   4.00
  Atomic Wigner-Seitz radii
   RWIGS  =  -1.00
  virtual crystal weights 
   VCA    =   1.00
   NELECT =     368.0000    total number of electrons
   NUPDOWN=      -1.0000    fix difference up-down

 DOS related values:
   EMIN   =  10.00;   EMAX   =-10.00  energy-range for DOS
   EFERMI =   0.00;   METHOD = LEGACY      
   ISMEAR =     0;   SIGMA  =   0.20  broadening in eV -4-tet -1-fermi 0-gaus
   EFERMI_NEDOS =   21; number of points for ismear=-14 and -15

 Electronic relaxation 2 (details)
   IALGO  =     38    algorithm
   LDIAG  =      T    sub-space diagonalisation (order eigenvalues)
   LSUBROT=      F    optimize rotation matrix (better conditioning)
   TURBO    =      0    0=normal 1=particle mesh
   IRESTART =      0    0=no restart 2=restart with 2 vectors
   NREBOOT  =      0    no. of reboots
   NMIN     =      0    reboot dimension
   EREF     =   0.00    reference energy to select bands
   IMIX   =      4    mixing-type and parameters
     AMIX     =   0.40;   BMIX     =  1.00
     AMIX_MAG =   1.60;   BMIX_MAG =  1.00
     AMIN     =   0.10
     WC   =   100.;   INIMIX=   1;  MIXPRE=   1;  MAXMIX= -45

 Intra band minimization:
   WEIMIN = 0.0000     energy-eigenvalue tresh-hold
   EBREAK =  0.11E-08  absolut break condition
   DEPER  =   0.30     relativ break condition  

   TIME   =   0.40     timestep for ELM

  volume/ion in A,a.u.               =      82.73       558.30
  Fermi-wavevector in a.u.,A,eV,Ry     =   0.596398  1.127030  4.839472  0.355691
  Thomas-Fermi vector in A             =   1.646729
 
 Write flags
   LWAVE        =      F    write WAVECAR
   LDOWNSAMPLE  =      F    k-point downsampling of WAVECAR
   LCHARG       =      F    write CHGCAR
   LVTOT        =      F    write LOCPOT, total local potential
   LVHAR        =      F    write LOCPOT, Hartree potential only
   WRT_POTENTIAL= false  ! write potential to hdf5 file
   LELF         =      F    write electronic localiz. function (ELF)
   LORBIT       =      0    0 simple, 1 ext, 2 COOP (PROOUT), +10 PAW based schemes


 Python interface
   PLUGINS active      =      F    recompile with -DPLUGINS to activate
 
 Dipole corrections
   LMONO      =      F    monopole corrections only (constant potential shift)
   LDIPOL     =      F    correct potential (dipole corrections)
   IDIPOL     =      0    1-x, 2-y, 3-z, 4-all directions 
   EPSILON    =  1.0000000 bulk dielectric constant
   LVACPOTAV  =      F  vacuum potentials using an averaging scheme for the charge density
   VACPOTFLAT =  0.1000000 required flatness to determine vacuum potential
 
Coulomb truncation method
  LTRUNCATE          =      F  Coulomb kernel truncation to be used
  IDIMENSIONALITY    =      3  Dimensionality of cutoff (0 molecules / 2 surfaces)
  ISURFACE           =     -1  Direction of surface normal
  LCOARSEN           =      F  Coarsen the charge grid before padding, preferred

 
 Exchange correlation treatment:
   GGA     = PE    functional components
   XC_C    = 1    coefficients multiplying the functional components
   LIBXC   =     F    Libxc                    
   VOSKOWN =     0    Vosko Wilk Nusair interpolation
   LHFCALC =     F    Hartree Fock is set to
   LHFONE  =     F    Hartree Fock one center treatment
   AEXX    =    0.0000 exact exchange contribution

 Parameters of functionals:
   PE:
     No parameter
 
 Van der Waals corrections
   IVDW    =     0    specifies the selected vdW correction

 Linear response parameters
   LEPSILON=     F    determine dielectric tensor
   LRPA    =     F    only Hartree local field effects (RPA)
   LNABLA  =     F    use nabla operator in PAW spheres
   LVEL    =     F    velocity operator in full k-point grid
   CSHIFT  =0.1000    complex shift for real part using Kramers Kronig
   OMEGAMAX=  -1.0    maximum frequency
   DEG_THRESHOLD= 0.2000000E-02 threshold for treating states as degnerate
   RTIME   =   -0.100 relaxation time in fs
  (WPLASMAI=    0.000 imaginary part of plasma frequency in eV, 0.658/RTIME)
   DFIELD  = 0.0000000 0.0000000 0.0000000 field for delta impulse in time
 
  Optional k-point grid parameters
   LKPOINTS_OPT  =     F    use optional k-point grid
   KPOINTS_OPT_MODE=     1    mode for optional k-point grid
 
 Orbital magnetization related:
   ORBITALMAG=     F  switch on orbital magnetization
   LCHIMAG   =     F  perturbation theory with respect to B field
   DQ        =  0.001000  dq finite difference perturbation B field
   LLRAUG    =     F  two centre corrections for induced B field
   LBONE     =     F  B-component reconstruction in AE one-centre
   LVGVCALC  =     T  calculate vGv susceptibility
   LVGVAPPL  =     F  apply vGv susceptibility instead of pGv for G=0

 Random number generation:
   RANDOM_GENERATOR = DEFAULT
   PCG_SEED         = not used


--------------------------------------------------------------------------------------------------------


 Static calculation
 charge density and potential will be updated during run
 non-spin polarized calculation
 Variant of blocked Davidson
 Davidson routine will perform the subspace rotation
 perform sub-space diagonalisation
    after iterative eigenvector-optimisation
 modified Broyden-mixing scheme, WC =      100.0
 initial mixing is a Kerker type mixing with AMIX =  0.4000 and BMIX =      1.0000
 Hartree-type preconditioning will be used
 using additional bands            48
 real space projection scheme for non local part
 use partial core corrections
 calculate Harris-corrections to forces 
   (improved forces if not selfconsistent)
 use gradient corrections 
 use of overlap-Matrix (Vanderbilt PP)
 Gauss-broadening in eV      SIGMA  =   0.20


--------------------------------------------------------------------------------------------------------


  energy-cutoff  :      500.00
  volume of cell :     7611.37
      direct lattice vectors                 reciprocal lattice vectors
    28.050000000  0.000000000  0.000000000     0.035650624  0.000000000  0.000000000
     0.000000000  8.100000000  0.000000000     0.000000000  0.123456790  0.000000000
     0.000000000  0.000000000 33.500000000     0.000000000  0.000000000  0.029850746

  length of vectors
    28.050000000  8.100000000 33.500000000     0.035650624  0.123456790  0.029850746


 
 k-points in units of 2pi/SCALE and weight: K-Spacing Value to Generate K-Mesh: 0.03
   0.00000000  0.00000000  0.00000000       0.250
   0.00000000  0.03086420  0.00000000       0.500
   0.00000000  0.06172840  0.00000000       0.250
 
 k-points in reciprocal lattice and weights: K-Spacing Value to Generate K-Mesh: 0.03
   0.00000000  0.00000000  0.00000000       0.250
   0.00000000  0.25000000  0.00000000       0.500
   0.00000000  0.50000000  0.00000000       0.250
 
 position of ions in fractional coordinates (direct lattice) 
   0.00276166  0.10202272  0.48170149
   0.00228770  0.27228889  0.48380896
   0.04567380  0.02055568  0.48012239
   0.04554581  0.35378272  0.47776119
   0.08828699  0.10179062  0.47028955
   0.08766524  0.27150494  0.46502090
   0.13374617  0.01960370  0.47156119
   0.13243636  0.34824938  0.46158209
   0.17834938  0.10374704  0.46420896
   0.17633797  0.26141358  0.45829851
   0.22132549  0.01903086  0.45827164
   0.22213012  0.34276296  0.45622388
   0.26608200  0.10251815  0.45837910
   0.26616970  0.26673457  0.45319701
   0.31195793  0.01875938  0.46074925
   0.31107558  0.35045556  0.45532537
   0.35500499  0.10238235  0.46876418
   0.35536185  0.27227037  0.46220299
   0.39793226  0.02457605  0.47897015
   0.40002852  0.35140617  0.46914925
   0.44213191  0.10873148  0.48693433
   0.44363280  0.27564444  0.48033433
   0.48430660  0.02195210  0.49612537
   0.48677718  0.36078025  0.49065075
   0.52748663  0.10708506  0.50596119
   0.52575045  0.27940494  0.50596418
   0.56921925  0.02369790  0.51714328
   0.56789661  0.35672963  0.51781791
   0.61131907  0.10601247  0.52471940
   0.61224599  0.27891728  0.52375522
   0.65565062  0.02124407  0.53099403
   0.65412478  0.35645679  0.53957313
   0.69866310  0.10891185  0.53792239
   0.69840285  0.27289753  0.54134925
   0.74235294  0.02487667  0.54247164
   0.74190374  0.35775802  0.54687164
   0.78590018  0.10878432  0.53882090
   0.78669519  0.27704938  0.54173731
   0.82892335  0.02458012  0.53372239
   0.83132977  0.35978765  0.53711343
   0.86946168  0.10069654  0.51998209
   0.87114795  0.26730864  0.52324179
   0.91132620  0.01106423  0.50937910
   0.91547950  0.35431358  0.51666269
   0.95036007  0.09679728  0.49457015
   0.94951515  0.26992593  0.49482090
   0.00975380  0.59742099  0.50374627
   0.00813444  0.77043210  0.50153433
   0.04796578  0.51859136  0.48733134
   0.04980606  0.85233333  0.49088657
   0.09248592  0.60410370  0.47839701
   0.09385027  0.77070494  0.48258507
   0.13358503  0.52180494  0.46931045
   0.13468592  0.84961358  0.47160299
   0.17899964  0.59452099  0.46172537
   0.17825561  0.76432593  0.46133134
   0.22318075  0.51117901  0.45362985
   0.22195544  0.85272593  0.45695224
   0.26562424  0.59840617  0.45528358
   0.26605490  0.76774691  0.45821493
   0.31178930  0.51828395  0.45589851
   0.31087201  0.85247284  0.46132836
   0.35679501  0.60450123  0.46428657
   0.35468057  0.77230247  0.47014328
   0.39892335  0.52505802  0.47023881
   0.39715865  0.85805802  0.47860000
   0.44028520  0.60825679  0.48603582
   0.44001783  0.77704198  0.49090149
   0.48349020  0.52365802  0.49690746
   0.48224955  0.85457778  0.50185075
   0.52504456  0.60546667  0.51008955
   0.52571123  0.77502469  0.51192537
   0.56758289  0.52467037  0.52091940
   0.56923708  0.85648272  0.51901493
   0.61147594  0.60777160  0.53622687
   0.61174688  0.77343951  0.53288955
   0.65418182  0.52507778  0.54440597
   0.65539394  0.85994444  0.54159104
   0.69793939  0.61019753  0.55221493
   0.69740820  0.78449877  0.55249254
   0.74154724  0.52354444  0.54973731
   0.74252406  0.86563580  0.55162090
   0.78594296  0.60840000  0.55192836
   0.78601426  0.77941975  0.55257015
   0.82972193  0.52572469  0.54178507
   0.82923708  0.85611481  0.54049254
   0.87390731  0.60771852  0.53570746
   0.87190018  0.77236296  0.53484776
   0.91819608  0.52374815  0.52519701
   0.91368271  0.84975679  0.52018209
   0.95914439  0.60434815  0.51443284
   0.95737968  0.77625062  0.51676418
 
 position of ions in cartesian coordinates  (Angst):
   0.07746460  0.82638400 16.13700000
   0.06417010  2.20554000 16.20760000
   1.28115000  0.16650100 16.08410000
   1.27756000  2.86564000 16.00500000
   2.47645000  0.82450400 15.75470000
   2.45901000  2.19919000 15.57820000
   3.75158000  0.15879000 15.79730000
   3.71484000  2.82082000 15.46300000
   5.00270000  0.84035100 15.55100000
   4.94628000  2.11745000 15.35300000
   6.20818000  0.15415000 15.35210000
   6.23075000  2.77638000 15.28350000
   7.46360000  0.83039700 15.35570000
   7.46606000  2.16055000 15.18210000
   8.75042000  0.15195100 15.43510000
   8.72567000  2.83869000 15.25340000
   9.95789000  0.82929700 15.70360000
   9.96790000  2.20539000 15.48380000
  11.16200000  0.19906600 16.04550000
  11.22080000  2.84639000 15.71650000
  12.40180000  0.88072500 16.31230000
  12.44390000  2.23272000 16.09120000
  13.58480000  0.17781200 16.62020000
  13.65410000  2.92232000 16.43680000
  14.79600000  0.86738900 16.94970000
  14.74730000  2.26318000 16.94980000
  15.96660000  0.19195300 17.32430000
  15.92950000  2.88951000 17.34690000
  17.14750000  0.85870100 17.57810000
  17.17350000  2.25923000 17.54580000
  18.39100000  0.17207700 17.78830000
  18.34820000  2.88730000 18.07570000
  19.59750000  0.88218600 18.02040000
  19.59020000  2.21047000 18.13520000
  20.82300000  0.20150100 18.17280000
  20.81040000  2.89784000 18.32020000
  22.04450000  0.88115300 18.05050000
  22.06680000  2.24410000 18.14820000
  23.25130000  0.19909900 17.87970000
  23.31880000  2.91428000 17.99330000
  24.38840000  0.81564200 17.41940000
  24.43570000  2.16520000 17.52860000
  25.56270000  0.08962030 17.06420000
  25.67920000  2.86994000 17.30820000
  26.65760000  0.78405800 16.56810000
  26.63390000  2.18640000 16.57650000
   0.27359400  4.83911000 16.87550000
   0.22817100  6.24050000 16.80140000
   1.34544000  4.20059000 16.32560000
   1.39706000  6.90390000 16.44470000
   2.59423000  4.89324000 16.02630000
   2.63250000  6.24271000 16.16660000
   3.74706000  4.22662000 15.72190000
   3.77794000  6.88187000 15.79870000
   5.02094000  4.81562000 15.46780000
   5.00007000  6.19104000 15.45460000
   6.26022000  4.14055000 15.19660000
   6.22585000  6.90708000 15.30790000
   7.45076000  4.84709000 15.25200000
   7.46284000  6.21875000 15.35020000
   8.74569000  4.19810000 15.27260000
   8.71996000  6.90503000 15.45450000
  10.00810000  4.89646000 15.55360000
   9.94879000  6.25565000 15.74980000
  11.18980000  4.25297000 15.75300000
  11.14030000  6.95027000 16.03310000
  12.35000000  4.92688000 16.28220000
  12.34250000  6.29404000 16.44520000
  13.56190000  4.24163000 16.64640000
  13.52710000  6.92208000 16.81200000
  14.72750000  4.90428000 17.08800000
  14.74620000  6.27770000 17.14950000
  15.92070000  4.24983000 17.45080000
  15.96710000  6.93751000 17.38700000
  17.15190000  4.92295000 17.96360000
  17.15950000  6.26486000 17.85180000
  18.34980000  4.25313000 18.23760000
  18.38380000  6.96555000 18.14330000
  19.57720000  4.94260000 18.49920000
  19.56230000  6.35444000 18.50850000
  20.80040000  4.24071000 18.41620000
  20.82780000  7.01165000 18.47930000
  22.04570000  4.92804000 18.48960000
  22.04770000  6.31330000 18.51110000
  23.27370000  4.25837000 18.14980000
  23.26010000  6.93453000 18.10650000
  24.51310000  4.92252000 17.94620000
  24.45680000  6.25614000 17.91740000
  25.75540000  4.24236000 17.59410000
  25.62880000  6.88303000 17.42610000
  26.90400000  4.89522000 17.23350000
  26.85450000  6.28763000 17.31160000
 


--------------------------------------------------------------------------------------------------------


 k-point     1 :   0.0000 0.0000 0.0000  plane waves:  193173
 k-point     2 :   0.0000 0.2500 0.0000  plane waves:  193166
 k-point     3 :   0.0000 0.5000 0.0000  plane waves:  193226

 maximum and minimum number of plane-waves per node :    193226   193166

 maximum number of plane-waves:    193226
 maximum index in each direction: 
   IXMAX=   51   IYMAX=   14   IZMAX=   61
   IXMIN=  -51   IYMIN=  -15   IZMIN=  -61


 serial   3D FFT for wavefunctions
 parallel 3D FFT for charge:
    minimum data exchange during FFTs selected (reduces bandwidth)


 total amount of memory used by VASP MPI-rank0  2294494. kBytes
=======================================================================

   base                                    :      30000. kBytes
   nonlr-proj                              :      15060. kBytes
   fftplans                                :     436558. kBytes
   grid                                    :     732614. kBytes
   one-center                              :        282. kBytes
   wavefun                                 :    1079980. kBytes
 
     INWAV:  cpu time      0.0000: real time      0.0000
 Broyden mixing: mesh for mixing (old mesh)
   NGX =103   NGY = 29   NGZ =123
  (NGX  =420   NGY  =120   NGZ  =500)
  gives a total of 367401 points

 initial charge density was supplied:
 charge density of overlapping atoms calculated
 number of electron     368.0000000 magnetization 
 keeping initial charge density in first step


--------------------------------------------------------------------------------------------------------


 Maximum index for non-local projection operator          1871
 Maximum index for augmentation-charges          2385 (set IRDMAX)


--------------------------------------------------------------------------------------------------------


 First call to EWALD:  gamma=   0.090
 Maximum number of real-space cells   2x   6x   2
 Maximum number of reciprocal cells   4x   1x   4

    FEWALD:  cpu time      0.1600: real time      0.1601


--------------------------------------- Ionic step        1  -------------------------------------------




--------------------------------------- Iteration      1(   1)  ---------------------------------------


    POTLOK:  cpu time      0.4168: real time      0.4404
    SETDIJ:  cpu time      0.0449: real time      0.0449
     EDDAV:  cpu time     11.1304: real time     11.1369
       DOS:  cpu time      0.0008: real time      0.0008
    --------------------------------------------
      LOOP:  cpu time     11.5929: real time     11.6231

 eigenvalue-minimisations  :  1728
 total energy-change (2. order) : 0.3640518E+04  (-0.1198122E+05)
 number of electron     368.0000000 magnetization 
 augmentation part      368.0000000 magnetization 

 Free energy of the ion-electron system (eV)
  ---------------------------------------------------
  alpha Z        PSCENC =        91.34886789
  Ewald energy   TEWEN  =    120086.78761059
  -Hartree energ DENC   =   -129395.53167572
  -exchange      EXHF   =         0.00000000
  -V(xc)+E(xc)   XCENC  =      1222.46174221
  PAW double counting   =      9984.02826696   -10036.41360137
  entropy T*S    EENTRO =        -0.80757679
  eigenvalues    EBANDS =     -1849.01078865
  atomic energy  EATOM  =     13537.65479391
  Solvation  Ediel_sol  =         0.00000000
  ---------------------------------------------------
  free energy    TOTEN  =      3640.51763903 eV

  energy without entropy =     3641.32521582  energy(sigma->0) =     3640.92142742


--------------------------------------------------------------------------------------------------------




--------------------------------------- Iteration      1(   2)  ---------------------------------------


     EDDAV:  cpu time     13.0250: real time     13.0298
       DOS:  cpu time      0.0007: real time      0.0007
    --------------------------------------------
      LOOP:  cpu time     13.0257: real time     13.0305

 eigenvalue-minimisations  :  2128
 total energy-change (2. order) :-0.3465413E+04  (-0.3207546E+04)
 number of electron     368.0000000 magnetization 
 augmentation part      368.0000000 magnetization 

 Free energy of the ion-electron system (eV)
  ---------------------------------------------------
  alpha Z        PSCENC =        91.34886789
  Ewald energy   TEWEN  =    120086.78761059
  -Hartree energ DENC   =   -129395.53167572
  -exchange      EXHF   =         0.00000000
  -V(xc)+E(xc)   XCENC  =      1222.46174221
  PAW double counting   =      9984.02826696   -10036.41360137
  entropy T*S    EENTRO =        -0.19305900
  eigenvalues    EBANDS =     -5315.03823236
  atomic energy  EATOM  =     13537.65479391
  Solvation  Ediel_sol  =         0.00000000
  ---------------------------------------------------
  free energy    TOTEN  =       175.10471311 eV

  energy without entropy =      175.29777211  energy(sigma->0) =      175.20124261


--------------------------------------------------------------------------------------------------------




--------------------------------------- Iteration      1(   3)  ---------------------------------------


     EDDAV:  cpu time     11.3490: real time     11.3532
       DOS:  cpu time      0.0007: real time      0.0007
    --------------------------------------------
      LOOP:  cpu time     11.3497: real time     11.3539

 eigenvalue-minimisations  :  1800
 total energy-change (2. order) :-0.1011002E+04  (-0.9863417E+03)
 number of electron     368.0000000 magnetization 
 augmentation part      368.0000000 magnetization 

 Free energy of the ion-electron system (eV)
  ---------------------------------------------------
  alpha Z        PSCENC =        91.34886789
  Ewald energy   TEWEN  =    120086.78761059
  -Hartree energ DENC   =   -129395.53167572
  -exchange      EXHF   =         0.00000000
  -V(xc)+E(xc)   XCENC  =      1222.46174221
  PAW double counting   =      9984.02826696   -10036.41360137
  entropy T*S    EENTRO =        -0.01281012
  eigenvalues    EBANDS =     -6326.22020550
  atomic energy  EATOM  =     13537.65479391
  Solvation  Ediel_sol  =         0.00000000
  ---------------------------------------------------
  free energy    TOTEN  =      -835.89701115 eV

  energy without entropy =     -835.88420103  energy(sigma->0) =     -835.89060609


--------------------------------------------------------------------------------------------------------




--------------------------------------- Iteration      1(   4)  ---------------------------------------


     EDDAV:  cpu time     10.9744: real time     10.9788
       DOS:  cpu time      0.0007: real time      0.0007
    --------------------------------------------
      LOOP:  cpu time     10.9751: real time     10.9795

 eigenvalue-minimisations  :  1728
 total energy-change (2. order) :-0.6179873E+02  (-0.6071859E+02)
 number of electron     368.0000000 magnetization 
 augmentation part      368.0000000 magnetization 

 Free energy of the ion-electron system (eV)
  ---------------------------------------------------
  alpha Z        PSCENC =        91.34886789
  Ewald energy   TEWEN  =    120086.78761059
  -Hartree energ DENC   =   -129395.53167572
  -exchange      EXHF   =         0.00000000
  -V(xc)+E(xc)   XCENC  =      1222.46174221
  PAW double counting   =      9984.02826696   -10036.41360137
  entropy T*S    EENTRO =        -0.04886522
  eigenvalues    EBANDS =     -6387.98288253
  atomic energy  EATOM  =     13537.65479391
  Solvation  Ediel_sol  =         0.00000000
  ---------------------------------------------------
  free energy    TOTEN  =      -897.69574328 eV

  energy without entropy =     -897.64687806  energy(sigma->0) =     -897.67131067


--------------------------------------------------------------------------------------------------------




--------------------------------------- Iteration      1(   5)  ---------------------------------------


     EDDAV:  cpu time     11.0764: real time     11.0807
       DOS:  cpu time      0.0007: real time      0.0007
    CHARGE:  cpu time      1.2072: real time      1.2086
    MIXING:  cpu time      0.2753: real time      0.2752
    --------------------------------------------
      LOOP:  cpu time     12.5596: real time     12.5652

 eigenvalue-minimisations  :  1752
 total energy-change (2. order) :-0.1545802E+01  (-0.1523283E+01)
 number of electron     368.0000011 magnetization 
 augmentation part       10.2008055 magnetization 

 Broyden mixing:
  rms(total) = 0.45850E+01    rms(broyden)= 0.45844E+01
  rms(prec ) = 0.47031E+01
  weight for this iteration     100.00

 Free energy of the ion-electron system (eV)
  ---------------------------------------------------
  alpha Z        PSCENC =        91.34886789
  Ewald energy   TEWEN  =    120086.78761059
  -Hartree energ DENC   =   -129395.53167572
  -exchange      EXHF   =         0.00000000
  -V(xc)+E(xc)   XCENC  =      1222.46174221
  PAW double counting   =      9984.02826696   -10036.41360137
  entropy T*S    EENTRO =        -0.05093935
  eigenvalues    EBANDS =     -6389.52661028
  atomic energy  EATOM  =     13537.65479391
  Solvation  Ediel_sol  =         0.00000000
  ---------------------------------------------------
  free energy    TOTEN  =      -899.24154516 eV

  energy without entropy =     -899.19060581  energy(sigma->0) =     -899.21607549


--------------------------------------------------------------------------------------------------------




--------------------------------------- Iteration      1(   6)  ---------------------------------------


    POTLOK:  cpu time      0.3220: real time      0.3221
    SETDIJ:  cpu time      0.0403: real time      0.0403
     EDDAV:  cpu time     10.2134: real time     10.2174
       DOS:  cpu time      0.0007: real time      0.0007
    CHARGE:  cpu time      1.1555: real time      1.1582
    MIXING:  cpu time      0.2793: real time      0.2794
    --------------------------------------------
      LOOP:  cpu time     12.0113: real time     12.0179

 eigenvalue-minimisations  :  1576
 total energy-change (2. order) : 0.5040586E+02  (-0.4793518E+01)
 number of electron     368.0000010 magnetization 
 augmentation part        9.7731427 magnetization 

 Broyden mixing:
  rms(total) = 0.26937E+01    rms(broyden)= 0.26937E+01
  rms(prec ) = 0.27523E+01
  weight for this iteration     100.00

 eigenvalues of (default mixing * dielectric matrix)
  average eigenvalue GAMMA=   2.1836
  2.1836

 Free energy of the ion-electron system (eV)
  ---------------------------------------------------
  alpha Z        PSCENC =        91.34886789
  Ewald energy   TEWEN  =    120086.78761059
  -Hartree energ DENC   =   -129970.88465450
  -exchange      EXHF   =         0.00000000
  -V(xc)+E(xc)   XCENC  =      1245.95870040
  PAW double counting   =     19019.67540742   -19079.76016176
  entropy T*S    EENTRO =        -0.05525796
  eigenvalues    EBANDS =     -5779.56098644
  atomic energy  EATOM  =     13537.65479391
  Solvation  Ediel_sol  =         0.00000000
  ---------------------------------------------------
  free energy    TOTEN  =      -848.83568043 eV

  energy without entropy =     -848.78042248  energy(sigma->0) =     -848.80805146


--------------------------------------------------------------------------------------------------------




--------------------------------------- Iteration      1(   7)  ---------------------------------------


    POTLOK:  cpu time      0.3214: real time      0.3215
    SETDIJ:  cpu time      0.0402: real time      0.0402
     EDDAV:  cpu time     10.0794: real time     10.0829
       DOS:  cpu time      0.0007: real time      0.0007
    CHARGE:  cpu time      1.1540: real time      1.1544
    MIXING:  cpu time      0.2789: real time      0.2789
    --------------------------------------------
      LOOP:  cpu time     11.8747: real time     11.8786

 eigenvalue-minimisations  :  1552
 total energy-change (2. order) : 0.1880625E+02  (-0.6655483E+01)
 number of electron     368.0000010 magnetization 
 augmentation part        9.2131379 magnetization 

 Broyden mixing:
  rms(total) = 0.74061E+00    rms(broyden)= 0.74033E+00
  rms(prec ) = 0.75044E+00
  weight for this iteration     100.00

 eigenvalues of (default mixing * dielectric matrix)
  average eigenvalue GAMMA=   2.2029
  2.2029  2.2029

 Free energy of the ion-electron system (eV)
  ---------------------------------------------------
  alpha Z        PSCENC =        91.34886789
  Ewald energy   TEWEN  =    120086.78761059
  -Hartree energ DENC   =   -130743.58500371
  -exchange      EXHF   =         0.00000000
  -V(xc)+E(xc)   XCENC  =      1277.33843136
  PAW double counting   =     36857.64960575   -36924.72578366
  entropy T*S    EENTRO =        -0.06602293
  eigenvalues    EBANDS =     -5012.43193422
  atomic energy  EATOM  =     13537.65479391
  Solvation  Ediel_sol  =         0.00000000
  ---------------------------------------------------
  free energy    TOTEN  =      -830.02943503 eV

  energy without entropy =     -829.96341210  energy(sigma->0) =     -829.99642356


--------------------------------------------------------------------------------------------------------




--------------------------------------- Iteration      1(   8)  ---------------------------------------


    POTLOK:  cpu time      0.3211: real time      0.3212
    SETDIJ:  cpu time      0.0403: real time      0.0403
     EDDAV:  cpu time     10.3167: real time     10.3234
       DOS:  cpu time      0.0007: real time      0.0007
    CHARGE:  cpu time      1.1554: real time      1.1563
    MIXING:  cpu time      0.2802: real time      0.2819
    --------------------------------------------
      LOOP:  cpu time     12.1144: real time     12.1239

 eigenvalue-minimisations  :  1600
 total energy-change (2. order) : 0.2916413E+00  (-0.2456632E+00)
 number of electron     368.0000010 magnetization 
 augmentation part        9.1979393 magnetization 

 Broyden mixing:
  rms(total) = 0.10137E+00    rms(broyden)= 0.10133E+00
  rms(prec ) = 0.12396E+00
  weight for this iteration     100.00

 eigenvalues of (default mixing * dielectric matrix)
  average eigenvalue GAMMA=   1.8640
  1.2466  2.4420  1.9034

 Free energy of the ion-electron system (eV)
  ---------------------------------------------------
  alpha Z        PSCENC =        91.34886789
  Ewald energy   TEWEN  =    120086.78761059
  -Hartree energ DENC   =   -130838.23974516
  -exchange      EXHF   =         0.00000000
  -V(xc)+E(xc)   XCENC  =      1277.07185405
  PAW double counting   =     41171.32111006   -41235.68189324
  entropy T*S    EENTRO =        -0.05933452
  eigenvalues    EBANDS =     -4919.94105733
  atomic energy  EATOM  =     13537.65479391
  Solvation  Ediel_sol  =         0.00000000
  ---------------------------------------------------
  free energy    TOTEN  =      -829.73779376 eV

  energy without entropy =     -829.67845924  energy(sigma->0) =     -829.70812650


--------------------------------------------------------------------------------------------------------




--------------------------------------- Iteration      1(   9)  ---------------------------------------


    POTLOK:  cpu time      0.3219: real time      0.3220
    SETDIJ:  cpu time      0.0404: real time      0.0403
     EDDAV:  cpu time     10.5698: real time     10.5735
       DOS:  cpu time      0.0008: real time      0.0008
    CHARGE:  cpu time      1.1537: real time      1.1556
    MIXING:  cpu time      0.2858: real time      0.2858
    --------------------------------------------
      LOOP:  cpu time     12.3724: real time     12.3780

 eigenvalue-minimisations  :  1648
 total energy-change (2. order) : 0.1135003E+00  (-0.2754016E-01)
 number of electron     368.0000010 magnetization 
 augmentation part        9.1739387 magnetization 

 Broyden mixing:
  rms(total) = 0.57575E-01    rms(broyden)= 0.57566E-01
  rms(prec ) = 0.79217E-01
  weight for this iteration     100.00

 eigenvalues of (default mixing * dielectric matrix)
  average eigenvalue GAMMA=   1.7032
  2.2125  2.2125  1.1205  1.2671

 Free energy of the ion-electron system (eV)
  ---------------------------------------------------
  alpha Z        PSCENC =        91.34886789
  Ewald energy   TEWEN  =    120086.78761059
  -Hartree energ DENC   =   -130910.11774934
  -exchange      EXHF   =         0.00000000
  -V(xc)+E(xc)   XCENC  =      1278.55806723
  PAW double counting   =     41722.42196909   -41786.88058226
  entropy T*S    EENTRO =        -0.06145480
  eigenvalues    EBANDS =     -4849.33581575
  atomic energy  EATOM  =     13537.65479391
  Solvation  Ediel_sol  =         0.00000000
  ---------------------------------------------------
  free energy    TOTEN  =      -829.62429344 eV

  energy without entropy =     -829.56283864  energy(sigma->0) =     -829.59356604


--------------------------------------------------------------------------------------------------------




--------------------------------------- Iteration      1(  10)  ---------------------------------------


    POTLOK:  cpu time      0.3209: real time      0.3210
    SETDIJ:  cpu time      0.0403: real time      0.0403
     EDDAV:  cpu time     11.1210: real time     11.1278
       DOS:  cpu time      0.0008: real time      0.0008
    CHARGE:  cpu time      1.1532: real time      1.1551
    MIXING:  cpu time      0.2914: real time      0.2929
    --------------------------------------------
      LOOP:  cpu time     12.9275: real time     12.9378

 eigenvalue-minimisations  :  1760
 total energy-change (2. order) : 0.3942819E-01  (-0.5133425E-02)
 number of electron     368.0000010 magnetization 
 augmentation part        9.1644253 magnetization 

 Broyden mixing:
  rms(total) = 0.36141E-01    rms(broyden)= 0.36138E-01
  rms(prec ) = 0.55663E-01
  weight for this iteration     100.00

 eigenvalues of (default mixing * dielectric matrix)
  average eigenvalue GAMMA=   1.7270
  2.4805  2.4805  1.5727  1.2948  0.8065

 Free energy of the ion-electron system (eV)
  ---------------------------------------------------
  alpha Z        PSCENC =        91.34886789
  Ewald energy   TEWEN  =    120086.78761059
  -Hartree energ DENC   =   -130961.25794461
  -exchange      EXHF   =         0.00000000
  -V(xc)+E(xc)   XCENC  =      1278.87811554
  PAW double counting   =     41485.60936560   -41549.91632434
  entropy T*S    EENTRO =        -0.06182690
  eigenvalues    EBANDS =     -4798.62752293
  atomic energy  EATOM  =     13537.65479391
  Solvation  Ediel_sol  =         0.00000000
  ---------------------------------------------------
  free energy    TOTEN  =      -829.58486525 eV

  energy without entropy =     -829.52303835  energy(sigma->0) =     -829.55395180


--------------------------------------------------------------------------------------------------------




--------------------------------------- Iteration      1(  11)  ---------------------------------------


    POTLOK:  cpu time      0.3214: real time      0.3214
    SETDIJ:  cpu time      0.0402: real time      0.0402
     EDDAV:  cpu time     10.1575: real time     10.1611
       DOS:  cpu time      0.0007: real time      0.0007
    CHARGE:  cpu time      1.1651: real time      1.1663
    MIXING:  cpu time      0.2965: real time      0.2977
    --------------------------------------------
      LOOP:  cpu time     11.9814: real time     11.9875

 eigenvalue-minimisations  :  1568
 total energy-change (2. order) : 0.2882866E-01  (-0.2042497E-02)
 number of electron     368.0000010 magnetization 
 augmentation part        9.1598016 magnetization 

 Broyden mixing:
  rms(total) = 0.24885E-01    rms(broyden)= 0.24883E-01
  rms(prec ) = 0.38594E-01
  weight for this iteration     100.00

 eigenvalues of (default mixing * dielectric matrix)
  average eigenvalue GAMMA=   1.7982
  3.0910  2.4632  1.9622  0.9063  1.1832  1.1832

 Free energy of the ion-electron system (eV)
  ---------------------------------------------------
  alpha Z        PSCENC =        91.34886789
  Ewald energy   TEWEN  =    120086.78761059
  -Hartree energ DENC   =   -131023.91980992
  -exchange      EXHF   =         0.00000000
  -V(xc)+E(xc)   XCENC  =      1279.42230516
  PAW double counting   =     41415.10465182   -41479.30813240
  entropy T*S    EENTRO =        -0.06157079
  eigenvalues    EBANDS =     -4736.58475285
  atomic energy  EATOM  =     13537.65479391
  Solvation  Ediel_sol  =         0.00000000
  ---------------------------------------------------
  free energy    TOTEN  =      -829.55603660 eV

  energy without entropy =     -829.49446581  energy(sigma->0) =     -829.52525120


--------------------------------------------------------------------------------------------------------




--------------------------------------- Iteration      1(  12)  ---------------------------------------


    POTLOK:  cpu time      0.3185: real time      0.3185
    SETDIJ:  cpu time      0.0402: real time      0.0402
     EDDAV:  cpu time     10.0324: real time     10.0361
       DOS:  cpu time      0.0007: real time      0.0007
    CHARGE:  cpu time      1.1551: real time      1.1553
    MIXING:  cpu time      0.3034: real time      0.3063
    --------------------------------------------
      LOOP:  cpu time     11.8504: real time     11.8572

 eigenvalue-minimisations  :  1544
 total energy-change (2. order) : 0.4696166E-02  (-0.2683400E-02)
 number of electron     368.0000010 magnetization 
 augmentation part        9.1519510 magnetization 

 Broyden mixing:
  rms(total) = 0.15122E-01    rms(broyden)= 0.15117E-01
  rms(prec ) = 0.23040E-01
  weight for this iteration     100.00

 eigenvalues of (default mixing * dielectric matrix)
  average eigenvalue GAMMA=   2.0835
  4.9471  2.4292  2.0373  2.0373  0.9463  1.0936  1.0936

 Free energy of the ion-electron system (eV)
  ---------------------------------------------------
  alpha Z        PSCENC =        91.34886789
  Ewald energy   TEWEN  =    120086.78761059
  -Hartree energ DENC   =   -131091.80922589
  -exchange      EXHF   =         0.00000000
  -V(xc)+E(xc)   XCENC  =      1280.09077303
  PAW double counting   =     41482.34422845   -41546.54184339
  entropy T*S    EENTRO =        -0.06175732
  eigenvalues    EBANDS =     -4669.36478771
  atomic energy  EATOM  =     13537.65479391
  Solvation  Ediel_sol  =         0.00000000
  ---------------------------------------------------
  free energy    TOTEN  =      -829.55134043 eV

  energy without entropy =     -829.48958311  energy(sigma->0) =     -829.52046177


--------------------------------------------------------------------------------------------------------




--------------------------------------- Iteration      1(  13)  ---------------------------------------


    POTLOK:  cpu time      0.3220: real time      0.3220
    SETDIJ:  cpu time      0.0403: real time      0.0403
     EDDAV:  cpu time     10.2251: real time     10.2290
       DOS:  cpu time      0.0008: real time      0.0008
    CHARGE:  cpu time      1.1560: real time      1.1565
    MIXING:  cpu time      0.3131: real time      0.3133
    --------------------------------------------
      LOOP:  cpu time     12.0572: real time     12.0618

 eigenvalue-minimisations  :  1584
 total energy-change (2. order) :-0.1194662E-01  (-0.8231996E-03)
 number of electron     368.0000010 magnetization 
 augmentation part        9.1496161 magnetization 

 Broyden mixing:
  rms(total) = 0.88186E-02    rms(broyden)= 0.88168E-02
  rms(prec ) = 0.12248E-01
  weight for this iteration     100.00

 eigenvalues of (default mixing * dielectric matrix)
  average eigenvalue GAMMA=   2.0903
  5.4339  2.4622  2.4622  1.8995  1.2514  1.2514  0.8801  1.0820

 Free energy of the ion-electron system (eV)
  ---------------------------------------------------
  alpha Z        PSCENC =        91.34886789
  Ewald energy   TEWEN  =    120086.78761059
  -Hartree energ DENC   =   -131142.06991839
  -exchange      EXHF   =         0.00000000
  -V(xc)+E(xc)   XCENC  =      1280.26441618
  PAW double counting   =     41423.63186202   -41487.82103758
  entropy T*S    EENTRO =        -0.06159302
  eigenvalues    EBANDS =     -4619.29828865
  atomic energy  EATOM  =     13537.65479391
  Solvation  Ediel_sol  =         0.00000000
  ---------------------------------------------------
  free energy    TOTEN  =      -829.56328705 eV

  energy without entropy =     -829.50169403  energy(sigma->0) =     -829.53249054


--------------------------------------------------------------------------------------------------------




--------------------------------------- Iteration      1(  14)  ---------------------------------------


    POTLOK:  cpu time      0.3220: real time      0.3220
    SETDIJ:  cpu time      0.0403: real time      0.0403
     EDDAV:  cpu time     10.2336: real time     10.2375
       DOS:  cpu time      0.0007: real time      0.0007
    CHARGE:  cpu time      1.1550: real time      1.1572
    MIXING:  cpu time      0.3220: real time      0.3221
    --------------------------------------------
      LOOP:  cpu time     12.0738: real time     12.0799

 eigenvalue-minimisations  :  1584
 total energy-change (2. order) :-0.1852735E-01  (-0.1337272E-03)
 number of electron     368.0000010 magnetization 
 augmentation part        9.1486448 magnetization 

 Broyden mixing:
  rms(total) = 0.53786E-02    rms(broyden)= 0.53780E-02
  rms(prec ) = 0.76344E-02
  weight for this iteration     100.00

 eigenvalues of (default mixing * dielectric matrix)
  average eigenvalue GAMMA=   2.2035
  6.4487  2.8475  2.6328  1.8269  1.7269  1.2372  1.2372  0.9370  0.9370

 Free energy of the ion-electron system (eV)
  ---------------------------------------------------
  alpha Z        PSCENC =        91.34886789
  Ewald energy   TEWEN  =    120086.78761059
  -Hartree energ DENC   =   -131156.82928494
  -exchange      EXHF   =         0.00000000
  -V(xc)+E(xc)   XCENC  =      1280.28406329
  PAW double counting   =     41429.18570181   -41493.38653701
  entropy T*S    EENTRO =        -0.06164995
  eigenvalues    EBANDS =     -4604.56537999
  atomic energy  EATOM  =     13537.65479391
  Solvation  Ediel_sol  =         0.00000000
  ---------------------------------------------------
  free energy    TOTEN  =      -829.58181440 eV

  energy without entropy =     -829.52016445  energy(sigma->0) =     -829.55098943


--------------------------------------------------------------------------------------------------------




--------------------------------------- Iteration      1(  15)  ---------------------------------------


    POTLOK:  cpu time      0.3194: real time      0.3194
    SETDIJ:  cpu time      0.0403: real time      0.0403
     EDDAV:  cpu time     10.2255: real time     10.2292
       DOS:  cpu time      0.0008: real time      0.0008
    CHARGE:  cpu time      1.1548: real time      1.1563
    MIXING:  cpu time      0.3301: real time      0.3322
    --------------------------------------------
      LOOP:  cpu time     12.0709: real time     12.0782

 eigenvalue-minimisations  :  1584
 total energy-change (2. order) :-0.1971826E-01  (-0.1660770E-03)
 number of electron     368.0000010 magnetization 
 augmentation part        9.1483079 magnetization 

 Broyden mixing:
  rms(total) = 0.31544E-02    rms(broyden)= 0.31540E-02
  rms(prec ) = 0.42509E-02
  weight for this iteration     100.00

 eigenvalues of (default mixing * dielectric matrix)
  average eigenvalue GAMMA=   2.2653
  7.0635  3.5637  2.2818  2.2818  1.6946  1.3767  1.3767  1.1234  0.9455  0.9455

 Free energy of the ion-electron system (eV)
  ---------------------------------------------------
  alpha Z        PSCENC =        91.34886789
  Ewald energy   TEWEN  =    120086.78761059
  -Hartree energ DENC   =   -131167.27093746
  -exchange      EXHF   =         0.00000000
  -V(xc)+E(xc)   XCENC  =      1280.26499777
  PAW double counting   =     41435.90785057   -41500.10975186
  entropy T*S    EENTRO =        -0.06174793
  eigenvalues    EBANDS =     -4594.12321613
  atomic energy  EATOM  =     13537.65479391
  Solvation  Ediel_sol  =         0.00000000
  ---------------------------------------------------
  free energy    TOTEN  =      -829.60153266 eV

  energy without entropy =     -829.53978473  energy(sigma->0) =     -829.57065869


--------------------------------------------------------------------------------------------------------




--------------------------------------- Iteration      1(  16)  ---------------------------------------


    POTLOK:  cpu time      0.3194: real time      0.3194
    SETDIJ:  cpu time      0.0401: real time      0.0401
     EDDAV:  cpu time     10.3137: real time     10.3175
       DOS:  cpu time      0.0008: real time      0.0008
    CHARGE:  cpu time      1.1663: real time      1.1680
    MIXING:  cpu time      0.3417: real time      0.3418
    --------------------------------------------
      LOOP:  cpu time     12.1819: real time     12.1875

 eigenvalue-minimisations  :  1600
 total energy-change (2. order) :-0.9359408E-02  (-0.5773475E-04)
 number of electron     368.0000010 magnetization 
 augmentation part        9.1483049 magnetization 

 Broyden mixing:
  rms(total) = 0.19987E-02    rms(broyden)= 0.19986E-02
  rms(prec ) = 0.25462E-02
  weight for this iteration     100.00

 eigenvalues of (default mixing * dielectric matrix)
  average eigenvalue GAMMA=   2.3419
  7.9668  4.1170  2.4046  2.4046  1.8985  1.4744  1.4744  0.9246  0.9769  1.0594
  1.0594

 Free energy of the ion-electron system (eV)
  ---------------------------------------------------
  alpha Z        PSCENC =        91.34886789
  Ewald energy   TEWEN  =    120086.78761059
  -Hartree energ DENC   =   -131171.11799157
  -exchange      EXHF   =         0.00000000
  -V(xc)+E(xc)   XCENC  =      1280.24187856
  PAW double counting   =     41427.56641082   -41491.76530765
  entropy T*S    EENTRO =        -0.06170827
  eigenvalues    EBANDS =     -4590.26544634
  atomic energy  EATOM  =     13537.65479391
  Solvation  Ediel_sol  =         0.00000000
  ---------------------------------------------------
  free energy    TOTEN  =      -829.61089207 eV

  energy without entropy =     -829.54918380  energy(sigma->0) =     -829.58003793


--------------------------------------------------------------------------------------------------------




--------------------------------------- Iteration      1(  17)  ---------------------------------------


    POTLOK:  cpu time      0.3221: real time      0.3220
    SETDIJ:  cpu time      0.0403: real time      0.0404
     EDDAV:  cpu time     10.3500: real time     10.3543
       DOS:  cpu time      0.0007: real time      0.0007
    CHARGE:  cpu time      1.1599: real time      1.1608
    MIXING:  cpu time      0.3488: real time      0.3501
    --------------------------------------------
      LOOP:  cpu time     12.2219: real time     12.2282

 eigenvalue-minimisations  :  1608
 total energy-change (2. order) :-0.4428260E-02  (-0.2436275E-04)
 number of electron     368.0000010 magnetization 
 augmentation part        9.1481693 magnetization 

 Broyden mixing:
  rms(total) = 0.11131E-02    rms(broyden)= 0.11131E-02
  rms(prec ) = 0.14289E-02
  weight for this iteration     100.00

 eigenvalues of (default mixing * dielectric matrix)
  average eigenvalue GAMMA=   2.3743
  8.3910  4.5961  2.4726  2.4726  2.0320  1.4228  1.4228  1.4358  1.3026  0.9681
  0.9877  0.9877

 Free energy of the ion-electron system (eV)
  ---------------------------------------------------
  alpha Z        PSCENC =        91.34886789
  Ewald energy   TEWEN  =    120086.78761059
  -Hartree energ DENC   =   -131173.30291074
  -exchange      EXHF   =         0.00000000
  -V(xc)+E(xc)   XCENC  =      1280.24440887
  PAW double counting   =     41433.48996656   -41497.68710426
  entropy T*S    EENTRO =        -0.06170718
  eigenvalues    EBANDS =     -4588.08924597
  atomic energy  EATOM  =     13537.65479391
  Solvation  Ediel_sol  =         0.00000000
  ---------------------------------------------------
  free energy    TOTEN  =      -829.61532033 eV

  energy without entropy =     -829.55361315  energy(sigma->0) =     -829.58446674


--------------------------------------------------------------------------------------------------------




--------------------------------------- Iteration      1(  18)  ---------------------------------------


    POTLOK:  cpu time      0.3198: real time      0.3196
    SETDIJ:  cpu time      0.0402: real time      0.0402
     EDDAV:  cpu time     10.3495: real time     10.3532
       DOS:  cpu time      0.0008: real time      0.0008
    CHARGE:  cpu time      1.1524: real time      1.1545
    MIXING:  cpu time      0.3608: real time      0.3608
    --------------------------------------------
      LOOP:  cpu time     12.2234: real time     12.2291

 eigenvalue-minimisations  :  1608
 total energy-change (2. order) :-0.2206247E-02  (-0.8796164E-05)
 number of electron     368.0000010 magnetization 
 augmentation part        9.1481199 magnetization 

 Broyden mixing:
  rms(total) = 0.55700E-03    rms(broyden)= 0.55692E-03
  rms(prec ) = 0.74194E-03
  weight for this iteration     100.00

 eigenvalues of (default mixing * dielectric matrix)
  average eigenvalue GAMMA=   2.4123
  8.8614  5.0578  2.8725  2.5796  1.9191  1.9191  1.4724  1.4724  0.9505  0.9505
  1.0052  1.1498  1.1498

 Free energy of the ion-electron system (eV)
  ---------------------------------------------------
  alpha Z        PSCENC =        91.34886789
  Ewald energy   TEWEN  =    120086.78761059
  -Hartree energ DENC   =   -131174.12053298
  -exchange      EXHF   =         0.00000000
  -V(xc)+E(xc)   XCENC  =      1280.24355834
  PAW double counting   =     41432.18009932   -41496.37682850
  entropy T*S    EENTRO =        -0.06171090
  eigenvalues    EBANDS =     -4587.27338425
  atomic energy  EATOM  =     13537.65479391
  Solvation  Ediel_sol  =         0.00000000
  ---------------------------------------------------
  free energy    TOTEN  =      -829.61752657 eV

  energy without entropy =     -829.55581568  energy(sigma->0) =     -829.58667112


--------------------------------------------------------------------------------------------------------




--------------------------------------- Iteration      1(  19)  ---------------------------------------


    POTLOK:  cpu time      0.3220: real time      0.3221
    SETDIJ:  cpu time      0.0401: real time      0.0402
     EDDAV:  cpu time      9.1296: real time      9.1331
       DOS:  cpu time      0.0008: real time      0.0008
    CHARGE:  cpu time      1.1529: real time      1.1553
    MIXING:  cpu time      0.3729: real time      0.3727
    --------------------------------------------
      LOOP:  cpu time     11.0183: real time     11.0241

 eigenvalue-minimisations  :  1360
 total energy-change (2. order) :-0.9930941E-03  (-0.3287246E-05)
 number of electron     368.0000010 magnetization 
 augmentation part        9.1481363 magnetization 

 Broyden mixing:
  rms(total) = 0.38134E-03    rms(broyden)= 0.38132E-03
  rms(prec ) = 0.46131E-03
  weight for this iteration     100.00

 eigenvalues of (default mixing * dielectric matrix)
  average eigenvalue GAMMA=   2.4285
  8.9661  5.5736  3.1750  2.4450  2.4450  1.8894  1.4565  1.4565  1.3037  1.3037
  0.9474  1.0283  1.0042  1.0042

 Free energy of the ion-electron system (eV)
  ---------------------------------------------------
  alpha Z        PSCENC =        91.34886789
  Ewald energy   TEWEN  =    120086.78761059
  -Hartree energ DENC   =   -131174.42797013
  -exchange      EXHF   =         0.00000000
  -V(xc)+E(xc)   XCENC  =      1280.24120420
  PAW double counting   =     41431.07192814   -41495.26750295
  entropy T*S    EENTRO =        -0.06170366
  eigenvalues    EBANDS =     -4586.96574766
  atomic energy  EATOM  =     13537.65479391
  Solvation  Ediel_sol  =         0.00000000
  ---------------------------------------------------
  free energy    TOTEN  =      -829.61851967 eV

  energy without entropy =     -829.55681601  energy(sigma->0) =     -829.58766784


--------------------------------------------------------------------------------------------------------




--------------------------------------- Iteration      1(  20)  ---------------------------------------


    POTLOK:  cpu time      0.3192: real time      0.3193
    SETDIJ:  cpu time      0.0402: real time      0.0402
     EDDAV:  cpu time      9.2187: real time      9.2222
       DOS:  cpu time      0.0008: real time      0.0008
    CHARGE:  cpu time      1.1551: real time      1.1560
    MIXING:  cpu time      0.3859: real time      0.3860
    --------------------------------------------
      LOOP:  cpu time     11.1199: real time     11.1245

 eigenvalue-minimisations  :  1376
 total energy-change (2. order) :-0.3673542E-03  (-0.5708195E-06)
 number of electron     368.0000010 magnetization 
 augmentation part        9.1481154 magnetization 

 Broyden mixing:
  rms(total) = 0.20627E-03    rms(broyden)= 0.20626E-03
  rms(prec ) = 0.25273E-03
  weight for this iteration     100.00

 eigenvalues of (default mixing * dielectric matrix)
  average eigenvalue GAMMA=   2.4734
  9.2568  5.9976  3.8235  2.5742  2.3812  2.0179  1.5163  1.5163  1.5681  1.1842
  1.1842  0.9745  0.9745  1.0441  1.0881

 Free energy of the ion-electron system (eV)
  ---------------------------------------------------
  alpha Z        PSCENC =        91.34886789
  Ewald energy   TEWEN  =    120086.78761059
  -Hartree energ DENC   =   -131174.60173322
  -exchange      EXHF   =         0.00000000
  -V(xc)+E(xc)   XCENC  =      1280.24145502
  PAW double counting   =     41431.77941983   -41495.97548256
  entropy T*S    EENTRO =        -0.06170653
  eigenvalues    EBANDS =     -4586.79211194
  atomic energy  EATOM  =     13537.65479391
  Solvation  Ediel_sol  =         0.00000000
  ---------------------------------------------------
  free energy    TOTEN  =      -829.61888702 eV

  energy without entropy =     -829.55718049  energy(sigma->0) =     -829.58803375


--------------------------------------------------------------------------------------------------------




--------------------------------------- Iteration      1(  21)  ---------------------------------------


    POTLOK:  cpu time      0.3198: real time      0.3198
    SETDIJ:  cpu time      0.0402: real time      0.0402
     EDDAV:  cpu time      8.7023: real time      8.7057
       DOS:  cpu time      0.0007: real time      0.0008
    CHARGE:  cpu time      1.1647: real time      1.1656
    MIXING:  cpu time      0.3958: real time      0.3959
    --------------------------------------------
      LOOP:  cpu time     10.6236: real time     10.6280

 eigenvalue-minimisations  :  1272
 total energy-change (2. order) :-0.2034814E-03  (-0.2703762E-06)
 number of electron     368.0000010 magnetization 
 augmentation part        9.1481191 magnetization 

 Broyden mixing:
  rms(total) = 0.95055E-04    rms(broyden)= 0.95043E-04
  rms(prec ) = 0.11752E-03
  weight for this iteration     100.00

 eigenvalues of (default mixing * dielectric matrix)
  average eigenvalue GAMMA=   2.4366
  9.2318  6.2264  3.9283  2.5335  2.5335  2.2183  1.8407  1.4689  1.4689  1.2895
  1.2895  1.0853  1.0073  1.0073  0.9281  0.9281

 Free energy of the ion-electron system (eV)
  ---------------------------------------------------
  alpha Z        PSCENC =        91.34886789
  Ewald energy   TEWEN  =    120086.78761059
  -Hartree energ DENC   =   -131174.68328992
  -exchange      EXHF   =         0.00000000
  -V(xc)+E(xc)   XCENC  =      1280.24057638
  PAW double counting   =     41430.81298813   -41495.00920672
  entropy T*S    EENTRO =        -0.06170939
  eigenvalues    EBANDS =     -4586.70972137
  atomic energy  EATOM  =     13537.65479391
  Solvation  Ediel_sol  =         0.00000000
  ---------------------------------------------------
  free energy    TOTEN  =      -829.61909050 eV

  energy without entropy =     -829.55738112  energy(sigma->0) =     -829.58823581


[...]
   -.188E+02 -.963E+01 0.136E+03   0.191E+02 0.907E+01 -.137E+03   0.457E+00 -.576E+00 0.834E+00   0.191E-05 -.227E-05 0.155E-05
   -.625E+01 -.193E+02 0.176E+02   0.686E+01 0.206E+02 -.173E+02   -.327E+00 0.120E+00 -.242E+00   0.201E-05 -.389E-05 0.641E-06
   -.213E+02 0.941E+01 0.131E+03   0.212E+02 -.896E+01 -.131E+03   -.125E+00 0.104E+01 -.104E+00   0.332E-05 0.238E-05 0.121E-05
   0.572E+01 0.798E+01 0.100E+02   -.600E+01 -.825E+01 -.968E+01   -.392E+00 -.658E+00 -.138E+01   -.925E-06 -.122E-05 -.267E-06
   -.187E+02 -.125E+02 0.101E+03   0.190E+02 0.127E+02 -.102E+03   -.583E+00 -.379E+00 0.272E+00   0.422E-05 -.114E-05 0.179E-05
   -.770E+01 -.962E+01 0.329E+02   0.843E+01 0.101E+02 -.331E+02   -.302E+00 0.772E+00 0.138E+01   -.253E-05 -.124E-05 -.100E-06
   -.146E+02 0.125E+02 0.104E+03   0.138E+02 -.133E+02 -.106E+03   -.148E+01 -.797E+00 0.188E+01   0.303E-05 0.454E-06 0.204E-05
   0.325E+01 0.719E+01 0.739E+01   -.397E+01 -.707E+01 -.787E+01   -.735E+00 -.109E+00 0.476E-01   0.196E-05 0.656E-06 0.103E-05
   0.631E+01 0.238E+00 -.140E+02   -.611E+01 -.143E+01 0.144E+02   0.142E+01 -.107E+01 -.104E+01   -.103E-05 0.521E-05 -.576E-06
   0.110E+02 -.761E+01 -.283E+02   -.116E+02 0.818E+01 0.284E+02   -.100E-01 0.324E+00 -.482E+00   -.561E-05 -.145E-05 -.104E-05
   0.371E+01 0.108E+02 -.424E+02   -.339E+01 -.107E+02 0.428E+02   0.614E+00 0.647E+00 -.564E+00   -.111E-04 -.582E-06 -.305E-05
   -.566E+00 0.230E+01 -.368E+02   0.178E+01 -.154E+01 0.374E+02   0.109E+01 0.995E-01 -.132E+01   -.105E-04 -.346E-05 -.244E-05
   -.942E+01 -.137E+02 0.544E+01   0.102E+02 0.134E+02 -.623E+01   -.644E+00 -.110E+01 0.256E+01   -.897E-05 0.928E-06 -.304E-05
   0.492E+01 -.976E+01 0.433E+01   -.523E+01 0.111E+02 -.533E+01   -.135E+00 0.107E+01 0.223E+01   -.175E-06 -.629E-06 -.999E-06
   0.248E+02 0.125E+02 -.131E+03   -.252E+02 -.130E+02 0.132E+03   0.263E+00 0.334E+00 -.195E+01   0.122E-05 0.104E-05 -.325E-06
   0.745E+01 0.109E+02 -.540E+02   -.803E+01 -.126E+02 0.538E+02   0.277E+00 -.618E+00 -.459E+00   0.129E-05 0.189E-05 -.125E-05
   0.820E+01 -.186E+02 -.977E+02   -.836E+01 0.203E+02 0.973E+02   -.247E+00 0.488E+00 0.697E+00   0.220E-05 -.101E-05 -.104E-05
   -.148E+01 -.135E+02 -.841E+02   0.142E+01 0.151E+02 0.836E+02   0.127E+00 0.789E+00 0.385E+00   -.165E-05 0.112E-05 -.207E-05
   -.483E+01 0.128E+02 -.149E+03   0.527E+01 -.142E+02 0.150E+03   0.179E+00 -.867E-01 -.123E+01   -.276E-05 0.104E-05 -.154E-05
   -.854E+01 0.386E+01 -.703E+02   0.847E+01 -.382E+01 0.701E+02   0.185E+00 -.203E+00 0.411E+00   0.161E-05 -.263E-05 -.185E-05
   -.143E+02 -.174E+02 -.111E+03   0.147E+02 0.185E+02 0.111E+03   -.643E+00 -.416E+00 0.657E-02   0.961E-07 0.156E-05 -.105E-05
   -.149E+02 -.288E+01 -.678E+02   0.142E+02 0.237E+01 0.684E+02   -.525E+00 -.666E+00 -.568E+00   0.753E-05 0.193E-05 -.318E-05
   -.298E+02 0.874E+01 -.103E+03   0.297E+02 -.101E+02 0.104E+03   -.178E+01 -.108E+01 -.673E+00   0.413E-05 -.918E-06 -.123E-05
   -.119E+02 0.730E+01 0.294E+02   0.130E+02 -.797E+01 -.303E+02   0.163E+00 0.492E+00 0.606E+00   0.493E-05 -.375E-05 -.108E-05
   -.167E+02 -.208E+02 -.171E+02   0.175E+02 0.224E+02 0.166E+02   0.240E+00 0.139E+01 0.850E+00   0.962E-06 -.538E-05 0.425E-07
   -.969E+01 0.249E+01 0.630E+02   0.967E+01 -.191E+01 -.633E+02   0.239E+00 0.157E+01 0.207E-02   -.943E-05 -.578E-05 0.509E-05
   -.342E+02 -.484E+01 -.502E+02   0.340E+02 0.480E+01 0.515E+02   -.955E+00 -.536E+00 -.220E+01   -.351E-05 0.116E-06 0.346E-05
   -.391E+00 0.621E+02 0.117E+03   -.848E+00 -.633E+02 -.117E+03   0.108E+01 0.173E+01 -.599E+00   -.335E-05 -.555E-05 0.194E-05
   0.141E+02 -.651E+02 0.133E+03   -.162E+02 0.663E+02 -.134E+03   0.324E+01 -.116E+01 0.226E+01   0.338E-06 0.338E-05 0.100E-05
   -.112E+02 0.649E+02 -.974E+02   0.131E+02 -.653E+02 0.984E+02   -.232E+01 0.236E+01 -.159E+01   0.206E-05 -.213E-05 -.662E-06
   0.665E+01 -.653E+02 -.407E+02   -.428E+01 0.662E+02 0.400E+02   -.615E+00 -.870E+00 0.163E+01   0.104E-05 -.124E-05 -.332E-06
   0.812E+01 0.105E+01 0.394E+01   -.690E+01 -.125E+01 -.482E+01   0.194E+00 0.415E+00 0.439E+00   -.270E-06 -.231E-05 -.613E-06
   0.512E+01 -.999E+01 -.468E+02   -.519E+01 0.110E+02 0.473E+02   -.889E+00 0.314E+00 -.105E+01   0.302E-05 0.177E-05 -.149E-05
   0.245E+02 0.157E+02 0.334E+02   -.264E+02 -.162E+02 -.334E+02   -.162E+00 -.675E+00 0.140E+01   -.259E-05 0.483E-05 0.149E-05
   0.876E+01 -.123E+02 -.344E+02   -.983E+01 0.125E+02 0.353E+02   -.118E+01 -.283E+00 -.697E+00   0.466E-06 -.288E-05 -.595E-06
   0.190E+01 0.387E+01 0.449E+02   -.483E+00 -.567E+01 -.452E+02   0.882E+00 -.128E+01 -.176E+01   -.429E-05 0.498E-05 0.218E-05
   -.545E+01 0.515E+01 0.450E+02   0.715E+01 -.496E+01 -.459E+02   0.473E+00 0.302E+00 0.667E+00   -.484E-05 -.471E-05 0.176E-05
   0.597E+01 0.160E+02 0.870E+02   -.557E+01 -.164E+02 -.866E+02   -.919E+00 0.112E+01 -.621E+00   0.148E-05 -.792E-06 0.640E-06
   0.156E+02 -.118E+02 0.114E+03   -.156E+02 0.120E+02 -.114E+03   -.722E-01 0.872E+00 0.818E+00   -.642E-06 0.278E-05 0.104E-05
   0.150E+02 -.126E+02 0.169E+03   -.161E+02 0.125E+02 -.170E+03   -.101E+01 0.992E+00 0.219E+01   0.363E-05 -.101E-05 0.104E-05
   0.795E+01 0.147E+02 0.136E+03   -.813E+01 -.161E+02 -.136E+03   -.848E-01 -.670E+00 0.632E+00   0.102E-05 0.207E-05 0.127E-05
   -.941E+01 0.554E+01 0.130E+03   0.108E+02 -.572E+01 -.130E+03   0.999E+00 0.120E+00 -.473E+00   -.359E-06 -.141E-05 0.118E-05
   -.568E+01 -.879E+01 0.969E+02   0.579E+01 0.935E+01 -.967E+02   0.196E+00 0.279E+00 -.873E+00   0.184E-05 0.377E-06 0.158E-05
   -.171E+02 -.239E+02 0.154E+03   0.172E+02 0.252E+02 -.154E+03   -.269E+00 0.337E+00 0.571E+00   0.476E-05 -.149E-05 0.191E-05
   -.120E+01 0.198E+02 0.107E+03   0.926E+00 -.211E+02 -.107E+03   0.862E-01 -.410E+00 0.917E+00   0.715E-05 0.839E-06 0.252E-05
   0.216E+01 0.880E+01 0.120E+03   -.400E+01 -.894E+01 -.121E+03   -.117E+01 -.113E+00 0.620E-02   0.967E-05 0.257E-05 0.269E-05
   0.375E+01 -.507E+01 0.365E+02   -.434E+01 0.522E+01 -.360E+02   0.368E+00 0.426E-02 -.156E+01   0.800E-05 -.715E-06 0.111E-05
   -.328E+02 -.359E+01 0.123E+03   0.345E+02 0.255E+01 -.123E+03   0.675E+00 -.161E+00 0.104E+01   -.113E-05 0.287E-05 -.587E-07
   -.512E+01 0.153E+02 0.395E+02   0.560E+01 -.163E+02 -.396E+02   0.288E+00 -.391E+00 0.142E+01   0.247E-05 0.281E-05 0.890E-06
   0.369E+00 0.154E+02 0.304E+02   -.452E+00 -.158E+02 -.305E+02   0.487E+00 -.463E+00 0.909E-01   -.203E-06 0.194E-05 -.560E-07
   0.148E+02 -.731E+01 -.266E+02   -.158E+02 0.694E+01 0.266E+02   -.193E+00 -.832E+00 -.793E+00   -.419E-06 0.311E-05 -.179E-06
   0.136E+02 -.187E+02 -.317E+01   -.147E+02 0.204E+02 0.339E+01   0.578E+00 0.709E+00 -.110E+01   0.406E-05 -.383E-05 0.713E-06
   0.133E+02 0.101E+02 -.572E+02   -.125E+02 -.101E+02 0.579E+02   0.292E+00 0.639E+00 -.955E+00   -.165E-05 -.110E-05 -.404E-06
   0.104E+02 0.723E+01 -.366E+02   -.103E+02 -.721E+01 0.368E+02   0.411E+00 0.221E+00 0.532E+00   -.467E-05 -.209E-05 -.146E-05
   0.139E+02 -.101E+02 -.604E+02   -.141E+02 0.102E+02 0.607E+02   -.467E+00 -.176E+00 -.717E+00   -.343E-05 0.788E-06 -.970E-06
   -.146E+01 -.204E+02 -.647E+02   0.264E+01 0.213E+02 0.650E+02   0.109E+00 0.129E+00 0.756E+00   -.777E-05 -.494E-05 -.281E-05
   -.562E+00 0.188E+02 -.285E+02   0.127E+01 -.201E+02 0.284E+02   -.392E+00 -.249E+00 0.115E+01   -.576E-05 0.561E-05 -.178E-05
   0.420E+02 0.209E+02 -.146E+03   -.435E+02 -.221E+02 0.147E+03   -.849E+00 -.251E+00 -.153E+01   -.353E-05 -.672E-06 -.130E-05
   0.225E+02 -.162E+02 -.985E+02   -.225E+02 0.173E+02 0.984E+02   -.261E+00 0.681E+00 0.230E+00   -.534E-05 0.180E-05 -.186E-05
   0.194E+02 -.584E+01 -.167E+03   -.185E+02 0.620E+01 0.167E+03   -.500E+00 0.750E-01 0.498E+00   -.183E-05 0.260E-07 -.123E-05
   0.307E+02 0.109E+02 -.146E+03   -.321E+02 -.117E+02 0.146E+03   -.509E+00 -.202E+00 -.123E+01   -.169E-05 0.812E-07 -.119E-05
   0.148E+02 0.627E+01 -.208E+03   -.151E+02 -.583E+01 0.209E+03   -.566E+00 -.270E+00 -.700E+00   0.575E-06 -.277E-05 -.219E-05
   0.118E+02 -.186E+01 -.226E+03   -.107E+02 0.867E+00 0.227E+03   0.272E+00 -.125E+01 -.713E+00   -.116E-05 0.211E-05 -.208E-05
   -.323E+01 -.135E+02 -.148E+03   0.338E+01 0.149E+02 0.148E+03   0.269E+00 0.828E+00 0.178E+01   -.850E-06 -.265E-05 -.226E-05
   -.165E+01 0.173E+02 -.201E+03   0.125E+01 -.191E+02 0.201E+03   -.468E+00 -.810E+00 -.784E-01   -.146E-05 0.198E-05 -.215E-05
   -.218E+02 0.144E+02 -.210E+03   0.218E+02 -.149E+02 0.210E+03   0.578E+00 -.185E+00 -.136E+01   0.108E-05 -.488E-05 -.219E-05
   -.228E+02 -.652E+01 -.227E+03   0.233E+02 0.658E+01 0.228E+03   0.317E+00 -.381E+00 -.129E+01   0.199E-05 0.299E-05 -.181E-05
   -.190E+02 -.107E+02 -.131E+03   0.188E+02 0.121E+02 0.131E+03   0.975E+00 -.266E+00 0.888E+00   0.291E-05 0.131E-05 -.106E-05
   -.196E+02 0.775E+01 -.125E+03   0.184E+02 -.768E+01 0.125E+03   0.237E+00 0.400E+00 0.952E+00   0.709E-05 0.618E-06 -.276E-05
   -.434E+02 0.292E+02 -.136E+03   0.438E+02 -.310E+02 0.137E+03   0.125E+00 -.514E+00 0.712E-01   0.119E-05 0.425E-05 -.303E-07
   -.361E+02 -.164E+02 -.135E+03   0.364E+02 0.172E+02 0.135E+03   0.991E+00 0.334E+00 -.124E+01   0.709E-05 0.311E-05 -.282E-05
   -.389E+02 0.136E+02 -.126E+03   0.383E+02 -.141E+02 0.127E+03   -.684E+00 -.769E+00 -.119E+01   -.281E-05 -.325E-06 0.221E-05
   -.301E+02 0.216E+01 -.522E+02   0.293E+02 -.261E+01 0.519E+02   0.139E+01 0.886E+00 0.622E+00   -.886E-05 0.588E-05 0.120E-05
   -.336E+02 0.643E+02 -.605E+02   0.312E+02 -.652E+02 0.612E+02   0.108E+01 0.105E+01 0.141E+01   0.457E-06 -.210E-05 0.690E-06
   -.557E+02 -.693E+02 -.113E+03   0.552E+02 0.696E+02 0.115E+03   0.139E+01 -.225E+01 -.311E+01   -.661E-05 0.294E-05 0.154E-05
 -----------------------------------------------------------------------------------------------
   0.403E+00 -.660E+00 0.806E+00   -.213E-12 0.128E-12 0.199E-12   -.361E+00 0.647E+00 -.836E+00   0.146E-05 -.480E-05 -.658E-05
 
 
 POSITION                                       TOTAL-FORCE (eV/Angst)
 -----------------------------------------------------------------------------------
      0.07746      0.82638     16.13700        -1.043998      0.144396      0.502361
      0.06417      2.20554     16.20760         0.252106     -0.580634     -0.970522
      1.28115      0.16650     16.08410         0.497700     -1.538673      0.324747
      1.27756      2.86564     16.00500        -0.696709      0.027341     -0.249222
      2.47645      0.82450     15.75470         0.978267     -0.389363      0.141306
      2.45901      2.19919     15.57820         0.200651     -0.463069      0.872329
      3.75158      0.15879     15.79730         0.404152      0.789058     -1.263674
      3.71484      2.82082     15.46300        -0.225168      1.702881      0.714560
      5.00270      0.84035     15.55100        -2.065642     -4.958991     -0.190518
      4.94628      2.11745     15.35300         0.912073      5.369615      0.003008
      6.20818      0.15415     15.35210         1.387240      1.133468      0.811629
      6.23075      2.77638     15.28350        -1.088173      0.910321     -1.456891
      7.46360      0.83040     15.35570         1.102451     -2.473985     -0.891863
      7.46606      2.16055     15.18210         0.963103      0.706106      1.141349
      8.75042      0.15195     15.43510        -1.760665      1.447269      0.635420
      8.72567      2.83869     15.25340         0.381728     -0.018155     -0.289075
      9.95789      0.82930     15.70360        -0.106810      1.059304     -0.987987
      9.96790      2.20539     15.48380         0.765700     -1.138933      0.664349
     11.16200      0.19907     16.04550         0.285856      1.437625      0.039597
     11.22080      2.84639     15.71650        -0.256123      1.489599     -0.174662
     12.40180      0.88073     16.31230        -0.677561     -0.927059     -1.055365
     12.44390      2.23272     16.09120        -0.322890     -0.109227      0.047913
     13.58480      0.17781     16.62020         0.427649      1.303166      1.185472
     13.65410      2.92232     16.43680        -2.202991     -1.630230      0.374591
     14.79600      0.86739     16.94970        -1.463109      0.020611     -0.432539
     14.74730      2.26318     16.94980         1.623481     -2.256836     -0.665748
     15.96660      0.19195     17.32430        -0.537342      0.884967     -0.424821
     15.92950      2.88951     17.34690         0.931738      0.745642     -0.077134
     17.14750      0.85870     17.57810         2.302880      0.851809     -0.685888
     17.17350      2.25923     17.54580         0.122349     -1.435182      1.771426
     18.39100      0.17208     17.78830        -0.448549      2.437088      1.231516
     18.34820      2.88730     18.07570        -0.103777     -0.246586     -1.437081
     19.59750      0.88219     18.02040        -0.307706     -2.325564     -0.646284
     19.59020      2.21047     18.13520        -0.405261      2.182977      0.313940
     20.82300      0.20150     18.17280         0.070636      2.452711     -0.152587
     20.81040      2.89784     18.32020         0.619421     -1.449021     -0.730113
     22.04450      0.88115     18.05050         0.121889     -0.161794      0.190067
     22.06680      2.24410     18.14820        -0.206719      0.660890     -0.312891
     23.25130      0.19910     17.87970        -1.166246     -1.176007      0.051802
     23.31880      2.91428     17.99330        -1.916463     -2.461333     -0.276372
     24.38840      0.81564     17.41940         1.222530     -0.177836     -0.300848
     24.43570      2.16520     17.52860         1.036282      3.054599      0.405025
     25.56270      0.08962     17.06420         0.218196      2.150820     -0.247345
     25.67920      2.86994     17.30820        -1.131983     -0.574132     -0.911563
     26.65760      0.78406     16.56810        -0.161003      0.557025     -0.656854
     26.63390      2.18640     16.57650         1.186648      0.018412      0.982342
      0.27359      4.83911     16.87550        -0.398033      1.885262     -0.634205
      0.22817      6.24050     16.80140         1.756360      0.029454      0.927911
      1.34544      4.20059     16.32560         1.418704      0.209473     -0.447787
      1.39706      6.90390     16.44470        -0.958382      1.313865     -0.573784
      2.59423      4.89324     16.02630        -2.123481     -1.086367      1.414160
      2.63250      6.24271     16.16660        -2.247433     -0.053382      0.133346
      3.74706      4.22662     15.72190         2.296391     -3.075609     -1.967023
      3.77794      6.88187     15.79870         2.164702      0.495451     -0.151260
      5.02094      4.81562     15.46780        -0.528032      0.741582     -0.260981
      5.00007      6.19104     15.45460        -0.082221      1.110288      0.751251
      6.26022      4.14055     15.19660        -2.146759      0.843054      1.226298
      6.22585      6.90708     15.30790        -0.262639     -2.029067      0.538887
      7.45076      4.84709     15.25200         2.433731     -0.063037     -0.261491
      7.46284      6.21875     15.35020         0.300077      0.836930     -0.672787
      8.74569      4.19810     15.27260        -0.115618      1.619559      0.297199
      8.71996      6.90503     15.45450        -0.183461     -1.666473      0.800682
     10.00810      4.89646     15.55360        -3.009643     -0.245164     -0.372954
      9.94879      6.25565     15.74980        -0.228386      0.146057     -1.037709
     11.18980      4.25297     15.75300         2.368357     -1.199114      0.997050
     11.14030      6.95027     16.03310         0.772140     -1.368761      1.237303
     12.35000      4.92688     16.28220         0.403323     -0.923926      0.010165
     12.34250      6.29404     16.44520        -1.261466     -1.207123     -0.786513
     13.56190      4.24163     16.64640        -0.459386      2.377780     -0.874407
     13.52710      6.92208     16.81200         1.063811      0.657094     -0.261289
     14.72750      4.90428     17.08800         0.558639      0.233656      0.770277
     14.74620      6.27770     17.14950        -0.641425     -0.099177     -0.350217
     15.92070      4.24983     17.45080         1.289993      0.957830      1.014533
     15.96710      6.93751     17.38700         0.311268     -1.543106      1.010983
     17.15190      4.92295     17.96360        -2.382047     -1.517334     -1.329618
     17.15950      6.26486     17.85180        -0.256262      1.819973      0.120624
     18.34980      4.25313     18.23760         0.415080      0.441151      0.493940
     18.38380      6.96555     18.14330        -1.938271     -0.910747     -1.004649
     19.57720      4.94260     18.49920        -0.875512      0.170401     -0.218170
     19.56230      6.35444     18.50850         1.346690     -2.240854     -0.000153
     20.80040      4.24071     18.41620         0.420212      2.177993      1.501200
     20.82780      7.01165     18.47930        -0.873617     -2.652925      0.305843
     22.04570      4.92804     18.48960         0.578784     -0.731236     -0.765168
     22.04770      6.31330     18.51110         0.879386     -0.326671     -0.649537
     23.27370      4.25837     18.14980         0.714360      1.139334      0.827866
     23.26010      6.93453     18.10650        -0.955988      0.464550      0.645004
     24.51310      4.92252     17.94620         0.476692     -2.267677      0.381797
     24.45680      6.25614     17.91740         1.347840      1.109604     -0.622736
     25.75540      4.24236     17.59410        -1.254934     -1.299010     -0.420885
     25.62880      6.88303     17.42610         0.559700      0.438926      0.361309
     26.90400      4.89522     17.23350        -1.332151      0.154607      2.123180
     26.85450      6.28763     17.31160         0.919074     -1.912200     -1.144386
 -----------------------------------------------------------------------------------
    total drift:                                0.041176     -0.012321     -0.029509


--------------------------------------------------------------------------------------------------------



  FREE ENERGIE OF THE ION-ELECTRON SYSTEM (eV)
  ---------------------------------------------------
  free  energy   TOTEN  =      -829.61919028 eV

  energy  without entropy=     -829.55748203  energy(sigma->0) =     -829.58833615
 


--------------------------------------------------------------------------------------------------------


    POTLOK:  cpu time      0.4539: real time      0.4539


--------------------------------------------------------------------------------------------------------


     LOOP+:  cpu time    332.9504: real time    333.1402
    4ORBIT:  cpu time      0.0000: real time      0.0000

 total amount of memory used by VASP MPI-rank0  2294494. kBytes
=======================================================================

   base                                    :      30000. kBytes
   nonlr-proj                              :      15060. kBytes
   fftplans                                :     436558. kBytes
   grid                                    :     732614. kBytes
   one-center                              :        282. kBytes
   wavefun                                 :    1079980. kBytes
 
  
  
 General timing and accounting informations for this job:
 ========================================================
  
                  Total CPU time used (sec):      366.288
                            User time (sec):      357.756
                          System time (sec):        8.532
                         Elapsed time (sec):      366.568
  
                   Maximum memory used (kb):     3737276.
                   Average memory used (kb):          N/A
  
                          Minor page faults:      3179962
                          Major page faults:         6660
                 Voluntary context switches:        10393
