unknown system                          
            1
    28.050000    0.000000    0.000000
     0.000000    8.100000    0.000000
     0.000000    0.000000   33.500000
   C 
    92
Direct configuration=     1
   0.00276166  0.10202272  0.48170149
   0.00228770  0.27228889  0.48380896
   0.04567380  0.02055568  0.48012239
   0.04554581  0.35378272  0.47776119
   0.08828699  0.10179062  0.47028955
   0.08766524  0.27150494  0.46502090
   0.13374617  0.01960370  0.47156119
   0.13243636  0.34824938  0.46158209
   0.17834938  0.10374704  0.46420896
   0.17633797  0.26141358  0.45829851
   0.22132549  0.01903086  0.45827164
   0.22213012  0.34276296  0.45622388
   0.26608200  0.10251815  0.45837910
   0.26616970  0.26673457  0.45319701
   0.31195793  0.01875938  0.46074925
   0.31107558  0.35045556  0.45532537
   0.35500499  0.10238235  0.46876418
   0.35536185  0.27227037  0.46220299
   0.39793226  0.02457605  0.47897015
   0.40002852  0.35140617  0.46914925
   0.44213191  0.10873148  0.48693433
   0.44363280  0.27564444  0.48033433
   0.48430660  0.02195210  0.49612537
   0.48677718  0.36078025  0.49065075
   0.52748663  0.10708506  0.50596119
   0.52575045  0.27940494  0.50596418
   0.56921925  0.02369790  0.51714328
   0.56789661  0.35672963  0.51781791
   0.61131907  0.10601247  0.52471940
   0.61224599  0.27891728  0.52375522
   0.65565062  0.02124407  0.53099403
   0.65412478  0.35645679  0.53957313
   0.69866310  0.10891185  0.53792239
   0.69840285  0.27289753  0.54134925
   0.74235294  0.02487667  0.54247164
   0.74190374  0.35775802  0.54687164
   0.78590018  0.10878432  0.53882090
   0.78669519  0.27704938  0.54173731
   0.82892335  0.02458012  0.53372239
   0.83132977  0.35978765  0.53711343
   0.86946168  0.10069654  0.51998209
   0.87114795  0.26730864  0.52324179
   0.91132620  0.01106423  0.50937910
   0.91547950  0.35431358  0.51666269
   0.95036007  0.09679728  0.49457015
   0.94951515  0.26992593  0.49482090
   0.00975380  0.59742099  0.50374627
   0.00813444  0.77043210  0.50153433
   0.04796578  0.51859136  0.48733134
   0.04980606  0.85233333  0.49088657
   0.09248592  0.60410370  0.47839701
   0.09385027  0.77070494  0.48258507
   0.13358503  0.52180494  0.46931045
   0.13468592  0.84961358  0.47160299
   0.17899964  0.59452099  0.46172537
   0.17825561  0.76432593  0.46133134
   0.22318075  0.51117901  0.45362985
   0.22195544  0.85272593  0.45695224
   0.26562424  0.59840617  0.45528358
   0.26605490  0.76774691  0.45821493
   0.31178930  0.51828395  0.45589851
   0.31087201  0.85247284  0.46132836
   0.35679501  0.60450123  0.46428657
   0.35468057  0.77230247  0.47014328
   0.39892335  0.52505802  0.47023881
   0.39715865  0.85805802  0.47860000
   0.44028520  0.60825679  0.48603582
   0.44001783  0.77704198  0.49090149
   0.48349020  0.52365802  0.49690746
   0.48224955  0.85457778  0.50185075
   0.52504456  0.60546667  0.51008955
   0.52571123  0.77502469  0.51192537
   0.56758289  0.52467037  0.52091940
   0.56923708  0.85648272  0.51901493
   0.61147594  0.60777160  0.53622687
   0.61174688  0.77343951  0.53288955
   0.65418182  0.52507778  0.54440597
   0.65539394  0.85994444  0.54159104
   0.69793939  0.61019753  0.55221493
   0.69740820  0.78449877  0.55249254
   0.74154724  0.52354444  0.54973731
   0.74252406  0.86563580  0.55162090
   0.78594296  0.60840000  0.55192836
   0.78601426  0.77941975  0.55257015
   0.82972193  0.52572469  0.54178507
   0.82923708  0.85611481  0.54049254
   0.87390731  0.60771852  0.53570746
   0.87190018  0.77236296  0.53484776
   0.91819608  0.52374815  0.52519701
   0.91368271  0.84975679  0.52018209
   0.95914439  0.60434815  0.51443284
   0.95737968  0.77625062  0.51676418
