  92  92   0   0
  0.8273226E+02  0.2805000E-08  0.8100000E-09  0.3350000E-08  0.5000000E-15
   1.0000000000000000E-004
  CAR 
 unknown system                          
      3.80951701    -25.18514137  301     -3.13764930      1.00000000
    -25.185  0.0000E+00  0.0000E+00
    -25.088  0.0000E+00  0.0000E+00
    -24.992  0.0000E+00  0.0000E+00
    -24.895  0.0000E+00  0.0000E+00
    -24.799  0.0000E+00  0.0000E+00
    -24.702  0.0000E+00  0.0000E+00
    -24.605  0.0000E+00  0.0000E+00
    -24.509  0.0000E+00  0.0000E+00
    -24.412  0.0000E+00  0.0000E+00
    -24.315  0.3446E-14  0.3331E-15
    -24.219  0.7113E-12  0.6908E-13
    -24.122  0.9205E-10  0.8965E-11
    -24.025  0.7567E-08  0.7403E-09
    -23.929  0.3968E-06  0.3909E-07
    -23.832  0.1334E-04  0.1329E-05
    -23.735  0.2899E-03  0.2934E-04
    -23.639  0.4108E-02  0.4264E-03
    -23.542  0.3848E-01  0.4145E-02
    -23.445  0.2418E+00  0.2752E-01
    -23.349  0.1038E+01  0.1279E+00
    -23.252  0.3108E+01  0.4282E+00
    -23.156  0.6637E+01  0.1070E+01
    -23.059  0.1043E+02  0.2078E+01
    -22.962  0.1267E+02  0.3302E+01
    -22.866  0.1311E+02  0.4570E+01
    -22.769  0.1346E+02  0.5871E+01
    -22.672  0.1488E+02  0.7309E+01
    -22.576  0.1600E+02  0.8855E+01
    -22.479  0.1525E+02  0.1033E+02
    -22.382  0.1384E+02  0.1167E+02
    -22.286  0.1372E+02  0.1299E+02
    -22.189  0.1444E+02  0.1439E+02
    -22.092  0.1451E+02  0.1579E+02
    -21.996  0.1391E+02  0.1713E+02
    -21.899  0.1349E+02  0.1844E+02
    -21.802  0.1352E+02  0.1975E+02
    -21.706  0.1359E+02  0.2106E+02
    -21.609  0.1317E+02  0.2233E+02
    -21.512  0.1207E+02  0.2350E+02
    -21.416  0.1094E+02  0.2456E+02
    -21.319  0.1106E+02  0.2562E+02
    -21.223  0.1291E+02  0.2687E+02
    -21.126  0.1526E+02  0.2835E+02
    -21.029  0.1625E+02  0.2992E+02
    -20.933  0.1512E+02  0.3138E+02
    -20.836  0.1311E+02  0.3265E+02
    -20.739  0.1235E+02  0.3384E+02
    -20.643  0.1336E+02  0.3513E+02
    -20.546  0.1420E+02  0.3650E+02
    -20.449  0.1328E+02  0.3779E+02
    -20.353  0.1179E+02  0.3893E+02
    -20.256  0.1169E+02  0.4006E+02
    -20.159  0.1313E+02  0.4132E+02
    -20.063  0.1510E+02  0.4278E+02
    -19.966  0.1647E+02  0.4438E+02
    -19.869  0.1613E+02  0.4594E+02
    -19.773  0.1441E+02  0.4733E+02
    -19.676  0.1380E+02  0.4866E+02
    -19.580  0.1553E+02  0.5016E+02
    -19.483  0.1704E+02  0.5181E+02
    -19.386  0.1572E+02  0.5333E+02
    -19.290  0.1318E+02  0.5460E+02
    -19.193  0.1233E+02  0.5580E+02
    -19.096  0.1293E+02  0.5704E+02
    -19.000  0.1321E+02  0.5832E+02
    -18.903  0.1278E+02  0.5956E+02
    -18.806  0.1269E+02  0.6078E+02
    -18.710  0.1432E+02  0.6217E+02
    -18.613  0.1734E+02  0.6384E+02
    -18.516  0.1908E+02  0.6569E+02
    -18.420  0.1808E+02  0.6744E+02
    -18.323  0.1629E+02  0.6901E+02
    -18.226  0.1582E+02  0.7054E+02
    -18.130  0.1628E+02  0.7211E+02
    -18.033  0.1619E+02  0.7368E+02
    -17.936  0.1508E+02  0.7513E+02
    -17.840  0.1379E+02  0.7647E+02
    -17.743  0.1320E+02  0.7774E+02
    -17.647  0.1307E+02  0.7901E+02
    -17.550  0.1280E+02  0.8024E+02
    -17.453  0.1210E+02  0.8141E+02
    -17.357  0.1095E+02  0.8247E+02
    -17.260  0.1009E+02  0.8345E+02
    -17.163  0.1049E+02  0.8446E+02
    -17.067  0.1169E+02  0.8559E+02
    -16.970  0.1204E+02  0.8675E+02
    -16.873  0.1104E+02  0.8782E+02
    -16.777  0.1016E+02  0.8880E+02
    -16.680  0.1081E+02  0.8985E+02
    -16.583  0.1259E+02  0.9106E+02
    -16.487  0.1421E+02  0.9244E+02
    -16.390  0.1539E+02  0.9392E+02
    -16.293  0.1670E+02  0.9554E+02
    -16.197  0.1800E+02  0.9728E+02
    -16.100  0.1813E+02  0.9903E+02
    -16.003  0.1677E+02  0.1007E+03
    -15.907  0.1496E+02  0.1021E+03
    -15.810  0.1321E+02  0.1034E+03
    -15.714  0.1161E+02  0.1045E+03
    -15.617  0.1132E+02  0.1056E+03
    -15.520  0.1307E+02  0.1069E+03
    -15.424  0.1617E+02  0.1084E+03
    -15.327  0.1938E+02  0.1103E+03
    -15.230  0.2150E+02  0.1124E+03
    -15.134  0.2189E+02  0.1145E+03
    -15.037  0.2090E+02  0.1165E+03
    -14.940  0.1918E+02  0.1184E+03
    -14.844  0.1703E+02  0.1200E+03
    -14.747  0.1446E+02  0.1214E+03
    -14.650  0.1181E+02  0.1225E+03
    -14.554  0.9922E+01  0.1235E+03
    -14.457  0.9083E+01  0.1244E+03
    -14.360  0.8855E+01  0.1252E+03
    -14.264  0.9420E+01  0.1261E+03
    -14.167  0.1149E+02  0.1273E+03
    -14.071  0.1458E+02  0.1287E+03
    -13.974  0.1678E+02  0.1303E+03
    -13.877  0.1714E+02  0.1319E+03
    -13.781  0.1683E+02  0.1336E+03
    -13.684  0.1703E+02  0.1352E+03
    -13.587  0.1752E+02  0.1369E+03
    -13.491  0.1807E+02  0.1387E+03
    -13.394  0.1918E+02  0.1405E+03
    -13.297  0.2034E+02  0.1425E+03
    -13.201  0.1969E+02  0.1444E+03
    -13.104  0.1669E+02  0.1460E+03
    -13.007  0.1353E+02  0.1473E+03
    -12.911  0.1260E+02  0.1485E+03
    -12.814  0.1361E+02  0.1498E+03
    -12.717  0.1454E+02  0.1512E+03
    -12.621  0.1445E+02  0.1526E+03
    -12.524  0.1420E+02  0.1540E+03
    -12.427  0.1510E+02  0.1555E+03
    -12.331  0.1750E+02  0.1572E+03
    -12.234  0.2050E+02  0.1591E+03
    -12.138  0.2296E+02  0.1614E+03
    -12.041  0.2394E+02  0.1637E+03
    -11.944  0.2335E+02  0.1659E+03
    -11.848  0.2200E+02  0.1681E+03
    -11.751  0.2011E+02  0.1700E+03
    -11.654  0.1755E+02  0.1717E+03
    -11.558  0.1534E+02  0.1732E+03
    -11.461  0.1507E+02  0.1746E+03
    -11.364  0.1709E+02  0.1763E+03
    -11.268  0.2018E+02  0.1782E+03
    -11.171  0.2335E+02  0.1805E+03
    -11.074  0.2677E+02  0.1831E+03
    -10.978  0.3041E+02  0.1860E+03
    -10.881  0.3342E+02  0.1892E+03
    -10.784  0.3473E+02  0.1926E+03
    -10.688  0.3413E+02  0.1959E+03
    -10.591  0.3361E+02  0.1992E+03
    -10.495  0.3521E+02  0.2026E+03
    -10.398  0.3781E+02  0.2062E+03
    -10.301  0.3869E+02  0.2099E+03
    -10.205  0.3745E+02  0.2136E+03
    -10.108  0.3611E+02  0.2171E+03
    -10.011  0.3536E+02  0.2205E+03
     -9.915  0.3413E+02  0.2238E+03
     -9.818  0.3308E+02  0.2270E+03
     -9.721  0.3466E+02  0.2303E+03
     -9.625  0.3900E+02  0.2341E+03
     -9.528  0.4268E+02  0.2382E+03
     -9.431  0.4292E+02  0.2424E+03
     -9.335  0.4029E+02  0.2463E+03
     -9.238  0.3634E+02  0.2498E+03
     -9.141  0.3207E+02  0.2529E+03
     -9.045  0.2897E+02  0.2557E+03
     -8.948  0.2871E+02  0.2584E+03
     -8.851  0.3168E+02  0.2615E+03
     -8.755  0.3610E+02  0.2650E+03
     -8.658  0.3855E+02  0.2687E+03
     -8.562  0.3687E+02  0.2723E+03
     -8.465  0.3252E+02  0.2754E+03
     -8.368  0.2890E+02  0.2782E+03
     -8.272  0.2796E+02  0.2809E+03
     -8.175  0.2869E+02  0.2837E+03
     -8.078  0.2879E+02  0.2865E+03
     -7.982  0.2755E+02  0.2891E+03
     -7.885  0.2661E+02  0.2917E+03
     -7.788  0.2739E+02  0.2944E+03
     -7.692  0.2908E+02  0.2972E+03
     -7.595  0.3016E+02  0.3001E+03
     -7.498  0.3027E+02  0.3030E+03
     -7.402  0.2985E+02  0.3059E+03
     -7.305  0.2847E+02  0.3086E+03
     -7.208  0.2559E+02  0.3111E+03
     -7.112  0.2277E+02  0.3133E+03
     -7.015  0.2222E+02  0.3155E+03
     -6.919  0.2369E+02  0.3178E+03
     -6.822  0.2538E+02  0.3202E+03
     -6.725  0.2632E+02  0.3228E+03
     -6.629  0.2625E+02  0.3253E+03
     -6.532  0.2468E+02  0.3277E+03
     -6.435  0.2217E+02  0.3298E+03
     -6.339  0.2072E+02  0.3318E+03
     -6.242  0.2093E+02  0.3338E+03
     -6.145  0.2149E+02  0.3359E+03
     -6.049  0.2225E+02  0.3381E+03
     -5.952  0.2394E+02  0.3404E+03
     -5.855  0.2543E+02  0.3428E+03
     -5.759  0.2481E+02  0.3452E+03
     -5.662  0.2195E+02  0.3474E+03
     -5.565  0.1787E+02  0.3491E+03
     -5.469  0.1348E+02  0.3504E+03
     -5.372  0.1030E+02  0.3514E+03
     -5.275  0.1000E+02  0.3524E+03
     -5.179  0.1189E+02  0.3535E+03
     -5.082  0.1275E+02  0.3547E+03
     -4.986  0.1116E+02  0.3558E+03
     -4.889  0.9328E+01  0.3567E+03
     -4.792  0.9537E+01  0.3576E+03
     -4.696  0.1155E+02  0.3588E+03
     -4.599  0.1381E+02  0.3601E+03
     -4.502  0.1495E+02  0.3615E+03
     -4.406  0.1395E+02  0.3629E+03
     -4.309  0.1088E+02  0.3639E+03
     -4.212  0.7309E+01  0.3646E+03
     -4.116  0.4612E+01  0.3651E+03
     -4.019  0.2832E+01  0.3654E+03
     -3.922  0.1913E+01  0.3655E+03
     -3.826  0.2079E+01  0.3657E+03
     -3.729  0.3086E+01  0.3660E+03
     -3.632  0.4183E+01  0.3664E+03
     -3.536  0.4517E+01  0.3669E+03
     -3.439  0.3727E+01  0.3672E+03
     -3.342  0.2578E+01  0.3675E+03
     -3.246  0.2180E+01  0.3677E+03
     -3.149  0.2678E+01  0.3680E+03
     -3.053  0.3540E+01  0.3683E+03
     -2.956  0.4368E+01  0.3687E+03
     -2.859  0.4900E+01  0.3692E+03
     -2.763  0.5144E+01  0.3697E+03
     -2.666  0.5555E+01  0.3702E+03
     -2.569  0.6294E+01  0.3708E+03
     -2.473  0.6980E+01  0.3715E+03
     -2.376  0.7446E+01  0.3722E+03
     -2.279  0.7856E+01  0.3730E+03
     -2.183  0.8324E+01  0.3738E+03
     -2.086  0.8451E+01  0.3746E+03
     -1.989  0.7527E+01  0.3753E+03
     -1.893  0.6253E+01  0.3760E+03
     -1.796  0.6914E+01  0.3766E+03
     -1.699  0.1054E+02  0.3776E+03
     -1.603  0.1535E+02  0.3791E+03
     -1.506  0.1895E+02  0.3810E+03
     -1.410  0.2084E+02  0.3830E+03
     -1.313  0.2167E+02  0.3851E+03
     -1.216  0.2169E+02  0.3872E+03
     -1.120  0.2103E+02  0.3892E+03
     -1.023  0.1975E+02  0.3911E+03
     -0.926  0.1745E+02  0.3928E+03
     -0.830  0.1442E+02  0.3942E+03
     -0.733  0.1216E+02  0.3954E+03
     -0.636  0.1181E+02  0.3965E+03
     -0.540  0.1245E+02  0.3977E+03
     -0.443  0.1229E+02  0.3989E+03
     -0.346  0.1173E+02  0.4000E+03
     -0.250  0.1290E+02  0.4013E+03
     -0.153  0.1595E+02  0.4028E+03
     -0.056  0.1866E+02  0.4046E+03
      0.040  0.1978E+02  0.4065E+03
      0.137  0.2062E+02  0.4085E+03
      0.234  0.2197E+02  0.4106E+03
      0.330  0.2201E+02  0.4128E+03
      0.427  0.1984E+02  0.4147E+03
      0.523  0.1808E+02  0.4164E+03
      0.620  0.1960E+02  0.4183E+03
      0.717  0.2409E+02  0.4207E+03
      0.813  0.2886E+02  0.4234E+03
      0.910  0.3208E+02  0.4265E+03
      1.007  0.3454E+02  0.4299E+03
      1.103  0.3774E+02  0.4335E+03
      1.200  0.4189E+02  0.4376E+03
      1.297  0.4661E+02  0.4421E+03
      1.393  0.5036E+02  0.4470E+03
      1.490  0.5062E+02  0.4518E+03
      1.587  0.4576E+02  0.4563E+03
      1.683  0.3620E+02  0.4598E+03
      1.780  0.2409E+02  0.4621E+03
      1.877  0.1276E+02  0.4633E+03
      1.973  0.5105E+01  0.4638E+03
      2.070  0.1488E+01  0.4640E+03
      2.166  0.3090E+00  0.4640E+03
      2.263  0.4498E-01  0.4640E+03
      2.360  0.4508E-02  0.4640E+03
      2.456  0.3053E-03  0.4640E+03
      2.553  0.1371E-04  0.4640E+03
      2.650  0.4021E-06  0.4640E+03
      2.746  0.7611E-08  0.4640E+03
      2.843  0.9224E-10  0.4640E+03
      2.940  0.7105E-12  0.4640E+03
      3.036  0.3446E-14  0.4640E+03
      3.133  0.0000E+00  0.4640E+03
      3.230  0.0000E+00  0.4640E+03
      3.326  0.0000E+00  0.4640E+03
      3.423  0.0000E+00  0.4640E+03
      3.520  0.0000E+00  0.4640E+03
      3.616  0.0000E+00  0.4640E+03
      3.713  0.0000E+00  0.4640E+03
      3.810  0.0000E+00  0.4640E+03
