       N       E                     dE             d eps       ncg     rms          rms(c)
DAV:   1     0.363596093275E+04    0.36360E+04   -0.11981E+05  1736   0.105E+03
DAV:   2     0.177219976138E+03   -0.34587E+04   -0.32032E+04  2120   0.237E+02
DAV:   3    -0.834998436844E+03   -0.10122E+04   -0.98726E+03  1792   0.134E+02
DAV:   4    -0.897174196289E+03   -0.62176E+02   -0.61163E+02  1712   0.428E+01
DAV:   5    -0.898709935373E+03   -0.15357E+01   -0.15143E+01  1792   0.659E+00    0.457E+01
DAV:   6    -0.848664604359E+03    0.50045E+02   -0.47606E+01  1576   0.126E+01    0.268E+01
DAV:   7    -0.829999209951E+03    0.18665E+02   -0.65937E+01  1560   0.145E+01    0.736E+00
DAV:   8    -0.829713367151E+03    0.28584E+00   -0.24837E+00  1632   0.339E+00    0.991E-01
DAV:   9    -0.829603998458E+03    0.10937E+00   -0.28575E-01  1648   0.104E+00    0.567E-01
DAV:  10    -0.829568243835E+03    0.35755E-01   -0.47966E-02  1760   0.435E-01    0.359E-01
DAV:  11    -0.829538643806E+03    0.29600E-01   -0.23521E-02  1584   0.249E-01    0.241E-01
DAV:  12    -0.829535017319E+03    0.36265E-02   -0.22510E-02  1560   0.225E-01    0.151E-01
DAV:  13    -0.829547546856E+03   -0.12530E-01   -0.86212E-03  1552   0.149E-01    0.840E-02
DAV:  14    -0.829564247750E+03   -0.16701E-01   -0.12426E-03  1584   0.707E-02    0.570E-02
DAV:  15    -0.829584825946E+03   -0.20578E-01   -0.18353E-03  1560   0.661E-02    0.302E-02
DAV:  16    -0.829593229443E+03   -0.84035E-02   -0.47778E-04  1624   0.377E-02    0.215E-02
DAV:  17    -0.829598229614E+03   -0.50002E-02   -0.30894E-04  1584   0.232E-02    0.114E-02
DAV:  18    -0.829600258239E+03   -0.20286E-02   -0.81014E-05  1624   0.131E-02    0.608E-03
DAV:  19    -0.829601348060E+03   -0.10898E-02   -0.38441E-05  1440   0.861E-03    0.397E-03
DAV:  20    -0.829601730954E+03   -0.38289E-03   -0.68442E-06  1392   0.376E-03    0.247E-03
DAV:  21    -0.829601964480E+03   -0.23353E-03   -0.33220E-06  1280   0.272E-03    0.109E-03
DAV:  22    -0.829602022070E+03   -0.57590E-04   -0.27921E-07  1056   0.110E-03    0.739E-04
DAV:  23    -0.829602061512E+03   -0.39442E-04   -0.32582E-07   944   0.954E-04    0.459E-04
DAV:  24    -0.829602075761E+03   -0.14249E-04   -0.11069E-07   984   0.586E-04    0.314E-04
DAV:  25    -0.829602080652E+03   -0.48908E-05   -0.42278E-08   904   0.497E-04    0.148E-04
DAV:  26    -0.829602084911E+03   -0.42589E-05   -0.43096E-08   904   0.322E-04    0.195E-04
DAV:  27    -0.829602085706E+03   -0.79483E-06   -0.92950E-09   952   0.254E-04
   1 F= -.82960209E+03 E0= -.82957011E+03  d E =-.639472E-01
