 vasp.6.5.0 16Dec24 (build Feb 19 2025 19:45:31) complex                         
 executed on              LinuxNV date 2025.10.25  20:05:22
 running    2 mpi-ranks, on    1 nodes
 distrk:  each k-point on    2 cores,    1 groups
 distr:  one band on NCORE=   1 cores,    2 groups
 Offloading initialized ...    2 GPUs detected


--------------------------------------------------------------------------------------------------------


 INCAR:
   ISTART = 0            (Not Read existing wavefunction
   ISPIN = 1            (Non-Spin polarised DFT, Default\=1)
   ICHARG = 2            (The initial guess charge density is generated by superposition of atomic charge density)
   LREAL = Auto         (Projection operators: automatic)
   ENCUT = 500          (Cut-off energy for plane wave basis set, in eV)
   LWAVE = .FALSE.       (Write WAVECAR or not)
   LCHARG = .FALSE.       (Write CHGCAR or not)
   PREC = Accurate   (Precision level)
   KGAMMA = .TRUE.
   ALGO = Normal
   NSW = 0           (Default: NSW \= 0)
   IBRION = -1           (Ions are not moved)
   ISMEAR = 0
   EDIFF = 1E-06        (SCF energy convergence
   NELM = 150          (Max electronic SCF steps)

 POTCAR:    PAW_PBE C 08Apr2002                   
 POTCAR:    PAW_PBE C 08Apr2002                   
   SHA256 =  253f7b50bb8d59471dbedb8285d89021f4a42ed1a2c5d38a03a736e69125dd95 C/POTCAR              
   COPYR  = (c) Copyright 08Apr2002 Georg Kresse                                                    
   COPYR  = This file is part of the software VASP. Any use, copying, and all other rights are regul
   COPYR  = If you do not have a valid VASP license, you may not use, copy or distribute this file. 
   VRHFIN =C: s2p2                                                                                  
   LEXCH  = PE                                                                                      
   EATOM  =   147.1560 eV,   10.8157 Ry                                                             
                                                                                                    
   TITEL  = PAW_PBE C 08Apr2002                                                                     
   LULTRA =        F    use ultrasoft PP ?                                                          
   IUNSCR =        1    unscreen: 0-lin 1-nonlin 2-no                                               
   RPACOR =    1.200    partial core radius                                                         
   POMASS =   12.011; ZVAL   =    4.000    mass and valenz                                          
   RCORE  =    1.500    outmost cutoff radius                                                       
   RWIGS  =    1.630; RWIGS  =    0.863    wigner-seitz radius (au A)                               
   ENMAX  =  400.000; ENMIN  =  300.000 eV                                                          
   ICORE  =        2    local potential                                                             
   LCOR   =        T    correct aug charges                                                         
   LPAW   =        T    paw PP                                                                      
   EAUG   =  644.873                                                                                
   DEXC   =    0.000                                                                                
   RMAX   =    1.529    core radius for proj-oper                                                   
   RAUG   =    1.300    factor for augmentation sphere                                              
   RDEP   =    1.501    radius for radial grids                                                     
   RDEPT  =    1.300    core radius for aug-charge                                                  
                                                                                                    
   Atomic configuration                                                                             
    4 entries                                                                                       
     n  l   j            E        occ.                                                              
     1  0  0.50      -273.3789   2.0000                                                             
     2  0  0.50       -13.7508   2.0000                                                             
     2  1  0.50        -5.2854   2.0000                                                             
     3  2  1.50        -5.4423   0.0000                                                             
   Description                                                                                      
     l       E           TYP  RCUT    TYP  RCUT                                                     
     0    -13.7508458     23  1.200                                                                 
     0     -8.2022199     23  1.200                                                                 
     1     -5.2854383     23  1.500                                                                 
     1     34.0145650     23  1.500                                                                 
     2     -5.4423304      7  1.500                                                                 
  local pseudopotential read in
  partial core-charges read in
  partial kinetic energy density read in
  atomic valenz-charges read in
  non local Contribution for L=            0  read in
    real space projection operators read in
  non local Contribution for L=            0  read in
    real space projection operators read in
  non local Contribution for L=            1  read in
    real space projection operators read in
  non local Contribution for L=            1  read in
    real space projection operators read in
    PAW grid and wavefunctions read in
 
   number of l-projection  operators is LMAX  =            4
   number of lm-projection operators is LMMAX =            8
 
 Optimization of the real space projectors (new method)

 maximal supplied QI-value         = 25.13
 optimisation between [QCUT,QGAM] = [ 11.31, 22.87] = [ 35.82,146.48] Ry 
 Optimized for a Real-space Cutoff    1.03 Angstroem

   l    n(q)    QCUT    max X(q) W(low)/X(q) W(high)/X(q)  e(spline) 
   0      7    11.310   115.676    0.20E-03    0.90E-03    0.20E-06
   0      7    11.310    87.132    0.20E-03    0.89E-03    0.19E-06
   1      6    11.310     4.429    0.16E-03    0.28E-03    0.12E-06
   1      6    11.310     2.733    0.12E-03    0.21E-03    0.99E-07
  PAW_PBE C 08Apr2002                   :
 energy of atom  1       EATOM= -147.1560
 kinetic energy error for atom=    0.0076 (will be added to EATOM!!)
 
 
 POSCAR:  C
  positions in cartesian coordinates
  No initial velocities read in


 exchange-correlation table for PE
   RHO(1)=    0.500       N(1)  =     2000
   RHO(2)=  100.500       N(2)  =     4000
 


--------------------------------------------------------------------------------------------------------


 ion  position               nearest neighbor table
   1  0.007  0.093  0.528-   3 1.34   2 1.36  45 1.50  46 2.02
   2  0.008  0.260  0.524-   1 1.36   4 1.39  46 1.46  45 2.02
   3  0.049  0.014  0.529-   1 1.34  50 1.36   5 1.43
   4  0.050  0.352  0.524-   2 1.39  49 1.40   6 1.42
   5  0.094  0.100  0.525-   6 1.38   7 1.42   3 1.43
   6  0.095  0.270  0.522-   5 1.38   8 1.38   4 1.42
   7  0.138  0.018  0.521-  54 1.36   5 1.42   9 1.46
   8  0.138  0.353  0.521-   6 1.38  53 1.39  10 1.40
   9  0.180  0.108  0.508-  10 1.37  11 1.40   7 1.46
  10  0.181  0.275  0.514-   9 1.37   8 1.40  12 1.42
  11  0.222  0.017  0.501-  13 1.40   9 1.40  58 1.42
  12  0.227  0.354  0.512-  57 1.38  14 1.40  10 1.42
  13  0.263  0.102  0.490-  14 1.38  11 1.40  15 1.43
  14  0.266  0.268  0.499-  13 1.38  12 1.40  16 1.43
  15  0.307  0.021  0.483-  62 1.38  17 1.42  13 1.43
  16  0.311  0.355  0.495-  18 1.38  61 1.40  14 1.43
  17  0.349  0.115  0.474-  18 1.35  15 1.42  19 1.45
  18  0.351  0.279  0.481-  17 1.35  16 1.38  20 1.39
  19  0.393  0.026  0.469-  66 1.38  21 1.42  17 1.45
  20  0.395  0.356  0.476-  22 1.39  18 1.39  65 1.40
  21  0.437  0.106  0.461-  22 1.38  19 1.42  23 1.46
  22  0.437  0.275  0.465-  21 1.38  20 1.39  24 1.47
  23  0.483  0.024  0.456-  70 1.36  25 1.42  21 1.46
  24  0.481  0.361  0.456-  69 1.35  26 1.40  22 1.47
  25  0.527  0.111  0.453-  27 1.39  26 1.40  23 1.42
  26  0.525  0.283  0.453-  28 1.39  25 1.40  24 1.40
  27  0.570  0.025  0.452-  74 1.35  25 1.39  29 1.42
  28  0.570  0.358  0.453-  26 1.39  73 1.39  30 1.40
  29  0.614  0.105  0.462-  30 1.37  31 1.39  27 1.42
  30  0.613  0.274  0.460-  29 1.37  28 1.40  32 1.46
  31  0.655  0.021  0.473-  78 1.35  29 1.39  33 1.41
  32  0.657  0.359  0.471-  77 1.34  34 1.42  30 1.46
  33  0.698  0.102  0.482-  34 1.40  31 1.41  35 1.44
  34  0.700  0.274  0.478-  36 1.40  33 1.40  32 1.42
  35  0.739  0.022  0.497-  82 1.36  37 1.43  33 1.44
  36  0.741  0.358  0.490-  34 1.40  81 1.42  38 1.43
  37  0.783  0.105  0.508-  38 1.36  35 1.43  39 1.43
  38  0.784  0.270  0.500-  37 1.36  36 1.43  40 1.45
  39  0.824  0.020  0.523-  86 1.39  41 1.39  37 1.43
  40  0.826  0.355  0.514-  85 1.37  42 1.39  38 1.45
  41  0.866  0.103  0.529-  42 1.36  39 1.39  43 1.47
  42  0.868  0.267  0.521-  41 1.36  40 1.39  44 1.46
  43  0.912  0.021  0.538-  45 1.35  90 1.39  41 1.47
  44  0.914  0.352  0.524-  89 1.37  46 1.37  42 1.46
  45  0.954  0.098  0.529-  43 1.35  46 1.40   1 1.50   2 2.02
  46  0.956  0.268  0.521-  44 1.37  45 1.40   2 1.46   1 2.02
  47  0.008  0.598  0.541-  48 1.36  49 1.38  91 1.47
  48  0.010  0.766  0.543-  47 1.36  50 1.39  92 1.54  91 2.01
  49  0.051  0.515  0.538-  47 1.38   4 1.40  51 1.43
  50  0.053  0.849  0.537-   3 1.36  48 1.39  52 1.42
  51  0.097  0.595  0.538-  53 1.32  52 1.41  49 1.43
  52  0.098  0.769  0.538-  51 1.41  54 1.41  50 1.42
  53  0.138  0.519  0.533-  51 1.32   8 1.39  55 1.42
  54  0.140  0.853  0.528-   7 1.36  52 1.41  56 1.44
  55  0.183  0.597  0.529-  56 1.39  53 1.42  57 1.44
  56  0.185  0.768  0.526-  55 1.39  58 1.42  54 1.44
  57  0.228  0.516  0.524-  12 1.38  59 1.44  55 1.44
  58  0.227  0.851  0.514-  60 1.38  11 1.42  56 1.42
  59  0.271  0.607  0.516-  60 1.35  61 1.43  57 1.44
  60  0.270  0.771  0.509-  59 1.35  58 1.38  62 1.40
  61  0.314  0.522  0.506-  63 1.39  16 1.40  59 1.43
  62  0.309  0.855  0.492-  15 1.38  60 1.40  64 1.41
  63  0.356  0.608  0.496-  64 1.37  61 1.39  65 1.43
  64  0.353  0.773  0.488-  63 1.37  62 1.41  66 1.47
  65  0.397  0.528  0.481-  67 1.39  20 1.40  63 1.43
  66  0.397  0.859  0.478-  19 1.38  68 1.39  64 1.47
  67  0.438  0.608  0.468-  68 1.38  69 1.39  65 1.39
  68  0.440  0.779  0.469-  67 1.38  66 1.39  70 1.42
  69  0.481  0.528  0.458-  24 1.35  67 1.39  71 1.44
  70  0.482  0.857  0.457-  23 1.36  72 1.39  68 1.42
  71  0.526  0.608  0.455-  72 1.36  73 1.40  69 1.44
  72  0.526  0.776  0.455-  71 1.36  70 1.39  74 1.40
  73  0.571  0.529  0.456-  28 1.39  71 1.40  75 1.44
  74  0.569  0.862  0.460-  27 1.35  72 1.40  76 1.42
  75  0.614  0.611  0.466-  76 1.37  77 1.41  73 1.44
  76  0.613  0.781  0.468-  75 1.37  78 1.38  74 1.42
  77  0.656  0.523  0.476-  32 1.34  75 1.41  79 1.46
  78  0.654  0.857  0.481-  31 1.35  76 1.38  80 1.43
  79  0.699  0.609  0.488-  80 1.35  81 1.38  77 1.46
  80  0.697  0.774  0.494-  79 1.35  82 1.38  78 1.43
  81  0.740  0.529  0.500-  79 1.38  83 1.42  36 1.42
  82  0.736  0.860  0.507-  35 1.36  80 1.38  84 1.45
  83  0.782  0.603  0.516-  84 1.36  85 1.39  81 1.42
  84  0.779  0.771  0.519-  83 1.36  86 1.43  82 1.45
  85  0.825  0.522  0.521-  40 1.37  83 1.39  87 1.43
  86  0.823  0.851  0.529-  39 1.39  84 1.43  88 1.44
  87  0.869  0.601  0.532-  88 1.37  85 1.43  89 1.45
  88  0.866  0.766  0.540-  87 1.37  90 1.42  86 1.44
  89  0.915  0.521  0.528-  44 1.37  91 1.42  87 1.45
  90  0.910  0.852  0.545-  43 1.39  88 1.42  92 1.43
  91  0.956  0.602  0.543-  92 1.41  89 1.42  47 1.47  48 2.01
  92  0.956  0.775  0.548-  91 1.41  90 1.43  48 1.54
 
  LATTYP: Found a simple orthorhombic cell.
 ALAT       =     8.1000000000
 B/A-ratio  =     3.4629629630
 C/A-ratio  =     4.1358024691
  
  Lattice vectors:
  
 A1 = (   0.0000000000,  -8.1000000000,   0.0000000000)
 A2 = (  28.0500000000,   0.0000000000,   0.0000000000)
 A3 = (   0.0000000000,   0.0000000000,  33.5000000000)


Analysis of symmetry for initial positions (statically):
=====================================================================
 Subroutine PRICEL returns:
 Original cell was already a primitive cell.
 

 Routine SETGRP: Setting up the symmetry group for a 
 simple orthorhombic supercell.


 Subroutine GETGRP returns: Found  1 space group operations
 (whereof  1 operations were pure point group operations)
 out of a pool of  8 trial point group operations.


The static configuration has the point symmetry C_1 .


Analysis of symmetry for dynamics (positions and initial velocities):
=====================================================================
 Subroutine PRICEL returns:
 Original cell was already a primitive cell.
 

 Routine SETGRP: Setting up the symmetry group for a 
 simple orthorhombic supercell.


 Subroutine GETGRP returns: Found  1 space group operations
 (whereof  1 operations were pure point group operations)
 out of a pool of  8 trial point group operations.


The dynamic configuration has the point symmetry C_1 .


 Subroutine INISYM returns: Found  1 space group operations
 (whereof  1 operations are pure point group operations),
 and found     1 'primitive' translations


----------------------------------------------------------------------------------------

                                     Primitive cell                                     

  volume of cell :    7611.3675

  direct lattice vectors                    reciprocal lattice vectors
    28.050000000  0.000000000  0.000000000     0.035650624  0.000000000  0.000000000
     0.000000000  8.100000000  0.000000000     0.000000000  0.123456790  0.000000000
     0.000000000  0.000000000 33.500000000     0.000000000  0.000000000  0.029850746

  length of vectors
    28.050000000  8.100000000 33.500000000     0.035650624  0.123456790  0.029850746

  position of ions in fractional coordinates (direct lattice)
     0.007187344  0.092812469  0.527701493
     0.008006738  0.259829630  0.524250746
     0.049209269  0.013843580  0.528617910
     0.049992870  0.351717284  0.524495522
     0.093588235  0.100039012  0.524713433
     0.094723708  0.269693827  0.522047761
     0.138043137  0.017992716  0.521238806
     0.137788948  0.353255556  0.521232836
     0.180273084  0.107618519  0.507985075
     0.181382175  0.274676543  0.514435821
     0.221870588  0.017000864  0.501197015
     0.226559358  0.353891358  0.512328358
     0.262886275  0.102212469  0.489632836
     0.266465954  0.267764198  0.498519403
     0.307304813  0.020623210  0.482635821
     0.310785383  0.355332099  0.495486567
     0.348804278  0.114517037  0.474205970
     0.350842424  0.279002469  0.480576119
     0.393204991  0.025620123  0.469286567
     0.394894831  0.356276543  0.475674627
     0.437165775  0.105643086  0.460680597
     0.436502674  0.274541975  0.465128358
     0.483151515  0.024103704  0.455844776
     0.481194296  0.361212346  0.456247761
     0.527083779  0.110518148  0.452597015
     0.525372549  0.282843210  0.452620896
     0.570021390  0.024798765  0.452191045
     0.569921569  0.357550617  0.453367164
     0.613654189  0.105079753  0.461644776
     0.612834225  0.274346914  0.460328358
     0.654545455  0.020798889  0.473089552
     0.657030303  0.358745679  0.470985075
     0.697778966  0.102260988  0.481507463
     0.700467023  0.274203704  0.477901493
     0.739486631  0.022084321  0.497197015
     0.741404635  0.358437037  0.490292537
     0.782527629  0.105359506  0.507600000
     0.783953654  0.270038272  0.499677612
     0.823572193  0.020489259  0.522686567
     0.826124777  0.354538272  0.514188060
     0.866399287  0.103035926  0.529313433
     0.868171123  0.267369136  0.520955224
     0.912099822  0.020796667  0.537728358
     0.914057041  0.352104938  0.524349254
     0.953614973  0.098331481  0.529397015
     0.956274510  0.267534568  0.521355224
     0.008443708  0.597838272  0.541047761
     0.010003458  0.765856790  0.542695522
     0.051366845  0.514812346  0.537943284
     0.052763280  0.849275309  0.536797015
     0.096675223  0.594886420  0.537788060
     0.097628520  0.768504938  0.538355224
     0.137953654  0.518808642  0.532647761
     0.139767201  0.853248148  0.528128358
     0.182967201  0.596920988  0.528737313
     0.184596791  0.768109877  0.526110448
     0.228314795  0.516418519  0.524217910
     0.227024955  0.851016049  0.514089552
     0.271364349  0.606733333  0.516292537
     0.269908021  0.770809877  0.508716418
     0.314396078  0.521923457  0.506107463
     0.308705526  0.854851852  0.492125373
     0.355847059  0.607804938  0.496214925
     0.352913725  0.773046914  0.488492537
     0.397122995  0.527561728  0.480668657
     0.397262032  0.859109877  0.477871642
     0.438442068  0.607769136  0.468355224
     0.439639929  0.778511111  0.469340299
     0.480620321  0.527551852  0.458432836
     0.482491979  0.856600000  0.456605970
     0.526156863  0.608123457  0.454994030
     0.526263815  0.776228395  0.455411940
     0.570524064  0.529007407  0.456337313
     0.569165775  0.861791358  0.459823881
     0.614367201  0.611477778  0.466235821
     0.612727273  0.780753086  0.468483582
     0.655939394  0.522960494  0.476071642
     0.654499109  0.856511111  0.480704478
     0.699108734  0.609001235  0.488414925
     0.696705882  0.773943210  0.493692537
     0.740178253  0.529393827  0.500002985
     0.736484848  0.859501235  0.506785075
     0.781921569  0.603351852  0.515913433
     0.779208556  0.770639506  0.518704478
     0.825379679  0.522162963  0.520617910
     0.822816399  0.851227160  0.529191045
     0.868869875  0.600882716  0.532119403
     0.866160428  0.766400000  0.539695522
     0.914909091  0.520671605  0.528092537
     0.910028520  0.852162963  0.544889552
     0.956217469  0.601527160  0.543167164
     0.955597148  0.774808642  0.547743284

  ion indices of the primitive-cell ions
   primitive index   ion index
                 1           1
                 2           2
                 3           3
                 4           4
                 5           5
                 6           6
                 7           7
                 8           8
                 9           9
                10          10
                11          11
                12          12
                13          13
                14          14
                15          15
                16          16
                17          17
                18          18
                19          19
                20          20
                21          21
                22          22
                23          23
                24          24
                25          25
                26          26
                27          27
                28          28
                29          29
                30          30
                31          31
                32          32
                33          33
                34          34
                35          35
                36          36
                37          37
                38          38
                39          39
                40          40
                41          41
                42          42
                43          43
                44          44
                45          45
                46          46
                47          47
                48          48
                49          49
                50          50
                51          51
                52          52
                53          53
                54          54
                55          55
                56          56
                57          57
                58          58
                59          59
                60          60
                61          61
                62          62
                63          63
                64          64
                65          65
                66          66
                67          67
                68          68
                69          69
                70          70
                71          71
                72          72
                73          73
                74          74
                75          75
                76          76
                77          77
                78          78
                79          79
                80          80
                81          81
                82          82
                83          83
                84          84
                85          85
                86          86
                87          87
                88          88
                89          89
                90          90
                91          91
                92          92

----------------------------------------------------------------------------------------

 
 
 KPOINTS: K-Spacing Value to Generate K-Mesh: 0.03

Automatic generation of k-mesh.
 Grid dimensions read from file:
 generate k-points for:    1    4    1

 Generating k-lattice:

  Cartesian coordinates                     Fractional coordinates (reciprocal lattice)
     0.035650624  0.000000000  0.000000000     1.000000000  0.000000000  0.000000000
     0.000000000  0.030864198  0.000000000     0.000000000  0.250000000  0.000000000
     0.000000000  0.000000000  0.029850746     0.000000000  0.000000000  1.000000000

  Length of vectors
     0.035650624  0.030864198  0.029850746

  Shift w.r.t. Gamma in fractional coordinates (k-lattice)
     0.000000000  0.000000000  0.000000000

 
 Subroutine IBZKPT returns following result:
 ===========================================
 
 Found      3 irreducible k-points:
 
 Following reciprocal coordinates:
            Coordinates               Weight
  0.000000  0.000000  0.000000      1.000000
  0.000000  0.250000  0.000000      2.000000
  0.000000  0.500000  0.000000      1.000000
 
 Following cartesian coordinates:
            Coordinates               Weight
  0.000000  0.000000  0.000000      1.000000
  0.000000  0.030864  0.000000      2.000000
  0.000000  0.061728  0.000000      1.000000
 


--------------------------------------------------------------------------------------------------------




 Dimension of arrays:
   k-points           NKPTS =      3   k-points in BZ     NKDIM =      3   number of bands    NBANDS=    232
   number of dos      NEDOS =    301   number of ions     NIONS =     92
   non local maximal  LDIM  =      4   non local SUM 2l+1 LMDIM =      8
   total plane-waves  NPLWV = ******
   max r-space proj   IRMAX =   1967   max aug-charges    IRDMAX=   5083
   dimension x,y,z NGX =   210 NGY =   60 NGZ =  250
   dimension x,y,z NGXF=   420 NGYF=  120 NGZF=  500
   support grid    NGXF=   420 NGYF=  120 NGZF=  500
   ions per type =              92
   NGX,Y,Z   is equivalent  to a cutoff of  12.45, 12.31, 12.41 a.u.
   NGXF,Y,Z  is equivalent  to a cutoff of  24.89, 24.63, 24.81 a.u.

 SYSTEM =  unknown system                          
 POSCAR =   C                                      

 Startparameter for this run:
   NWRITE =      2    write-flag & timer
   PREC   = accura    normal or accurate (medium, high low for compatibility)
   ISTART =      0    job   : 0-new  1-cont  2-samecut
   ICHARG =      2    charge: 1-file 2-atom 10-const
   ISPIN  =      1    spin polarized calculation?
   LNONCOLLINEAR =      F non collinear calculations
   LSORBIT =      F    spin-orbit coupling
   INIWAV =      1    electr: 0-lowe 1-rand  2-diag
   LASPH  =      F    aspherical Exc in radial PAW
 Electronic Relaxation 1
   ENCUT  =  500.0 eV  36.75 Ry    6.06 a.u.  51.14 14.77 61.08*2*pi/ulx,y,z
   ENINI  =  500.0     initial cutoff
   ENAUG  =  644.9 eV  augmentation charge cutoff
   NELM   =    150;   NELMIN=  2; NELMDL= -5     # of ELM steps 
   EDIFF  = 0.1E-05   stopping-criterion for ELM
   LREAL  =      T    real-space projection
   NLSPLINE    = F    spline interpolate recip. space projectors
   LCOMPAT=      F    compatible to vasp.4.4
   GGA_COMPAT  = T    GGA compatible to vasp.4.4-vasp.4.6
   LMAXPAW     = -100 max onsite density
   LMAXMIX     =    2 max onsite mixed and CHGCAR
   VOSKOWN=      0    Vosko Wilk Nusair interpolation
   ROPT   =   -0.00025
 Ionic relaxation
   EDIFFG = 0.1E-04   stopping-criterion for IOM
   NSW    =      0    number of steps for IOM
   NBLOCK =      1;   KBLOCK =      1    inner block; outer block 
   IBRION =     -1    ionic relax: 0-MD 1-quasi-New 2-CG
   NFREE  =      0    steps in history (QN), initial steepest desc. (CG)
   ISIF   =      2    stress and relaxation
   IWAVPR =     10    prediction:  0-non 1-charg 2-wave 3-comb
   ISYM   =      2    0-nonsym 1-usesym 2-fastsym
   LCORR  =      T    Harris-Foulkes like correction to forces

   POTIM  = 0.5000    time-step for ionic-motion
   TEIN   =    0.0    initial temperature
   TEBEG  =    0.0;   TEEND  =   0.0 temperature during run
   SMASS  =  -3.00    Nose mass-parameter (am)
   estimated Nose-frequenzy (Omega)   =  0.10E-29 period in steps = 0.13E+47 mass=  -0.180E-25a.u.
   SCALEE = 1.0000    scale energy and forces
   NPACO  =    256;   APACO  = 10.0  distance and # of slots for P.C.
   PSTRESS=    0.0 pullay stress

  Mass of Ions in am
   POMASS =  12.01
  Ionic Valenz
   ZVAL   =   4.00
  Atomic Wigner-Seitz radii
   RWIGS  =  -1.00
  virtual crystal weights 
   VCA    =   1.00
   NELECT =     368.0000    total number of electrons
   NUPDOWN=      -1.0000    fix difference up-down

 DOS related values:
   EMIN   =  10.00;   EMAX   =-10.00  energy-range for DOS
   EFERMI =   0.00;   METHOD = LEGACY      
   ISMEAR =     0;   SIGMA  =   0.20  broadening in eV -4-tet -1-fermi 0-gaus
   EFERMI_NEDOS =   21; number of points for ismear=-14 and -15

 Electronic relaxation 2 (details)
   IALGO  =     38    algorithm
   LDIAG  =      T    sub-space diagonalisation (order eigenvalues)
   LSUBROT=      F    optimize rotation matrix (better conditioning)
   TURBO    =      0    0=normal 1=particle mesh
   IRESTART =      0    0=no restart 2=restart with 2 vectors
   NREBOOT  =      0    no. of reboots
   NMIN     =      0    reboot dimension
   EREF     =   0.00    reference energy to select bands
   IMIX   =      4    mixing-type and parameters
     AMIX     =   0.40;   BMIX     =  1.00
     AMIX_MAG =   1.60;   BMIX_MAG =  1.00
     AMIN     =   0.10
     WC   =   100.;   INIMIX=   1;  MIXPRE=   1;  MAXMIX= -45

 Intra band minimization:
   WEIMIN = 0.0000     energy-eigenvalue tresh-hold
   EBREAK =  0.11E-08  absolut break condition
   DEPER  =   0.30     relativ break condition  

   TIME   =   0.40     timestep for ELM

  volume/ion in A,a.u.               =      82.73       558.30
  Fermi-wavevector in a.u.,A,eV,Ry     =   0.596398  1.127030  4.839472  0.355691
  Thomas-Fermi vector in A             =   1.646729
 
 Write flags
   LWAVE        =      F    write WAVECAR
   LDOWNSAMPLE  =      F    k-point downsampling of WAVECAR
   LCHARG       =      F    write CHGCAR
   LVTOT        =      F    write LOCPOT, total local potential
   LVHAR        =      F    write LOCPOT, Hartree potential only
   WRT_POTENTIAL= false  ! write potential to hdf5 file
   LELF         =      F    write electronic localiz. function (ELF)
   LORBIT       =      0    0 simple, 1 ext, 2 COOP (PROOUT), +10 PAW based schemes


 Python interface
   PLUGINS active      =      F    recompile with -DPLUGINS to activate
 
 Dipole corrections
   LMONO      =      F    monopole corrections only (constant potential shift)
   LDIPOL     =      F    correct potential (dipole corrections)
   IDIPOL     =      0    1-x, 2-y, 3-z, 4-all directions 
   EPSILON    =  1.0000000 bulk dielectric constant
   LVACPOTAV  =      F  vacuum potentials using an averaging scheme for the charge density
   VACPOTFLAT =  0.1000000 required flatness to determine vacuum potential
 
Coulomb truncation method
  LTRUNCATE          =      F  Coulomb kernel truncation to be used
  IDIMENSIONALITY    =      3  Dimensionality of cutoff (0 molecules / 2 surfaces)
  ISURFACE           =     -1  Direction of surface normal
  LCOARSEN           =      F  Coarsen the charge grid before padding, preferred

 
 Exchange correlation treatment:
   GGA     = PE    functional components
   XC_C    = 1    coefficients multiplying the functional components
   LIBXC   =     F    Libxc                    
   VOSKOWN =     0    Vosko Wilk Nusair interpolation
   LHFCALC =     F    Hartree Fock is set to
   LHFONE  =     F    Hartree Fock one center treatment
   AEXX    =    0.0000 exact exchange contribution

 Parameters of functionals:
   PE:
     No parameter
 
 Van der Waals corrections
   IVDW    =     0    specifies the selected vdW correction

 Linear response parameters
   LEPSILON=     F    determine dielectric tensor
   LRPA    =     F    only Hartree local field effects (RPA)
   LNABLA  =     F    use nabla operator in PAW spheres
   LVEL    =     F    velocity operator in full k-point grid
   CSHIFT  =0.1000    complex shift for real part using Kramers Kronig
   OMEGAMAX=  -1.0    maximum frequency
   DEG_THRESHOLD= 0.2000000E-02 threshold for treating states as degnerate
   RTIME   =   -0.100 relaxation time in fs
  (WPLASMAI=    0.000 imaginary part of plasma frequency in eV, 0.658/RTIME)
   DFIELD  = 0.0000000 0.0000000 0.0000000 field for delta impulse in time
 
  Optional k-point grid parameters
   LKPOINTS_OPT  =     F    use optional k-point grid
   KPOINTS_OPT_MODE=     1    mode for optional k-point grid
 
 Orbital magnetization related:
   ORBITALMAG=     F  switch on orbital magnetization
   LCHIMAG   =     F  perturbation theory with respect to B field
   DQ        =  0.001000  dq finite difference perturbation B field
   LLRAUG    =     F  two centre corrections for induced B field
   LBONE     =     F  B-component reconstruction in AE one-centre
   LVGVCALC  =     T  calculate vGv susceptibility
   LVGVAPPL  =     F  apply vGv susceptibility instead of pGv for G=0

 Random number generation:
   RANDOM_GENERATOR = DEFAULT
   PCG_SEED         = not used


--------------------------------------------------------------------------------------------------------


 Static calculation
 charge density and potential will be updated during run
 non-spin polarized calculation
 Variant of blocked Davidson
 Davidson routine will perform the subspace rotation
 perform sub-space diagonalisation
    after iterative eigenvector-optimisation
 modified Broyden-mixing scheme, WC =      100.0
 initial mixing is a Kerker type mixing with AMIX =  0.4000 and BMIX =      1.0000
 Hartree-type preconditioning will be used
 using additional bands            48
 real space projection scheme for non local part
 use partial core corrections
 calculate Harris-corrections to forces 
   (improved forces if not selfconsistent)
 use gradient corrections 
 use of overlap-Matrix (Vanderbilt PP)
 Gauss-broadening in eV      SIGMA  =   0.20


--------------------------------------------------------------------------------------------------------


  energy-cutoff  :      500.00
  volume of cell :     7611.37
      direct lattice vectors                 reciprocal lattice vectors
    28.050000000  0.000000000  0.000000000     0.035650624  0.000000000  0.000000000
     0.000000000  8.100000000  0.000000000     0.000000000  0.123456790  0.000000000
     0.000000000  0.000000000 33.500000000     0.000000000  0.000000000  0.029850746

  length of vectors
    28.050000000  8.100000000 33.500000000     0.035650624  0.123456790  0.029850746


 
 k-points in units of 2pi/SCALE and weight: K-Spacing Value to Generate K-Mesh: 0.03
   0.00000000  0.00000000  0.00000000       0.250
   0.00000000  0.03086420  0.00000000       0.500
   0.00000000  0.06172840  0.00000000       0.250
 
 k-points in reciprocal lattice and weights: K-Spacing Value to Generate K-Mesh: 0.03
   0.00000000  0.00000000  0.00000000       0.250
   0.00000000  0.25000000  0.00000000       0.500
   0.00000000  0.50000000  0.00000000       0.250
 
 position of ions in fractional coordinates (direct lattice) 
   0.00718734  0.09281247  0.52770149
   0.00800674  0.25982963  0.52425075
   0.04920927  0.01384358  0.52861791
   0.04999287  0.35171728  0.52449552
   0.09358824  0.10003901  0.52471343
   0.09472371  0.26969383  0.52204776
   0.13804314  0.01799272  0.52123881
   0.13778895  0.35325556  0.52123284
   0.18027308  0.10761852  0.50798507
   0.18138217  0.27467654  0.51443582
   0.22187059  0.01700086  0.50119701
   0.22655936  0.35389136  0.51232836
   0.26288627  0.10221247  0.48963284
   0.26646595  0.26776420  0.49851940
   0.30730481  0.02062321  0.48263582
   0.31078538  0.35533210  0.49548657
   0.34880428  0.11451704  0.47420597
   0.35084242  0.27900247  0.48057612
   0.39320499  0.02562012  0.46928657
   0.39489483  0.35627654  0.47567463
   0.43716578  0.10564309  0.46068060
   0.43650267  0.27454198  0.46512836
   0.48315152  0.02410370  0.45584478
   0.48119430  0.36121235  0.45624776
   0.52708378  0.11051815  0.45259701
   0.52537255  0.28284321  0.45262090
   0.57002139  0.02479877  0.45219104
   0.56992157  0.35755062  0.45336716
   0.61365419  0.10507975  0.46164478
   0.61283422  0.27434691  0.46032836
   0.65454545  0.02079889  0.47308955
   0.65703030  0.35874568  0.47098507
   0.69777897  0.10226099  0.48150746
   0.70046702  0.27420370  0.47790149
   0.73948663  0.02208432  0.49719701
   0.74140463  0.35843704  0.49029254
   0.78252763  0.10535951  0.50760000
   0.78395365  0.27003827  0.49967761
   0.82357219  0.02048926  0.52268657
   0.82612478  0.35453827  0.51418806
   0.86639929  0.10303593  0.52931343
   0.86817112  0.26736914  0.52095522
   0.91209982  0.02079667  0.53772836
   0.91405704  0.35210494  0.52434925
   0.95361497  0.09833148  0.52939701
   0.95627451  0.26753457  0.52135522
   0.00844371  0.59783827  0.54104776
   0.01000346  0.76585679  0.54269552
   0.05136684  0.51481235  0.53794328
   0.05276328  0.84927531  0.53679701
   0.09667522  0.59488642  0.53778806
   0.09762852  0.76850494  0.53835522
   0.13795365  0.51880864  0.53264776
   0.13976720  0.85324815  0.52812836
   0.18296720  0.59692099  0.52873731
   0.18459679  0.76810988  0.52611045
   0.22831480  0.51641852  0.52421791
   0.22702496  0.85101605  0.51408955
   0.27136435  0.60673333  0.51629254
   0.26990802  0.77080988  0.50871642
   0.31439608  0.52192346  0.50610746
   0.30870553  0.85485185  0.49212537
   0.35584706  0.60780494  0.49621493
   0.35291373  0.77304691  0.48849254
   0.39712299  0.52756173  0.48066866
   0.39726203  0.85910988  0.47787164
   0.43844207  0.60776914  0.46835522
   0.43963993  0.77851111  0.46934030
   0.48062032  0.52755185  0.45843284
   0.48249198  0.85660000  0.45660597
   0.52615686  0.60812346  0.45499403
   0.52626381  0.77622840  0.45541194
   0.57052406  0.52900741  0.45633731
   0.56916578  0.86179136  0.45982388
   0.61436720  0.61147778  0.46623582
   0.61272727  0.78075309  0.46848358
   0.65593939  0.52296049  0.47607164
   0.65449911  0.85651111  0.48070448
   0.69910873  0.60900123  0.48841493
   0.69670588  0.77394321  0.49369254
   0.74017825  0.52939383  0.50000299
   0.73648485  0.85950123  0.50678507
   0.78192157  0.60335185  0.51591343
   0.77920856  0.77063951  0.51870448
   0.82537968  0.52216296  0.52061791
   0.82281640  0.85122716  0.52919104
   0.86886988  0.60088272  0.53211940
   0.86616043  0.76640000  0.53969552
   0.91490909  0.52067160  0.52809254
   0.91002852  0.85216296  0.54488955
   0.95621747  0.60152716  0.54316716
   0.95559715  0.77480864  0.54774328
 
 position of ions in cartesian coordinates  (Angst):
   0.20160500  0.75178100 17.67800000
   0.22458900  2.10462000 17.56240000
   1.38032000  0.11213300 17.70870000
   1.40230000  2.84891000 17.57060000
   2.62515000  0.81031600 17.57790000
   2.65700000  2.18452000 17.48860000
   3.87211000  0.14574100 17.46150000
   3.86498000  2.86137000 17.46130000
   5.05666000  0.87171000 17.01750000
   5.08777000  2.22488000 17.23360000
   6.22347000  0.13770700 16.79010000
   6.35499000  2.86652000 17.16300000
   7.37396000  0.82792100 16.40270000
   7.47437000  2.16889000 16.70040000
   8.61990000  0.16704800 16.16830000
   8.71753000  2.87819000 16.59880000
   9.78396000  0.92758800 15.88590000
   9.84113000  2.25992000 16.09930000
  11.02940000  0.20752300 15.72110000
  11.07680000  2.88584000 15.93510000
  12.26250000  0.85570900 15.43280000
  12.24390000  2.22379000 15.58180000
  13.55240000  0.19524000 15.27080000
  13.49750000  2.92582000 15.28430000
  14.78470000  0.89519700 15.16200000
  14.73670000  2.29103000 15.16280000
  15.98910000  0.20087000 15.14840000
  15.98630000  2.89616000 15.18780000
  17.21300000  0.85114600 15.46510000
  17.19000000  2.22221000 15.42100000
  18.36000000  0.16847100 15.84850000
  18.42970000  2.90584000 15.77800000
  19.57270000  0.82831400 16.13050000
  19.64810000  2.22105000 16.00970000
  20.74260000  0.17888300 16.65610000
  20.79640000  2.90334000 16.42480000
  21.94990000  0.85341200 17.00460000
  21.98990000  2.18731000 16.73920000
  23.10120000  0.16596300 17.51000000
  23.17280000  2.87176000 17.22530000
  24.30250000  0.83459100 17.73200000
  24.35220000  2.16569000 17.45200000
  25.58440000  0.16845300 18.01390000
  25.63930000  2.85205000 17.56570000
  26.74890000  0.79648500 17.73480000
  26.82350000  2.16703000 17.46540000
   0.23684600  4.84249000 18.12510000
   0.28059700  6.20344000 18.18030000
   1.44084000  4.16998000 18.02110000
   1.48001000  6.87913000 17.98270000
   2.71174000  4.81858000 18.01590000
   2.73848000  6.22489000 18.03490000
   3.86960000  4.20235000 17.84370000
   3.92047000  6.91131000 17.69230000
   5.13223000  4.83506000 17.71270000
   5.17794000  6.22169000 17.62470000
   6.40423000  4.18299000 17.56130000
   6.36805000  6.89323000 17.22200000
   7.61177000  4.91454000 17.29580000
   7.57092000  6.24356000 17.04200000
   8.81881000  4.22758000 16.95460000
   8.65919000  6.92430000 16.48620000
   9.98151000  4.92322000 16.62320000
   9.89923000  6.26168000 16.36450000
  11.13930000  4.27325000 16.10240000
  11.14320000  6.95879000 16.00870000
  12.29830000  4.92293000 15.68990000
  12.33190000  6.30594000 15.72290000
  13.48140000  4.27317000 15.35750000
  13.53390000  6.93846000 15.29630000
  14.75870000  4.92580000 15.24230000
  14.76170000  6.28745000 15.25630000
  16.00320000  4.28496000 15.28730000
  15.96510000  6.98051000 15.40410000
  17.23300000  4.95297000 15.61890000
  17.18700000  6.32410000 15.69420000
  18.39910000  4.23598000 15.94840000
  18.35870000  6.93774000 16.10360000
  19.61000000  4.93291000 16.36190000
  19.54260000  6.26894000 16.53870000
  20.76200000  4.28809000 16.75010000
  20.65840000  6.96196000 16.97730000
  21.93290000  4.88715000 17.28310000
  21.85680000  6.24218000 17.37660000
  23.15190000  4.22952000 17.44070000
  23.08000000  6.89494000 17.72790000
  24.37180000  4.86715000 17.82600000
  24.29580000  6.20784000 18.07980000
  25.66320000  4.21744000 17.69110000
  25.52630000  6.90252000 18.25380000
  26.82190000  4.87237000 18.19610000
  26.80450000  6.27595000 18.34940000
 


--------------------------------------------------------------------------------------------------------


 k-point     1 :   0.0000 0.0000 0.0000  plane waves:  193173
 k-point     2 :   0.0000 0.2500 0.0000  plane waves:  193166
 k-point     3 :   0.0000 0.5000 0.0000  plane waves:  193226

 maximum and minimum number of plane-waves per node :    193226   193166

 maximum number of plane-waves:    193226
 maximum index in each direction: 
   IXMAX=   51   IYMAX=   14   IZMAX=   61
   IXMIN=  -51   IYMIN=  -15   IZMIN=  -61


 serial   3D FFT for wavefunctions
 parallel 3D FFT for charge:
    minimum data exchange during FFTs selected (reduces bandwidth)


 total amount of memory used by VASP MPI-rank0  2294510. kBytes
=======================================================================

   base                                    :      30000. kBytes
   nonlr-proj                              :      15076. kBytes
   fftplans                                :     436558. kBytes
   grid                                    :     732614. kBytes
   one-center                              :        282. kBytes
   wavefun                                 :    1079980. kBytes
 
     INWAV:  cpu time      0.0000: real time      0.0000
 Broyden mixing: mesh for mixing (old mesh)
   NGX =103   NGY = 29   NGZ =123
  (NGX  =420   NGY  =120   NGZ  =500)
  gives a total of 367401 points

 initial charge density was supplied:
 charge density of overlapping atoms calculated
 number of electron     368.0000000 magnetization 
 keeping initial charge density in first step


--------------------------------------------------------------------------------------------------------


 Maximum index for non-local projection operator          1872
 Maximum index for augmentation-charges          2387 (set IRDMAX)


--------------------------------------------------------------------------------------------------------


 First call to EWALD:  gamma=   0.090
 Maximum number of real-space cells   2x   6x   2
 Maximum number of reciprocal cells   4x   1x   4

    FEWALD:  cpu time      0.1613: real time      0.1614


--------------------------------------- Ionic step        1  -------------------------------------------




--------------------------------------- Iteration      1(   1)  ---------------------------------------


    POTLOK:  cpu time      0.4239: real time      0.4471
    SETDIJ:  cpu time      0.0418: real time      0.0418
     EDDAV:  cpu time     11.1969: real time     11.2051
       DOS:  cpu time      0.0008: real time      0.0008
    --------------------------------------------
      LOOP:  cpu time     11.6635: real time     11.6949

 eigenvalue-minimisations  :  1736
 total energy-change (2. order) : 0.3635961E+04  (-0.1198099E+05)
 number of electron     368.0000000 magnetization 
 augmentation part      368.0000000 magnetization 

 Free energy of the ion-electron system (eV)
  ---------------------------------------------------
  alpha Z        PSCENC =        91.34886789
  Ewald energy   TEWEN  =    120596.76290863
  -Hartree energ DENC   =   -129910.51792472
  -exchange      EXHF   =         0.00000000
  -V(xc)+E(xc)   XCENC  =      1222.22401079
  PAW double counting   =      9984.02826696   -10036.41360137
  entropy T*S    EENTRO =        -0.81447515
  eigenvalues    EBANDS =     -1848.31191418
  atomic energy  EATOM  =     13537.65479391
  Solvation  Ediel_sol  =         0.00000000
  ---------------------------------------------------
  free energy    TOTEN  =      3635.96093275 eV

  energy without entropy =     3636.77540790  energy(sigma->0) =     3636.36817032


--------------------------------------------------------------------------------------------------------




--------------------------------------- Iteration      1(   2)  ---------------------------------------


     EDDAV:  cpu time     13.0134: real time     13.0182
       DOS:  cpu time      0.0007: real time      0.0007
    --------------------------------------------
      LOOP:  cpu time     13.0141: real time     13.0189

 eigenvalue-minimisations  :  2120
 total energy-change (2. order) :-0.3458741E+04  (-0.3203168E+04)
 number of electron     368.0000000 magnetization 
 augmentation part      368.0000000 magnetization 

 Free energy of the ion-electron system (eV)
  ---------------------------------------------------
  alpha Z        PSCENC =        91.34886789
  Ewald energy   TEWEN  =    120596.76290863
  -Hartree energ DENC   =   -129910.51792472
  -exchange      EXHF   =         0.00000000
  -V(xc)+E(xc)   XCENC  =      1222.22401079
  PAW double counting   =      9984.02826696   -10036.41360137
  entropy T*S    EENTRO =        -0.27644851
  eigenvalues    EBANDS =     -5307.59089743
  atomic energy  EATOM  =     13537.65479391
  Solvation  Ediel_sol  =         0.00000000
  ---------------------------------------------------
  free energy    TOTEN  =       177.21997614 eV

  energy without entropy =      177.49642465  energy(sigma->0) =      177.35820039


--------------------------------------------------------------------------------------------------------




--------------------------------------- Iteration      1(   3)  ---------------------------------------


     EDDAV:  cpu time     11.3077: real time     11.3119
       DOS:  cpu time      0.0007: real time      0.0006
    --------------------------------------------
      LOOP:  cpu time     11.3084: real time     11.3126

 eigenvalue-minimisations  :  1792
 total energy-change (2. order) :-0.1012218E+04  (-0.9872571E+03)
 number of electron     368.0000000 magnetization 
 augmentation part      368.0000000 magnetization 

 Free energy of the ion-electron system (eV)
  ---------------------------------------------------
  alpha Z        PSCENC =        91.34886789
  Ewald energy   TEWEN  =    120596.76290863
  -Hartree energ DENC   =   -129910.51792472
  -exchange      EXHF   =         0.00000000
  -V(xc)+E(xc)   XCENC  =      1222.22401079
  PAW double counting   =      9984.02826696   -10036.41360137
  entropy T*S    EENTRO =        -0.03168585
  eigenvalues    EBANDS =     -6320.05407308
  atomic energy  EATOM  =     13537.65479391
  Solvation  Ediel_sol  =         0.00000000
  ---------------------------------------------------
  free energy    TOTEN  =      -834.99843684 eV

  energy without entropy =     -834.96675099  energy(sigma->0) =     -834.98259392


--------------------------------------------------------------------------------------------------------




--------------------------------------- Iteration      1(   4)  ---------------------------------------


     EDDAV:  cpu time     10.8982: real time     10.9023
       DOS:  cpu time      0.0007: real time      0.0007
    --------------------------------------------
      LOOP:  cpu time     10.8989: real time     10.9030

 eigenvalue-minimisations  :  1712
 total energy-change (2. order) :-0.6217576E+02  (-0.6116273E+02)
 number of electron     368.0000000 magnetization 
 augmentation part      368.0000000 magnetization 

 Free energy of the ion-electron system (eV)
  ---------------------------------------------------
  alpha Z        PSCENC =        91.34886789
  Ewald energy   TEWEN  =    120596.76290863
  -Hartree energ DENC   =   -129910.51792472
  -exchange      EXHF   =         0.00000000
  -V(xc)+E(xc)   XCENC  =      1222.22401079
  PAW double counting   =      9984.02826696   -10036.41360137
  entropy T*S    EENTRO =        -0.05191424
  eigenvalues    EBANDS =     -6382.20960414
  atomic energy  EATOM  =     13537.65479391
  Solvation  Ediel_sol  =         0.00000000
  ---------------------------------------------------
  free energy    TOTEN  =      -897.17419629 eV

  energy without entropy =     -897.12228205  energy(sigma->0) =     -897.14823917


--------------------------------------------------------------------------------------------------------




--------------------------------------- Iteration      1(   5)  ---------------------------------------


     EDDAV:  cpu time     11.2746: real time     11.2789
       DOS:  cpu time      0.0007: real time      0.0007
    CHARGE:  cpu time      1.2099: real time      1.2109
    MIXING:  cpu time      0.2767: real time      0.2767
    --------------------------------------------
      LOOP:  cpu time     12.7619: real time     12.7671

 eigenvalue-minimisations  :  1792
 total energy-change (2. order) :-0.1535739E+01  (-0.1514286E+01)
 number of electron     368.0000008 magnetization 
 augmentation part       10.1879634 magnetization 

 Broyden mixing:
  rms(total) = 0.45701E+01    rms(broyden)= 0.45695E+01
  rms(prec ) = 0.46879E+01
  weight for this iteration     100.00

 Free energy of the ion-electron system (eV)
  ---------------------------------------------------
  alpha Z        PSCENC =        91.34886789
  Ewald energy   TEWEN  =    120596.76290863
  -Hartree energ DENC   =   -129910.51792472
  -exchange      EXHF   =         0.00000000
  -V(xc)+E(xc)   XCENC  =      1222.22401079
  PAW double counting   =      9984.02826696   -10036.41360137
  entropy T*S    EENTRO =        -0.05272141
  eigenvalues    EBANDS =     -6383.74453604
  atomic energy  EATOM  =     13537.65479391
  Solvation  Ediel_sol  =         0.00000000
  ---------------------------------------------------
  free energy    TOTEN  =      -898.70993537 eV

  energy without entropy =     -898.65721396  energy(sigma->0) =     -898.68357467


--------------------------------------------------------------------------------------------------------




--------------------------------------- Iteration      1(   6)  ---------------------------------------


    POTLOK:  cpu time      0.3228: real time      0.3228
    SETDIJ:  cpu time      0.0402: real time      0.0402
     EDDAV:  cpu time     10.2102: real time     10.2141
       DOS:  cpu time      0.0007: real time      0.0007
    CHARGE:  cpu time      1.1589: real time      1.1609
    MIXING:  cpu time      0.2778: real time      0.2789
    --------------------------------------------
      LOOP:  cpu time     12.0105: real time     12.0177

 eigenvalue-minimisations  :  1576
 total energy-change (2. order) : 0.5004533E+02  (-0.4760621E+01)
 number of electron     368.0000008 magnetization 
 augmentation part        9.7594186 magnetization 

 Broyden mixing:
  rms(total) = 0.26849E+01    rms(broyden)= 0.26849E+01
  rms(prec ) = 0.27433E+01
  weight for this iteration     100.00

 eigenvalues of (default mixing * dielectric matrix)
  average eigenvalue GAMMA=   2.1849
  2.1849

 Free energy of the ion-electron system (eV)
  ---------------------------------------------------
  alpha Z        PSCENC =        91.34886789
  Ewald energy   TEWEN  =    120596.76290863
  -Hartree energ DENC   =   -130484.90249264
  -exchange      EXHF   =         0.00000000
  -V(xc)+E(xc)   XCENC  =      1245.65809470
  PAW double counting   =     18996.42873079   -19056.48915335
  entropy T*S    EENTRO =        -0.05780279
  eigenvalues    EBANDS =     -5775.06855149
  atomic energy  EATOM  =     13537.65479391
  Solvation  Ediel_sol  =         0.00000000
  ---------------------------------------------------
  free energy    TOTEN  =      -848.66460436 eV

  energy without entropy =     -848.60680156  energy(sigma->0) =     -848.63570296


--------------------------------------------------------------------------------------------------------




--------------------------------------- Iteration      1(   7)  ---------------------------------------


    POTLOK:  cpu time      0.3217: real time      0.3218
    SETDIJ:  cpu time      0.0401: real time      0.0401
     EDDAV:  cpu time     10.1343: real time     10.1407
       DOS:  cpu time      0.0007: real time      0.0007
    CHARGE:  cpu time      1.1540: real time      1.1568
    MIXING:  cpu time      0.2804: real time      0.2813
    --------------------------------------------
      LOOP:  cpu time     11.9313: real time     11.9414

 eigenvalue-minimisations  :  1560
 total energy-change (2. order) : 0.1866539E+02  (-0.6593728E+01)
 number of electron     368.0000007 magnetization 
 augmentation part        9.1982674 magnetization 

 Broyden mixing:
  rms(total) = 0.73571E+00    rms(broyden)= 0.73543E+00
  rms(prec ) = 0.74551E+00
  weight for this iteration     100.00

 eigenvalues of (default mixing * dielectric matrix)
  average eigenvalue GAMMA=   2.2157
  2.2157  2.2157

 Free energy of the ion-electron system (eV)
  ---------------------------------------------------
  alpha Z        PSCENC =        91.34886789
  Ewald energy   TEWEN  =    120596.76290863
  -Hartree energ DENC   =   -131255.85328062
  -exchange      EXHF   =         0.00000000
  -V(xc)+E(xc)   XCENC  =      1276.95239489
  PAW double counting   =     36785.14591458   -36852.17539121
  entropy T*S    EENTRO =        -0.06772229
  eigenvalues    EBANDS =     -5009.76769572
  atomic energy  EATOM  =     13537.65479391
  Solvation  Ediel_sol  =         0.00000000
  ---------------------------------------------------
  free energy    TOTEN  =      -829.99920995 eV

  energy without entropy =     -829.93148766  energy(sigma->0) =     -829.96534881


--------------------------------------------------------------------------------------------------------




--------------------------------------- Iteration      1(   8)  ---------------------------------------


    POTLOK:  cpu time      0.3217: real time      0.3217
    SETDIJ:  cpu time      0.0402: real time      0.0401
     EDDAV:  cpu time     10.5037: real time     10.5074
       DOS:  cpu time      0.0008: real time      0.0008
    CHARGE:  cpu time      1.1569: real time      1.1588
    MIXING:  cpu time      0.2843: real time      0.2843
    --------------------------------------------
      LOOP:  cpu time     12.3075: real time     12.3131

 eigenvalue-minimisations  :  1632
 total energy-change (2. order) : 0.2858428E+00  (-0.2483697E+00)
 number of electron     368.0000007 magnetization 
 augmentation part        9.1852217 magnetization 

 Broyden mixing:
  rms(total) = 0.99067E-01    rms(broyden)= 0.99037E-01
  rms(prec ) = 0.12166E+00
  weight for this iteration     100.00

 eigenvalues of (default mixing * dielectric matrix)
  average eigenvalue GAMMA=   1.8700
  1.2621  2.4501  1.8977

 Free energy of the ion-electron system (eV)
  ---------------------------------------------------
  alpha Z        PSCENC =        91.34886789
  Ewald energy   TEWEN  =    120596.76290863
  -Hartree energ DENC   =   -131349.56317204
  -exchange      EXHF   =         0.00000000
  -V(xc)+E(xc)   XCENC  =      1276.63564251
  PAW double counting   =     41102.79900179   -41167.06631008
  entropy T*S    EENTRO =        -0.06227699
  eigenvalues    EBANDS =     -4918.22282276
  atomic energy  EATOM  =     13537.65479391
  Solvation  Ediel_sol  =         0.00000000
  ---------------------------------------------------
  free energy    TOTEN  =      -829.71336715 eV

  energy without entropy =     -829.65109016  energy(sigma->0) =     -829.68222865


--------------------------------------------------------------------------------------------------------




--------------------------------------- Iteration      1(   9)  ---------------------------------------


    POTLOK:  cpu time      0.3220: real time      0.3220
    SETDIJ:  cpu time      0.0404: real time      0.0404
     EDDAV:  cpu time     10.6118: real time     10.6179
       DOS:  cpu time      0.0007: real time      0.0007
    CHARGE:  cpu time      1.1547: real time      1.1576
    MIXING:  cpu time      0.2849: real time      0.2878
    --------------------------------------------
      LOOP:  cpu time     12.4146: real time     12.4265

 eigenvalue-minimisations  :  1648
 total energy-change (2. order) : 0.1093687E+00  (-0.2857500E-01)
 number of electron     368.0000007 magnetization 
 augmentation part        9.1603726 magnetization 

 Broyden mixing:
  rms(total) = 0.56708E-01    rms(broyden)= 0.56698E-01
  rms(prec ) = 0.78214E-01
  weight for this iteration     100.00

 eigenvalues of (default mixing * dielectric matrix)
  average eigenvalue GAMMA=   1.6944
  2.2083  2.2083  1.1024  1.2583

 Free energy of the ion-electron system (eV)
  ---------------------------------------------------
  alpha Z        PSCENC =        91.34886789
  Ewald energy   TEWEN  =    120596.76290863
  -Hartree energ DENC   =   -131420.84579333
  -exchange      EXHF   =         0.00000000
  -V(xc)+E(xc)   XCENC  =      1278.14493941
  PAW double counting   =     41612.49089183   -41676.89719245
  entropy T*S    EENTRO =        -0.06378489
  eigenvalues    EBANDS =     -4848.19962946
  atomic energy  EATOM  =     13537.65479391
  Solvation  Ediel_sol  =         0.00000000
  ---------------------------------------------------
  free energy    TOTEN  =      -829.60399846 eV

  energy without entropy =     -829.54021357  energy(sigma->0) =     -829.57210602


--------------------------------------------------------------------------------------------------------




--------------------------------------- Iteration      1(  10)  ---------------------------------------


    POTLOK:  cpu time      0.3216: real time      0.3217
    SETDIJ:  cpu time      0.0401: real time      0.0400
     EDDAV:  cpu time     11.1620: real time     11.1662
       DOS:  cpu time      0.0008: real time      0.0008
    CHARGE:  cpu time      1.1579: real time      1.1580
    MIXING:  cpu time      0.2950: real time      0.2949
    --------------------------------------------
      LOOP:  cpu time     12.9773: real time     12.9816

 eigenvalue-minimisations  :  1760
 total energy-change (2. order) : 0.3575462E-01  (-0.4796626E-02)
 number of electron     368.0000007 magnetization 
 augmentation part        9.1508180 magnetization 

 Broyden mixing:
  rms(total) = 0.35948E-01    rms(broyden)= 0.35946E-01
  rms(prec ) = 0.55556E-01
  weight for this iteration     100.00

 eigenvalues of (default mixing * dielectric matrix)
  average eigenvalue GAMMA=   1.7335
  2.4765  2.4765  1.6102  1.2602  0.8441

 Free energy of the ion-electron system (eV)
  ---------------------------------------------------
  alpha Z        PSCENC =        91.34886789
  Ewald energy   TEWEN  =    120596.76290863
  -Hartree energ DENC   =   -131469.13383093
  -exchange      EXHF   =         0.00000000
  -V(xc)+E(xc)   XCENC  =      1278.43488503
  PAW double counting   =     41370.12559415   -41434.38900444
  entropy T*S    EENTRO =        -0.06399575
  eigenvalues    EBANDS =     -4800.30846231
  atomic energy  EATOM  =     13537.65479391
  Solvation  Ediel_sol  =         0.00000000
  ---------------------------------------------------
  free energy    TOTEN  =      -829.56824384 eV

  energy without entropy =     -829.50424809  energy(sigma->0) =     -829.53624596


--------------------------------------------------------------------------------------------------------




--------------------------------------- Iteration      1(  11)  ---------------------------------------


    POTLOK:  cpu time      0.3209: real time      0.3209
    SETDIJ:  cpu time      0.0399: real time      0.0399
     EDDAV:  cpu time     10.2819: real time     10.2855
       DOS:  cpu time      0.0008: real time      0.0008
    CHARGE:  cpu time      1.1681: real time      1.1712
    MIXING:  cpu time      0.3008: real time      0.3009
    --------------------------------------------
      LOOP:  cpu time     12.1123: real time     12.1192

 eigenvalue-minimisations  :  1584
 total energy-change (2. order) : 0.2960003E-01  (-0.2352085E-02)
 number of electron     368.0000007 magnetization 
 augmentation part        9.1457578 magnetization 

 Broyden mixing:
  rms(total) = 0.24102E-01    rms(broyden)= 0.24100E-01
  rms(prec ) = 0.37542E-01
  weight for this iteration     100.00

 eigenvalues of (default mixing * dielectric matrix)
  average eigenvalue GAMMA=   1.7891
  3.0586  2.5110  1.9256  0.9356  1.1518  1.1518

 Free energy of the ion-electron system (eV)
  ---------------------------------------------------
  alpha Z        PSCENC =        91.34886789
  Ewald energy   TEWEN  =    120596.76290863
  -Hartree energ DENC   =   -131535.60384318
  -exchange      EXHF   =         0.00000000
  -V(xc)+E(xc)   XCENC  =      1279.02032890
  PAW double counting   =     41295.67548947   -41359.83240154
  entropy T*S    EENTRO =        -0.06389759
  eigenvalues    EBANDS =     -4734.50089028
  atomic energy  EATOM  =     13537.65479391
  Solvation  Ediel_sol  =         0.00000000
  ---------------------------------------------------
  free energy    TOTEN  =      -829.53864381 eV

  energy without entropy =     -829.47474622  energy(sigma->0) =     -829.50669501


--------------------------------------------------------------------------------------------------------




--------------------------------------- Iteration      1(  12)  ---------------------------------------


    POTLOK:  cpu time      0.3218: real time      0.3218
    SETDIJ:  cpu time      0.0403: real time      0.0403
     EDDAV:  cpu time     10.1452: real time     10.1488
       DOS:  cpu time      0.0008: real time      0.0008
    CHARGE:  cpu time      1.1579: real time      1.1590
    MIXING:  cpu time      0.3095: real time      0.3094
    --------------------------------------------
      LOOP:  cpu time     11.9754: real time     11.9802

 eigenvalue-minimisations  :  1560
 total energy-change (2. order) : 0.3626487E-02  (-0.2250986E-02)
 number of electron     368.0000007 magnetization 
 augmentation part        9.1385860 magnetization 

 Broyden mixing:
  rms(total) = 0.15131E-01    rms(broyden)= 0.15127E-01
  rms(prec ) = 0.23090E-01
  weight for this iteration     100.00

 eigenvalues of (default mixing * dielectric matrix)
  average eigenvalue GAMMA=   2.0798
  4.8952  2.4317  2.0378  2.0378  0.9497  1.1032  1.1032

 Free energy of the ion-electron system (eV)
  ---------------------------------------------------
  alpha Z        PSCENC =        91.34886789
  Ewald energy   TEWEN  =    120596.76290863
  -Hartree energ DENC   =   -131598.89336080
  -exchange      EXHF   =         0.00000000
  -V(xc)+E(xc)   XCENC  =      1279.63088676
  PAW double counting   =     41358.40915069   -41422.55381416
  entropy T*S    EENTRO =        -0.06398417
  eigenvalues    EBANDS =     -4671.83046607
  atomic energy  EATOM  =     13537.65479391
  Solvation  Ediel_sol  =         0.00000000
  ---------------------------------------------------
  free energy    TOTEN  =      -829.53501732 eV

  energy without entropy =     -829.47103315  energy(sigma->0) =     -829.50302523


--------------------------------------------------------------------------------------------------------




--------------------------------------- Iteration      1(  13)  ---------------------------------------


    POTLOK:  cpu time      0.3212: real time      0.3212
    SETDIJ:  cpu time      0.0400: real time      0.0400
     EDDAV:  cpu time     10.1064: real time     10.1100
       DOS:  cpu time      0.0007: real time      0.0007
    CHARGE:  cpu time      1.1572: real time      1.1577
    MIXING:  cpu time      0.3193: real time      0.3198
    --------------------------------------------
      LOOP:  cpu time     11.9449: real time     11.9495

 eigenvalue-minimisations  :  1552
 total energy-change (2. order) :-0.1252954E-01  (-0.8621218E-03)
 number of electron     368.0000007 magnetization 
 augmentation part        9.1360095 magnetization 

 Broyden mixing:
  rms(total) = 0.84022E-02    rms(broyden)= 0.84002E-02
  rms(prec ) = 0.11916E-01
  weight for this iteration     100.00

 eigenvalues of (default mixing * dielectric matrix)
  average eigenvalue GAMMA=   2.0793
  5.4226  2.4591  2.4591  1.8906  1.2063  1.2063  0.8799  1.1102

 Free energy of the ion-electron system (eV)
  ---------------------------------------------------
  alpha Z        PSCENC =        91.34886789
  Ewald energy   TEWEN  =    120596.76290863
  -Hartree energ DENC   =   -131649.97671911
  -exchange      EXHF   =         0.00000000
  -V(xc)+E(xc)   XCENC  =      1279.82429299
  PAW double counting   =     41310.80806818   -41374.94892716
  entropy T*S    EENTRO =        -0.06384994
  eigenvalues    EBANDS =     -4620.95698224
  atomic energy  EATOM  =     13537.65479391
  Solvation  Ediel_sol  =         0.00000000
  ---------------------------------------------------
  free energy    TOTEN  =      -829.54754686 eV

  energy without entropy =     -829.48369692  energy(sigma->0) =     -829.51562189


--------------------------------------------------------------------------------------------------------




--------------------------------------- Iteration      1(  14)  ---------------------------------------


    POTLOK:  cpu time      0.3203: real time      0.3203
    SETDIJ:  cpu time      0.0399: real time      0.0400
     EDDAV:  cpu time     10.2782: real time     10.2821
       DOS:  cpu time      0.0007: real time      0.0007
    CHARGE:  cpu time      1.1563: real time      1.1574
    MIXING:  cpu time      0.3225: real time      0.3241
    --------------------------------------------
      LOOP:  cpu time     12.1179: real time     12.1246

 eigenvalue-minimisations  :  1584
 total energy-change (2. order) :-0.1670089E-01  (-0.1242578E-03)
 number of electron     368.0000007 magnetization 
 augmentation part        9.1350594 magnetization 

 Broyden mixing:
  rms(total) = 0.57011E-02    rms(broyden)= 0.57006E-02
  rms(prec ) = 0.79460E-02
  weight for this iteration     100.00

 eigenvalues of (default mixing * dielectric matrix)
  average eigenvalue GAMMA=   2.2089
  6.4236  2.8077  2.6993  1.7693  1.7693  1.3032  1.2175  0.9450  0.9450

 Free energy of the ion-electron system (eV)
  ---------------------------------------------------
  alpha Z        PSCENC =        91.34886789
  Ewald energy   TEWEN  =    120596.76290863
  -Hartree energ DENC   =   -131664.18256179
  -exchange      EXHF   =         0.00000000
  -V(xc)+E(xc)   XCENC  =      1279.84610423
  PAW double counting   =     41316.34837853   -41380.50067449
  entropy T*S    EENTRO =        -0.06392286
  eigenvalues    EBANDS =     -4606.77814180
  atomic energy  EATOM  =     13537.65479391
  Solvation  Ediel_sol  =         0.00000000
  ---------------------------------------------------
  free energy    TOTEN  =      -829.56424775 eV

  energy without entropy =     -829.50032489  energy(sigma->0) =     -829.53228632


--------------------------------------------------------------------------------------------------------




--------------------------------------- Iteration      1(  15)  ---------------------------------------


    POTLOK:  cpu time      0.3215: real time      0.3215
    SETDIJ:  cpu time      0.0402: real time      0.0402
     EDDAV:  cpu time     10.1619: real time     10.1652
       DOS:  cpu time      0.0008: real time      0.0008
    CHARGE:  cpu time      1.1568: real time      1.1569
    MIXING:  cpu time      0.3342: real time      0.3343
    --------------------------------------------
      LOOP:  cpu time     12.0153: real time     12.0188

 eigenvalue-minimisations  :  1560
 total energy-change (2. order) :-0.2057820E-01  (-0.1835275E-03)
 number of electron     368.0000007 magnetization 
 augmentation part        9.1347398 magnetization 

 Broyden mixing:
  rms(total) = 0.30175E-02    rms(broyden)= 0.30170E-02
  rms(prec ) = 0.41318E-02
  weight for this iteration     100.00

 eigenvalues of (default mixing * dielectric matrix)
  average eigenvalue GAMMA=   2.2444
  7.0307  3.4937  2.2624  2.2624  1.6709  1.3398  1.3398  0.9538  0.9538  1.1365

 Free energy of the ion-electron system (eV)
  ---------------------------------------------------
  alpha Z        PSCENC =        91.34886789
  Ewald energy   TEWEN  =    120596.76290863
  -Hartree energ DENC   =   -131675.16114363
  -exchange      EXHF   =         0.00000000
  -V(xc)+E(xc)   XCENC  =      1279.82347076
  PAW double counting   =     41320.92044497   -41385.07344775
  entropy T*S    EENTRO =        -0.06397515
  eigenvalues    EBANDS =     -4595.79674557
  atomic energy  EATOM  =     13537.65479391
  Solvation  Ediel_sol  =         0.00000000
  ---------------------------------------------------
  free energy    TOTEN  =      -829.58482595 eV

  energy without entropy =     -829.52085080  energy(sigma->0) =     -829.55283837


--------------------------------------------------------------------------------------------------------




--------------------------------------- Iteration      1(  16)  ---------------------------------------


    POTLOK:  cpu time      0.3222: real time      0.3222
    SETDIJ:  cpu time      0.0402: real time      0.0402
     EDDAV:  cpu time     10.4879: real time     10.4916
       DOS:  cpu time      0.0008: real time      0.0008
    CHARGE:  cpu time      1.1659: real time      1.1686
    MIXING:  cpu time      0.3429: real time      0.3430
    --------------------------------------------
      LOOP:  cpu time     12.3599: real time     12.3663

 eigenvalue-minimisations  :  1624
 total energy-change (2. order) :-0.8403497E-02  (-0.4777810E-04)
 number of electron     368.0000007 magnetization 
 augmentation part        9.1347328 magnetization 

 Broyden mixing:
  rms(total) = 0.21517E-02    rms(broyden)= 0.21516E-02
  rms(prec ) = 0.27173E-02
  weight for this iteration     100.00

 eigenvalues of (default mixing * dielectric matrix)
  average eigenvalue GAMMA=   2.3459
  7.9376  4.0471  2.3934  2.3934  1.9069  1.5226  1.5226  0.9567  0.9567  1.0840
  1.0840

 Free energy of the ion-electron system (eV)
  ---------------------------------------------------
  alpha Z        PSCENC =        91.34886789
  Ewald energy   TEWEN  =    120596.76290863
  -Hartree energ DENC   =   -131678.60411965
  -exchange      EXHF   =         0.00000000
  -V(xc)+E(xc)   XCENC  =      1279.79991116
  PAW double counting   =     41310.45081460   -41374.60123002
  entropy T*S    EENTRO =        -0.06393975
  eigenvalues    EBANDS =     -4592.34123620
  atomic energy  EATOM  =     13537.65479391
  Solvation  Ediel_sol  =         0.00000000
  ---------------------------------------------------
  free energy    TOTEN  =      -829.59322944 eV

  energy without entropy =     -829.52928970  energy(sigma->0) =     -829.56125957


--------------------------------------------------------------------------------------------------------




--------------------------------------- Iteration      1(  17)  ---------------------------------------


    POTLOK:  cpu time      0.3225: real time      0.3224
    SETDIJ:  cpu time      0.0403: real time      0.0403
     EDDAV:  cpu time     10.2847: real time     10.2886
       DOS:  cpu time      0.0007: real time      0.0007
    CHARGE:  cpu time      1.1559: real time      1.1563
    MIXING:  cpu time      0.3532: real time      0.3534
    --------------------------------------------
      LOOP:  cpu time     12.1573: real time     12.1616

 eigenvalue-minimisations  :  1584
 total energy-change (2. order) :-0.5000171E-02  (-0.3089368E-04)
 number of electron     368.0000007 magnetization 
 augmentation part        9.1345849 magnetization 

 Broyden mixing:
  rms(total) = 0.11448E-02    rms(broyden)= 0.11447E-02
  rms(prec ) = 0.14554E-02
  weight for this iteration     100.00

 eigenvalues of (default mixing * dielectric matrix)
  average eigenvalue GAMMA=   2.3637
  8.3365  4.5526  2.4534  2.4534  2.0113  1.3986  1.3986  1.4816  1.2978  0.9775
  0.9775  1.0259

 Free energy of the ion-electron system (eV)
  ---------------------------------------------------
  alpha Z        PSCENC =        91.34886789
  Ewald energy   TEWEN  =    120596.76290863
  -Hartree energ DENC   =   -131681.07260206
  -exchange      EXHF   =         0.00000000
  -V(xc)+E(xc)   XCENC  =      1279.80300459
  PAW double counting   =     41318.07316417   -41382.22158000
  entropy T*S    EENTRO =        -0.06395067
  eigenvalues    EBANDS =     -4589.88283605
  atomic energy  EATOM  =     13537.65479391
  Solvation  Ediel_sol  =         0.00000000
  ---------------------------------------------------
  free energy    TOTEN  =      -829.59822961 eV

  energy without entropy =     -829.53427894  energy(sigma->0) =     -829.56625428


--------------------------------------------------------------------------------------------------------




--------------------------------------- Iteration      1(  18)  ---------------------------------------


    POTLOK:  cpu time      0.3218: real time      0.3222
    SETDIJ:  cpu time      0.0392: real time      0.0392
     EDDAV:  cpu time     10.4845: real time     10.4906
       DOS:  cpu time      0.0008: real time      0.0008
    CHARGE:  cpu time      1.1551: real time      1.1578
    MIXING:  cpu time      0.3613: real time      0.3635
    --------------------------------------------
      LOOP:  cpu time     12.3627: real time     12.3740

 eigenvalue-minimisations  :  1624
 total energy-change (2. order) :-0.2028625E-02  (-0.8101408E-05)
 number of electron     368.0000007 magnetization 
 augmentation part        9.1345268 magnetization 

 Broyden mixing:
  rms(total) = 0.60845E-03    rms(broyden)= 0.60837E-03
  rms(prec ) = 0.80238E-03
  weight for this iteration     100.00

 eigenvalues of (default mixing * dielectric matrix)
  average eigenvalue GAMMA=   2.4024
  8.8410  4.9617  2.7124  2.7124  1.8333  1.8333  1.5380  1.5380  1.1822  1.1822
  0.9659  0.9659  0.9652

 Free energy of the ion-electron system (eV)
  ---------------------------------------------------
  alpha Z        PSCENC =        91.34886789
  Ewald energy   TEWEN  =    120596.76290863
  -Hartree energ DENC   =   -131681.80124108
  -exchange      EXHF   =         0.00000000
  -V(xc)+E(xc)   XCENC  =      1279.80131217
  PAW double counting   =     41315.82072995   -41379.96917538
  entropy T*S    EENTRO =        -0.06394570
  eigenvalues    EBANDS =     -4589.15450863
  atomic energy  EATOM  =     13537.65479391
  Solvation  Ediel_sol  =         0.00000000
  ---------------------------------------------------
  free energy    TOTEN  =      -829.60025824 eV

  energy without entropy =     -829.53631254  energy(sigma->0) =     -829.56828539


--------------------------------------------------------------------------------------------------------




--------------------------------------- Iteration      1(  19)  ---------------------------------------


    POTLOK:  cpu time      0.3227: real time      0.3226
    SETDIJ:  cpu time      0.0401: real time      0.0402
     EDDAV:  cpu time      9.5772: real time      9.5832
       DOS:  cpu time      0.0007: real time      0.0007
    CHARGE:  cpu time      1.1559: real time      1.1569
    MIXING:  cpu time      0.3744: real time      0.3747
    --------------------------------------------
      LOOP:  cpu time     11.4710: real time     11.4783

 eigenvalue-minimisations  :  1440
 total energy-change (2. order) :-0.1089821E-02  (-0.3844115E-05)
 number of electron     368.0000007 magnetization 
 augmentation part        9.1345543 magnetization 

 Broyden mixing:
  rms(total) = 0.39670E-03    rms(broyden)= 0.39667E-03
  rms(prec ) = 0.48316E-03
  weight for this iteration     100.00

 eigenvalues of (default mixing * dielectric matrix)
  average eigenvalue GAMMA=   2.4075
  8.9255  5.5032  3.0933  2.4026  2.4026  1.8581  1.4755  1.4755  1.2967  1.2967
  0.9340  1.0632  0.9893  0.9893

 Free energy of the ion-electron system (eV)
  ---------------------------------------------------
  alpha Z        PSCENC =        91.34886789
  Ewald energy   TEWEN  =    120596.76290863
  -Hartree energ DENC   =   -131682.13790611
  -exchange      EXHF   =         0.00000000
  -V(xc)+E(xc)   XCENC  =      1279.79887527
  PAW double counting   =     41314.71417013   -41378.86093828
  entropy T*S    EENTRO =        -0.06394219
  eigenvalues    EBANDS =     -4588.81817730
  atomic energy  EATOM  =     13537.65479391
  Solvation  Ediel_sol  =         0.00000000
  ---------------------------------------------------
  free energy    TOTEN  =      -829.60134806 eV

  energy without entropy =     -829.53740587  energy(sigma->0) =     -829.56937697


--------------------------------------------------------------------------------------------------------




--------------------------------------- Iteration      1(  20)  ---------------------------------------


    POTLOK:  cpu time      0.3216: real time      0.3216
    SETDIJ:  cpu time      0.0402: real time      0.0402
     EDDAV:  cpu time      9.3564: real time      9.3596
       DOS:  cpu time      0.0008: real time      0.0008
    CHARGE:  cpu time      1.1584: real time      1.1598
    MIXING:  cpu time      0.3856: real time      0.3862
    --------------------------------------------
      LOOP:  cpu time     11.2629: real time     11.2682

 eigenvalue-minimisations  :  1392
 total energy-change (2. order) :-0.3828940E-03  (-0.6844174E-06)
 number of electron     368.0000007 magnetization 
 augmentation part        9.1345192 magnetization 

 Broyden mixing:
  rms(total) = 0.24668E-03    rms(broyden)= 0.24667E-03
  rms(prec ) = 0.29547E-03
  weight for this iteration     100.00

 eigenvalues of (default mixing * dielectric matrix)
  average eigenvalue GAMMA=   2.4459
  9.2078  5.8622  3.6573  2.5336  2.4567  1.9147  1.5955  1.5955  1.3859  1.3859
  1.1331  0.9656  0.9656  1.0147  1.0147

 Free energy of the ion-electron system (eV)
  ---------------------------------------------------
  alpha Z        PSCENC =        91.34886789
  Ewald energy   TEWEN  =    120596.76290863
  -Hartree energ DENC   =   -131682.34327058
  -exchange      EXHF   =         0.00000000
  -V(xc)+E(xc)   XCENC  =      1279.80008902
  PAW double counting   =     41316.12186954   -41380.26919682
  entropy T*S    EENTRO =        -0.06394717
  eigenvalues    EBANDS =     -4588.61384535
  atomic energy  EATOM  =     13537.65479391
  Solvation  Ediel_sol  =         0.00000000
  ---------------------------------------------------
  free energy    TOTEN  =      -829.60173095 eV

  energy without entropy =     -829.53778378  energy(sigma->0) =     -829.56975737


--------------------------------------------------------------------------------------------------------




--------------------------------------- Iteration      1(  21)  ---------------------------------------


    POTLOK:  cpu time      0.3220: real time      0.3219
    SETDIJ:  cpu time      0.0402: real time      0.0402
     EDDAV:  cpu time      8.7856: real time      8.7886
       DOS:  cpu time      0.0007: real time      0.0007
    CHARGE:  cpu time      1.1693: real time      1.1724
    MIXING:  cpu time      0.3992: real time      0.3994
    --------------------------------------------
      LOOP:  cpu time     10.7170: real time     10.7233

 eigenvalue-minimisations  :  1280
 total energy-change (2. order) :-0.2335256E-03  (-0.3321989E-06)
 number of electron     368.0000007 magnetization 
 augmentation part        9.1345248 magnetization 

 Broyden mixing:
  rms(total) = 0.10934E-03    rms(broyden)= 0.10933E-03
  rms(prec ) = 0.13393E-03
  weight for this iteration     100.00

 eigenvalues of (default mixing * dielectric matrix)
  average eigenvalue GAMMA=   2.4133
  9.2150  6.1674  3.8138  2.4997  2.4997  2.1071  1.7509  1.5471  1.5471  1.2381
  1.2381  1.1368  0.9985  0.9985  0.9278  0.9278

 Free energy of the ion-electron system (eV)
  ---------------------------------------------------
  alpha Z        PSCENC =        91.34886789
  Ewald energy   TEWEN  =    120596.76290863
  -Hartree energ DENC   =   -131682.41152073
  -exchange      EXHF   =         0.00000000
  -V(xc)+E(xc)   XCENC  =      1279.79885356
  PAW double counting   =     41314.80195783   -41378.94957330
  entropy T*S    EENTRO =        -0.06394835
  eigenvalues    EBANDS =     -4588.54430391
  atomic energy  EATOM  =     13537.65479391
  Solvation  Ediel_sol  =         0.00000000
  ---------------------------------------------------
  free energy    TOTEN  =      -829.60196448 eV

  energy without entropy =     -829.53801613  energy(sigma->0) =     -829.56999031


[...]
   0.128E+02 -.128E+02 0.733E+02   -.126E+02 0.138E+02 -.735E+02   0.331E+00 -.857E+00 -.766E-01   -.122E-05 -.231E-06 -.126E-04
   0.269E+02 -.474E+01 0.117E+03   -.274E+02 0.513E+01 -.117E+03   0.960E+00 0.108E+00 0.117E+00   0.169E-04 -.422E-05 -.187E-04
   0.570E+01 0.387E+01 0.450E+02   -.550E+01 -.302E+01 -.447E+02   0.163E+00 0.568E+00 -.171E+00   0.333E-04 0.127E-04 -.156E-04
   0.119E+02 0.137E+02 0.151E+03   -.114E+02 -.143E+02 -.152E+03   0.844E-01 0.522E+00 0.116E+01   0.976E-05 0.343E-05 -.126E-04
   -.731E+00 -.819E+01 0.860E+02   0.213E+01 0.821E+01 -.863E+02   0.796E+00 0.382E+00 -.131E+01   0.200E-04 -.208E-04 -.185E-04
   0.183E+02 -.216E+02 0.145E+03   -.186E+02 0.228E+02 -.145E+03   -.121E+01 0.594E+00 -.507E+00   -.677E-05 0.267E-04 -.760E-05
   0.222E+02 0.210E+02 0.155E+03   -.238E+02 -.221E+02 -.155E+03   0.369E-01 -.414E+00 0.894E+00   -.166E-05 -.130E-04 -.757E-05
   0.754E+01 -.620E+00 0.164E+03   -.842E+01 0.139E+01 -.164E+03   -.103E+01 -.478E+00 -.732E+00   -.473E-05 -.223E-06 -.608E-05
   0.784E+01 -.556E+01 0.167E+03   -.819E+01 0.480E+01 -.167E+03   0.460E+00 -.139E+01 -.290E+00   -.465E-05 -.733E-05 -.606E-05
   -.221E+02 -.121E+02 0.224E+03   0.230E+02 0.133E+02 -.225E+03   0.165E-01 0.475E+00 0.297E+01   0.266E-05 -.611E-06 -.629E-05
   -.206E+02 0.293E+01 0.187E+03   0.209E+02 -.199E+01 -.187E+03   0.145E+00 0.643E+00 0.834E+00   0.153E-04 0.171E-04 -.312E-05
   -.235E+02 0.383E+01 0.129E+03   0.226E+02 -.365E+01 -.129E+03   -.109E+00 0.146E+00 -.107E+01   -.757E-06 0.780E-05 -.999E-05
   -.317E+02 -.157E+02 0.142E+03   0.329E+02 0.161E+02 -.141E+03   0.755E+00 0.954E-01 0.201E+00   0.278E-05 0.190E-05 -.103E-04
   -.237E+02 -.133E+02 0.877E+02   0.245E+02 0.138E+02 -.877E+02   0.104E+01 0.880E+00 0.996E+00   0.718E-05 0.411E-05 -.629E-05
   -.169E+02 0.165E+02 0.102E+03   0.163E+02 -.183E+02 -.103E+03   -.435E+00 -.281E+00 -.302E+00   -.824E-05 -.584E-05 -.142E-04
   -.281E+02 0.622E+01 0.770E+02   0.283E+02 -.605E+01 -.769E+02   0.124E+01 0.683E+00 -.104E+00   -.266E-05 0.447E-05 -.118E-04
   -.347E+02 -.325E+01 0.128E+03   0.345E+02 0.278E+01 -.129E+03   -.774E+00 0.156E+00 0.814E+00   0.855E-05 -.840E-05 -.961E-05
   -.131E+02 -.153E+02 0.192E+02   0.133E+02 0.165E+02 -.198E+02   -.528E+00 0.846E-01 0.130E+01   -.197E-04 0.297E-05 -.126E-04
   -.299E+02 -.320E+01 0.811E+02   0.304E+02 0.416E+01 -.807E+02   0.686E+00 -.577E+00 0.230E+00   -.193E-05 -.106E-05 -.132E-04
   -.487E+01 0.141E+02 -.255E+02   0.459E+01 -.150E+02 0.259E+02   0.470E-01 -.655E+00 -.136E+01   -.161E-04 0.454E-05 -.123E-04
   -.300E+02 -.129E+02 0.876E+02   0.305E+02 0.143E+02 -.883E+02   0.310E+00 0.740E+00 0.229E+01   -.225E-04 0.145E-04 -.209E-04
   0.141E+02 -.525E+01 -.861E+02   -.147E+02 0.490E+01 0.861E+02   -.103E-01 0.282E+00 0.475E+00   -.306E-05 -.139E-04 0.467E-05
   -.159E+00 0.475E+01 -.848E+01   -.122E+01 -.515E+01 0.815E+01   0.231E+00 -.107E+00 -.997E+00   -.103E-04 -.685E-05 -.124E-04
   -.327E+01 0.136E+02 -.122E+03   0.441E+01 -.143E+02 0.122E+03   0.860E+00 0.256E+00 -.107E+01   0.147E-06 -.539E-05 0.608E-05
   -.188E+02 -.124E+02 -.124E+02   0.199E+02 0.127E+02 0.118E+02   0.727E+00 0.906E+00 0.120E+01   -.477E-05 0.222E-05 -.340E-05
   0.257E+01 -.524E+01 -.155E+03   -.429E+01 0.502E+01 0.156E+03   -.720E+00 0.309E+00 -.129E+01   0.117E-04 -.126E-04 0.116E-04
   -.792E+01 -.324E+01 -.147E+02   0.701E+01 0.269E+01 0.156E+02   0.338E+00 0.771E-01 -.237E+01   0.127E-04 0.945E-05 0.225E-05
   -.140E+02 0.610E+02 -.415E+02   0.125E+02 -.616E+02 0.404E+02   0.231E+01 0.987E+00 0.609E+00   -.108E-04 -.245E-04 0.127E-04
   -.151E+02 -.611E+02 0.676E+02   0.130E+02 0.627E+02 -.690E+02   0.327E+00 -.246E+01 0.238E+01   0.185E-05 0.271E-04 0.149E-05
   0.191E+02 0.693E+02 -.128E+03   -.171E+02 -.711E+02 0.128E+03   -.751E+00 0.194E+01 0.730E+00   0.112E-04 -.735E-05 0.152E-04
   0.205E+02 -.657E+02 -.150E+03   -.182E+02 0.667E+02 0.151E+03   -.248E+01 -.363E+00 -.423E+00   -.396E-05 0.115E-04 0.220E-04
   0.152E+02 0.877E+01 -.143E+03   -.151E+02 -.973E+01 0.143E+03   -.650E+00 0.218E+00 -.197E+01   -.359E-04 -.273E-04 0.105E-04
   0.113E+02 0.210E+01 -.107E+03   -.106E+02 -.260E+01 0.107E+03   -.124E+01 -.398E+00 0.518E+00   -.182E-04 -.122E-04 0.259E-04
   0.170E+02 0.105E+01 -.152E+03   -.195E+02 0.734E+00 0.153E+03   -.754E+00 0.121E+01 0.912E+00   -.292E-04 0.183E-04 0.233E-04
   -.398E+01 -.115E+02 -.171E+03   0.391E+01 0.112E+02 0.172E+03   -.108E+01 0.856E-02 -.161E+01   0.541E-05 0.194E-04 0.219E-04
   -.211E+02 0.346E+01 -.144E+03   0.234E+02 -.510E+01 0.144E+03   0.142E+01 -.788E+00 -.175E+01   0.288E-04 0.627E-05 0.155E-04
   -.635E+01 0.788E+01 -.845E+02   0.724E+01 -.915E+01 0.839E+02   0.217E+00 -.361E+00 0.120E+01   0.453E-05 0.114E-04 0.137E-04
   -.143E+02 0.101E+02 -.137E+03   0.149E+02 -.100E+02 0.137E+03   0.841E+00 0.877E+00 0.106E+01   0.314E-04 0.160E-04 0.123E-04
   -.132E+02 -.157E+02 -.125E+03   0.131E+02 0.159E+02 0.125E+03   -.628E+00 0.294E+00 -.682E+00   -.516E-05 -.694E-05 0.139E-04
   -.264E+02 -.270E+01 -.186E+03   0.264E+02 0.327E+01 0.186E+03   -.412E+00 0.447E+00 -.190E+01   -.105E-04 0.868E-05 0.139E-04
   0.730E+00 -.702E+01 -.763E+02   -.174E+01 0.763E+01 0.765E+02   -.144E+01 0.584E+00 -.102E+01   -.408E-04 0.533E-05 0.858E-05
   -.229E+02 0.130E+02 -.159E+03   0.230E+02 -.148E+02 0.160E+03   0.262E+00 -.600E+00 -.110E+00   -.740E-05 -.409E-04 0.128E-04
   -.138E+02 -.127E+02 -.709E+02   0.139E+02 0.134E+02 0.710E+02   -.419E+00 0.615E+00 -.235E-01   -.968E-05 -.670E-05 0.292E-05
   -.222E+02 0.553E+01 -.136E+03   0.213E+02 -.592E+01 0.136E+03   -.618E+00 -.254E+00 -.514E+00   0.360E-05 -.462E-05 0.119E-05
   0.827E+01 0.514E+01 0.363E+02   -.748E+01 -.530E+01 -.367E+02   0.110E+01 -.174E+00 0.172E+00   0.329E-04 0.170E-04 -.255E-04
   -.309E+02 0.656E+01 -.111E+03   0.318E+02 -.682E+01 0.111E+03   -.455E-01 -.344E+00 -.172E+01   0.103E-04 0.924E-06 -.675E-05
   -.711E+01 -.194E+02 0.175E+01   0.781E+01 0.207E+02 -.231E+01   0.983E+00 0.379E+00 0.939E+00   0.226E-04 0.946E-06 -.133E-04
   0.107E+01 -.505E+01 -.364E+01   -.166E+01 0.456E+01 0.399E+01   -.337E-01 -.615E+00 0.174E+00   0.343E-05 0.721E-05 -.472E-05
   0.934E+01 0.332E+01 -.250E+01   -.110E+02 -.341E+01 0.305E+01   -.126E+01 -.128E-01 -.117E+01   -.534E-05 0.925E-05 -.137E-04
   0.141E+02 0.604E+01 0.766E+02   -.143E+02 -.545E+01 -.766E+02   0.404E+00 0.407E+00 0.742E+00   -.516E-05 -.473E-05 -.413E-05
   0.136E+01 -.117E+02 0.410E+02   -.569E+00 0.116E+02 -.407E+02   -.277E+00 -.314E+00 -.103E+01   -.981E-05 0.495E-05 -.597E-05
   0.781E+01 -.139E+02 0.136E+03   -.702E+01 0.144E+02 -.136E+03   0.765E+00 0.902E-02 -.262E+00   0.151E-04 -.783E-05 -.852E-05
   0.241E+02 0.123E+02 0.162E+03   -.248E+02 -.127E+02 -.162E+03   -.389E-01 0.430E+00 0.158E+01   -.213E-05 0.163E-04 -.715E-05
   0.374E+01 0.166E+02 0.155E+03   -.414E+01 -.172E+02 -.155E+03   -.180E+00 0.350E+00 0.151E+00   0.282E-04 -.116E-04 -.431E-05
   -.200E+01 -.496E+01 0.151E+03   0.230E+01 0.473E+01 -.151E+03   -.225E+00 0.820E-01 0.328E+00   0.231E-04 -.158E-04 -.471E-05
   -.232E+02 -.894E+01 0.153E+03   0.241E+02 0.875E+01 -.153E+03   -.301E+00 -.353E+00 0.586E-01   0.148E-04 0.124E-04 -.147E-05
   -.112E+02 0.147E+02 0.953E+02   0.112E+02 -.156E+02 -.947E+02   0.692E+00 -.945E+00 -.169E+01   0.221E-04 -.306E-05 -.363E-05
   -.163E+02 0.137E+02 0.975E+02   0.157E+02 -.140E+02 -.975E+02   -.111E+01 -.689E+00 0.807E-02   -.148E-04 0.517E-05 -.908E-05
   -.596E+01 -.411E+01 0.688E+02   0.555E+01 0.382E+01 -.689E+02   -.713E-01 -.114E+01 0.485E+00   -.104E-05 -.189E-04 -.628E-05
   -.145E+02 -.122E+02 0.402E+02   0.152E+02 0.136E+02 -.397E+02   0.599E+00 0.120E+01 -.904E+00   -.194E-04 0.122E-04 -.128E-04
   -.917E+01 0.123E+02 -.125E+02   0.982E+01 -.130E+02 0.135E+02   -.370E+00 0.460E+00 -.142E+01   -.132E-04 -.924E-05 -.652E-05
   -.287E+01 0.166E+02 0.348E+02   0.162E+01 -.176E+02 -.357E+02   -.832E+00 -.218E+00 0.146E+01   -.665E-05 -.400E-05 -.594E-05
   0.139E+02 -.949E+01 -.465E+02   -.147E+02 0.102E+02 0.466E+02   -.101E+01 0.629E+00 -.507E+00   -.137E-04 0.138E-05 -.363E-05
   -.610E+01 0.540E+01 -.336E+02   0.687E+01 -.682E+01 0.340E+02   0.317E+00 -.172E+01 -.138E+01   -.124E-04 -.186E-04 -.131E-04
   0.102E+02 0.262E+01 -.117E+03   -.934E+01 -.305E+01 0.118E+03   0.103E+01 -.121E+01 -.127E+01   -.512E-05 0.404E-05 0.106E-05
   0.146E+02 0.196E+02 -.105E+03   -.151E+02 -.201E+02 0.105E+03   -.102E+01 0.229E+00 -.110E+01   -.192E-04 0.410E-05 -.420E-05
   0.235E+02 -.179E+02 -.123E+03   -.235E+02 0.193E+02 0.123E+03   0.591E+00 0.498E+00 0.680E+00   -.446E-05 0.146E-04 0.516E-05
   -.319E+01 -.794E+01 -.687E+02   0.430E+01 0.813E+01 0.683E+02   -.249E+00 -.483E+00 0.641E+00   -.110E-05 -.487E-05 -.357E-05
   0.150E+02 0.626E+01 -.153E+03   -.156E+02 -.651E+01 0.154E+03   -.163E+00 0.391E+00 -.982E-01   -.165E-04 0.182E-06 0.392E-05
   -.236E+01 0.204E+02 -.124E+03   0.306E+01 -.215E+02 0.125E+03   -.583E+00 0.290E+00 -.100E+01   0.837E-05 -.491E-05 0.594E-05
   0.214E+02 -.110E+02 -.211E+03   -.217E+02 0.113E+02 0.211E+03   0.516E+00 0.798E+00 -.835E+00   -.412E-05 0.829E-05 0.729E-05
   -.225E+02 -.162E+02 -.369E+01   0.229E+02 0.176E+02 0.199E+01   -.946E+00 0.260E+00 0.414E+01   0.182E-04 0.237E-05 0.935E-05
   0.123E+00 0.174E+01 -.215E+03   0.251E+00 -.184E+01 0.215E+03   0.176E+01 0.161E+00 0.344E+00   0.309E-04 0.228E-05 0.133E-04
   0.636E+01 0.673E+02 -.180E+03   -.995E+01 -.684E+02 0.182E+03   0.149E+01 0.128E+01 -.301E+01   0.115E-05 -.323E-05 0.144E-04
   -.952E+01 -.655E+02 -.219E+03   0.733E+01 0.663E+02 0.220E+03   0.710E+00 -.253E+01 -.876E+00   0.858E-05 0.144E-04 0.132E-04
 -----------------------------------------------------------------------------------------------
   0.731E+00 -.736E+00 0.210E+01   0.808E-12 0.483E-12 -.111E-11   -.826E+00 0.785E+00 -.199E+01   0.156E-04 0.197E-04 -.795E-04
 
 
 POSITION                                       TOTAL-FORCE (eV/Angst)
 -----------------------------------------------------------------------------------
      0.20161      0.75178     17.67800        -0.852022      0.242640     -0.159418
      0.22459      2.10462     17.56240         0.853051      1.987142     -0.829939
      1.38032      0.11213     17.70870         2.475815     -0.017919      0.532652
      1.40230      2.84891     17.57060         0.395193     -0.203028      1.129595
      2.62515      0.81032     17.57790         0.208723     -0.302993     -0.879398
      2.65700      2.18452     17.48860        -1.672153     -0.502872     -0.190215
      3.87211      0.14574     17.46150         0.094772      1.980853     -0.996419
      3.86498      2.86137     17.46130         0.736844      0.458827      1.141656
      5.05666      0.87171     17.01750        -1.514460     -2.429074      1.393936
      5.08777      2.22488     17.23360         0.282839      0.192296     -1.083011
      6.22347      0.13771     16.79010         0.430457     -0.590972      0.525530
      6.35499      2.86652     17.16300        -0.905314     -0.681345      0.727150
      7.37396      0.82792     16.40270         1.746573     -0.421695      0.182572
      7.47437      2.16889     16.70040         0.546918      1.839664     -0.252433
      8.61990      0.16705     16.16830        -1.187080      0.964283      0.083390
      8.71753      2.87819     16.59880        -1.166743      0.402584      0.617222
      9.78396      0.92759     15.88590         1.159926     -3.748190     -0.050760
      9.84113      2.25992     16.09930         0.469017      0.139103     -0.232211
     11.02940      0.20752     15.72110         0.440803      0.487970     -0.071635
     11.07680      2.88584     15.93510         0.368079      1.418399      0.173958
     12.26250      0.85571     15.43280         0.524438     -0.114825      0.523734
     12.24390      2.22379     15.58180         2.192667      0.395353     -1.640095
     13.55240      0.19524     15.27080        -1.529860      1.797748     -0.214101
     13.49750      2.92582     15.28430        -1.532021     -1.480937      0.927416
     14.78470      0.89520     15.16200        -1.916955      0.293466     -0.645086
     14.73670      2.29103     15.16280         0.108804     -2.149883     -0.425282
     15.98910      0.20087     15.14840         0.853857      1.663108      1.867613
     15.98630      2.89616     15.18780         0.478013      1.583091      0.529006
     17.21300      0.85115     15.46510        -0.985580      0.327862     -1.279549
     17.19000      2.22221     15.42100         1.973743      0.451551      0.297274
     18.36000      0.16847     15.84850         1.795733      1.434458      1.002603
     18.42970      2.90584     15.77800        -1.038751     -2.071644     -0.738526
     19.57270      0.82831     16.13050         1.491914      0.852600     -0.038883
     19.64810      2.22105     16.00970        -0.987178     -0.311549      0.248530
     20.74260      0.17888     16.65610        -0.361759      1.232752      0.670756
     20.79640      2.90334     16.42480         1.162553      0.385076      0.651384
     21.94990      0.85341     17.00460        -0.235446     -1.603254     -0.981517
     21.98990      2.18731     16.73920         0.824978      2.134146      1.526604
     23.10120      0.16596     17.51000        -0.596342     -0.064512      0.504013
     23.17280      2.87176     17.22530        -1.146871     -0.507580     -1.327910
     24.30250      0.83459     17.73200         2.000807     -0.444528     -0.451135
     24.35220      2.16569     17.45200         1.894594      1.187136      0.576318
     25.58440      0.16845     18.01390        -2.437665      0.085722     -0.378656
     25.63930      2.85205     17.56570        -0.567561     -0.475467     -1.432461
     26.74890      0.79648     17.73480         0.794026      0.367001     -0.512023
     26.82350      2.16703     17.46540        -1.700004     -0.838277      1.063931
      0.23685      4.84249     18.12510         1.251499      0.148797      0.751050
      0.28060      6.20344     18.18030        -0.139139      0.698336      0.705626
      1.44084      4.16998     18.02110        -0.527995     -0.741428     -1.492761
      1.48001      6.87913     17.98270        -0.543411     -0.898862      0.674667
      2.71174      4.81858     18.01590        -3.304273      2.995772      1.230771
      2.73848      6.22489     18.03490        -1.137114     -0.275490     -0.673467
      3.86960      4.20235     17.84370         3.748232     -2.433316     -1.591956
      3.92047      6.91131     17.69230         1.104369     -1.633015      0.658314
      5.13223      4.83506     17.71270         1.369902      0.932580      0.924847
      5.17794      6.22169     17.62470        -0.690244      0.516767     -0.081169
      6.40423      4.18299     17.56130        -0.374628      1.018468     -0.988599
      6.36805      6.89323     17.22200        -2.442488      1.186162     -0.789261
      7.61177      4.91454     17.29580         0.455970     -2.368652      0.387331
      7.57092      6.24356     17.04200        -0.226080      1.379793      0.051864
      8.81881      4.22758     16.95460        -1.598283     -0.647009      0.004638
      8.65919      6.92430     16.48620         1.890052     -0.333903     -0.274652
      9.98151      4.92322     16.62320         0.856737     -0.598204     -1.097672
      9.89923      6.26168     16.36450         1.690141      1.681525      0.376612
     11.13930      4.27325     16.10240        -0.625848     -1.096476      0.520647
     11.14320      6.95879     16.00870        -2.893905     -0.104813     -0.622144
     12.29830      4.92293     15.68990         0.123048      0.994337      0.684822
     12.33190      6.30594     15.72290         0.512365     -0.460630     -0.756577
     13.48140      4.27317     15.35750         1.556288      0.474864     -0.445212
     13.53390      6.93846     15.29630        -0.791753      0.039151      0.964833
     14.75870      4.92580     15.24230        -0.578179     -0.251276      0.314331
     14.76170      6.28745     15.25630         0.082133     -0.150267      0.276515
     16.00320      4.28496     15.28730         0.663495     -0.543972      0.121623
     15.96510      6.98051     15.40410         0.684773     -1.834944     -1.036905
     17.23300      4.95297     15.61890        -1.726801     -0.951254     -0.075016
     17.18700      6.32410     15.69420        -0.479508     -1.444199      0.350151
     18.39910      4.23598     15.94840         1.210778      2.558987     -0.365066
     18.35870      6.93774     16.10360         0.283458     -0.318373     -0.431759
     19.61000      4.93291     16.36190        -2.079110     -1.283939      0.626458
     19.54260      6.26894     16.53870        -1.734883      1.323640     -0.364031
     20.76200      4.28809     16.75010         1.088636     -3.143119     -0.994967
     20.65840      6.96196     16.97730         1.883737     -1.645530     -0.081838
     21.93290      4.88715     17.28310        -1.490431     -0.258058     -0.701655
     21.85680      6.24218     17.37660         0.579268      1.919206      0.727969
     23.15190      4.22952     17.44070         0.861143     -0.291689      0.198332
     23.08000      6.89494     17.72790        -0.826366      0.140385      0.048385
     24.37180      4.86715     17.82600         0.110149     -0.842534     -0.674609
     24.29580      6.20784     18.07980         0.186244      1.139436     -0.271770
     25.66320      4.21744     17.69110        -0.506811      1.643325      2.443883
     25.52630      6.90252     18.25380         2.130462      0.064572      0.238847
     26.82190      4.87237     18.19610        -2.106068      0.113117     -1.364113
     26.80450      6.27595     18.34940        -1.470932     -1.762558     -0.193495
 -----------------------------------------------------------------------------------
    total drift:                               -0.094677      0.048892      0.113327


--------------------------------------------------------------------------------------------------------



  FREE ENERGIE OF THE ION-ELECTRON SYSTEM (eV)
  ---------------------------------------------------
  free  energy   TOTEN  =      -829.60208571 eV

  energy  without entropy=     -829.53813847  energy(sigma->0) =     -829.57011209
 


--------------------------------------------------------------------------------------------------------


    POTLOK:  cpu time      0.4534: real time      0.4534


--------------------------------------------------------------------------------------------------------


     LOOP+:  cpu time    316.6363: real time    316.8218
    4ORBIT:  cpu time      0.0000: real time      0.0000

 total amount of memory used by VASP MPI-rank0  2294510. kBytes
=======================================================================

   base                                    :      30000. kBytes
   nonlr-proj                              :      15076. kBytes
   fftplans                                :     436558. kBytes
   grid                                    :     732614. kBytes
   one-center                              :        282. kBytes
   wavefun                                 :    1079980. kBytes
 
  
  
 General timing and accounting informations for this job:
 ========================================================
  
                  Total CPU time used (sec):      350.714
                            User time (sec):      342.782
                          System time (sec):        7.933
                         Elapsed time (sec):      350.983
  
                   Maximum memory used (kb):     3730700.
                   Average memory used (kb):          N/A
  
                          Minor page faults:      3005465
                          Major page faults:         6656
                 Voluntary context switches:         9837
