<?xml version="1.0" encoding="ISO-8859-1"?>
<modeling>
 <generator>
  <i name="program" type="string">vasp </i>
  <i name="version" type="string">6.5.0  </i>
  <i name="subversion" type="string">16Dec24 (build Feb 19 2025 19:45:31) complex                          parallel </i>
  <i name="platform" type="string">LinuxNV </i>
  <i name="date" type="string">2025 10 25 </i>
  <i name="time" type="string">20:05:22 </i>
 </generator>
 <incar>
  <i type="int" name="ISTART">     0</i>
  <i type="string" name="PREC">Accurate   (Precision level)</i>
  <i type="string" name="ALGO">Normal</i>
  <i type="int" name="ISPIN">     1</i>
  <i type="int" name="ICHARG">     2</i>
  <i type="int" name="NELM">   150</i>
  <i type="int" name="IBRION">    -1</i>
  <i name="EDIFF">      0.00000100</i>
  <i type="int" name="NSW">     0</i>
  <i name="ENCUT">    500.00000000</i>
  <i type="string" name="LREAL">Auto         (Projection operators: automatic)</i>
  <i type="int" name="ISMEAR">     0</i>
  <i type="logical" name="KGAMMA"> T  </i>
  <i type="logical" name="LWAVE"> F  </i>
  <i type="logical" name="LCHARG"> F  </i>
 </incar>
 <primitive_cell>
  <structure name="primitive_cell" >
   <crystal>
    <varray name="basis" >
     <v>      28.05000000       0.00000000       0.00000000 </v>
     <v>       0.00000000       8.10000000       0.00000000 </v>
     <v>       0.00000000       0.00000000      33.50000000 </v>
    </varray>
    <i name="volume">   7611.36750000 </i>
    <varray name="rec_basis" >
     <v>       0.03565062       0.00000000       0.00000000 </v>
     <v>       0.00000000       0.12345679       0.00000000 </v>
     <v>       0.00000000       0.00000000       0.02985075 </v>
    </varray>
   </crystal>
   <varray name="positions" >
    <v>       0.00718734       0.09281247       0.52770149 </v>
    <v>       0.00800674       0.25982963       0.52425075 </v>
    <v>       0.04920927       0.01384358       0.52861791 </v>
    <v>       0.04999287       0.35171728       0.52449552 </v>
    <v>       0.09358824       0.10003901       0.52471343 </v>
    <v>       0.09472371       0.26969383       0.52204776 </v>
    <v>       0.13804314       0.01799272       0.52123881 </v>
    <v>       0.13778895       0.35325556       0.52123284 </v>
    <v>       0.18027308       0.10761852       0.50798507 </v>
    <v>       0.18138217       0.27467654       0.51443582 </v>
    <v>       0.22187059       0.01700086       0.50119701 </v>
    <v>       0.22655936       0.35389136       0.51232836 </v>
    <v>       0.26288627       0.10221247       0.48963284 </v>
    <v>       0.26646595       0.26776420       0.49851940 </v>
    <v>       0.30730481       0.02062321       0.48263582 </v>
    <v>       0.31078538       0.35533210       0.49548657 </v>
    <v>       0.34880428       0.11451704       0.47420597 </v>
    <v>       0.35084242       0.27900247       0.48057612 </v>
    <v>       0.39320499       0.02562012       0.46928657 </v>
    <v>       0.39489483       0.35627654       0.47567463 </v>
    <v>       0.43716578       0.10564309       0.46068060 </v>
    <v>       0.43650267       0.27454198       0.46512836 </v>
    <v>       0.48315152       0.02410370       0.45584478 </v>
    <v>       0.48119430       0.36121235       0.45624776 </v>
    <v>       0.52708378       0.11051815       0.45259701 </v>
    <v>       0.52537255       0.28284321       0.45262090 </v>
    <v>       0.57002139       0.02479877       0.45219104 </v>
    <v>       0.56992157       0.35755062       0.45336716 </v>
    <v>       0.61365419       0.10507975       0.46164478 </v>
    <v>       0.61283422       0.27434691       0.46032836 </v>
    <v>       0.65454545       0.02079889       0.47308955 </v>
    <v>       0.65703030       0.35874568       0.47098507 </v>
    <v>       0.69777897       0.10226099       0.48150746 </v>
    <v>       0.70046702       0.27420370       0.47790149 </v>
    <v>       0.73948663       0.02208432       0.49719701 </v>
    <v>       0.74140463       0.35843704       0.49029254 </v>
    <v>       0.78252763       0.10535951       0.50760000 </v>
    <v>       0.78395365       0.27003827       0.49967761 </v>
    <v>       0.82357219       0.02048926       0.52268657 </v>
    <v>       0.82612478       0.35453827       0.51418806 </v>
    <v>       0.86639929       0.10303593       0.52931343 </v>
    <v>       0.86817112       0.26736914       0.52095522 </v>
    <v>       0.91209982       0.02079667       0.53772836 </v>
    <v>       0.91405704       0.35210494       0.52434925 </v>
    <v>       0.95361497       0.09833148       0.52939701 </v>
    <v>       0.95627451       0.26753457       0.52135522 </v>
    <v>       0.00844371       0.59783827       0.54104776 </v>
    <v>       0.01000346       0.76585679       0.54269552 </v>
    <v>       0.05136684       0.51481235       0.53794328 </v>
    <v>       0.05276328       0.84927531       0.53679701 </v>
    <v>       0.09667522       0.59488642       0.53778806 </v>
    <v>       0.09762852       0.76850494       0.53835522 </v>
    <v>       0.13795365       0.51880864       0.53264776 </v>
    <v>       0.13976720       0.85324815       0.52812836 </v>
    <v>       0.18296720       0.59692099       0.52873731 </v>
    <v>       0.18459679       0.76810988       0.52611045 </v>
    <v>       0.22831480       0.51641852       0.52421791 </v>
    <v>       0.22702496       0.85101605       0.51408955 </v>
    <v>       0.27136435       0.60673333       0.51629254 </v>
    <v>       0.26990802       0.77080988       0.50871642 </v>
    <v>       0.31439608       0.52192346       0.50610746 </v>
    <v>       0.30870553       0.85485185       0.49212537 </v>
    <v>       0.35584706       0.60780494       0.49621493 </v>
    <v>       0.35291373       0.77304691       0.48849254 </v>
    <v>       0.39712299       0.52756173       0.48066866 </v>
    <v>       0.39726203       0.85910988       0.47787164 </v>
    <v>       0.43844207       0.60776914       0.46835522 </v>
    <v>       0.43963993       0.77851111       0.46934030 </v>
    <v>       0.48062032       0.52755185       0.45843284 </v>
    <v>       0.48249198       0.85660000       0.45660597 </v>
    <v>       0.52615686       0.60812346       0.45499403 </v>
    <v>       0.52626381       0.77622840       0.45541194 </v>
    <v>       0.57052406       0.52900741       0.45633731 </v>
    <v>       0.56916578       0.86179136       0.45982388 </v>
    <v>       0.61436720       0.61147778       0.46623582 </v>
    <v>       0.61272727       0.78075309       0.46848358 </v>
    <v>       0.65593939       0.52296049       0.47607164 </v>
    <v>       0.65449911       0.85651111       0.48070448 </v>
    <v>       0.69910873       0.60900123       0.48841493 </v>
    <v>       0.69670588       0.77394321       0.49369254 </v>
    <v>       0.74017825       0.52939383       0.50000299 </v>
    <v>       0.73648485       0.85950123       0.50678507 </v>
    <v>       0.78192157       0.60335185       0.51591343 </v>
    <v>       0.77920856       0.77063951       0.51870448 </v>
    <v>       0.82537968       0.52216296       0.52061791 </v>
    <v>       0.82281640       0.85122716       0.52919104 </v>
    <v>       0.86886988       0.60088272       0.53211940 </v>
    <v>       0.86616043       0.76640000       0.53969552 </v>
    <v>       0.91490909       0.52067160       0.52809254 </v>
    <v>       0.91002852       0.85216296       0.54488955 </v>
    <v>       0.95621747       0.60152716       0.54316716 </v>
    <v>       0.95559715       0.77480864       0.54774328 </v>
   </varray>
  </structure>
  <varray name="primitive_index" >
   <v type="int" >        1 </v>
   <v type="int" >        2 </v>
   <v type="int" >        3 </v>
   <v type="int" >        4 </v>
   <v type="int" >        5 </v>
   <v type="int" >        6 </v>
   <v type="int" >        7 </v>
   <v type="int" >        8 </v>
   <v type="int" >        9 </v>
   <v type="int" >       10 </v>
   <v type="int" >       11 </v>
   <v type="int" >       12 </v>
   <v type="int" >       13 </v>
   <v type="int" >       14 </v>
   <v type="int" >       15 </v>
   <v type="int" >       16 </v>
   <v type="int" >       17 </v>
   <v type="int" >       18 </v>
   <v type="int" >       19 </v>
   <v type="int" >       20 </v>
   <v type="int" >       21 </v>
   <v type="int" >       22 </v>
   <v type="int" >       23 </v>
   <v type="int" >       24 </v>
   <v type="int" >       25 </v>
   <v type="int" >       26 </v>
   <v type="int" >       27 </v>
   <v type="int" >       28 </v>
   <v type="int" >       29 </v>
   <v type="int" >       30 </v>
   <v type="int" >       31 </v>
   <v type="int" >       32 </v>
   <v type="int" >       33 </v>
   <v type="int" >       34 </v>
   <v type="int" >       35 </v>
   <v type="int" >       36 </v>
   <v type="int" >       37 </v>
   <v type="int" >       38 </v>
   <v type="int" >       39 </v>
   <v type="int" >       40 </v>
   <v type="int" >       41 </v>
   <v type="int" >       42 </v>
   <v type="int" >       43 </v>
   <v type="int" >       44 </v>
   <v type="int" >       45 </v>
   <v type="int" >       46 </v>
   <v type="int" >       47 </v>
   <v type="int" >       48 </v>
   <v type="int" >       49 </v>
   <v type="int" >       50 </v>
   <v type="int" >       51 </v>
   <v type="int" >       52 </v>
   <v type="int" >       53 </v>
   <v type="int" >       54 </v>
   <v type="int" >       55 </v>
   <v type="int" >       56 </v>
   <v type="int" >       57 </v>
   <v type="int" >       58 </v>
   <v type="int" >       59 </v>
   <v type="int" >       60 </v>
   <v type="int" >       61 </v>
   <v type="int" >       62 </v>
   <v type="int" >       63 </v>
   <v type="int" >       64 </v>
   <v type="int" >       65 </v>
   <v type="int" >       66 </v>
   <v type="int" >       67 </v>
   <v type="int" >       68 </v>
   <v type="int" >       69 </v>
   <v type="int" >       70 </v>
   <v type="int" >       71 </v>
   <v type="int" >       72 </v>
   <v type="int" >       73 </v>
   <v type="int" >       74 </v>
   <v type="int" >       75 </v>
   <v type="int" >       76 </v>
   <v type="int" >       77 </v>
   <v type="int" >       78 </v>
   <v type="int" >       79 </v>
   <v type="int" >       80 </v>
   <v type="int" >       81 </v>
   <v type="int" >       82 </v>
   <v type="int" >       83 </v>
   <v type="int" >       84 </v>
   <v type="int" >       85 </v>
   <v type="int" >       86 </v>
   <v type="int" >       87 </v>
   <v type="int" >       88 </v>
   <v type="int" >       89 </v>
   <v type="int" >       90 </v>
   <v type="int" >       91 </v>
   <v type="int" >       92 </v>
  </varray>
 </primitive_cell>
 <kpoints>
  <generation param="Gamma">
   <v type="int" name="divisions">       1        4        1 </v>
   <v name="usershift">      0.00000000       0.00000000       0.00000000 </v>
   <v name="genvec1">      1.00000000       0.00000000       0.00000000 </v>
   <v name="genvec2">      0.00000000       0.25000000       0.00000000 </v>
   <v name="genvec3">      0.00000000       0.00000000       1.00000000 </v>
   <v name="shift">      0.00000000       0.00000000       0.00000000 </v>
  </generation>
  <varray name="kpointlist" >
   <v>       0.00000000       0.00000000       0.00000000 </v>
   <v>       0.00000000       0.25000000       0.00000000 </v>
   <v>       0.00000000       0.50000000       0.00000000 </v>
  </varray>
  <varray name="weights" >
   <v>       0.25000000 </v>
   <v>       0.50000000 </v>
   <v>       0.25000000 </v>
  </varray>
 </kpoints>
 <parameters>
  <separator name="general" >
   <i type="string" name="SYSTEM">unknown system</i>
   <i type="logical" name="LCOMPAT"> F  </i>
  </separator>
  <separator name="electronic" >
   <i type="string" name="PREC">accura</i>
   <i name="ENMAX">    500.00000000</i>
   <i name="ENAUG">    644.87300000</i>
   <i name="EDIFF">      0.00000100</i>
   <i type="int" name="IALGO">    38</i>
   <i type="int" name="IWAVPR">    10</i>
   <i type="int" name="NBANDS">   232</i>
   <i type="int" name="NBANDSLOW">    -1</i>
   <i type="int" name="NBANDSHIGH">    -1</i>
   <i name="NELECT">    368.00000000</i>
   <i type="int" name="TURBO">     0</i>
   <i type="int" name="IRESTART">     0</i>
   <i type="int" name="NREBOOT">     0</i>
   <i type="int" name="NMIN">     0</i>
   <i name="EREF">      0.00000000</i>
   <separator name="electronic smearing" >
    <i type="int" name="ISMEAR">     0</i>
    <i name="SIGMA">      0.20000000</i>
    <i name="KSPACING">      0.50000000</i>
    <i type="logical" name="KGAMMA"> T  </i>
    <i type="logical" name="KBLOWUP"> T  </i>
   </separator>
   <separator name="electronic projectors" >
    <i type="logical" name="LREAL"> T  </i>
    <v name="ROPT">     -0.00025000</v>
    <i type="int" name="LMAXPAW">  -100</i>
    <i type="int" name="LMAXMIX">     2</i>
    <i type="logical" name="NLSPLINE"> F  </i>
   </separator>
   <separator name="electronic startup" >
    <i type="int" name="ISTART">     0</i>
    <i type="int" name="ICHARG">     2</i>
    <i type="int" name="INIWAV">     1</i>
   </separator>
   <separator name="electronic spin" >
    <i type="int" name="ISPIN">     1</i>
    <i type="logical" name="LNONCOLLINEAR"> F  </i>
    <v name="MAGMOM">      1.00000000      1.00000000      1.00000000      1.00000000      1.00000000      1.00000000      1.00000000      1.00000000      1.00000000      1.00000000      1.00000000      1.00000000      1.00000000      1.00000000      1.00000000      1.00000000      1.00000000      1.00000000      1.00000000      1.00000000
      1.00000000      1.00000000      1.00000000      1.00000000      1.00000000      1.00000000      1.00000000      1.00000000      1.00000000      1.00000000      1.00000000      1.00000000      1.00000000      1.00000000      1.00000000      1.00000000      1.00000000      1.00000000      1.00000000      1.00000000
      1.00000000      1.00000000      1.00000000      1.00000000      1.00000000      1.00000000      1.00000000      1.00000000      1.00000000      1.00000000      1.00000000      1.00000000      1.00000000      1.00000000      1.00000000      1.00000000      1.00000000      1.00000000      1.00000000      1.00000000
      1.00000000      1.00000000      1.00000000      1.00000000      1.00000000      1.00000000      1.00000000      1.00000000      1.00000000      1.00000000      1.00000000      1.00000000      1.00000000      1.00000000      1.00000000      1.00000000      1.00000000      1.00000000      1.00000000      1.00000000
      1.00000000      1.00000000      1.00000000      1.00000000      1.00000000      1.00000000      1.00000000      1.00000000      1.00000000      1.00000000      1.00000000      1.00000000</v>
    <i name="NUPDOWN">     -1.00000000</i>
    <i type="logical" name="LSORBIT"> F  </i>
    <v name="SAXIS">      0.00000000      0.00000000      1.00000000</v>
    <i type="logical" name="LSPIRAL"> F  </i>
    <v name="QSPIRAL">      0.00000000      0.00000000      0.00000000</v>
    <i type="logical" name="LZEROZ"> F  </i>
   </separator>
   <separator name="electronic exchange-correlation" >
    <i type="logical" name="LASPH"> F  </i>
   </separator>
   <separator name="electronic convergence" >
    <i type="int" name="NELM">   150</i>
    <i type="int" name="NELMDL">    -5</i>
    <i type="int" name="NELMIN">     2</i>
    <i name="ENINI">    500.00000000</i>
    <separator name="electronic convergence detail" >
     <i type="logical" name="LDIAG"> T  </i>
     <i type="logical" name="LSUBROT"> F  </i>
     <i name="WEIMIN">      0.00000000</i>
     <i name="EBREAK">      0.00000000</i>
     <i name="DEPER">      0.30000000</i>
     <i type="int" name="NRMM">     4</i>
     <i name="TIME">      0.40000000</i>
    </separator>
   </separator>
   <separator name="electronic mixer" >
    <i name="AMIX">      0.40000000</i>
    <i name="BMIX">      1.00000000</i>
    <i name="AMIN">      0.10000000</i>
    <i name="AMIX_MAG">      1.60000000</i>
    <i name="BMIX_MAG">      1.00000000</i>
    <separator name="electronic mixer details" >
     <i type="int" name="IMIX">     4</i>
     <i type="logical" name="MIXFIRST"> F  </i>
     <i type="int" name="MAXMIX">   -45</i>
     <i name="WC">    100.00000000</i>
     <i type="int" name="INIMIX">     1</i>
     <i type="int" name="MIXPRE">     1</i>
     <i type="int" name="MREMOVE">     5</i>
    </separator>
   </separator>
   <separator name="electronic dipolcorrection" >
    <i type="logical" name="LDIPOL"> F  </i>
    <i type="logical" name="LMONO"> F  </i>
    <i type="int" name="IDIPOL">     0</i>
    <i name="EPSILON">      1.00000000</i>
    <v name="DIPOL">   -100.00000000   -100.00000000   -100.00000000</v>
    <i name="EFIELD">      0.00000000</i>
    <i type="logical" name="LVACPOTAV"> F  </i>
   </separator>
  </separator>
  <separator name="grids" >
   <i type="int" name="NGX">   210</i>
   <i type="int" name="NGY">    60</i>
   <i type="int" name="NGZ">   250</i>
   <i type="int" name="NGXF">   420</i>
   <i type="int" name="NGYF">   120</i>
   <i type="int" name="NGZF">   500</i>
   <i type="logical" name="ADDGRID"> F  </i>
  </separator>
  <separator name="ionic" >
   <i type="int" name="NSW">     0</i>
   <i type="int" name="IBRION">    -1</i>
   <i type="int" name="MDALGO">     0</i>
   <i type="int" name="ISIF">     2</i>
   <i name="PSTRESS">      0.00000000</i>
   <i name="EDIFFG">      0.00001000</i>
   <i type="int" name="NFREE">     0</i>
   <i name="POTIM">      0.50000000</i>
   <i name="SMASS">     -3.00000000</i>
   <i name="SCALEE">      1.00000000</i>
  </separator>
  <separator name="ionic md" >
   <i name="TEBEG">      0.00010000</i>
   <i name="TEEND">      0.00010000</i>
   <i type="int" name="NBLOCK">     1</i>
   <i type="int" name="KBLOCK">     1</i>
   <i type="int" name="NPACO">   256</i>
   <i name="APACO">     10.00000000</i>
  </separator>
  <separator name="symmetry" >
   <i type="int" name="ISYM">     2</i>
   <i name="SYMPREC">      0.00001000</i>
  </separator>
  <separator name="dos" >
   <i type="int" name="LORBIT">     0</i>
   <v name="RWIGS">     -1.00000000</v>
   <i type="int" name="NEDOS">   301</i>
   <i name="EMIN">     10.00000000</i>
   <i name="EMAX">    -10.00000000</i>
   <i name="EFERMI">      0.00000000</i>
  </separator>
  <separator name="writing" >
   <i type="int" name="NWRITE">     2</i>
   <i type="logical" name="LWAVE"> F  </i>
   <i type="logical" name="LDOWNSAMPLE"> F  </i>
   <i type="logical" name="LCHARG"> F  </i>
   <i type="logical" name="LPARD"> F  </i>
   <i type="logical" name="LVTOT"> F  </i>
   <i type="logical" name="LVHAR"> F  </i>
   <i type="logical" name="LELF"> F  </i>
   <i type="logical" name="LOPTICS"> F  </i>
   <v name="STM">      0.00000000      0.00000000      0.00000000      0.00000000      0.00000000      0.00000000      0.00000000</v>
  </separator>
  <separator name="performance" >
   <i type="int" name="NPAR">     2</i>
   <i type="int" name="NSIM">     4</i>
   <i type="int" name="NBLK">    -1</i>
   <i type="logical" name="LPLANE"> T  </i>
   <i type="logical" name="LSCALAPACK"> T  </i>
   <i type="logical" name="LSCAAWARE"> F  </i>
   <i type="logical" name="LSCALU"> F  </i>
   <i type="logical" name="LASYNC"> F  </i>
   <i type="logical" name="LORBITALREAL"> F  </i>
  </separator>
  <separator name="miscellaneous" >
   <i type="int" name="IDIOT">     3</i>
   <i type="int" name="PHON_NSTRUCT">    -1</i>
   <i type="logical" name="LMUSIC"> F  </i>
   <v name="POMASS">     12.01100000</v>
   <v name="DARWINR">      0.00000000</v>
   <v name="DARWINV">      1.00000000</v>
   <i type="logical" name="LCORR"> T  </i>
  </separator>
  <i type="logical" name="GGA_COMPAT"> T  </i>
  <i type="logical" name="LBERRY"> F  </i>
  <i type="int" name="ICORELEVEL">     0</i>
  <i type="logical" name="LDAU"> F  </i>
  <i type="int" name="I_CONSTRAINED_M">     0</i>
  <separator name="electronic exchange-correlation" >
   <i type="string" name="GGA    ">PE</i>
   <i type="string" name="XC_C">1</i>
   <i type="int" name="VOSKOWN">     0</i>
   <i type="logical" name="LHFCALC"> F  </i>
   <i type="string" name="PRECFOCK"></i>
   <i type="logical" name="LSYMGRAD"> F  </i>
   <i type="logical" name="LHFONE"> F  </i>
   <i type="logical" name="LRHFCALC"> F  </i>
   <i type="logical" name="LTHOMAS"> F  </i>
   <i type="logical" name="LMODELHF"> F  </i>
   <i type="logical" name="LFOCKACE"> F  </i>
   <i name="ENCUT4O">     -1.00000000</i>
   <i type="int" name="EXXOEP">     0</i>
   <i type="int" name="FOURORBIT">     0</i>
   <i name="AEXX">      0.00000000</i>
   <i name="HFALPHA">      0.00000000</i>
   <i name="MCALPHA">      0.00000000</i>
   <i name="ALDAX">      1.00000000</i>
   <i name="AGGAX">      1.00000000</i>
   <i name="AMGGAX">      1.00000000</i>
   <i name="ALDAC">      1.00000000</i>
   <i name="AGGAC">      1.00000000</i>
   <i name="AMGGAC">      1.00000000</i>
   <i type="int" name="NKREDX">     1</i>
   <i type="int" name="NKREDY">     1</i>
   <i type="int" name="NKREDZ">     1</i>
   <i type="logical" name="SHIFTRED"> F  </i>
   <i type="logical" name="ODDONLY"> F  </i>
   <i type="logical" name="EVENONLY"> F  </i>
   <i type="int" name="LMAXFOCK">     0</i>
   <i type="int" name="NMAXFOCKAE">     0</i>
   <i type="logical" name="LFOCKAEDFT"> F  </i>
   <i name="HFSCREEN">      0.00000000</i>
   <i name="HFSCREENC">      0.00000000</i>
   <i type="int" name="NBANDSGWLOW">     0</i>
  </separator>
  <separator name="vdW DFT" >
   <i type="logical" name="LUSE_VDW"> F  </i>
   <i type="int" name="IVDW_NL">    -1</i>
   <i type="logical" name="LSPIN_VDW"> F  </i>
   <i name="ZAB_VDW">     -0.84910000</i>
   <i name="GAMMA_VDW">      1.39626340</i>
   <i name="ALPHA_VDW">      0.00000000</i>
   <i name="PARAM1">      0.12340000</i>
   <i name="PARAM2">      1.00000000</i>
   <i name="BPARAM">      6.30000000</i>
   <i name="CPARAM">      0.00930000</i>
  </separator>
  <separator name="model GW" >
   <i type="int" name="MODEL_GW">     0</i>
   <i name="MODEL_EPS0">     49.63935326</i>
   <i name="MODEL_ALPHA">      1.00000000</i>
  </separator>
  <separator name="linear response parameters" >
   <i type="logical" name="LEPSILON"> F  </i>
   <i type="logical" name="LRPA"> F  </i>
   <i type="logical" name="LNABLA"> F  </i>
   <i type="logical" name="LVEL"> F  </i>
   <i name="CSHIFT">      0.10000000</i>
   <i name="OMEGAMAX">     -1.00000000</i>
   <i name="DEG_THRESHOLD">      0.00200000</i>
   <i name="RTIME">     -0.10000000</i>
   <i name="WPLASMAI">      0.00000000</i>
   <v name="DFIELD">      0.00000000      0.00000000      0.00000000</v>
   <v name="WPLASMA">      0.00000000      0.00000000      0.00000000      0.00000000      0.00000000      0.00000000      0.00000000      0.00000000      0.00000000</v>
  </separator>
  <separator name="orbital magnetization" >
   <i type="logical" name="NUCIND"> F  </i>
   <v name="MAGPOS">      0.00000000      0.00000000      0.00000000</v>
   <i type="logical" name="LNICSALL"> T  </i>
   <i type="logical" name="ORBITALMAG"> F  </i>
   <i type="logical" name="LMAGBLOCH"> F  </i>
   <i type="logical" name="LCHIMAG"> F  </i>
   <i type="logical" name="LGAUGE"> T  </i>
   <i type="int" name="MAGATOM">     0</i>
   <v name="MAGDIPOL">      0.00000000      0.00000000      0.00000000</v>
   <v name="AVECCONST">      0.00000000      0.00000000      0.00000000</v>
  </separator>
  <separator name="response functions" >
   <i type="logical" name="LALL_IN_ONE"> F  </i>
   <i type="int" name="IALL_IN_ONE">    -1</i>
   <i type="int" name="NBANDS_WAVE">    -1</i>
   <i type="logical" name="LFINITE_TEMPERATURE"> F  </i>
   <i type="logical" name="LADDER"> F  </i>
   <i type="logical" name="LRPAFORCE"> F  </i>
   <i type="logical" name="LFXC"> F  </i>
   <i type="logical" name="LHARTREE"> T  </i>
   <i type="int" name="IBSE">     2</i>
   <v type="int" name="KPOINT">    -1     0     0     0</v>
   <i type="logical" name="LTCTC"> F  </i>
   <i type="logical" name="LTCTE"> F  </i>
   <i type="logical" name="LTETE"> F  </i>
   <i type="logical" name="LTRIPLET"> F  </i>
   <i type="logical" name="LFXCEPS"> F  </i>
   <i type="logical" name="LFXHEG"> F  </i>
   <i type="int" name="NATURALO">     2</i>
   <i type="logical" name="LHOLEGF"> F  </i>
   <i type="logical" name="L2ORDER"> F  </i>
   <i type="logical" name="LDMP1"> F  </i>
   <i type="logical" name="LMP2LT"> F  </i>
   <i type="logical" name="LSMP2LT"> F  </i>
   <i type="logical" name="LGWLF"> F  </i>
   <i name="ENCUTGW">     -1.60000002</i>
   <i name="ENCUTGWSOFT">     -1.60000002</i>
   <i name="ENCUTLF">     -1.00000000</i>
   <i type="logical" name="ESF_SPLINES"> F  </i>
   <i name="ESF_CONV">      0.01000000</i>
   <i type="int" name="ESF_NINTER">    15</i>
   <i type="int" name="LMAXMP2">    -1</i>
   <i name="SCISSOR">      0.00000000</i>
   <i type="int" name="NOMEGA">     0</i>
   <i type="int" name="NOMEGAR">     0</i>
   <i type="int" name="NBANDSGW">    -1</i>
   <i type="int" name="NBANDSO">    -1</i>
   <i type="int" name="NBANDSV">    -1</i>
   <i type="int" name="NELMGW">     1</i>
   <i type="int" name="NELMHF">     1</i>
   <i type="int" name="DIM">     3</i>
   <i type="int" name="IESPILON">     4</i>
   <i type="int" name="ANTIRES">     0</i>
   <i name="OMEGAMAX">    -30.00000000</i>
   <i name="OMEGAMIN">    -30.00000000</i>
   <i name="OMEGATL">   -200.00000000</i>
   <i type="int" name="OMEGAGRID">     0</i>
   <i name="CSHIFT">     -0.10000000</i>
   <i type="logical" name="LSELFENERGY"> F  </i>
   <i type="logical" name="LSPECTRAL"> F  </i>
   <i type="logical" name="LSPECTRALGW"> F  </i>
   <i type="logical" name="LSINGLES"> F  </i>
   <i type="logical" name="LFERMIGW"> F  </i>
   <i type="logical" name="ODDONLYGW"> F  </i>
   <i type="logical" name="EVENONLYGW"> F  </i>
   <i type="int" name="NKREDLFX">     1</i>
   <i type="int" name="NKREDLFY">     1</i>
   <i type="int" name="NKREDLFZ">     1</i>
   <i type="int" name="MAXMEM">  2800</i>
   <i type="int" name="TELESCOPE">     0</i>
   <i type="int" name="NTAUPAR">    -1</i>
   <i type="int" name="NOMEGAPAR">    -1</i>
   <i name="DAMP_NEWTON">      0.80000001</i>
   <i name="LAMBDA">      1.00000000</i>
  </separator>
  <separator name="External order field" >
   <i name="OFIELD_KAPPA">      0.00000000</i>
   <v name="OFIELD_K">      0.00000000      0.00000000      0.00000000</v>
   <i name="OFIELD_Q6_NEAR">      0.00000000</i>
   <i name="OFIELD_Q6_FAR">      0.00000000</i>
   <i name="OFIELD_A">      0.00000000</i>
  </separator>
  <separator name="optional k-points parameters" >
   <i type="int" name="KPOINTS_OPT_MODE">     1</i>
   <i type="logical" name="LKPOINTS_OPT"> F  </i>
  </separator>
 </parameters>
 <atominfo>
  <atoms>      92 </atoms>
  <types>       1 </types>
  <array name="atoms" >
   <dimension dim="1">ion</dimension>
   <field type="string">element</field>
   <field type="int">atomtype</field>
   <set>
    <rc><c>C </c><c>   1</c></rc>
    <rc><c>C </c><c>   1</c></rc>
    <rc><c>C </c><c>   1</c></rc>
    <rc><c>C </c><c>   1</c></rc>
    <rc><c>C </c><c>   1</c></rc>
    <rc><c>C </c><c>   1</c></rc>
    <rc><c>C </c><c>   1</c></rc>
    <rc><c>C </c><c>   1</c></rc>
    <rc><c>C </c><c>   1</c></rc>
    <rc><c>C </c><c>   1</c></rc>
    <rc><c>C </c><c>   1</c></rc>
    <rc><c>C </c><c>   1</c></rc>
    <rc><c>C </c><c>   1</c></rc>
    <rc><c>C </c><c>   1</c></rc>
    <rc><c>C </c><c>   1</c></rc>
    <rc><c>C </c><c>   1</c></rc>
    <rc><c>C </c><c>   1</c></rc>
    <rc><c>C </c><c>   1</c></rc>
    <rc><c>C </c><c>   1</c></rc>
    <rc><c>C </c><c>   1</c></rc>
    <rc><c>C </c><c>   1</c></rc>
    <rc><c>C </c><c>   1</c></rc>
    <rc><c>C </c><c>   1</c></rc>
    <rc><c>C </c><c>   1</c></rc>
    <rc><c>C </c><c>   1</c></rc>
    <rc><c>C </c><c>   1</c></rc>
    <rc><c>C </c><c>   1</c></rc>
    <rc><c>C </c><c>   1</c></rc>
    <rc><c>C </c><c>   1</c></rc>
    <rc><c>C </c><c>   1</c></rc>
    <rc><c>C </c><c>   1</c></rc>
    <rc><c>C </c><c>   1</c></rc>
    <rc><c>C </c><c>   1</c></rc>
    <rc><c>C </c><c>   1</c></rc>
    <rc><c>C </c><c>   1</c></rc>
    <rc><c>C </c><c>   1</c></rc>
    <rc><c>C </c><c>   1</c></rc>
    <rc><c>C </c><c>   1</c></rc>
    <rc><c>C </c><c>   1</c></rc>
    <rc><c>C </c><c>   1</c></rc>
    <rc><c>C </c><c>   1</c></rc>
    <rc><c>C </c><c>   1</c></rc>
    <rc><c>C </c><c>   1</c></rc>
    <rc><c>C </c><c>   1</c></rc>
    <rc><c>C </c><c>   1</c></rc>
    <rc><c>C </c><c>   1</c></rc>
    <rc><c>C </c><c>   1</c></rc>
    <rc><c>C </c><c>   1</c></rc>
    <rc><c>C </c><c>   1</c></rc>
    <rc><c>C </c><c>   1</c></rc>
    <rc><c>C </c><c>   1</c></rc>
    <rc><c>C </c><c>   1</c></rc>
    <rc><c>C </c><c>   1</c></rc>
    <rc><c>C </c><c>   1</c></rc>
    <rc><c>C </c><c>   1</c></rc>
    <rc><c>C </c><c>   1</c></rc>
    <rc><c>C </c><c>   1</c></rc>
    <rc><c>C </c><c>   1</c></rc>
    <rc><c>C </c><c>   1</c></rc>
    <rc><c>C </c><c>   1</c></rc>
    <rc><c>C </c><c>   1</c></rc>
    <rc><c>C </c><c>   1</c></rc>
    <rc><c>C </c><c>   1</c></rc>
    <rc><c>C </c><c>   1</c></rc>
    <rc><c>C </c><c>   1</c></rc>
    <rc><c>C </c><c>   1</c></rc>
    <rc><c>C </c><c>   1</c></rc>
    <rc><c>C </c><c>   1</c></rc>
    <rc><c>C </c><c>   1</c></rc>
    <rc><c>C </c><c>   1</c></rc>
    <rc><c>C </c><c>   1</c></rc>
    <rc><c>C </c><c>   1</c></rc>
    <rc><c>C </c><c>   1</c></rc>
    <rc><c>C </c><c>   1</c></rc>
    <rc><c>C </c><c>   1</c></rc>
    <rc><c>C </c><c>   1</c></rc>
    <rc><c>C </c><c>   1</c></rc>
    <rc><c>C </c><c>   1</c></rc>
    <rc><c>C </c><c>   1</c></rc>
    <rc><c>C </c><c>   1</c></rc>
    <rc><c>C </c><c>   1</c></rc>
    <rc><c>C </c><c>   1</c></rc>
    <rc><c>C </c><c>   1</c></rc>
    <rc><c>C </c><c>   1</c></rc>
    <rc><c>C </c><c>   1</c></rc>
    <rc><c>C </c><c>   1</c></rc>
    <rc><c>C </c><c>   1</c></rc>
    <rc><c>C </c><c>   1</c></rc>
    <rc><c>C </c><c>   1</c></rc>
    <rc><c>C </c><c>   1</c></rc>
    <rc><c>C </c><c>   1</c></rc>
    <rc><c>C </c><c>   1</c></rc>
   </set>
  </array>
  <array name="atomtypes" >
   <dimension dim="1">type</dimension>
   <field type="int">atomspertype</field>
   <field type="string">element</field>
   <field>mass</field>
   <field>valence</field>
   <field type="string">pseudopotential</field>
   <set>
    <rc><c>  92</c><c>C </c><c>     12.01100000</c><c>      4.00000000</c><c>  PAW_PBE C 08Apr2002                   </c></rc>
   </set>
  </array>
 </atominfo>
 <structure name="initialpos" >
  <crystal>
   <varray name="basis" >
    <v>      28.05000000       0.00000000       0.00000000 </v>
    <v>       0.00000000       8.10000000       0.00000000 </v>
    <v>       0.00000000       0.00000000      33.50000000 </v>
   </varray>
   <i name="volume">   7611.36750000 </i>
   <varray name="rec_basis" >
    <v>       0.03565062       0.00000000       0.00000000 </v>
    <v>       0.00000000       0.12345679       0.00000000 </v>
    <v>       0.00000000       0.00000000       0.02985075 </v>
   </varray>
  </crystal>
  <varray name="positions" >
   <v>       0.00718734       0.09281247       0.52770149 </v>
   <v>       0.00800674       0.25982963       0.52425075 </v>
   <v>       0.04920927       0.01384358       0.52861791 </v>
   <v>       0.04999287       0.35171728       0.52449552 </v>
   <v>       0.09358824       0.10003901       0.52471343 </v>
   <v>       0.09472371       0.26969383       0.52204776 </v>
   <v>       0.13804314       0.01799272       0.52123881 </v>
   <v>       0.13778895       0.35325556       0.52123284 </v>
   <v>       0.18027308       0.10761852       0.50798507 </v>
   <v>       0.18138217       0.27467654       0.51443582 </v>
   <v>       0.22187059       0.01700086       0.50119701 </v>
   <v>       0.22655936       0.35389136       0.51232836 </v>
   <v>       0.26288627       0.10221247       0.48963284 </v>
   <v>       0.26646595       0.26776420       0.49851940 </v>
   <v>       0.30730481       0.02062321       0.48263582 </v>
   <v>       0.31078538       0.35533210       0.49548657 </v>
   <v>       0.34880428       0.11451704       0.47420597 </v>
   <v>       0.35084242       0.27900247       0.48057612 </v>
   <v>       0.39320499       0.02562012       0.46928657 </v>
   <v>       0.39489483       0.35627654       0.47567463 </v>
   <v>       0.43716578       0.10564309       0.46068060 </v>
   <v>       0.43650267       0.27454198       0.46512836 </v>
   <v>       0.48315152       0.02410370       0.45584478 </v>
   <v>       0.48119430       0.36121235       0.45624776 </v>
   <v>       0.52708378       0.11051815       0.45259701 </v>
   <v>       0.52537255       0.28284321       0.45262090 </v>
   <v>       0.57002139       0.02479877       0.45219104 </v>
   <v>       0.56992157       0.35755062       0.45336716 </v>
   <v>       0.61365419       0.10507975       0.46164478 </v>
   <v>       0.61283422       0.27434691       0.46032836 </v>
   <v>       0.65454545       0.02079889       0.47308955 </v>
   <v>       0.65703030       0.35874568       0.47098507 </v>
   <v>       0.69777897       0.10226099       0.48150746 </v>
   <v>       0.70046702       0.27420370       0.47790149 </v>
   <v>       0.73948663       0.02208432       0.49719701 </v>
   <v>       0.74140463       0.35843704       0.49029254 </v>
   <v>       0.78252763       0.10535951       0.50760000 </v>
   <v>       0.78395365       0.27003827       0.49967761 </v>
   <v>       0.82357219       0.02048926       0.52268657 </v>
   <v>       0.82612478       0.35453827       0.51418806 </v>
   <v>       0.86639929       0.10303593       0.52931343 </v>
   <v>       0.86817112       0.26736914       0.52095522 </v>
   <v>       0.91209982       0.02079667       0.53772836 </v>
   <v>       0.91405704       0.35210494       0.52434925 </v>
   <v>       0.95361497       0.09833148       0.52939701 </v>
   <v>       0.95627451       0.26753457       0.52135522 </v>
   <v>       0.00844371       0.59783827       0.54104776 </v>
   <v>       0.01000346       0.76585679       0.54269552 </v>
   <v>       0.05136684       0.51481235       0.53794328 </v>
   <v>       0.05276328       0.84927531       0.53679701 </v>
   <v>       0.09667522       0.59488642       0.53778806 </v>
   <v>       0.09762852       0.76850494       0.53835522 </v>
   <v>       0.13795365       0.51880864       0.53264776 </v>
   <v>       0.13976720       0.85324815       0.52812836 </v>
   <v>       0.18296720       0.59692099       0.52873731 </v>
   <v>       0.18459679       0.76810988       0.52611045 </v>
   <v>       0.22831480       0.51641852       0.52421791 </v>
   <v>       0.22702496       0.85101605       0.51408955 </v>
   <v>       0.27136435       0.60673333       0.51629254 </v>
   <v>       0.26990802       0.77080988       0.50871642 </v>
   <v>       0.31439608       0.52192346       0.50610746 </v>
   <v>       0.30870553       0.85485185       0.49212537 </v>
   <v>       0.35584706       0.60780494       0.49621493 </v>
   <v>       0.35291373       0.77304691       0.48849254 </v>
   <v>       0.39712299       0.52756173       0.48066866 </v>
   <v>       0.39726203       0.85910988       0.47787164 </v>
   <v>       0.43844207       0.60776914       0.46835522 </v>
   <v>       0.43963993       0.77851111       0.46934030 </v>
   <v>       0.48062032       0.52755185       0.45843284 </v>
   <v>       0.48249198       0.85660000       0.45660597 </v>
   <v>       0.52615686       0.60812346       0.45499403 </v>
   <v>       0.52626381       0.77622840       0.45541194 </v>
   <v>       0.57052406       0.52900741       0.45633731 </v>
   <v>       0.56916578       0.86179136       0.45982388 </v>
   <v>       0.61436720       0.61147778       0.46623582 </v>
   <v>       0.61272727       0.78075309       0.46848358 </v>
   <v>       0.65593939       0.52296049       0.47607164 </v>
   <v>       0.65449911       0.85651111       0.48070448 </v>
   <v>       0.69910873       0.60900123       0.48841493 </v>
   <v>       0.69670588       0.77394321       0.49369254 </v>
   <v>       0.74017825       0.52939383       0.50000299 </v>
   <v>       0.73648485       0.85950123       0.50678507 </v>
   <v>       0.78192157       0.60335185       0.51591343 </v>
   <v>       0.77920856       0.77063951       0.51870448 </v>
   <v>       0.82537968       0.52216296       0.52061791 </v>
   <v>       0.82281640       0.85122716       0.52919104 </v>
   <v>       0.86886988       0.60088272       0.53211940 </v>
   <v>       0.86616043       0.76640000       0.53969552 </v>
   <v>       0.91490909       0.52067160       0.52809254 </v>
   <v>       0.91002852       0.85216296       0.54488955 </v>
   <v>       0.95621747       0.60152716       0.54316716 </v>
   <v>       0.95559715       0.77480864       0.54774328 </v>
  </varray>
 </structure>
 <calculation>
  <scstep>
   <time name="dav">   11.20   11.21</time>
   <time name="total">   11.66   11.69</time>
   <energy>
    <i name="alphaZ">     91.34886789 </i>
    <i name="ewald"> 120596.76290863 </i>
    <i name="hartreedc">-129910.51792472 </i>
    <i name="XCdc">   1222.22401079 </i>
    <i name="pawpsdc">   9984.02826696 </i>
    <i name="pawaedc"> -10036.41360137 </i>
    <i name="eentropy">     -0.81447515 </i>
    <i name="bandstr">  -1848.31191418 </i>
    <i name="atom">  13537.65479391 </i>
    <i name="e_fr_energy">   3635.96093275 </i>
    <i name="e_wo_entrp">   3636.77540790 </i>
    <i name="e_0_energy">   3636.36817032 </i>
   </energy>
  </scstep>
  <scstep>
   <time name="dav">   13.01   13.02</time>
   <time name="total">   13.01   13.02</time>
   <energy>
    <i name="e_fr_energy">    177.21997614 </i>
    <i name="e_wo_entrp">    177.49642465 </i>
    <i name="e_0_energy">    177.35820039 </i>
   </energy>
  </scstep>
  <scstep>
   <time name="dav">   11.31   11.31</time>
   <time name="total">   11.31   11.31</time>
   <energy>
    <i name="e_fr_energy">   -834.99843684 </i>
    <i name="e_wo_entrp">   -834.96675099 </i>
    <i name="e_0_energy">   -834.98259392 </i>
   </energy>
  </scstep>
  <scstep>
   <time name="dav">   10.90   10.90</time>
   <time name="total">   10.90   10.90</time>
   <energy>
    <i name="e_fr_energy">   -897.17419629 </i>
    <i name="e_wo_entrp">   -897.12228205 </i>
    <i name="e_0_energy">   -897.14823917 </i>
   </energy>
  </scstep>
  <scstep>
   <time name="dav">   11.27   11.28</time>
   <time name="total">   12.76   12.77</time>
   <energy>
    <i name="e_fr_energy">   -898.70993537 </i>
    <i name="e_wo_entrp">   -898.65721396 </i>
    <i name="e_0_energy">   -898.68357467 </i>
   </energy>
  </scstep>
  <scstep>
   <time name="dav">   10.21   10.21</time>
   <time name="total">   12.01   12.02</time>
   <energy>
    <i name="e_fr_energy">   -848.66460436 </i>
    <i name="e_wo_entrp">   -848.60680156 </i>
    <i name="e_0_energy">   -848.63570296 </i>
   </energy>
  </scstep>
  <scstep>
   <time name="dav">   10.13   10.14</time>
   <time name="total">   11.93   11.94</time>
   <energy>
    <i name="e_fr_energy">   -829.99920995 </i>
    <i name="e_wo_entrp">   -829.93148766 </i>
    <i name="e_0_energy">   -829.96534881 </i>
   </energy>
  </scstep>
  <scstep>
   <time name="dav">   10.50   10.51</time>
   <time name="total">   12.31   12.31</time>
   <energy>
    <i name="e_fr_energy">   -829.71336715 </i>
    <i name="e_wo_entrp">   -829.65109016 </i>
    <i name="e_0_energy">   -829.68222865 </i>
   </energy>
  </scstep>
  <scstep>
   <time name="dav">   10.61   10.62</time>
   <time name="total">   12.41   12.43</time>
   <energy>
    <i name="e_fr_energy">   -829.60399846 </i>
    <i name="e_wo_entrp">   -829.54021357 </i>
    <i name="e_0_energy">   -829.57210602 </i>
   </energy>
  </scstep>
  <scstep>
   <time name="dav">   11.16   11.17</time>
   <time name="total">   12.98   12.98</time>
   <energy>
    <i name="e_fr_energy">   -829.56824384 </i>
    <i name="e_wo_entrp">   -829.50424809 </i>
    <i name="e_0_energy">   -829.53624596 </i>
   </energy>
  </scstep>
  <scstep>
   <time name="dav">   10.28   10.29</time>
   <time name="total">   12.11   12.12</time>
   <energy>
    <i name="e_fr_energy">   -829.53864381 </i>
    <i name="e_wo_entrp">   -829.47474622 </i>
    <i name="e_0_energy">   -829.50669501 </i>
   </energy>
  </scstep>
  <scstep>
   <time name="dav">   10.15   10.15</time>
   <time name="total">   11.98   11.98</time>
   <energy>
    <i name="e_fr_energy">   -829.53501732 </i>
    <i name="e_wo_entrp">   -829.47103315 </i>
    <i name="e_0_energy">   -829.50302523 </i>
   </energy>
  </scstep>
  <scstep>
   <time name="dav">   10.11   10.11</time>
   <time name="total">   11.94   11.95</time>
   <energy>
    <i name="e_fr_energy">   -829.54754686 </i>
    <i name="e_wo_entrp">   -829.48369692 </i>
    <i name="e_0_energy">   -829.51562189 </i>
   </energy>
  </scstep>
  <scstep>
   <time name="dav">   10.28   10.28</time>
   <time name="total">   12.12   12.12</time>
   <energy>
    <i name="e_fr_energy">   -829.56424775 </i>
    <i name="e_wo_entrp">   -829.50032489 </i>
    <i name="e_0_energy">   -829.53228632 </i>
   </energy>
  </scstep>
  <scstep>
   <time name="dav">   10.16   10.17</time>
   <time name="total">   12.02   12.02</time>
   <energy>
    <i name="e_fr_energy">   -829.58482595 </i>
    <i name="e_wo_entrp">   -829.52085080 </i>
    <i name="e_0_energy">   -829.55283837 </i>
   </energy>
  </scstep>
  <scstep>
   <time name="dav">   10.49   10.49</time>
   <time name="total">   12.36   12.37</time>
   <energy>
    <i name="e_fr_energy">   -829.59322944 </i>
    <i name="e_wo_entrp">   -829.52928970 </i>
    <i name="e_0_energy">   -829.56125957 </i>
   </energy>
  </scstep>
  <scstep>
   <time name="dav">   10.28   10.29</time>
   <time name="total">   12.16   12.16</time>
   <energy>
    <i name="e_fr_energy">   -829.59822961 </i>
    <i name="e_wo_entrp">   -829.53427894 </i>
    <i name="e_0_energy">   -829.56625428 </i>
   </energy>
  </scstep>
  <scstep>
   <time name="dav">   10.48   10.49</time>
   <time name="total">   12.36   12.37</time>
   <energy>
    <i name="e_fr_energy">   -829.60025824 </i>
    <i name="e_wo_entrp">   -829.53631254 </i>
    <i name="e_0_energy">   -829.56828539 </i>
   </energy>
  </scstep>
  <scstep>
   <time name="dav">    9.58    9.58</time>
   <time name="total">   11.47   11.48</time>
   <energy>
    <i name="e_fr_energy">   -829.60134806 </i>
    <i name="e_wo_entrp">   -829.53740587 </i>
    <i name="e_0_energy">   -829.56937697 </i>
   </energy>
  </scstep>
  <scstep>
   <time name="dav">    9.36    9.36</time>
   <time name="total">   11.26   11.27</time>
   <energy>
    <i name="e_fr_energy">   -829.60173095 </i>
    <i name="e_wo_entrp">   -829.53778378 </i>
    <i name="e_0_energy">   -829.56975737 </i>
   </energy>
  </scstep>
  <scstep>
   <time name="dav">    8.79    8.79</time>
   <time name="total">   10.72   10.72</time>
   <energy>
    <i name="e_fr_energy">   -829.60196448 </i>
    <i name="e_wo_entrp">   -829.53801613 </i>
    <i name="e_0_energy">   -829.56999031 </i>
   </energy>
  </scstep>
  <scstep>
   <time name="dav">    7.71    7.71</time>
   <time name="total">    9.64    9.65</time>
   <energy>
    <i name="e_fr_energy">   -829.60202207 </i>
    <i name="e_wo_entrp">   -829.53807520 </i>
    <i name="e_0_energy">   -829.57004864 </i>
   </energy>
  </scstep>
  <scstep>
   <time name="dav">    7.11    7.12</time>
   <time name="total">    9.06    9.06</time>
   <energy>
    <i name="e_fr_energy">   -829.60206151 </i>
    <i name="e_wo_entrp">   -829.53811439 </i>
    <i name="e_0_energy">   -829.57008795 </i>
   </energy>
  </scstep>
  <scstep>
   <time name="dav">    7.33    7.33</time>
   <time name="total">    9.29    9.29</time>
   <energy>
    <i name="e_fr_energy">   -829.60207576 </i>
    <i name="e_wo_entrp">   -829.53812848 </i>
    <i name="e_0_energy">   -829.57010212 </i>
   </energy>
  </scstep>
  <scstep>
   <time name="dav">    6.92    6.92</time>
   <time name="total">    8.90    8.90</time>
   <energy>
    <i name="e_fr_energy">   -829.60208065 </i>
    <i name="e_wo_entrp">   -829.53813358 </i>
    <i name="e_0_energy">   -829.57010712 </i>
   </energy>
  </scstep>
  <scstep>
   <time name="dav">    6.92    6.92</time>
   <time name="total">    8.92    8.92</time>
   <energy>
    <i name="e_fr_energy">   -829.60208491 </i>
    <i name="e_wo_entrp">   -829.53813763 </i>
    <i name="e_0_energy">   -829.57011127 </i>
   </energy>
  </scstep>
  <scstep>
   <time name="dav">    7.18    7.19</time>
   <time name="total">    7.54    7.55</time>
   <energy>
    <i name="alphaZ">     91.34886789 </i>
    <i name="ewald"> 120596.76290863 </i>
    <i name="hartreedc">-131682.50675585 </i>
    <i name="XCdc">   1279.79907876 </i>
    <i name="pawpsdc">  41315.21359024 </i>
    <i name="pawaedc"> -41379.36115172 </i>
    <i name="eentropy">     -0.06394723 </i>
    <i name="bandstr">  -4588.44947033 </i>
    <i name="atom">  13537.65479391 </i>
    <i name="e_fr_energy">   -829.60208571 </i>
    <i name="e_wo_entrp">   -829.53813847 </i>
    <i name="e_0_energy">   -829.57011209 </i>
   </energy>
  </scstep>
  <structure>
   <crystal>
    <varray name="basis" >
     <v>      28.05000000       0.00000000       0.00000000 </v>
     <v>       0.00000000       8.10000000       0.00000000 </v>
     <v>       0.00000000       0.00000000      33.50000000 </v>
    </varray>
    <i name="volume">   7611.36750000 </i>
    <varray name="rec_basis" >
     <v>       0.03565062       0.00000000       0.00000000 </v>
     <v>       0.00000000       0.12345679       0.00000000 </v>
     <v>       0.00000000       0.00000000       0.02985075 </v>
    </varray>
   </crystal>
   <varray name="positions" >
    <v>       0.00718734       0.09281247       0.52770149 </v>
    <v>       0.00800674       0.25982963       0.52425075 </v>
    <v>       0.04920927       0.01384358       0.52861791 </v>
    <v>       0.04999287       0.35171728       0.52449552 </v>
    <v>       0.09358824       0.10003901       0.52471343 </v>
    <v>       0.09472371       0.26969383       0.52204776 </v>
    <v>       0.13804314       0.01799272       0.52123881 </v>
    <v>       0.13778895       0.35325556       0.52123284 </v>
    <v>       0.18027308       0.10761852       0.50798507 </v>
    <v>       0.18138217       0.27467654       0.51443582 </v>
    <v>       0.22187059       0.01700086       0.50119701 </v>
    <v>       0.22655936       0.35389136       0.51232836 </v>
    <v>       0.26288627       0.10221247       0.48963284 </v>
    <v>       0.26646595       0.26776420       0.49851940 </v>
    <v>       0.30730481       0.02062321       0.48263582 </v>
    <v>       0.31078538       0.35533210       0.49548657 </v>
    <v>       0.34880428       0.11451704       0.47420597 </v>
    <v>       0.35084242       0.27900247       0.48057612 </v>
    <v>       0.39320499       0.02562012       0.46928657 </v>
    <v>       0.39489483       0.35627654       0.47567463 </v>
    <v>       0.43716578       0.10564309       0.46068060 </v>
    <v>       0.43650267       0.27454198       0.46512836 </v>
    <v>       0.48315152       0.02410370       0.45584478 </v>
    <v>       0.48119430       0.36121235       0.45624776 </v>
    <v>       0.52708378       0.11051815       0.45259701 </v>
    <v>       0.52537255       0.28284321       0.45262090 </v>
    <v>       0.57002139       0.02479877       0.45219104 </v>
    <v>       0.56992157       0.35755062       0.45336716 </v>
    <v>       0.61365419       0.10507975       0.46164478 </v>
    <v>       0.61283422       0.27434691       0.46032836 </v>
    <v>       0.65454545       0.02079889       0.47308955 </v>
    <v>       0.65703030       0.35874568       0.47098507 </v>
    <v>       0.69777897       0.10226099       0.48150746 </v>
    <v>       0.70046702       0.27420370       0.47790149 </v>
    <v>       0.73948663       0.02208432       0.49719701 </v>
    <v>       0.74140463       0.35843704       0.49029254 </v>
    <v>       0.78252763       0.10535951       0.50760000 </v>
    <v>       0.78395365       0.27003827       0.49967761 </v>
    <v>       0.82357219       0.02048926       0.52268657 </v>
    <v>       0.82612478       0.35453827       0.51418806 </v>
    <v>       0.86639929       0.10303593       0.52931343 </v>
    <v>       0.86817112       0.26736914       0.52095522 </v>
    <v>       0.91209982       0.02079667       0.53772836 </v>
    <v>       0.91405704       0.35210494       0.52434925 </v>
    <v>       0.95361497       0.09833148       0.52939701 </v>
    <v>       0.95627451       0.26753457       0.52135522 </v>
    <v>       0.00844371       0.59783827       0.54104776 </v>
    <v>       0.01000346       0.76585679       0.54269552 </v>
    <v>       0.05136684       0.51481235       0.53794328 </v>
    <v>       0.05276328       0.84927531       0.53679701 </v>
    <v>       0.09667522       0.59488642       0.53778806 </v>
    <v>       0.09762852       0.76850494       0.53835522 </v>
    <v>       0.13795365       0.51880864       0.53264776 </v>
    <v>       0.13976720       0.85324815       0.52812836 </v>
    <v>       0.18296720       0.59692099       0.52873731 </v>
    <v>       0.18459679       0.76810988       0.52611045 </v>
    <v>       0.22831480       0.51641852       0.52421791 </v>
    <v>       0.22702496       0.85101605       0.51408955 </v>
    <v>       0.27136435       0.60673333       0.51629254 </v>
    <v>       0.26990802       0.77080988       0.50871642 </v>
    <v>       0.31439608       0.52192346       0.50610746 </v>
    <v>       0.30870553       0.85485185       0.49212537 </v>
    <v>       0.35584706       0.60780494       0.49621493 </v>
    <v>       0.35291373       0.77304691       0.48849254 </v>
    <v>       0.39712299       0.52756173       0.48066866 </v>
    <v>       0.39726203       0.85910988       0.47787164 </v>
    <v>       0.43844207       0.60776914       0.46835522 </v>
    <v>       0.43963993       0.77851111       0.46934030 </v>
    <v>       0.48062032       0.52755185       0.45843284 </v>
    <v>       0.48249198       0.85660000       0.45660597 </v>
    <v>       0.52615686       0.60812346       0.45499403 </v>
    <v>       0.52626381       0.77622840       0.45541194 </v>
    <v>       0.57052406       0.52900741       0.45633731 </v>
    <v>       0.56916578       0.86179136       0.45982388 </v>
    <v>       0.61436720       0.61147778       0.46623582 </v>
    <v>       0.61272727       0.78075309       0.46848358 </v>
    <v>       0.65593939       0.52296049       0.47607164 </v>
    <v>       0.65449911       0.85651111       0.48070448 </v>
    <v>       0.69910873       0.60900123       0.48841493 </v>
    <v>       0.69670588       0.77394321       0.49369254 </v>
    <v>       0.74017825       0.52939383       0.50000299 </v>
    <v>       0.73648485       0.85950123       0.50678507 </v>
    <v>       0.78192157       0.60335185       0.51591343 </v>
    <v>       0.77920856       0.77063951       0.51870448 </v>
    <v>       0.82537968       0.52216296       0.52061791 </v>
    <v>       0.82281640       0.85122716       0.52919104 </v>
    <v>       0.86886988       0.60088272       0.53211940 </v>
    <v>       0.86616043       0.76640000       0.53969552 </v>
    <v>       0.91490909       0.52067160       0.52809254 </v>
    <v>       0.91002852       0.85216296       0.54488955 </v>
    <v>       0.95621747       0.60152716       0.54316716 </v>
    <v>       0.95559715       0.77480864       0.54774328 </v>
   </varray>
  </structure>
  <varray name="forces" >
   <v>      -0.85202165       0.24264044      -0.15941806 </v>
   <v>       0.85305122       1.98714194      -0.82993928 </v>
   <v>       2.47581477      -0.01791944       0.53265180 </v>
   <v>       0.39519293      -0.20302830       1.12959462 </v>
   <v>       0.20872251      -0.30299272      -0.87939819 </v>
   <v>      -1.67215295      -0.50287240      -0.19021490 </v>
   <v>       0.09477155       1.98085258      -0.99641930 </v>
   <v>       0.73684373       0.45882749       1.14165630 </v>
   <v>      -1.51446021      -2.42907358       1.39393588 </v>
   <v>       0.28283859       0.19229640      -1.08301067 </v>
   <v>       0.43045714      -0.59097187       0.52552986 </v>
   <v>      -0.90531399      -0.68134501       0.72715023 </v>
   <v>       1.74657336      -0.42169452       0.18257247 </v>
   <v>       0.54691801       1.83966360      -0.25243347 </v>
   <v>      -1.18708022       0.96428319       0.08339038 </v>
   <v>      -1.16674301       0.40258371       0.61722236 </v>
   <v>       1.15992616      -3.74818974      -0.05076044 </v>
   <v>       0.46901735       0.13910332      -0.23221075 </v>
   <v>       0.44080294       0.48796992      -0.07163495 </v>
   <v>       0.36807885       1.41839938       0.17395834 </v>
   <v>       0.52443769      -0.11482487       0.52373436 </v>
   <v>       2.19266695       0.39535269      -1.64009535 </v>
   <v>      -1.52986008       1.79774788      -0.21410133 </v>
   <v>      -1.53202055      -1.48093694       0.92741609 </v>
   <v>      -1.91695509       0.29346570      -0.64508634 </v>
   <v>       0.10880414      -2.14988280      -0.42528218 </v>
   <v>       0.85385713       1.66310790       1.86761298 </v>
   <v>       0.47801261       1.58309120       0.52900558 </v>
   <v>      -0.98557971       0.32786212      -1.27954854 </v>
   <v>       1.97374259       0.45155127       0.29727356 </v>
   <v>       1.79573304       1.43445842       1.00260326 </v>
   <v>      -1.03875106      -2.07164436      -0.73852566 </v>
   <v>       1.49191386       0.85259986      -0.03888331 </v>
   <v>      -0.98717805      -0.31154933       0.24852959 </v>
   <v>      -0.36175870       1.23275217       0.67075614 </v>
   <v>       1.16255286       0.38507622       0.65138400 </v>
   <v>      -0.23544643      -1.60325426      -0.98151701 </v>
   <v>       0.82497825       2.13414645       1.52660443 </v>
   <v>      -0.59634242      -0.06451184       0.50401287 </v>
   <v>      -1.14687137      -0.50757954      -1.32791032 </v>
   <v>       2.00080735      -0.44452779      -0.45113534 </v>
   <v>       1.89459445       1.18713618       0.57631831 </v>
   <v>      -2.43766528       0.08572197      -0.37865608 </v>
   <v>      -0.56756097      -0.47546715      -1.43246100 </v>
   <v>       0.79402574       0.36700135      -0.51202335 </v>
   <v>      -1.70000394      -0.83827732       1.06393072 </v>
   <v>       1.25149927       0.14879731       0.75104971 </v>
   <v>      -0.13913863       0.69833618       0.70562582 </v>
   <v>      -0.52799516      -0.74142827      -1.49276105 </v>
   <v>      -0.54341063      -0.89886247       0.67466747 </v>
   <v>      -3.30427312       2.99577233       1.23077109 </v>
   <v>      -1.13711407      -0.27548951      -0.67346738 </v>
   <v>       3.74823230      -2.43331620      -1.59195595 </v>
   <v>       1.10436918      -1.63301486       0.65831359 </v>
   <v>       1.36990223       0.93258040       0.92484736 </v>
   <v>      -0.69024401       0.51676680      -0.08116933 </v>
   <v>      -0.37462811       1.01846816      -0.98859920 </v>
   <v>      -2.44248817       1.18616248      -0.78926124 </v>
   <v>       0.45597025      -2.36865244       0.38733087 </v>
   <v>      -0.22607952       1.37979330       0.05186362 </v>
   <v>      -1.59828275      -0.64700922       0.00463799 </v>
   <v>       1.89005219      -0.33390313      -0.27465183 </v>
   <v>       0.85673747      -0.59820432      -1.09767162 </v>
   <v>       1.69014080       1.68152505       0.37661213 </v>
   <v>      -0.62584789      -1.09647646       0.52064731 </v>
   <v>      -2.89390476      -0.10481308      -0.62214353 </v>
   <v>       0.12304780       0.99433685       0.68482185 </v>
   <v>       0.51236490      -0.46062998      -0.75657698 </v>
   <v>       1.55628825       0.47486410      -0.44521171 </v>
   <v>      -0.79175325       0.03915054       0.96483308 </v>
   <v>      -0.57817899      -0.25127572       0.31433081 </v>
   <v>       0.08213316      -0.15026715       0.27651533 </v>
   <v>       0.66349501      -0.54397244       0.12162256 </v>
   <v>       0.68477287      -1.83494350      -1.03690534 </v>
   <v>      -1.72680145      -0.95125381      -0.07501642 </v>
   <v>      -0.47950840      -1.44419860       0.35015058 </v>
   <v>       1.21077843       2.55898675      -0.36506585 </v>
   <v>       0.28345839      -0.31837282      -0.43175861 </v>
   <v>      -2.07911046      -1.28393908       0.62645755 </v>
   <v>      -1.73488297       1.32363979      -0.36403128 </v>
   <v>       1.08863558      -3.14311855      -0.99496725 </v>
   <v>       1.88373686      -1.64553018      -0.08183790 </v>
   <v>      -1.49043066      -0.25805788      -0.70165483 </v>
   <v>       0.57926806       1.91920611       0.72796948 </v>
   <v>       0.86114336      -0.29168893       0.19833240 </v>
   <v>      -0.82636639       0.14038463       0.04838541 </v>
   <v>       0.11014889      -0.84253390      -0.67460860 </v>
   <v>       0.18624373       1.13943615      -0.27176998 </v>
   <v>      -0.50681112       1.64332536       2.44388251 </v>
   <v>       2.13046170       0.06457156       0.23884664 </v>
   <v>      -2.10606829       0.11311658      -1.36411275 </v>
   <v>      -1.47093195      -1.76255750      -0.19349486 </v>
  </varray>
  <varray name="stress" >
   <v>       2.55896866      -1.76174982      -1.12732881 </v>
   <v>      -1.76174982      51.60331796       0.49159698 </v>
   <v>      -1.12732881       0.49159698      -0.84947399 </v>
  </varray>
  <energy>
   <i name="e_fr_energy">   -829.60208571 </i>
   <i name="e_wo_entrp">   -829.53813847 </i>
   <i name="e_0_energy">   -829.57011209 </i>
  </energy>
  <time name="totalsc">  316.64  316.82</time>
  <eigenvalues>
   <array>
    <dimension dim="1">band</dimension>
    <dimension dim="2">kpoint</dimension>
    <dimension dim="3">spin</dimension>
    <field>eigene</field>
    <field>occ</field>
    <set>
     <set comment="spin 1">
      <set comment="kpoint 1">
       <r>  -23.1851    1.0000 </r>
       <r>  -23.0946    1.0000 </r>
       <r>  -23.0133    1.0000 </r>
       <r>  -22.6923    1.0000 </r>
       <r>  -22.6291    1.0000 </r>
       <r>  -22.2989    1.0000 </r>
       <r>  -22.0641    1.0000 </r>
       <r>  -21.9926    1.0000 </r>
       <r>  -21.5773    1.0000 </r>
       <r>  -21.5309    1.0000 </r>
       <r>  -21.4561    1.0000 </r>
       <r>  -21.4100    1.0000 </r>
       <r>  -21.2299    1.0000 </r>
       <r>  -21.2127    1.0000 </r>
       <r>  -21.1583    1.0000 </r>
       <r>  -21.0795    1.0000 </r>
       <r>  -21.0367    1.0000 </r>
       <r>  -20.9886    1.0000 </r>
       <r>  -20.7972    1.0000 </r>
       <r>  -20.5824    1.0000 </r>
       <r>  -20.4244    1.0000 </r>
       <r>  -20.3648    1.0000 </r>
       <r>  -20.0989    1.0000 </r>
       <r>  -20.0569    1.0000 </r>
       <r>  -19.9536    1.0000 </r>
       <r>  -19.7331    1.0000 </r>
       <r>  -19.5202    1.0000 </r>
       <r>  -19.5086    1.0000 </r>
       <r>  -19.1913    1.0000 </r>
       <r>  -18.8936    1.0000 </r>
       <r>  -18.6558    1.0000 </r>
       <r>  -18.6353    1.0000 </r>
       <r>  -18.5666    1.0000 </r>
       <r>  -18.4683    1.0000 </r>
       <r>  -18.1648    1.0000 </r>
       <r>  -17.6238    1.0000 </r>
       <r>  -17.4321    1.0000 </r>
       <r>  -17.1897    1.0000 </r>
       <r>  -17.1284    1.0000 </r>
       <r>  -17.0033    1.0000 </r>
       <r>  -16.8951    1.0000 </r>
       <r>  -16.7386    1.0000 </r>
       <r>  -16.7103    1.0000 </r>
       <r>  -16.6698    1.0000 </r>
       <r>  -16.6137    1.0000 </r>
       <r>  -16.5617    1.0000 </r>
       <r>  -16.5103    1.0000 </r>
       <r>  -16.4630    1.0000 </r>
       <r>  -16.3403    1.0000 </r>
       <r>  -16.3348    1.0000 </r>
       <r>  -16.2930    1.0000 </r>
       <r>  -16.1709    1.0000 </r>
       <r>  -16.1527    1.0000 </r>
       <r>  -16.0449    1.0000 </r>
       <r>  -15.9130    1.0000 </r>
       <r>  -15.6639    1.0000 </r>
       <r>  -15.4366    1.0000 </r>
       <r>  -15.3732    1.0000 </r>
       <r>  -15.3239    1.0000 </r>
       <r>  -15.2561    1.0000 </r>
       <r>  -15.0903    1.0000 </r>
       <r>  -14.8901    1.0000 </r>
       <r>  -14.5147    1.0000 </r>
       <r>  -14.1685    1.0000 </r>
       <r>  -14.0833    1.0000 </r>
       <r>  -14.0660    1.0000 </r>
       <r>  -13.9387    1.0000 </r>
       <r>  -13.7074    1.0000 </r>
       <r>  -13.6836    1.0000 </r>
       <r>  -13.5596    1.0000 </r>
       <r>  -13.4128    1.0000 </r>
       <r>  -13.3604    1.0000 </r>
       <r>  -13.3196    1.0000 </r>
       <r>  -13.2460    1.0000 </r>
       <r>  -13.0291    1.0000 </r>
       <r>  -12.8684    1.0000 </r>
       <r>  -12.6711    1.0000 </r>
       <r>  -12.4214    1.0000 </r>
       <r>  -12.1413    1.0000 </r>
       <r>  -12.0987    1.0000 </r>
       <r>  -12.0504    1.0000 </r>
       <r>  -11.8963    1.0000 </r>
       <r>  -11.8449    1.0000 </r>
       <r>  -11.8260    1.0000 </r>
       <r>  -11.7151    1.0000 </r>
       <r>  -11.4701    1.0000 </r>
       <r>  -11.3449    1.0000 </r>
       <r>  -11.2781    1.0000 </r>
       <r>  -11.1737    1.0000 </r>
       <r>  -11.1059    1.0000 </r>
       <r>  -10.9672    1.0000 </r>
       <r>  -10.8200    1.0000 </r>
       <r>  -10.8007    1.0000 </r>
       <r>  -10.7692    1.0000 </r>
       <r>  -10.7424    1.0000 </r>
       <r>  -10.7017    1.0000 </r>
       <r>  -10.5708    1.0000 </r>
       <r>  -10.5230    1.0000 </r>
       <r>  -10.4587    1.0000 </r>
       <r>  -10.4013    1.0000 </r>
       <r>  -10.3654    1.0000 </r>
       <r>  -10.3199    1.0000 </r>
       <r>  -10.2665    1.0000 </r>
       <r>  -10.2510    1.0000 </r>
       <r>  -10.0876    1.0000 </r>
       <r>  -10.0237    1.0000 </r>
       <r>   -9.9622    1.0000 </r>
       <r>   -9.9122    1.0000 </r>
       <r>   -9.8457    1.0000 </r>
       <r>   -9.7627    1.0000 </r>
       <r>   -9.6846    1.0000 </r>
       <r>   -9.6724    1.0000 </r>
       <r>   -9.6250    1.0000 </r>
       <r>   -9.6085    1.0000 </r>
       <r>   -9.5736    1.0000 </r>
       <r>   -9.5587    1.0000 </r>
       <r>   -9.5479    1.0000 </r>
       <r>   -9.5239    1.0000 </r>
       <r>   -9.4925    1.0000 </r>
       <r>   -9.4488    1.0000 </r>
       <r>   -9.4176    1.0000 </r>
       <r>   -9.3724    1.0000 </r>
       <r>   -9.3537    1.0000 </r>
       <r>   -9.3379    1.0000 </r>
       <r>   -9.2697    1.0000 </r>
       <r>   -9.2402    1.0000 </r>
       <r>   -9.2046    1.0000 </r>
       <r>   -9.1865    1.0000 </r>
       <r>   -9.1341    1.0000 </r>
       <r>   -9.1016    1.0000 </r>
       <r>   -9.0526    1.0000 </r>
       <r>   -9.0310    1.0000 </r>
       <r>   -8.9334    1.0000 </r>
       <r>   -8.9055    1.0000 </r>
       <r>   -8.8508    1.0000 </r>
       <r>   -8.8351    1.0000 </r>
       <r>   -8.7980    1.0000 </r>
       <r>   -8.7666    1.0000 </r>
       <r>   -8.7436    1.0000 </r>
       <r>   -8.7355    1.0000 </r>
       <r>   -8.6570    1.0000 </r>
       <r>   -8.6486    1.0000 </r>
       <r>   -8.5793    1.0000 </r>
       <r>   -8.5104    1.0000 </r>
       <r>   -8.4421    1.0000 </r>
       <r>   -8.3783    1.0000 </r>
       <r>   -8.0727    1.0000 </r>
       <r>   -8.0299    1.0000 </r>
       <r>   -7.9262    1.0000 </r>
       <r>   -7.8372    1.0000 </r>
       <r>   -7.7165    1.0000 </r>
       <r>   -7.6014    1.0000 </r>
       <r>   -7.5534    1.0000 </r>
       <r>   -7.5260    1.0000 </r>
       <r>   -7.4006    1.0000 </r>
       <r>   -7.3587    1.0000 </r>
       <r>   -7.2733    1.0000 </r>
       <r>   -7.1152    1.0000 </r>
       <r>   -7.0386    1.0000 </r>
       <r>   -6.9209    1.0000 </r>
       <r>   -6.7505    1.0000 </r>
       <r>   -6.7265    1.0000 </r>
       <r>   -6.6214    1.0000 </r>
       <r>   -6.5264    1.0000 </r>
       <r>   -6.4501    1.0000 </r>
       <r>   -6.2339    1.0000 </r>
       <r>   -6.2119    1.0000 </r>
       <r>   -6.0942    1.0000 </r>
       <r>   -6.0349    1.0000 </r>
       <r>   -5.9685    1.0000 </r>
       <r>   -5.9275    1.0000 </r>
       <r>   -5.9038    1.0000 </r>
       <r>   -5.8508    1.0000 </r>
       <r>   -5.0757    1.0000 </r>
       <r>   -4.9468    1.0000 </r>
       <r>   -4.8734    1.0000 </r>
       <r>   -4.7624    1.0000 </r>
       <r>   -4.5076    1.0000 </r>
       <r>   -4.4894    1.0000 </r>
       <r>   -4.4301    1.0000 </r>
       <r>   -4.3612    1.0000 </r>
       <r>   -3.7784    1.0000 </r>
       <r>   -3.6425    0.9998 </r>
       <r>   -3.1942    0.6554 </r>
       <r>   -3.0445    0.2552 </r>
       <r>   -2.7464    0.0028 </r>
       <r>   -2.6127    0.0001 </r>
       <r>   -2.3321    0.0000 </r>
       <r>   -2.2434    0.0000 </r>
       <r>   -2.1116    0.0000 </r>
       <r>   -1.7570    0.0000 </r>
       <r>   -1.6676    0.0000 </r>
       <r>   -1.5882    0.0000 </r>
       <r>   -1.5220    0.0000 </r>
       <r>   -1.4416    0.0000 </r>
       <r>   -1.3284    0.0000 </r>
       <r>   -1.2319    0.0000 </r>
       <r>   -1.1276    0.0000 </r>
       <r>   -0.7823    0.0000 </r>
       <r>   -0.6073    0.0000 </r>
       <r>   -0.5162    0.0000 </r>
       <r>   -0.3740    0.0000 </r>
       <r>   -0.0782    0.0000 </r>
       <r>   -0.0142    0.0000 </r>
       <r>    0.1247    0.0000 </r>
       <r>    0.1589    0.0000 </r>
       <r>    0.2876    0.0000 </r>
       <r>    0.5664    0.0000 </r>
       <r>    0.6382    0.0000 </r>
       <r>    0.6933    0.0000 </r>
       <r>    0.7666    0.0000 </r>
       <r>    0.8580    0.0000 </r>
       <r>    0.8715    0.0000 </r>
       <r>    0.9168    0.0000 </r>
       <r>    0.9339    0.0000 </r>
       <r>    0.9664    0.0000 </r>
       <r>    1.0891    0.0000 </r>
       <r>    1.1369    0.0000 </r>
       <r>    1.1486    0.0000 </r>
       <r>    1.1995    0.0000 </r>
       <r>    1.2945    0.0000 </r>
       <r>    1.3276    0.0000 </r>
       <r>    1.3395    0.0000 </r>
       <r>    1.3926    0.0000 </r>
       <r>    1.4518    0.0000 </r>
       <r>    1.5305    0.0000 </r>
       <r>    1.5581    0.0000 </r>
       <r>    1.6726    0.0000 </r>
       <r>    1.7020    0.0000 </r>
       <r>    1.7161    0.0000 </r>
       <r>    1.7173    0.0000 </r>
       <r>    1.8095    0.0000 </r>
      </set>
      <set comment="kpoint 2">
       <r>  -23.0923    1.0000 </r>
       <r>  -23.0037    1.0000 </r>
       <r>  -22.9175    1.0000 </r>
       <r>  -22.6070    1.0000 </r>
       <r>  -22.5449    1.0000 </r>
       <r>  -22.4535    1.0000 </r>
       <r>  -22.2237    1.0000 </r>
       <r>  -22.1242    1.0000 </r>
       <r>  -21.9936    1.0000 </r>
       <r>  -21.8823    1.0000 </r>
       <r>  -21.8233    1.0000 </r>
       <r>  -21.7226    1.0000 </r>
       <r>  -21.2940    1.0000 </r>
       <r>  -21.1488    1.0000 </r>
       <r>  -21.0521    1.0000 </r>
       <r>  -20.9695    1.0000 </r>
       <r>  -20.6388    1.0000 </r>
       <r>  -20.5558    1.0000 </r>
       <r>  -20.5322    1.0000 </r>
       <r>  -20.2876    1.0000 </r>
       <r>  -20.1917    1.0000 </r>
       <r>  -20.1387    1.0000 </r>
       <r>  -19.9796    1.0000 </r>
       <r>  -19.9449    1.0000 </r>
       <r>  -19.8962    1.0000 </r>
       <r>  -19.5423    1.0000 </r>
       <r>  -19.4672    1.0000 </r>
       <r>  -19.1599    1.0000 </r>
       <r>  -19.0507    1.0000 </r>
       <r>  -18.8596    1.0000 </r>
       <r>  -18.6864    1.0000 </r>
       <r>  -18.5489    1.0000 </r>
       <r>  -18.5290    1.0000 </r>
       <r>  -18.3365    1.0000 </r>
       <r>  -18.2312    1.0000 </r>
       <r>  -18.1120    1.0000 </r>
       <r>  -18.0250    1.0000 </r>
       <r>  -17.9752    1.0000 </r>
       <r>  -17.8806    1.0000 </r>
       <r>  -17.7778    1.0000 </r>
       <r>  -17.5139    1.0000 </r>
       <r>  -17.4549    1.0000 </r>
       <r>  -17.3194    1.0000 </r>
       <r>  -17.1084    1.0000 </r>
       <r>  -17.0307    1.0000 </r>
       <r>  -16.5619    1.0000 </r>
       <r>  -16.4115    1.0000 </r>
       <r>  -16.1921    1.0000 </r>
       <r>  -16.1051    1.0000 </r>
       <r>  -15.8846    1.0000 </r>
       <r>  -15.8094    1.0000 </r>
       <r>  -15.5841    1.0000 </r>
       <r>  -15.5474    1.0000 </r>
       <r>  -15.4201    1.0000 </r>
       <r>  -15.3557    1.0000 </r>
       <r>  -15.2858    1.0000 </r>
       <r>  -15.1833    1.0000 </r>
       <r>  -15.1457    1.0000 </r>
       <r>  -15.0360    1.0000 </r>
       <r>  -14.9588    1.0000 </r>
       <r>  -14.9052    1.0000 </r>
       <r>  -14.7723    1.0000 </r>
       <r>  -14.5214    1.0000 </r>
       <r>  -14.3990    1.0000 </r>
       <r>  -14.2558    1.0000 </r>
       <r>  -14.0837    1.0000 </r>
       <r>  -14.0010    1.0000 </r>
       <r>  -13.8699    1.0000 </r>
       <r>  -13.3493    1.0000 </r>
       <r>  -13.2751    1.0000 </r>
       <r>  -13.1911    1.0000 </r>
       <r>  -13.1587    1.0000 </r>
       <r>  -12.9163    1.0000 </r>
       <r>  -12.8189    1.0000 </r>
       <r>  -12.7831    1.0000 </r>
       <r>  -12.6972    1.0000 </r>
       <r>  -12.5986    1.0000 </r>
       <r>  -12.5346    1.0000 </r>
       <r>  -12.4007    1.0000 </r>
       <r>  -12.3065    1.0000 </r>
       <r>  -12.2581    1.0000 </r>
       <r>  -12.1238    1.0000 </r>
       <r>  -12.0815    1.0000 </r>
       <r>  -11.9830    1.0000 </r>
       <r>  -11.7880    1.0000 </r>
       <r>  -11.6220    1.0000 </r>
       <r>  -11.4618    1.0000 </r>
       <r>  -11.3575    1.0000 </r>
       <r>  -11.2788    1.0000 </r>
       <r>  -11.1332    1.0000 </r>
       <r>  -11.0812    1.0000 </r>
       <r>  -11.0568    1.0000 </r>
       <r>  -10.9898    1.0000 </r>
       <r>  -10.9629    1.0000 </r>
       <r>  -10.9033    1.0000 </r>
       <r>  -10.8795    1.0000 </r>
       <r>  -10.8492    1.0000 </r>
       <r>  -10.7945    1.0000 </r>
       <r>  -10.7733    1.0000 </r>
       <r>  -10.6354    1.0000 </r>
       <r>  -10.5772    1.0000 </r>
       <r>  -10.4816    1.0000 </r>
       <r>  -10.4513    1.0000 </r>
       <r>  -10.3936    1.0000 </r>
       <r>  -10.3590    1.0000 </r>
       <r>  -10.3146    1.0000 </r>
       <r>  -10.2782    1.0000 </r>
       <r>  -10.1379    1.0000 </r>
       <r>  -10.1029    1.0000 </r>
       <r>  -10.0647    1.0000 </r>
       <r>   -9.9932    1.0000 </r>
       <r>   -9.9186    1.0000 </r>
       <r>   -9.8877    1.0000 </r>
       <r>   -9.8064    1.0000 </r>
       <r>   -9.7061    1.0000 </r>
       <r>   -9.6838    1.0000 </r>
       <r>   -9.6424    1.0000 </r>
       <r>   -9.6189    1.0000 </r>
       <r>   -9.5600    1.0000 </r>
       <r>   -9.5402    1.0000 </r>
       <r>   -9.5188    1.0000 </r>
       <r>   -9.4830    1.0000 </r>
       <r>   -9.4126    1.0000 </r>
       <r>   -9.3494    1.0000 </r>
       <r>   -9.2551    1.0000 </r>
       <r>   -9.2217    1.0000 </r>
       <r>   -9.1023    1.0000 </r>
       <r>   -8.9869    1.0000 </r>
       <r>   -8.9055    1.0000 </r>
       <r>   -8.8416    1.0000 </r>
       <r>   -8.7739    1.0000 </r>
       <r>   -8.7100    1.0000 </r>
       <r>   -8.6680    1.0000 </r>
       <r>   -8.6383    1.0000 </r>
       <r>   -8.6079    1.0000 </r>
       <r>   -8.5528    1.0000 </r>
       <r>   -8.5218    1.0000 </r>
       <r>   -8.4652    1.0000 </r>
       <r>   -8.3471    1.0000 </r>
       <r>   -8.2856    1.0000 </r>
       <r>   -8.2242    1.0000 </r>
       <r>   -8.1521    1.0000 </r>
       <r>   -8.1152    1.0000 </r>
       <r>   -8.1005    1.0000 </r>
       <r>   -8.0508    1.0000 </r>
       <r>   -7.9786    1.0000 </r>
       <r>   -7.9022    1.0000 </r>
       <r>   -7.8416    1.0000 </r>
       <r>   -7.7750    1.0000 </r>
       <r>   -7.7184    1.0000 </r>
       <r>   -7.6488    1.0000 </r>
       <r>   -7.5954    1.0000 </r>
       <r>   -7.5350    1.0000 </r>
       <r>   -7.4056    1.0000 </r>
       <r>   -7.3402    1.0000 </r>
       <r>   -7.3094    1.0000 </r>
       <r>   -7.2107    1.0000 </r>
       <r>   -6.9776    1.0000 </r>
       <r>   -6.9083    1.0000 </r>
       <r>   -6.8638    1.0000 </r>
       <r>   -6.7758    1.0000 </r>
       <r>   -6.6724    1.0000 </r>
       <r>   -6.6475    1.0000 </r>
       <r>   -6.5600    1.0000 </r>
       <r>   -6.4853    1.0000 </r>
       <r>   -6.3068    1.0000 </r>
       <r>   -6.2333    1.0000 </r>
       <r>   -6.1389    1.0000 </r>
       <r>   -6.0785    1.0000 </r>
       <r>   -5.9416    1.0000 </r>
       <r>   -5.8962    1.0000 </r>
       <r>   -5.8086    1.0000 </r>
       <r>   -5.7147    1.0000 </r>
       <r>   -5.6588    1.0000 </r>
       <r>   -5.5678    1.0000 </r>
       <r>   -5.4582    1.0000 </r>
       <r>   -5.1762    1.0000 </r>
       <r>   -5.1121    1.0000 </r>
       <r>   -4.7482    1.0000 </r>
       <r>   -4.6449    1.0000 </r>
       <r>   -4.6133    1.0000 </r>
       <r>   -4.4982    1.0000 </r>
       <r>   -4.4053    1.0000 </r>
       <r>   -3.5410    0.9978 </r>
       <r>   -2.8986    0.0455 </r>
       <r>   -2.3859    0.0000 </r>
       <r>   -2.1251    0.0000 </r>
       <r>   -2.0200    0.0000 </r>
       <r>   -1.6546    0.0000 </r>
       <r>   -1.5292    0.0000 </r>
       <r>   -1.3899    0.0000 </r>
       <r>   -1.3393    0.0000 </r>
       <r>   -1.3102    0.0000 </r>
       <r>   -1.2529    0.0000 </r>
       <r>   -1.0883    0.0000 </r>
       <r>   -1.0291    0.0000 </r>
       <r>   -0.9886    0.0000 </r>
       <r>   -0.9103    0.0000 </r>
       <r>   -0.8199    0.0000 </r>
       <r>   -0.5295    0.0000 </r>
       <r>   -0.1697    0.0000 </r>
       <r>   -0.1661    0.0000 </r>
       <r>   -0.0596    0.0000 </r>
       <r>   -0.0099    0.0000 </r>
       <r>    0.1354    0.0000 </r>
       <r>    0.2119    0.0000 </r>
       <r>    0.2446    0.0000 </r>
       <r>    0.2963    0.0000 </r>
       <r>    0.3452    0.0000 </r>
       <r>    0.7783    0.0000 </r>
       <r>    0.8009    0.0000 </r>
       <r>    0.8406    0.0000 </r>
       <r>    1.0073    0.0000 </r>
       <r>    1.0337    0.0000 </r>
       <r>    1.0460    0.0000 </r>
       <r>    1.1072    0.0000 </r>
       <r>    1.1232    0.0000 </r>
       <r>    1.2522    0.0000 </r>
       <r>    1.2794    0.0000 </r>
       <r>    1.2920    0.0000 </r>
       <r>    1.3420    0.0000 </r>
       <r>    1.3761    0.0000 </r>
       <r>    1.4259    0.0000 </r>
       <r>    1.4353    0.0000 </r>
       <r>    1.4554    0.0000 </r>
       <r>    1.4731    0.0000 </r>
       <r>    1.5350    0.0000 </r>
       <r>    1.5774    0.0000 </r>
       <r>    1.5918    0.0000 </r>
       <r>    1.6299    0.0000 </r>
       <r>    1.6764    0.0000 </r>
       <r>    1.6932    0.0000 </r>
      </set>
      <set comment="kpoint 3">
       <r>  -22.8777    1.0000 </r>
       <r>  -22.8119    1.0000 </r>
       <r>  -22.7434    1.0000 </r>
       <r>  -22.6869    1.0000 </r>
       <r>  -22.6151    1.0000 </r>
       <r>  -22.5985    1.0000 </r>
       <r>  -22.3394    1.0000 </r>
       <r>  -22.2818    1.0000 </r>
       <r>  -22.2453    1.0000 </r>
       <r>  -22.1893    1.0000 </r>
       <r>  -21.7290    1.0000 </r>
       <r>  -21.6780    1.0000 </r>
       <r>  -21.5907    1.0000 </r>
       <r>  -21.5698    1.0000 </r>
       <r>  -20.8763    1.0000 </r>
       <r>  -20.8454    1.0000 </r>
       <r>  -20.6965    1.0000 </r>
       <r>  -20.6515    1.0000 </r>
       <r>  -19.8770    1.0000 </r>
       <r>  -19.8196    1.0000 </r>
       <r>  -19.6796    1.0000 </r>
       <r>  -19.6345    1.0000 </r>
       <r>  -19.5622    1.0000 </r>
       <r>  -19.5300    1.0000 </r>
       <r>  -19.4880    1.0000 </r>
       <r>  -19.4436    1.0000 </r>
       <r>  -19.3276    1.0000 </r>
       <r>  -19.2439    1.0000 </r>
       <r>  -19.1523    1.0000 </r>
       <r>  -19.0487    1.0000 </r>
       <r>  -18.9687    1.0000 </r>
       <r>  -18.9043    1.0000 </r>
       <r>  -18.6554    1.0000 </r>
       <r>  -18.5967    1.0000 </r>
       <r>  -18.5067    1.0000 </r>
       <r>  -18.4593    1.0000 </r>
       <r>  -18.3028    1.0000 </r>
       <r>  -18.2607    1.0000 </r>
       <r>  -18.1304    1.0000 </r>
       <r>  -18.0682    1.0000 </r>
       <r>  -17.7686    1.0000 </r>
       <r>  -17.6816    1.0000 </r>
       <r>  -17.6617    1.0000 </r>
       <r>  -17.6477    1.0000 </r>
       <r>  -16.9541    1.0000 </r>
       <r>  -16.8745    1.0000 </r>
       <r>  -16.2691    1.0000 </r>
       <r>  -16.2487    1.0000 </r>
       <r>  -16.1053    1.0000 </r>
       <r>  -16.0731    1.0000 </r>
       <r>  -15.9203    1.0000 </r>
       <r>  -15.8545    1.0000 </r>
       <r>  -15.2276    1.0000 </r>
       <r>  -15.2190    1.0000 </r>
       <r>  -15.0821    1.0000 </r>
       <r>  -15.0572    1.0000 </r>
       <r>  -14.8765    1.0000 </r>
       <r>  -14.7629    1.0000 </r>
       <r>  -14.7124    1.0000 </r>
       <r>  -14.6907    1.0000 </r>
       <r>  -14.0025    1.0000 </r>
       <r>  -13.9982    1.0000 </r>
       <r>  -13.8459    1.0000 </r>
       <r>  -13.7927    1.0000 </r>
       <r>  -13.7615    1.0000 </r>
       <r>  -13.6850    1.0000 </r>
       <r>  -13.6782    1.0000 </r>
       <r>  -13.6314    1.0000 </r>
       <r>  -13.5801    1.0000 </r>
       <r>  -13.5534    1.0000 </r>
       <r>  -13.5408    1.0000 </r>
       <r>  -13.4756    1.0000 </r>
       <r>  -13.4454    1.0000 </r>
       <r>  -13.3254    1.0000 </r>
       <r>  -13.2410    1.0000 </r>
       <r>  -13.0803    1.0000 </r>
       <r>  -12.3498    1.0000 </r>
       <r>  -12.3324    1.0000 </r>
       <r>  -12.2079    1.0000 </r>
       <r>  -12.2036    1.0000 </r>
       <r>  -12.1074    1.0000 </r>
       <r>  -12.0985    1.0000 </r>
       <r>  -11.9582    1.0000 </r>
       <r>  -11.9383    1.0000 </r>
       <r>  -11.8959    1.0000 </r>
       <r>  -11.8355    1.0000 </r>
       <r>  -11.7747    1.0000 </r>
       <r>  -11.7506    1.0000 </r>
       <r>  -11.6334    1.0000 </r>
       <r>  -11.6007    1.0000 </r>
       <r>  -11.3270    1.0000 </r>
       <r>  -11.2900    1.0000 </r>
       <r>  -11.2189    1.0000 </r>
       <r>  -11.1280    1.0000 </r>
       <r>  -11.0183    1.0000 </r>
       <r>  -10.9470    1.0000 </r>
       <r>  -10.8001    1.0000 </r>
       <r>  -10.7397    1.0000 </r>
       <r>  -10.7106    1.0000 </r>
       <r>  -10.6836    1.0000 </r>
       <r>  -10.5855    1.0000 </r>
       <r>  -10.5414    1.0000 </r>
       <r>  -10.5161    1.0000 </r>
       <r>  -10.5031    1.0000 </r>
       <r>  -10.4330    1.0000 </r>
       <r>  -10.3822    1.0000 </r>
       <r>  -10.3240    1.0000 </r>
       <r>  -10.2932    1.0000 </r>
       <r>  -10.2611    1.0000 </r>
       <r>  -10.2171    1.0000 </r>
       <r>  -10.1737    1.0000 </r>
       <r>  -10.1283    1.0000 </r>
       <r>  -10.1091    1.0000 </r>
       <r>  -10.0733    1.0000 </r>
       <r>  -10.0337    1.0000 </r>
       <r>  -10.0092    1.0000 </r>
       <r>   -9.9689    1.0000 </r>
       <r>   -9.9034    1.0000 </r>
       <r>   -9.8254    1.0000 </r>
       <r>   -9.7126    1.0000 </r>
       <r>   -9.4694    1.0000 </r>
       <r>   -9.3625    1.0000 </r>
       <r>   -9.3545    1.0000 </r>
       <r>   -9.3213    1.0000 </r>
       <r>   -9.2686    1.0000 </r>
       <r>   -9.2032    1.0000 </r>
       <r>   -9.0196    1.0000 </r>
       <r>   -9.0055    1.0000 </r>
       <r>   -8.7658    1.0000 </r>
       <r>   -8.7436    1.0000 </r>
[...]
       <r>   -22.6723    14.8781     7.3092 </r>
       <r>   -22.5756    15.9966     8.8552 </r>
       <r>   -22.4790    15.2511    10.3292 </r>
       <r>   -22.3823    13.8385    11.6667 </r>
       <r>   -22.2857    13.7199    12.9927 </r>
       <r>   -22.1890    14.4372    14.3881 </r>
       <r>   -22.0924    14.5058    15.7900 </r>
       <r>   -21.9957    13.9147    17.1349 </r>
       <r>   -21.8991    13.4948    18.4391 </r>
       <r>   -21.8024    13.5176    19.7456 </r>
       <r>   -21.7058    13.5947    21.0595 </r>
       <r>   -21.6091    13.1713    22.3325 </r>
       <r>   -21.5125    12.0665    23.4987 </r>
       <r>   -21.4158    10.9388    24.5560 </r>
       <r>   -21.3192    11.0607    25.6250 </r>
       <r>   -21.2225    12.9081    26.8725 </r>
       <r>   -21.1259    15.2604    28.3474 </r>
       <r>   -21.0292    16.2487    29.9178 </r>
       <r>   -20.9326    15.1203    31.3792 </r>
       <r>   -20.8359    13.1103    32.6463 </r>
       <r>   -20.7393    12.3512    33.8400 </r>
       <r>   -20.6426    13.3585    35.1311 </r>
       <r>   -20.5460    14.1990    36.5034 </r>
       <r>   -20.4493    13.2798    37.7869 </r>
       <r>   -20.3527    11.7886    38.9262 </r>
       <r>   -20.2560    11.6860    40.0557 </r>
       <r>   -20.1594    13.1316    41.3248 </r>
       <r>   -20.0628    15.1004    42.7843 </r>
       <r>   -19.9661    16.4708    44.3762 </r>
       <r>   -19.8695    16.1310    45.9352 </r>
       <r>   -19.7728    14.4132    47.3282 </r>
       <r>   -19.6762    13.8038    48.6623 </r>
       <r>   -19.5795    15.5296    50.1633 </r>
       <r>   -19.4829    17.0376    51.8099 </r>
       <r>   -19.3862    15.7217    53.3294 </r>
       <r>   -19.2896    13.1845    54.6037 </r>
       <r>   -19.1929    12.3274    55.7951 </r>
       <r>   -19.0963    12.9315    57.0449 </r>
       <r>   -18.9996    13.2107    58.3217 </r>
       <r>   -18.9030    12.7778    59.5567 </r>
       <r>   -18.8063    12.6934    60.7835 </r>
       <r>   -18.7097    14.3225    62.1677 </r>
       <r>   -18.6130    17.3404    63.8437 </r>
       <r>   -18.5164    19.0832    65.6880 </r>
       <r>   -18.4197    18.0830    67.4357 </r>
       <r>   -18.3231    16.2888    69.0100 </r>
       <r>   -18.2264    15.8224    70.5393 </r>
       <r>   -18.1298    16.2807    72.1128 </r>
       <r>   -18.0331    16.1911    73.6776 </r>
       <r>   -17.9365    15.0768    75.1348 </r>
       <r>   -17.8398    13.7931    76.4679 </r>
       <r>   -17.7432    13.2004    77.7437 </r>
       <r>   -17.6465    13.0738    79.0072 </r>
       <r>   -17.5499    12.8016    80.2445 </r>
       <r>   -17.4532    12.0969    81.4137 </r>
       <r>   -17.3566    10.9541    82.4724 </r>
       <r>   -17.2599    10.0876    83.4473 </r>
       <r>   -17.1633    10.4865    84.4608 </r>
       <r>   -17.0666    11.6928    85.5909 </r>
       <r>   -16.9700    12.0362    86.7542 </r>
       <r>   -16.8733    11.0378    87.8210 </r>
       <r>   -16.7767    10.1615    88.8031 </r>
       <r>   -16.6800    10.8083    89.8477 </r>
       <r>   -16.5834    12.5865    91.0642 </r>
       <r>   -16.4867    14.2109    92.4376 </r>
       <r>   -16.3901    15.3854    93.9246 </r>
       <r>   -16.2934    16.7015    95.5388 </r>
       <r>   -16.1968    17.9971    97.2782 </r>
       <r>   -16.1001    18.1289    99.0303 </r>
       <r>   -16.0035    16.7709   100.6512 </r>
       <r>   -15.9069    14.9601   102.0971 </r>
       <r>   -15.8102    13.2051   103.3734 </r>
       <r>   -15.7136    11.6122   104.4957 </r>
       <r>   -15.6169    11.3190   105.5896 </r>
       <r>   -15.5203    13.0678   106.8526 </r>
       <r>   -15.4236    16.1670   108.4151 </r>
       <r>   -15.3270    19.3839   110.2886 </r>
       <r>   -15.2303    21.4965   112.3662 </r>
       <r>   -15.1337    21.8930   114.4821 </r>
       <r>   -15.0370    20.8994   116.5020 </r>
       <r>   -14.9404    19.1751   118.3553 </r>
       <r>   -14.8437    17.0271   120.0009 </r>
       <r>   -14.7471    14.4560   121.3981 </r>
       <r>   -14.6504    11.8106   122.5396 </r>
       <r>   -14.5538     9.9218   123.4985 </r>
       <r>   -14.4571     9.0829   124.3763 </r>
       <r>   -14.3605     8.8554   125.2322 </r>
       <r>   -14.2638     9.4204   126.1427 </r>
       <r>   -14.1672    11.4942   127.2536 </r>
       <r>   -14.0705    14.5826   128.6630 </r>
       <r>   -13.9739    16.7806   130.2848 </r>
       <r>   -13.8772    17.1365   131.9410 </r>
       <r>   -13.7806    16.8295   133.5676 </r>
       <r>   -13.6839    17.0323   135.2137 </r>
       <r>   -13.5873    17.5189   136.9069 </r>
       <r>   -13.4906    18.0698   138.6533 </r>
       <r>   -13.3940    19.1767   140.5067 </r>
       <r>   -13.2973    20.3448   142.4730 </r>
       <r>   -13.2007    19.6945   144.3765 </r>
       <r>   -13.1040    16.6858   145.9892 </r>
       <r>   -13.0074    13.5319   147.2970 </r>
       <r>   -12.9107    12.6026   148.5150 </r>
       <r>   -12.8141    13.6090   149.8303 </r>
       <r>   -12.7174    14.5390   151.2355 </r>
       <r>   -12.6208    14.4504   152.6321 </r>
       <r>   -12.5241    14.1954   154.0041 </r>
       <r>   -12.4275    15.1046   155.4639 </r>
       <r>   -12.3308    17.5035   157.1556 </r>
       <r>   -12.2342    20.5029   159.1372 </r>
       <r>   -12.1375    22.9560   161.3559 </r>
       <r>   -12.0409    23.9350   163.6692 </r>
       <r>   -11.9442    23.3509   165.9260 </r>
       <r>   -11.8476    22.0027   168.0525 </r>
       <r>   -11.7509    20.1052   169.9957 </r>
       <r>   -11.6543    17.5461   171.6915 </r>
       <r>   -11.5577    15.3429   173.1744 </r>
       <r>   -11.4610    15.0675   174.6306 </r>
       <r>   -11.3644    17.0883   176.2822 </r>
       <r>   -11.2677    20.1819   178.2327 </r>
       <r>   -11.1711    23.3511   180.4896 </r>
       <r>   -11.0744    26.7727   183.0772 </r>
       <r>   -10.9778    30.4098   186.0162 </r>
       <r>   -10.8811    33.4248   189.2467 </r>
       <r>   -10.7845    34.7301   192.6033 </r>
       <r>   -10.6878    34.1307   195.9020 </r>
       <r>   -10.5912    33.6091   199.1503 </r>
       <r>   -10.4945    35.2052   202.5528 </r>
       <r>   -10.3979    37.8058   206.2067 </r>
       <r>   -10.3012    38.6875   209.9458 </r>
       <r>   -10.2046    37.4491   213.5652 </r>
       <r>   -10.1079    36.1086   217.0551 </r>
       <r>   -10.0113    35.3638   220.4730 </r>
       <r>    -9.9146    34.1347   223.7721 </r>
       <r>    -9.8180    33.0790   226.9691 </r>
       <r>    -9.7213    34.6570   230.3187 </r>
       <r>    -9.6247    39.0001   234.0880 </r>
       <r>    -9.5280    42.6775   238.2127 </r>
       <r>    -9.4314    42.9192   242.3608 </r>
       <r>    -9.3347    40.2891   246.2547 </r>
       <r>    -9.2381    36.3421   249.7671 </r>
       <r>    -9.1414    32.0750   252.8671 </r>
       <r>    -9.0448    28.9730   255.6673 </r>
       <r>    -8.9481    28.7114   258.4423 </r>
       <r>    -8.8515    31.6793   261.5040 </r>
       <r>    -8.7548    36.1004   264.9931 </r>
       <r>    -8.6582    38.5454   268.7185 </r>
       <r>    -8.5615    36.8682   272.2817 </r>
       <r>    -8.4649    32.5183   275.4246 </r>
       <r>    -8.3682    28.8998   278.2177 </r>
       <r>    -8.2716    27.9606   280.9201 </r>
       <r>    -8.1749    28.6950   283.6934 </r>
       <r>    -8.0783    28.7926   286.4762 </r>
       <r>    -7.9816    27.5453   289.1384 </r>
       <r>    -7.8850    26.6103   291.7103 </r>
       <r>    -7.7883    27.3893   294.3574 </r>
       <r>    -7.6917    29.0760   297.1676 </r>
       <r>    -7.5950    30.1569   300.0822 </r>
       <r>    -7.4984    30.2704   303.0078 </r>
       <r>    -7.4018    29.8495   305.8927 </r>
       <r>    -7.3051    28.4728   308.6446 </r>
       <r>    -7.2085    25.5856   311.1174 </r>
       <r>    -7.1118    22.7716   313.3182 </r>
       <r>    -7.0152    22.2159   315.4654 </r>
       <r>    -6.9185    23.6893   317.7549 </r>
       <r>    -6.8219    25.3782   320.2077 </r>
       <r>    -6.7252    26.3206   322.7516 </r>
       <r>    -6.6286    26.2509   325.2887 </r>
       <r>    -6.5319    24.6786   327.6738 </r>
       <r>    -6.4353    22.1715   329.8167 </r>
       <r>    -6.3386    20.7229   331.8195 </r>
       <r>    -6.2420    20.9331   333.8427 </r>
       <r>    -6.1453    21.4926   335.9199 </r>
       <r>    -6.0487    22.2475   338.0701 </r>
       <r>    -5.9520    23.9379   340.3837 </r>
       <r>    -5.8554    25.4320   342.8417 </r>
       <r>    -5.7587    24.8087   345.2394 </r>
       <r>    -5.6621    21.9543   347.3613 </r>
       <r>    -5.5654    17.8722   349.0886 </r>
       <r>    -5.4688    13.4844   350.3918 </r>
       <r>    -5.3721    10.3031   351.3876 </r>
       <r>    -5.2755    10.0042   352.3545 </r>
       <r>    -5.1788    11.8852   353.5032 </r>
       <r>    -5.0822    12.7518   354.7356 </r>
       <r>    -4.9855    11.1626   355.8145 </r>
       <r>    -4.8889     9.3276   356.7160 </r>
       <r>    -4.7922     9.5369   357.6377 </r>
       <r>    -4.6956    11.5496   358.7540 </r>
       <r>    -4.5989    13.8137   360.0891 </r>
       <r>    -4.5023    14.9500   361.5340 </r>
       <r>    -4.4056    13.9531   362.8825 </r>
       <r>    -4.3090    10.8776   363.9338 </r>
       <r>    -4.2123     7.3092   364.6403 </r>
       <r>    -4.1157     4.6120   365.0860 </r>
       <r>    -4.0190     2.8323   365.3598 </r>
       <r>    -3.9224     1.9130   365.5446 </r>
       <r>    -3.8257     2.0792   365.7456 </r>
       <r>    -3.7291     3.0858   366.0438 </r>
       <r>    -3.6324     4.1832   366.4481 </r>
       <r>    -3.5358     4.5170   366.8847 </r>
       <r>    -3.4391     3.7270   367.2449 </r>
       <r>    -3.3425     2.5783   367.4941 </r>
       <r>    -3.2458     2.1804   367.7048 </r>
       <r>    -3.1492     2.6784   367.9637 </r>
       <r>    -3.0526     3.5398   368.3058 </r>
       <r>    -2.9559     4.3681   368.7280 </r>
       <r>    -2.8593     4.8996   369.2015 </r>
       <r>    -2.7626     5.1436   369.6986 </r>
       <r>    -2.6660     5.5546   370.2355 </r>
       <r>    -2.5693     6.2935   370.8437 </r>
       <r>    -2.4727     6.9798   371.5183 </r>
       <r>    -2.3760     7.4464   372.2380 </r>
       <r>    -2.2794     7.8565   372.9973 </r>
       <r>    -2.1827     8.3237   373.8018 </r>
       <r>    -2.0861     8.4512   374.6186 </r>
       <r>    -1.9894     7.5269   375.3461 </r>
       <r>    -1.8928     6.2531   375.9504 </r>
       <r>    -1.7961     6.9145   376.6187 </r>
       <r>    -1.6995    10.5415   377.6375 </r>
       <r>    -1.6028    15.3464   379.1207 </r>
       <r>    -1.5062    18.9498   380.9522 </r>
       <r>    -1.4095    20.8440   382.9668 </r>
       <r>    -1.3129    21.6700   385.0611 </r>
       <r>    -1.2162    21.6852   387.1570 </r>
       <r>    -1.1196    21.0342   389.1899 </r>
       <r>    -1.0229    19.7547   391.0992 </r>
       <r>    -0.9263    17.4505   392.7858 </r>
       <r>    -0.8296    14.4215   394.1796 </r>
       <r>    -0.7330    12.1641   395.3552 </r>
       <r>    -0.6363    11.8111   396.4968 </r>
       <r>    -0.5397    12.4499   397.7000 </r>
       <r>    -0.4430    12.2865   398.8875 </r>
       <r>    -0.3464    11.7350   400.0217 </r>
       <r>    -0.2497    12.9011   401.2686 </r>
       <r>    -0.1531    15.9539   402.8105 </r>
       <r>    -0.0564    18.6619   404.6141 </r>
       <r>     0.0402    19.7754   406.5254 </r>
       <r>     0.1369    20.6159   408.5179 </r>
       <r>     0.2335    21.9693   410.6412 </r>
       <r>     0.3302    22.0135   412.7688 </r>
       <r>     0.4268    19.8435   414.6866 </r>
       <r>     0.5235    18.0823   416.4343 </r>
       <r>     0.6201    19.6028   418.3289 </r>
       <r>     0.7168    24.0865   420.6568 </r>
       <r>     0.8134    28.8603   423.4461 </r>
       <r>     0.9101    32.0755   426.5462 </r>
       <r>     1.0067    34.5439   429.8848 </r>
       <r>     1.1033    37.7356   433.5319 </r>
       <r>     1.2000    41.8932   437.5809 </r>
       <r>     1.2966    46.6081   442.0855 </r>
       <r>     1.3933    50.3637   446.9531 </r>
       <r>     1.4899    50.6162   451.8451 </r>
       <r>     1.5866    45.7612   456.2678 </r>
       <r>     1.6832    36.2040   459.7669 </r>
       <r>     1.7799    24.0874   462.0949 </r>
       <r>     1.8765    12.7589   463.3281 </r>
       <r>     1.9732     5.1054   463.8215 </r>
       <r>     2.0698     1.4880   463.9653 </r>
       <r>     2.1665     0.3090   463.9952 </r>
       <r>     2.2631     0.0450   463.9995 </r>
       <r>     2.3598     0.0045   464.0000 </r>
       <r>     2.4564     0.0003   464.0000 </r>
       <r>     2.5531     0.0000   464.0000 </r>
       <r>     2.6497     0.0000   464.0000 </r>
       <r>     2.7464     0.0000   464.0000 </r>
       <r>     2.8430     0.0000   464.0000 </r>
       <r>     2.9397     0.0000   464.0000 </r>
       <r>     3.0363     0.0000   464.0000 </r>
       <r>     3.1330     0.0000   464.0000 </r>
       <r>     3.2296     0.0000   464.0000 </r>
       <r>     3.3263     0.0000   464.0000 </r>
       <r>     3.4229     0.0000   464.0000 </r>
       <r>     3.5196     0.0000   464.0000 </r>
       <r>     3.6162     0.0000   464.0000 </r>
       <r>     3.7129     0.0000   464.0000 </r>
       <r>     3.8095     0.0000   464.0000 </r>
      </set>
     </set>
    </array>
   </total>
  </dos>
 </calculation>
 <structure name="finalpos" >
  <crystal>
   <varray name="basis" >
    <v>      28.05000000       0.00000000       0.00000000 </v>
    <v>       0.00000000       8.10000000       0.00000000 </v>
    <v>       0.00000000       0.00000000      33.50000000 </v>
   </varray>
   <i name="volume">   7611.36750000 </i>
   <varray name="rec_basis" >
    <v>       0.03565062       0.00000000       0.00000000 </v>
    <v>       0.00000000       0.12345679       0.00000000 </v>
    <v>       0.00000000       0.00000000       0.02985075 </v>
   </varray>
  </crystal>
  <varray name="positions" >
   <v>       0.00718734       0.09281247       0.52770149 </v>
   <v>       0.00800674       0.25982963       0.52425075 </v>
   <v>       0.04920927       0.01384358       0.52861791 </v>
   <v>       0.04999287       0.35171728       0.52449552 </v>
   <v>       0.09358824       0.10003901       0.52471343 </v>
   <v>       0.09472371       0.26969383       0.52204776 </v>
   <v>       0.13804314       0.01799272       0.52123881 </v>
   <v>       0.13778895       0.35325556       0.52123284 </v>
   <v>       0.18027308       0.10761852       0.50798507 </v>
   <v>       0.18138217       0.27467654       0.51443582 </v>
   <v>       0.22187059       0.01700086       0.50119701 </v>
   <v>       0.22655936       0.35389136       0.51232836 </v>
   <v>       0.26288627       0.10221247       0.48963284 </v>
   <v>       0.26646595       0.26776420       0.49851940 </v>
   <v>       0.30730481       0.02062321       0.48263582 </v>
   <v>       0.31078538       0.35533210       0.49548657 </v>
   <v>       0.34880428       0.11451704       0.47420597 </v>
   <v>       0.35084242       0.27900247       0.48057612 </v>
   <v>       0.39320499       0.02562012       0.46928657 </v>
   <v>       0.39489483       0.35627654       0.47567463 </v>
   <v>       0.43716578       0.10564309       0.46068060 </v>
   <v>       0.43650267       0.27454198       0.46512836 </v>
   <v>       0.48315152       0.02410370       0.45584478 </v>
   <v>       0.48119430       0.36121235       0.45624776 </v>
   <v>       0.52708378       0.11051815       0.45259701 </v>
   <v>       0.52537255       0.28284321       0.45262090 </v>
   <v>       0.57002139       0.02479877       0.45219104 </v>
   <v>       0.56992157       0.35755062       0.45336716 </v>
   <v>       0.61365419       0.10507975       0.46164478 </v>
   <v>       0.61283422       0.27434691       0.46032836 </v>
   <v>       0.65454545       0.02079889       0.47308955 </v>
   <v>       0.65703030       0.35874568       0.47098507 </v>
   <v>       0.69777897       0.10226099       0.48150746 </v>
   <v>       0.70046702       0.27420370       0.47790149 </v>
   <v>       0.73948663       0.02208432       0.49719701 </v>
   <v>       0.74140463       0.35843704       0.49029254 </v>
   <v>       0.78252763       0.10535951       0.50760000 </v>
   <v>       0.78395365       0.27003827       0.49967761 </v>
   <v>       0.82357219       0.02048926       0.52268657 </v>
   <v>       0.82612478       0.35453827       0.51418806 </v>
   <v>       0.86639929       0.10303593       0.52931343 </v>
   <v>       0.86817112       0.26736914       0.52095522 </v>
   <v>       0.91209982       0.02079667       0.53772836 </v>
   <v>       0.91405704       0.35210494       0.52434925 </v>
   <v>       0.95361497       0.09833148       0.52939701 </v>
   <v>       0.95627451       0.26753457       0.52135522 </v>
   <v>       0.00844371       0.59783827       0.54104776 </v>
   <v>       0.01000346       0.76585679       0.54269552 </v>
   <v>       0.05136684       0.51481235       0.53794328 </v>
   <v>       0.05276328       0.84927531       0.53679701 </v>
   <v>       0.09667522       0.59488642       0.53778806 </v>
   <v>       0.09762852       0.76850494       0.53835522 </v>
   <v>       0.13795365       0.51880864       0.53264776 </v>
   <v>       0.13976720       0.85324815       0.52812836 </v>
   <v>       0.18296720       0.59692099       0.52873731 </v>
   <v>       0.18459679       0.76810988       0.52611045 </v>
   <v>       0.22831480       0.51641852       0.52421791 </v>
   <v>       0.22702496       0.85101605       0.51408955 </v>
   <v>       0.27136435       0.60673333       0.51629254 </v>
   <v>       0.26990802       0.77080988       0.50871642 </v>
   <v>       0.31439608       0.52192346       0.50610746 </v>
   <v>       0.30870553       0.85485185       0.49212537 </v>
   <v>       0.35584706       0.60780494       0.49621493 </v>
   <v>       0.35291373       0.77304691       0.48849254 </v>
   <v>       0.39712299       0.52756173       0.48066866 </v>
   <v>       0.39726203       0.85910988       0.47787164 </v>
   <v>       0.43844207       0.60776914       0.46835522 </v>
   <v>       0.43963993       0.77851111       0.46934030 </v>
   <v>       0.48062032       0.52755185       0.45843284 </v>
   <v>       0.48249198       0.85660000       0.45660597 </v>
   <v>       0.52615686       0.60812346       0.45499403 </v>
   <v>       0.52626381       0.77622840       0.45541194 </v>
   <v>       0.57052406       0.52900741       0.45633731 </v>
   <v>       0.56916578       0.86179136       0.45982388 </v>
   <v>       0.61436720       0.61147778       0.46623582 </v>
   <v>       0.61272727       0.78075309       0.46848358 </v>
   <v>       0.65593939       0.52296049       0.47607164 </v>
   <v>       0.65449911       0.85651111       0.48070448 </v>
   <v>       0.69910873       0.60900123       0.48841493 </v>
   <v>       0.69670588       0.77394321       0.49369254 </v>
   <v>       0.74017825       0.52939383       0.50000299 </v>
   <v>       0.73648485       0.85950123       0.50678507 </v>
   <v>       0.78192157       0.60335185       0.51591343 </v>
   <v>       0.77920856       0.77063951       0.51870448 </v>
   <v>       0.82537968       0.52216296       0.52061791 </v>
   <v>       0.82281640       0.85122716       0.52919104 </v>
   <v>       0.86886988       0.60088272       0.53211940 </v>
   <v>       0.86616043       0.76640000       0.53969552 </v>
   <v>       0.91490909       0.52067160       0.52809254 </v>
   <v>       0.91002852       0.85216296       0.54488955 </v>
   <v>       0.95621747       0.60152716       0.54316716 </v>
   <v>       0.95559715       0.77480864       0.54774328 </v>
  </varray>
 </structure>
</modeling>
