unknown system                          
            1
    28.050000    0.000000    0.000000
     0.000000    8.100000    0.000000
     0.000000    0.000000   33.500000
   C 
    92
Direct configuration=     1
   0.00718734  0.09281247  0.52770149
   0.00800674  0.25982963  0.52425075
   0.04920927  0.01384358  0.52861791
   0.04999287  0.35171728  0.52449552
   0.09358824  0.10003901  0.52471343
   0.09472371  0.26969383  0.52204776
   0.13804314  0.01799272  0.52123881
   0.13778895  0.35325556  0.52123284
   0.18027308  0.10761852  0.50798507
   0.18138217  0.27467654  0.51443582
   0.22187059  0.01700086  0.50119701
   0.22655936  0.35389136  0.51232836
   0.26288627  0.10221247  0.48963284
   0.26646595  0.26776420  0.49851940
   0.30730481  0.02062321  0.48263582
   0.31078538  0.35533210  0.49548657
   0.34880428  0.11451704  0.47420597
   0.35084242  0.27900247  0.48057612
   0.39320499  0.02562012  0.46928657
   0.39489483  0.35627654  0.47567463
   0.43716578  0.10564309  0.46068060
   0.43650267  0.27454198  0.46512836
   0.48315152  0.02410370  0.45584478
   0.48119430  0.36121235  0.45624776
   0.52708378  0.11051815  0.45259701
   0.52537255  0.28284321  0.45262090
   0.57002139  0.02479877  0.45219104
   0.56992157  0.35755062  0.45336716
   0.61365419  0.10507975  0.46164478
   0.61283422  0.27434691  0.46032836
   0.65454545  0.02079889  0.47308955
   0.65703030  0.35874568  0.47098507
   0.69777897  0.10226099  0.48150746
   0.70046702  0.27420370  0.47790149
   0.73948663  0.02208432  0.49719701
   0.74140463  0.35843704  0.49029254
   0.78252763  0.10535951  0.50760000
   0.78395365  0.27003827  0.49967761
   0.82357219  0.02048926  0.52268657
   0.82612478  0.35453827  0.51418806
   0.86639929  0.10303593  0.52931343
   0.86817112  0.26736914  0.52095522
   0.91209982  0.02079667  0.53772836
   0.91405704  0.35210494  0.52434925
   0.95361497  0.09833148  0.52939701
   0.95627451  0.26753457  0.52135522
   0.00844371  0.59783827  0.54104776
   0.01000346  0.76585679  0.54269552
   0.05136684  0.51481235  0.53794328
   0.05276328  0.84927531  0.53679701
   0.09667522  0.59488642  0.53778806
   0.09762852  0.76850494  0.53835522
   0.13795365  0.51880864  0.53264776
   0.13976720  0.85324815  0.52812836
   0.18296720  0.59692099  0.52873731
   0.18459679  0.76810988  0.52611045
   0.22831480  0.51641852  0.52421791
   0.22702496  0.85101605  0.51408955
   0.27136435  0.60673333  0.51629254
   0.26990802  0.77080988  0.50871642
   0.31439608  0.52192346  0.50610746
   0.30870553  0.85485185  0.49212537
   0.35584706  0.60780494  0.49621493
   0.35291373  0.77304691  0.48849254
   0.39712299  0.52756173  0.48066866
   0.39726203  0.85910988  0.47787164
   0.43844207  0.60776914  0.46835522
   0.43963993  0.77851111  0.46934030
   0.48062032  0.52755185  0.45843284
   0.48249198  0.85660000  0.45660597
   0.52615686  0.60812346  0.45499403
   0.52626381  0.77622840  0.45541194
   0.57052406  0.52900741  0.45633731
   0.56916578  0.86179136  0.45982388
   0.61436720  0.61147778  0.46623582
   0.61272727  0.78075309  0.46848358
   0.65593939  0.52296049  0.47607164
   0.65449911  0.85651111  0.48070448
   0.69910873  0.60900123  0.48841493
   0.69670588  0.77394321  0.49369254
   0.74017825  0.52939383  0.50000299
   0.73648485  0.85950123  0.50678507
   0.78192157  0.60335185  0.51591343
   0.77920856  0.77063951  0.51870448
   0.82537968  0.52216296  0.52061791
   0.82281640  0.85122716  0.52919104
   0.86886988  0.60088272  0.53211940
   0.86616043  0.76640000  0.53969552
   0.91490909  0.52067160  0.52809254
   0.91002852  0.85216296  0.54488955
   0.95621747  0.60152716  0.54316716
   0.95559715  0.77480864  0.54774328
