4
Lattice="2.461680 0.000000 0.000000 1.232500 2.132120 0.000000 0.000000 0.000000 50.000000" energy=-37.270230 virial="0.167140 -0.106800 0.000000 -0.106800 0.189600 0.000000 0.000000 0.000000 -0.028110" Properties=species:S:1:pos:R:3:force:R:3
C 3.692520 2.130800 10.000000 0.070956 0.047194 0.000346
C 1.230840 0.710270 10.000000 -0.070956 -0.047194 0.000346
C 3.692520 2.130800 20.000000 0.070956 0.047194 -0.000346
C 1.230840 0.710270 20.000000 -0.070956 -0.047194 -0.000346
4
Lattice="2.461680 0.000000 0.000000 1.232500 2.132120 0.000000 0.000000 0.000000 50.000000" energy=-37.269419 virial="0.168120 -0.106240 0.000000 -0.106240 0.189620 0.000000 0.000000 0.000000 -0.026830" Properties=species:S:1:pos:R:3:force:R:3
C 3.692520 2.130800 10.000000 0.070564 0.046810 -0.000002
C 1.230840 0.710270 10.000000 -0.070564 -0.046810 -0.000002
C 3.692520 2.130800 21.000000 0.070564 0.046810 0.000002
C 1.230840 0.710270 21.000000 -0.070564 -0.046810 0.000002
4
Lattice="2.461680 0.000000 0.000000 1.232500 2.132120 0.000000 0.000000 0.000000 50.000000" energy=-37.269219 virial="0.164360 -0.106230 0.000000 -0.106230 0.185690 0.000000 0.000000 0.000000 -0.027520" Properties=species:S:1:pos:R:3:force:R:3
C 3.692520 2.130800 10.000000 0.070338 0.046659 0.002456
C 1.230840 0.710270 10.000000 -0.070338 -0.046659 0.002456
C 3.692520 2.130800 22.000000 0.070338 0.046659 -0.002456
C 1.230840 0.710270 22.000000 -0.070338 -0.046659 -0.002456
4
Lattice="2.461680 0.000000 0.000000 1.232500 2.132120 0.000000 0.000000 0.000000 50.000000" energy=-37.268994 virial="0.164470 -0.106230 0.000000 -0.106230 0.185790 0.000000 0.000000 0.000000 -0.026690" Properties=species:S:1:pos:R:3:force:R:3
C 3.692520 2.130800 10.000000 0.070338 0.046659 -0.002209
C 1.230840 0.710270 10.000000 -0.070338 -0.046659 -0.002209
C 3.692520 2.130800 23.000000 0.070338 0.046659 0.002209
C 1.230840 0.710270 23.000000 -0.070338 -0.046659 0.002209
4
Lattice="2.461680 0.000000 0.000000 1.232500 2.132120 0.000000 0.000000 0.000000 50.000000" energy=-37.268695 virial="0.168480 -0.106240 0.000000 -0.106240 0.189980 0.000000 0.000000 0.000000 -0.024060" Properties=species:S:1:pos:R:3:force:R:3
C 3.692520 2.130800 10.000000 0.070564 0.046810 0.000292
C 1.230840 0.710270 10.000000 -0.070564 -0.046810 0.000292
C 3.692520 2.130800 24.000000 0.070564 0.046810 -0.000292
C 1.230840 0.710270 24.000000 -0.070564 -0.046810 -0.000292
4
Lattice="2.461680 0.000000 0.000000 1.232500 2.132120 0.000000 0.000000 0.000000 50.000000" energy=-37.268847 virial="0.167830 -0.106800 0.000000 -0.106800 0.190290 0.000000 0.000000 0.000000 -0.022560" Properties=species:S:1:pos:R:3:force:R:3
C 3.692520 2.130800 10.000000 0.070955 0.047195 0.000045
C 1.230840 0.710270 10.000000 -0.070955 -0.047195 0.000045
C 3.692520 2.130800 25.000000 0.070955 0.047195 -0.000045
C 1.230840 0.710270 25.000000 -0.070955 -0.047195 -0.000045
4
Lattice="2.461680 0.000000 0.000000 1.232500 2.132120 0.000000 0.000000 0.000000 50.000000" energy=-34.652002 virial="1.766520 -0.020170 0.000000 -0.020170 1.689490 0.000000 0.000000 0.000000 11.358740" Properties=species:S:1:pos:R:3:force:R:3
C 3.692520 2.130800 10.000000 0.017227 0.013282 -2.843852
C 1.230840 0.710270 10.000000 -0.017227 -0.013282 -2.843852
C 3.692520 2.130800 12.000000 0.017227 0.013282 2.843852
C 1.230840 0.710270 12.000000 -0.017227 -0.013282 2.843852
4
Lattice="2.461680 0.000000 0.000000 1.232500 2.132120 0.000000 0.000000 0.000000 50.000000" energy=-35.156407 virial="1.048440 0.001980 0.000000 0.001980 0.946830 0.000000 0.000000 0.000000 9.929380" Properties=species:S:1:pos:R:3:force:R:3
C 3.692520 2.130800 10.000000 0.015352 0.012351 -2.366526
C 1.230840 0.710270 10.000000 -0.015352 -0.012351 -2.366526
C 3.692520 2.130800 12.100000 0.015352 0.012351 2.366526
C 1.230840 0.710270 12.100000 -0.015352 -0.012351 2.366526
4
Lattice="2.461680 0.000000 0.000000 1.232500 2.132120 0.000000 0.000000 0.000000 50.000000" energy=-35.578297 virial="0.514900 -0.124620 0.000000 -0.124620 0.555350 0.000000 0.000000 0.000000 8.570450" Properties=species:S:1:pos:R:3:force:R:3
C 3.692520 2.130800 10.000000 0.081327 0.051093 -1.949519
C 1.230840 0.710270 10.000000 -0.081327 -0.051093 -1.949519
C 3.692520 2.130800 12.200000 0.081327 0.051093 1.949519
C 1.230840 0.710270 12.200000 -0.081327 -0.051093 1.949519
4
Lattice="2.461680 0.000000 0.000000 1.232500 2.132120 0.000000 0.000000 0.000000 50.000000" energy=-35.957205 virial="0.063620 -0.106030 0.000000 -0.106030 0.083960 0.000000 0.000000 0.000000 7.803310" Properties=species:S:1:pos:R:3:force:R:3
C 3.692520 2.130800 10.000000 0.053332 0.033312 -1.699682
C 1.230840 0.710270 10.000000 -0.053332 -0.033312 -1.699682
C 3.692520 2.130800 12.300000 0.053332 0.033312 1.699682
C 1.230840 0.710270 12.300000 -0.053332 -0.033312 1.699682
4
Lattice="2.461680 0.000000 0.000000 1.232500 2.132120 0.000000 0.000000 0.000000 50.000000" energy=-36.280146 virial="-0.616930 -0.117300 0.000000 -0.117300 -0.587020 0.000000 0.000000 0.000000 8.050560" Properties=species:S:1:pos:R:3:force:R:3
C 3.692520 2.130800 10.000000 0.075451 0.048813 -1.681447
C 1.230840 0.710270 10.000000 -0.075451 -0.048813 -1.681447
C 3.692520 2.130800 12.400000 0.075451 0.048813 1.681447
C 1.230840 0.710270 12.400000 -0.075451 -0.048813 1.681447
4
Lattice="2.461680 0.000000 0.000000 1.232500 2.132120 0.000000 0.000000 0.000000 50.000000" energy=-36.565376 virial="-0.411690 -0.117160 0.000000 -0.117160 -0.380280 0.000000 0.000000 0.000000 6.001460" Properties=species:S:1:pos:R:3:force:R:3
C 3.692520 2.130800 10.000000 0.076150 0.049254 -1.204689
C 1.230840 0.710270 10.000000 -0.076150 -0.049254 -1.204689
C 3.692520 2.130800 12.500000 0.076150 0.049254 1.204689
C 1.230840 0.710270 12.500000 -0.076150 -0.049254 1.204689
4
Lattice="2.461680 0.000000 0.000000 1.232500 2.132120 0.000000 0.000000 0.000000 50.000000" energy=-36.777690 virial="-0.338290 -0.117570 0.000000 -0.117570 -0.308100 0.000000 0.000000 0.000000 4.689630" Properties=species:S:1:pos:R:3:force:R:3
C 3.692520 2.130800 10.000000 0.075707 0.048946 -0.905144
C 1.230840 0.710270 10.000000 -0.075707 -0.048946 -0.905144
C 3.692520 2.130800 12.600000 0.075707 0.048946 0.905144
C 1.230840 0.710270 12.600000 -0.075707 -0.048946 0.905144
4
Lattice="2.461680 0.000000 0.000000 1.232500 2.132120 0.000000 0.000000 0.000000 50.000000" energy=-36.938686 virial="-0.385680 -0.113030 0.000000 -0.113030 -0.358590 0.000000 0.000000 0.000000 3.938140" Properties=species:S:1:pos:R:3:force:R:3
C 3.692520 2.130800 10.000000 0.074181 0.048445 -0.733528
C 1.230840 0.710270 10.000000 -0.074181 -0.048445 -0.733528
C 3.692520 2.130800 12.700000 0.074181 0.048445 0.733528
C 1.230840 0.710270 12.700000 -0.074181 -0.048445 0.733528
4
Lattice="2.461680 0.000000 0.000000 1.232500 2.132120 0.000000 0.000000 0.000000 50.000000" energy=-37.070026 virial="-0.356280 -0.111430 0.000000 -0.111430 -0.331260 0.000000 0.000000 0.000000 3.112970" Properties=species:S:1:pos:R:3:force:R:3
C 3.692520 2.130800 10.000000 0.072151 0.047216 -0.562681
C 1.230840 0.710270 10.000000 -0.072151 -0.047216 -0.562681
C 3.692520 2.130800 12.800000 0.072151 0.047216 0.562681
C 1.230840 0.710270 12.800000 -0.072151 -0.047216 0.562681
4
Lattice="2.461680 0.000000 0.000000 1.232500 2.132120 0.000000 0.000000 0.000000 50.000000" energy=-37.163647 virial="-0.249550 -0.110680 0.000000 -0.110680 -0.224900 0.000000 0.000000 0.000000 2.255590" Properties=species:S:1:pos:R:3:force:R:3
C 3.692520 2.130800 10.000000 0.072609 0.047696 -0.395299
C 1.230840 0.710270 10.000000 -0.072609 -0.047696 -0.395299
C 3.692520 2.130800 12.900000 0.072609 0.047696 0.395299
C 1.230840 0.710270 12.900000 -0.072609 -0.047696 0.395299
4
Lattice="2.461680 0.000000 0.000000 1.232500 2.132120 0.000000 0.000000 0.000000 50.000000" energy=-37.228442 virial="-0.164830 -0.110940 0.000000 -0.110940 -0.139670 0.000000 0.000000 0.000000 1.587840" Properties=species:S:1:pos:R:3:force:R:3
C 3.692520 2.130800 10.000000 0.072462 0.047476 -0.270990
C 1.230840 0.710270 10.000000 -0.072462 -0.047476 -0.270990
C 3.692520 2.130800 13.000000 0.072462 0.047476 0.270990
C 1.230840 0.710270 13.000000 -0.072462 -0.047476 0.270990
4
Lattice="2.461680 0.000000 0.000000 1.232500 2.132120 0.000000 0.000000 0.000000 50.000000" energy=-37.271990 virial="-0.094240 -0.110970 0.000000 -0.110970 -0.068900 0.000000 0.000000 0.000000 1.072900" Properties=species:S:1:pos:R:3:force:R:3
C 3.692520 2.130800 10.000000 0.072597 0.047536 -0.181763
C 1.230840 0.710270 10.000000 -0.072597 -0.047536 -0.181763
C 3.692520 2.130800 13.100000 0.072597 0.047536 0.181763
C 1.230840 0.710270 13.100000 -0.072597 -0.047536 0.181763
4
Lattice="2.461680 0.000000 0.000000 1.232500 2.132120 0.000000 0.000000 0.000000 50.000000" energy=-37.300202 virial="0.014110 0.002420 0.000000 0.002420 -0.090410 0.000000 0.000000 0.000000 0.739260" Properties=species:S:1:pos:R:3:force:R:3
C 3.692520 2.130800 10.000000 0.009289 0.011381 -0.122648
C 1.230840 0.710270 10.000000 -0.009289 -0.011381 -0.122648
C 3.692520 2.130800 13.200000 0.009289 0.011381 0.122648
C 1.230840 0.710270 13.200000 -0.009289 -0.011381 0.122648
4
Lattice="2.461680 0.000000 0.000000 1.232500 2.132120 0.000000 0.000000 0.000000 50.000000" energy=-37.320859 virial="-0.031910 -0.106230 0.000000 -0.106230 -0.010410 0.000000 0.000000 0.000000 0.533030" Properties=species:S:1:pos:R:3:force:R:3
C 3.692520 2.130800 10.000000 0.070274 0.046612 -0.085656
C 1.230840 0.710270 10.000000 -0.070274 -0.046612 -0.085656
C 3.692520 2.130800 13.300000 0.070274 0.046612 0.085656
C 1.230840 0.710270 13.300000 -0.070274 -0.046612 0.085656
4
Lattice="2.461680 0.000000 0.000000 1.232500 2.132120 0.000000 0.000000 0.000000 50.000000" energy=-37.333591 virial="0.009850 -0.106340 0.000000 -0.106340 0.031460 0.000000 0.000000 0.000000 0.313220" Properties=species:S:1:pos:R:3:force:R:3
C 3.692520 2.130800 10.000000 0.070300 0.046624 -0.050253
C 1.230840 0.710270 10.000000 -0.070300 -0.046624 -0.050253
C 3.692520 2.130800 13.400000 0.070300 0.046624 0.050253
C 1.230840 0.710270 13.400000 -0.070300 -0.046624 0.050253
4
Lattice="2.461680 0.000000 0.000000 1.232500 2.132120 0.000000 0.000000 0.000000 50.000000" energy=-37.340314 virial="0.041970 -0.106270 0.000000 -0.106270 0.063540 0.000000 0.000000 0.000000 0.149210" Properties=species:S:1:pos:R:3:force:R:3
C 3.692520 2.130800 10.000000 0.070501 0.046746 -0.024641
C 1.230840 0.710270 10.000000 -0.070501 -0.046746 -0.024641
C 3.692520 2.130800 13.500000 0.070501 0.046746 0.024641
C 1.230840 0.710270 13.500000 -0.070501 -0.046746 0.024641
4
Lattice="2.461680 0.000000 0.000000 1.232500 2.132120 0.000000 0.000000 0.000000 50.000000" energy=-37.342899 virial="0.069050 -0.106530 0.000000 -0.106530 0.090610 0.000000 0.000000 0.000000 0.035860" Properties=species:S:1:pos:R:3:force:R:3
C 3.692520 2.130800 10.000000 0.070529 0.046795 -0.006978
C 1.230840 0.710270 10.000000 -0.070529 -0.046795 -0.006978
C 3.692520 2.130800 13.600000 0.070529 0.046795 0.006978
C 1.230840 0.710270 13.600000 -0.070529 -0.046795 0.006978
4
Lattice="2.461680 0.000000 0.000000 1.232500 2.132120 0.000000 0.000000 0.000000 50.000000" energy=-37.342673 virial="0.089480 -0.107220 0.000000 -0.107220 0.111430 0.000000 0.000000 0.000000 -0.047620" Properties=species:S:1:pos:R:3:force:R:3
C 3.692520 2.130800 10.000000 0.070871 0.047161 0.003880
C 1.230840 0.710270 10.000000 -0.070871 -0.047161 0.003880
C 3.692520 2.130800 13.700000 0.070871 0.047161 -0.003880
C 1.230840 0.710270 13.700000 -0.070871 -0.047161 -0.003880
4
Lattice="2.461680 0.000000 0.000000 1.232500 2.132120 0.000000 0.000000 0.000000 50.000000" energy=-37.340620 virial="0.104530 -0.107230 0.000000 -0.107230 0.126490 0.000000 0.000000 0.000000 -0.104290" Properties=species:S:1:pos:R:3:force:R:3
C 3.692520 2.130800 10.000000 0.070883 0.047168 0.011841
C 1.230840 0.710270 10.000000 -0.070883 -0.047168 0.011841
C 3.692520 2.130800 13.800000 0.070883 0.047168 -0.011841
C 1.230840 0.710270 13.800000 -0.070883 -0.047168 -0.011841
4
Lattice="2.461680 0.000000 0.000000 1.232500 2.132120 0.000000 0.000000 0.000000 50.000000" energy=-37.337437 virial="0.115070 -0.106560 0.000000 -0.106560 0.136670 0.000000 0.000000 0.000000 -0.141080" Properties=species:S:1:pos:R:3:force:R:3
C 3.692520 2.130800 10.000000 0.070567 0.046817 0.015688
C 1.230840 0.710270 10.000000 -0.070567 -0.046817 0.015688
C 3.692520 2.130800 13.900000 0.070567 0.046817 -0.015688
C 1.230840 0.710270 13.900000 -0.070567 -0.046817 -0.015688
4
Lattice="2.461680 0.000000 0.000000 1.232500 2.132120 0.000000 0.000000 0.000000 50.000000" energy=-37.333608 virial="0.121560 -0.106340 0.000000 -0.106340 0.143210 0.000000 0.000000 0.000000 -0.169220" Properties=species:S:1:pos:R:3:force:R:3
C 3.692520 2.130800 10.000000 0.070572 0.046785 0.018610
C 1.230840 0.710270 10.000000 -0.070572 -0.046785 0.018610
C 3.692520 2.130800 14.000000 0.070572 0.046785 -0.018610
C 1.230840 0.710270 14.000000 -0.070572 -0.046785 -0.018610
4
Lattice="2.461680 0.000000 0.000000 1.232500 2.132120 0.000000 0.000000 0.000000 50.000000" energy=-37.329484 virial="0.127510 -0.106450 0.000000 -0.106450 0.149260 0.000000 0.000000 0.000000 -0.183220" Properties=species:S:1:pos:R:3:force:R:3
C 3.692520 2.130800 10.000000 0.070411 0.046684 0.020242
C 1.230840 0.710270 10.000000 -0.070411 -0.046684 0.020242
C 3.692520 2.130800 14.100000 0.070411 0.046684 -0.020242
C 1.230840 0.710270 14.100000 -0.070411 -0.046684 -0.020242
4
Lattice="2.461680 0.000000 0.000000 1.232500 2.132120 0.000000 0.000000 0.000000 50.000000" energy=-37.325274 virial="0.130230 -0.106420 0.000000 -0.106420 0.151930 0.000000 0.000000 0.000000 -0.195000" Properties=species:S:1:pos:R:3:force:R:3
C 3.692520 2.130800 10.000000 0.070441 0.046699 0.020006
C 1.230840 0.710270 10.000000 -0.070441 -0.046699 0.020006
C 3.692520 2.130800 14.200000 0.070441 0.046699 -0.020006
C 1.230840 0.710270 14.200000 -0.070441 -0.046699 -0.020006
4
Lattice="2.461680 0.000000 0.000000 1.232500 2.132120 0.000000 0.000000 0.000000 50.000000" energy=-37.321137 virial="0.134830 -0.106500 0.000000 -0.106500 0.156630 0.000000 0.000000 0.000000 -0.195190" Properties=species:S:1:pos:R:3:force:R:3
C 3.692520 2.130800 10.000000 0.070208 0.046663 0.021633
C 1.230840 0.710270 10.000000 -0.070208 -0.046663 0.021633
C 3.692520 2.130800 14.300000 0.070208 0.046663 -0.021633
C 1.230840 0.710270 14.300000 -0.070208 -0.046663 -0.021633
4
Lattice="2.461680 0.000000 0.000000 1.232500 2.132120 0.000000 0.000000 0.000000 50.000000" energy=-37.317178 virial="0.138080 -0.106170 0.000000 -0.106170 0.159500 0.000000 0.000000 0.000000 -0.192920" Properties=species:S:1:pos:R:3:force:R:3
C 3.692520 2.130800 10.000000 0.070362 0.046650 0.022036
C 1.230840 0.710270 10.000000 -0.070362 -0.046650 0.022036
C 3.692520 2.130800 14.400000 0.070362 0.046650 -0.022036
C 1.230840 0.710270 14.400000 -0.070362 -0.046650 -0.022036
4
Lattice="2.461680 0.000000 0.000000 1.232500 2.132120 0.000000 0.000000 0.000000 50.000000" energy=-37.313440 virial="0.143100 -0.106320 0.000000 -0.106320 0.164540 0.000000 0.000000 0.000000 -0.180280" Properties=species:S:1:pos:R:3:force:R:3
C 3.692520 2.130800 10.000000 0.070352 0.046646 0.019675
C 1.230840 0.710270 10.000000 -0.070352 -0.046646 0.019675
C 3.692520 2.130800 14.500000 0.070352 0.046646 -0.019675
C 1.230840 0.710270 14.500000 -0.070352 -0.046646 -0.019675
4
Lattice="2.461680 0.000000 0.000000 1.232500 2.132120 0.000000 0.000000 0.000000 50.000000" energy=-37.309934 virial="0.149610 -0.106290 0.000000 -0.106290 0.170790 0.000000 0.000000 0.000000 -0.169410" Properties=species:S:1:pos:R:3:force:R:3
C 3.692520 2.130800 10.000000 0.070663 0.046937 0.019244
C 1.230840 0.710270 10.000000 -0.070663 -0.046937 0.019244
C 3.692520 2.130800 14.600000 0.070663 0.046937 -0.019244
C 1.230840 0.710270 14.600000 -0.070663 -0.046937 -0.019244
4
Lattice="2.461680 0.000000 0.000000 1.232500 2.132120 0.000000 0.000000 0.000000 50.000000" energy=-37.306680 virial="0.152440 -0.107340 0.000000 -0.107340 0.174340 0.000000 0.000000 0.000000 -0.162430" Properties=species:S:1:pos:R:3:force:R:3
C 3.692520 2.130800 10.000000 0.070416 0.046550 0.018292
C 1.230840 0.710270 10.000000 -0.070416 -0.046550 0.018292
C 3.692520 2.130800 14.700000 0.070416 0.046550 -0.018292
C 1.230840 0.710270 14.700000 -0.070416 -0.046550 -0.018292
4
Lattice="2.461680 0.000000 0.000000 1.232500 2.132120 0.000000 0.000000 0.000000 50.000000" energy=-37.303658 virial="0.154160 -0.106580 0.000000 -0.106580 0.175970 0.000000 0.000000 0.000000 -0.152550" Properties=species:S:1:pos:R:3:force:R:3
C 3.692520 2.130800 10.000000 0.071061 0.047192 0.014684
C 1.230840 0.710270 10.000000 -0.071061 -0.047192 0.014684
C 3.692520 2.130800 14.800000 0.071061 0.047192 -0.014684
C 1.230840 0.710270 14.800000 -0.071061 -0.047192 -0.014684
4
Lattice="2.461680 0.000000 0.000000 1.232500 2.132120 0.000000 0.000000 0.000000 50.000000" energy=-37.300849 virial="0.156010 -0.107670 0.000000 -0.107670 0.177770 0.000000 0.000000 0.000000 -0.143650" Properties=species:S:1:pos:R:3:force:R:3
C 3.692520 2.130800 10.000000 0.070707 0.046934 0.012416
C 1.230840 0.710270 10.000000 -0.070707 -0.046934 0.012416
C 3.692520 2.130800 14.900000 0.070707 0.046934 -0.012416
C 1.230840 0.710270 14.900000 -0.070707 -0.046934 -0.012416
4
Lattice="2.461680 0.000000 0.000000 1.232500 2.132120 0.000000 0.000000 0.000000 50.000000" energy=-37.298274 virial="0.155620 -0.106880 0.000000 -0.106880 0.178160 0.000000 0.000000 0.000000 -0.138200" Properties=species:S:1:pos:R:3:force:R:3
C 3.692520 2.130800 10.000000 0.070965 0.047187 0.011719
C 1.230840 0.710270 10.000000 -0.070965 -0.047187 0.011719
C 3.692520 2.130800 15.000000 0.070965 0.047187 -0.011719
C 1.230840 0.710270 15.000000 -0.070965 -0.047187 -0.011719
4
Lattice="2.461680 0.000000 0.000000 1.232500 2.132120 0.000000 0.000000 0.000000 50.000000" energy=-37.295925 virial="0.158310 -0.107670 0.000000 -0.107670 0.180060 0.000000 0.000000 0.000000 -0.127630" Properties=species:S:1:pos:R:3:force:R:3
C 3.692520 2.130800 10.000000 0.070706 0.046935 0.011082
C 1.230840 0.710270 10.000000 -0.070706 -0.046935 0.011082
C 3.692520 2.130800 15.100000 0.070706 0.046935 -0.011082
C 1.230840 0.710270 15.100000 -0.070706 -0.046935 -0.011082
4
Lattice="2.461680 0.000000 0.000000 1.232500 2.132120 0.000000 0.000000 0.000000 50.000000" energy=-37.293776 virial="0.158930 -0.106570 0.000000 -0.106570 0.180720 0.000000 0.000000 0.000000 -0.120690" Properties=species:S:1:pos:R:3:force:R:3
C 3.692520 2.130800 10.000000 0.071058 0.047195 0.008994
C 1.230840 0.710270 10.000000 -0.071058 -0.047195 0.008994
C 3.692520 2.130800 15.200000 0.071058 0.047195 -0.008994
C 1.230840 0.710270 15.200000 -0.071058 -0.047195 -0.008994
4
Lattice="2.461680 0.000000 0.000000 1.232500 2.132120 0.000000 0.000000 0.000000 50.000000" energy=-37.291787 virial="0.159840 -0.107320 0.000000 -0.107320 0.181710 0.000000 0.000000 0.000000 -0.115190" Properties=species:S:1:pos:R:3:force:R:3
C 3.692520 2.130800 10.000000 0.070412 0.046555 0.005674
C 1.230840 0.710270 10.000000 -0.070412 -0.046555 0.005674
C 3.692520 2.130800 15.300000 0.070412 0.046555 -0.005674
C 1.230840 0.710270 15.300000 -0.070412 -0.046555 -0.005674
4
Lattice="2.461680 0.000000 0.000000 1.232500 2.132120 0.000000 0.000000 0.000000 50.000000" energy=-37.289956 virial="0.159900 -0.106250 0.000000 -0.106250 0.181030 0.000000 0.000000 0.000000 -0.107650" Properties=species:S:1:pos:R:3:force:R:3
C 3.692520 2.130800 10.000000 0.070657 0.046944 0.005098
C 1.230840 0.710270 10.000000 -0.070657 -0.046944 0.005098
C 3.692520 2.130800 15.400000 0.070657 0.046944 -0.005098
C 1.230840 0.710270 15.400000 -0.070657 -0.046944 -0.005098
4
Lattice="2.461680 0.000000 0.000000 1.232500 2.132120 0.000000 0.000000 0.000000 50.000000" energy=-37.288290 virial="0.156540 -0.106270 0.000000 -0.106270 0.177920 0.000000 0.000000 0.000000 -0.105200" Properties=species:S:1:pos:R:3:force:R:3
C 3.692520 2.130800 10.000000 0.070345 0.046654 0.005080
C 1.230840 0.710270 10.000000 -0.070345 -0.046654 0.005080
C 3.692520 2.130800 15.500000 0.070345 0.046654 -0.005080
C 1.230840 0.710270 15.500000 -0.070345 -0.046654 -0.005080
4
Lattice="2.461680 0.000000 0.000000 1.232500 2.132120 0.000000 0.000000 0.000000 50.000000" energy=-37.286754 virial="0.155270 -0.106110 0.000000 -0.106110 0.176620 0.000000 0.000000 0.000000 -0.106390" Properties=species:S:1:pos:R:3:force:R:3
C 3.692520 2.130800 10.000000 0.070354 0.046660 0.003104
C 1.230840 0.710270 10.000000 -0.070354 -0.046660 0.003104
C 3.692520 2.130800 15.600000 0.070354 0.046660 -0.003104
C 1.230840 0.710270 15.600000 -0.070354 -0.046660 -0.003104
4
Lattice="2.461680 0.000000 0.000000 1.232500 2.132120 0.000000 0.000000 0.000000 50.000000" energy=-37.285359 virial="0.156430 -0.106430 0.000000 -0.106430 0.178150 0.000000 0.000000 0.000000 -0.099980" Properties=species:S:1:pos:R:3:force:R:3
C 3.692520 2.130800 10.000000 0.070200 0.046675 0.003729
C 1.230840 0.710270 10.000000 -0.070200 -0.046675 0.003729
C 3.692520 2.130800 15.700000 0.070200 0.046675 -0.003729
C 1.230840 0.710270 15.700000 -0.070200 -0.046675 -0.003729
4
Lattice="2.461680 0.000000 0.000000 1.232500 2.132120 0.000000 0.000000 0.000000 50.000000" energy=-37.284106 virial="0.157110 -0.106350 0.000000 -0.106350 0.178720 0.000000 0.000000 0.000000 -0.094980" Properties=species:S:1:pos:R:3:force:R:3
C 3.692520 2.130800 10.000000 0.070434 0.046713 0.005247
C 1.230840 0.710270 10.000000 -0.070434 -0.046713 0.005247
C 3.692520 2.130800 15.800000 0.070434 0.046713 -0.005247
C 1.230840 0.710270 15.800000 -0.070434 -0.046713 -0.005247
4
Lattice="2.461680 0.000000 0.000000 1.232500 2.132120 0.000000 0.000000 0.000000 50.000000" energy=-37.282977 virial="0.160820 -0.106380 0.000000 -0.106380 0.182460 0.000000 0.000000 0.000000 -0.083800" Properties=species:S:1:pos:R:3:force:R:3
C 3.692520 2.130800 10.000000 0.070405 0.046701 0.004344
C 1.230840 0.710270 10.000000 -0.070405 -0.046701 0.004344
C 3.692520 2.130800 15.900000 0.070405 0.046701 -0.004344
C 1.230840 0.710270 15.900000 -0.070405 -0.046701 -0.004344
4
Lattice="2.461680 0.000000 0.000000 1.232500 2.132120 0.000000 0.000000 0.000000 50.000000" energy=-37.281949 virial="0.162740 -0.106260 0.000000 -0.106260 0.184280 0.000000 0.000000 0.000000 -0.078010" Properties=species:S:1:pos:R:3:force:R:3
C 3.692520 2.130800 10.000000 0.070568 0.046806 0.004449
C 1.230840 0.710270 10.000000 -0.070568 -0.046806 0.004449
C 3.692520 2.130800 16.000000 0.070568 0.046806 -0.004449
C 1.230840 0.710270 16.000000 -0.070568 -0.046806 -0.004449
4
Lattice="2.461680 0.000000 0.000000 1.232500 2.132120 0.000000 0.000000 0.000000 50.000000" energy=-37.275580 virial="0.161310 -0.106240 0.000000 -0.106240 0.182650 0.000000 0.000000 0.000000 -0.052730" Properties=species:S:1:pos:R:3:force:R:3
C 3.692520 2.130800 10.000000 0.070340 0.046657 0.004363
C 1.230840 0.710270 10.000000 -0.070340 -0.046657 0.004363
C 3.692520 2.130800 17.000000 0.070340 0.046657 -0.004363
C 1.230840 0.710270 17.000000 -0.070340 -0.046657 -0.004363
4
Lattice="2.461680 0.000000 0.000000 1.232500 2.132120 0.000000 0.000000 0.000000 50.000000" energy=-37.272580 virial="0.162660 -0.106240 0.000000 -0.106240 0.183990 0.000000 0.000000 0.000000 -0.040570" Properties=species:S:1:pos:R:3:force:R:3
C 3.692520 2.130800 10.000000 0.070339 0.046658 -0.001272
C 1.230840 0.710270 10.000000 -0.070339 -0.046658 -0.001272
C 3.692520 2.130800 18.000000 0.070339 0.046658 0.001272
C 1.230840 0.710270 18.000000 -0.070339 -0.046658 0.001272
4
Lattice="2.461680 0.000000 0.000000 1.232500 2.132120 0.000000 0.000000 0.000000 50.000000" energy=-37.270859 virial="0.167400 -0.106240 0.000000 -0.106240 0.188900 0.000000 0.000000 0.000000 -0.032470" Properties=species:S:1:pos:R:3:force:R:3
C 3.692520 2.130800 10.000000 0.070564 0.046810 0.000800
C 1.230840 0.710270 10.000000 -0.070564 -0.046810 0.000800
C 3.692520 2.130800 19.000000 0.070564 0.046810 -0.000800
C 1.230840 0.710270 19.000000 -0.070564 -0.046810 -0.000800
64
Lattice="9.834886 0.000000 0.000000 5.165690 8.610188 0.000000 -1.394311 1.101019 50.099465" energy=-583.915751 virial="35.423150 -44.968230 1.777160 -44.968230 -8.268040 -2.601560 1.777160 -2.601560 -2.658530" Properties=species:S:1:pos:R:3:force:R:3
C 9.602330 0.305940 9.912220 -6.096981 -3.899532 -0.035913
C 0.884190 0.940490 9.888610 9.971211 2.953241 0.187924
C 4.813160 8.890090 13.524070 -6.874630 -2.115101 0.439903
C 0.779940 0.940280 13.499800 5.812982 -2.022700 -0.351343
C 1.051820 2.397630 9.939110 -0.810076 0.009162 -1.115887
C 2.307250 3.124780 9.819510 -0.696917 -0.535580 1.800339
C 0.842880 2.276320 13.531920 1.599221 7.415847 1.013064
C 2.119460 3.113060 13.598130 0.203816 -0.827958 -1.445904
C 2.382330 4.620560 9.976700 2.236434 -5.693342 -1.180514
C 3.631950 5.298950 9.916620 -1.533529 1.544844 0.264858
C 11.976930 4.565850 13.564290 2.704081 -1.802447 0.354262
C 3.358380 5.325130 13.536400 2.992357 -2.172673 0.214538
C 3.670380 6.744330 9.854730 0.614959 -1.297641 0.770967
C 4.880600 7.489240 9.889500 2.473280 -2.008568 0.197290
C 3.513780 6.728650 13.555410 -3.631970 -0.166151 -0.946437
C 4.727350 7.398180 13.492500 -0.709614 4.422965 0.594008
C 2.206310 0.222840 9.886370 1.067093 1.649427 -0.011854
C 3.608550 1.020370 9.861770 -8.165102 -4.775353 0.180689
C 7.240020 8.787480 13.469430 -1.117960 5.104688 0.757831
C 3.316580 0.953880 13.612090 -0.044125 1.054072 -1.961336
C 3.479740 2.351460 9.877750 2.710131 4.413114 0.115430
C 4.741570 3.098630 9.977080 0.077392 0.105963 -0.756744
C 3.409290 2.483440 13.472910 -7.103328 -5.434258 1.704097
C 4.542460 3.107630 13.610570 5.839223 3.384505 -0.094515
C 4.756440 4.553230 9.995960 3.438565 -1.149593 -1.338430
C 6.054020 5.288950 9.839860 -1.932288 0.080601 1.966187
C 4.607270 4.541830 13.537470 -0.794621 1.636440 -0.163272
C 5.865580 5.236110 13.445820 -1.812643 3.817626 1.169567
C 6.151230 6.699120 9.943700 -2.762623 1.694630 -0.910246
C 7.431970 7.393920 9.948400 -10.551927 5.588913 -0.346524
C 5.928480 6.808920 13.526220 -1.940065 -7.380770 -0.945537
C 7.092840 7.443090 13.495510 5.934183 -0.338299 0.464147
C 9.824070 8.781980 9.920920 2.838505 1.465352 -0.015662
C 5.883580 0.924570 9.894150 3.172542 -0.675725 -0.052557
C 4.566570 0.327610 13.541680 -2.713307 -3.263136 0.712899
C 5.729540 1.051210 13.629710 3.533820 -1.829000 -0.402234
C 5.966930 2.329430 9.867180 -1.508072 2.454065 0.789219
C 7.215100 3.110840 9.888120 -3.803237 1.366082 0.225778
C 5.825360 2.436290 13.688740 -1.285524 1.989265 -0.362178
C 7.040430 3.233050 13.651410 0.014358 -6.410058 -1.252188
C 7.206780 4.577480 9.984790 3.996067 -2.212107 -0.970240
C 8.571010 5.258700 10.003740 -7.205803 1.278985 -0.187814
C 7.035330 4.557060 13.516200 4.863385 2.454906 0.312132
C 8.446140 5.225810 13.558910 -4.495265 3.725227 -0.349478
C 8.445430 6.687010 9.965540 13.145611 -4.747327 0.453795
C 9.768970 7.393010 9.974930 1.208435 -1.569416 -0.589450
C 8.369690 6.770770 13.585590 0.277483 -5.323152 -0.694304
C 9.654210 7.336880 13.546570 -7.326990 9.093518 0.067555
C 7.205400 0.271520 9.913690 -6.995263 -3.868472 0.176624
C 8.316940 0.946830 9.905250 4.454390 3.130645 -0.357456
C 6.995650 0.304510 13.559670 -1.619676 0.080403 0.322969
C 8.181270 1.102880 13.632560 2.528129 -7.272300 -1.466562
C 8.326510 2.382200 9.849490 5.024267 -0.790656 0.768348
C 9.644880 3.065410 9.924660 -1.371223 0.990774 0.071771
C 8.275510 2.402790 13.449300 -1.490569 6.525716 2.651628
C 9.507290 3.119810 13.617970 1.463497 -2.688989 -1.963893
C 9.654750 4.507550 9.982740 5.844261 -2.075944 -0.351798
C 11.018950 5.123520 9.952230 -4.898760 7.155345 0.084800
C 9.651680 4.525770 13.534200 -3.411840 -0.630514 0.949914
C 10.822250 5.216670 13.591240 -1.619892 5.177793 -0.187580
C 11.093090 6.723060 9.905320 -4.723623 -3.249980 1.014684
C 12.283910 7.397650 9.950150 0.888702 2.652176 -0.883458
C 10.749920 6.757810 13.577900 11.096659 -6.534644 -0.504731
C 12.111530 7.475630 13.473710 -0.977596 0.345092 1.398823
64
Lattice="10.080610 -0.000000 0.000000 5.227186 8.584592 0.000000 0.432868 -1.285242 50.769985" energy=-581.409519 virial="-45.253100 -44.630370 -0.538400 -44.630370 -9.525370 5.512210 -0.538400 5.512210 -3.041050" Properties=species:S:1:pos:R:3:force:R:3
C 0.231080 -0.252940 10.078100 -4.831279 2.926144 -0.916365
C 1.413830 0.544900 9.976810 2.067014 -4.745997 0.898882
C 10.158640 -0.305590 13.644710 2.642717 -7.725310 0.625013
C 1.336420 0.253950 13.665850 -0.867812 5.815704 0.358883
C 11.480390 1.915090 10.018480 0.334201 3.398684 -0.698890
C 2.642200 2.711790 9.987050 1.327602 -5.717331 1.089136
C 11.417690 1.747370 13.751410 2.911998 0.247524 -0.415379
C 2.692950 2.468110 13.848540 -0.445000 0.193165 -1.895301
C 2.762650 4.078250 9.977730 -1.912153 -0.662877 0.478270
C 3.996810 4.696310 10.038560 -0.073115 5.289320 -0.617012
C 2.760420 3.920040 13.756740 -4.178788 -2.902278 1.315691
C 4.002470 4.541490 13.752470 -3.307854 5.800356 -0.636835
C 4.066390 6.128300 10.017000 -2.723814 4.618736 -0.309536
C 5.318740 6.961850 10.032680 0.898218 -3.793890 0.000691
C 14.013570 6.020670 13.688200 3.653350 0.594994 0.493095
C 5.322530 6.743590 13.708530 -3.376322 0.233580 -0.079665
C 2.663180 -0.252780 10.005440 0.230193 0.687511 -0.219644
C 4.015920 0.507380 10.003190 -9.860715 -3.358359 0.284914
C 2.560850 -0.317440 13.706320 3.336397 -4.597857 0.004104
C 3.912650 0.282020 13.652280 -2.885881 3.014708 0.689523
C 3.893330 1.781710 10.163670 0.573851 11.453207 -1.367479
C 5.174970 2.562700 10.118510 -1.143624 1.843910 -0.629683
C 3.975650 1.762580 13.666520 -2.819560 -1.436767 1.072067
C 5.153690 2.470050 13.715600 4.261938 1.127352 -0.150899
C 5.204470 4.167230 9.955220 5.500477 -7.872683 1.826751
C 6.599690 4.727160 10.050150 -8.819596 6.471872 -0.916865
C 5.176820 3.965350 13.683100 5.603691 -5.617402 0.385341
C 6.570920 4.607790 13.713300 -7.040962 0.071668 0.424771
C 6.564120 6.236010 10.009830 1.098474 -2.275399 0.369022
C 7.860880 6.875710 10.026780 -1.708982 3.681794 -0.227456