50
Lattice="12.340151 0.0 0.0 -6.170077 10.686884 0.0 0.0 0.0 50.0" Properties=species:S:1:pos:R:3:force:R:3 virial="-6.34125 0.0 0.0 0.0 -6.34125 0.0 0.0 0.0 -0.24799" energy=-465.856109 pbc="T T T"
C       -0.00000000       1.42492000      15.00085000      -0.00000000      -0.00000000       0.00000000
C        1.23402000       0.71246000      15.00085000       0.00000000       0.00000000       0.00000000
C       -1.23402000       3.56230000      15.00085000       0.00000000      -0.00000000       0.00000000
C        0.00000000       2.84984000      15.00085000      -0.00000000       0.00000000      -0.00000000
C       -2.46803000       5.69967000      15.00085000       0.00000000       0.00000000      -0.00000000
C       -1.23401000       4.98721000      15.00085000      -0.00000000      -0.00000000       0.00000000
C       -3.70205000       7.83705000      15.00085000      -0.00000000       0.00000000       0.00000000
C       -2.46803000       7.12459000      15.00085000       0.00000000      -0.00000000       0.00000000
C       -4.93606000       9.97443000      15.00085000      -0.00000000      -0.00000000      -0.00000000
C       -3.70205000       9.26197000      15.00085000       0.00000000      -0.00000000      -0.00000000
C        2.46803000       1.42492000      15.00085000      -0.00000000      -0.00000000       0.00000000
C        3.70205000       0.71246000      15.00085000       0.00000000       0.00000000       0.00000000
C        1.23401000       3.56230000      15.00085000       0.00000000      -0.00000000       0.00000000
C        2.46803000       2.84984000      15.00085000      -0.00000000       0.00000000      -0.00000000
C       -0.00000000       5.69967000      15.00085000       0.00000000       0.00000000      -0.00000000
C        1.23402000       4.98721000      15.00085000      -0.00000000      -0.00000000       0.00000000
C       -1.23402000       7.83705000      15.00085000      -0.00000000       0.00000000       0.00000000
C        0.00000000       7.12459000      15.00085000       0.00000000      -0.00000000       0.00000000
C       -2.46803000       9.97443000      15.00085000      -0.00000000      -0.00000000      -0.00000000
C       -1.23402000       9.26197000      15.00085000       0.00000000      -0.00000000      -0.00000000
C        4.93606000       1.42492000      15.00085000      -0.00000000      -0.00000000       0.00000000
C        6.17008000       0.71246000      15.00085000       0.00000000       0.00000000       0.00000000
C        3.70204000       3.56230000      15.00085000       0.00000000       0.00000000       0.00000000
C        4.93606000       2.84984000      15.00085000       0.00000000       0.00000000      -0.00000000
C        2.46803000       5.69967000      15.00085000       0.00000000       0.00000000      -0.00000000
C        3.70205000       4.98721000      15.00085000       0.00000000      -0.00000000       0.00000000
C        1.23401000       7.83705000      15.00085000      -0.00000000       0.00000000       0.00000000
C        2.46803000       7.12459000      15.00085000      -0.00000000      -0.00000000       0.00000000
C       -0.00000000       9.97443000      15.00085000      -0.00000000      -0.00000000      -0.00000000
C        1.23402000       9.26197000      15.00085000       0.00000000      -0.00000000      -0.00000000
C        7.40409000       1.42492000      15.00085000      -0.00000000      -0.00000000      -0.00000000
C        8.63811000       0.71246000      15.00085000       0.00000000       0.00000000      -0.00000000
C        6.17007000       3.56230000      15.00085000       0.00000000      -0.00000000       0.00000000
C        7.40409000       2.84984000      15.00085000       0.00000000       0.00000000      -0.00000000
C        4.93606000       5.69967000      15.00085000       0.00000000       0.00000000       0.00000000
C        6.17008000       4.98721000      15.00085000      -0.00000000      -0.00000000       0.00000000
C        3.70204000       7.83705000      15.00085000      -0.00000000       0.00000000       0.00000000
C        4.93606000       7.12459000      15.00085000      -0.00000000      -0.00000000       0.00000000
C        2.46803000       9.97443000      15.00085000      -0.00000000      -0.00000000      -0.00000000
C        3.70205000       9.26197000      15.00085000       0.00000000      -0.00000000      -0.00000000
C        9.87212000       1.42492000      15.00085000      -0.00000000      -0.00000000       0.00000000
C       11.10614000       0.71246000      15.00085000       0.00000000       0.00000000      -0.00000000
C        8.63810000       3.56230000      15.00085000       0.00000000      -0.00000000       0.00000000
C        9.87212000       2.84984000      15.00085000      -0.00000000       0.00000000      -0.00000000
C        7.40409000       5.69967000      15.00085000       0.00000000       0.00000000       0.00000000
C        8.63811000       4.98721000      15.00085000      -0.00000000      -0.00000000       0.00000000
C        6.17007000       7.83705000      15.00085000      -0.00000000       0.00000000       0.00000000
C        7.40409000       7.12459000      15.00085000       0.00000000      -0.00000000       0.00000000
C        4.93606000       9.97443000      15.00085000      -0.00000000      -0.00000000      -0.00000000
C        6.17008000       9.26197000      15.00085000       0.00000000      -0.00000000      -0.00000000
50
Lattice="12.340151 0.0 0.0 -6.170077 10.686884 0.0 0.0 0.0 50.0" Properties=species:S:1:pos:R:3:force:R:3 virial="-5.87779 -0.09894 0.02916 -0.09894 -6.51751 0.1055 0.02916 0.1055 -0.43265" energy=-465.585395 pbc="T T T"
C       -0.00543000       1.41222000      15.05111000       0.29615500       0.33843300      -0.44736200
C        1.22469000       0.70438000      15.01289000       0.35529900      -0.07917700       0.10141200
C       -1.24165000       3.54317000      14.99262000       0.70152700       0.61709200       0.19176600
C       -0.00153000       2.83574000      15.03599000      -0.52907400      -0.15355800      -0.15878800
C       -2.44360000       5.71301000      14.98369000      -0.69015100      -0.88530500       0.22301600
C       -1.22855000       4.96877000      15.01201000       0.17847400       0.53188700      -0.30687400
C       -3.70934000       7.83167000      15.00865000       0.44671900       0.26895100      -0.36462900
C       -2.46448000       7.13067000      14.96205000       0.07011400       0.03951400       0.24769100
C       -4.94117000       9.96753000      14.99481000      -0.14755000       0.08819700       0.09027700
C       -3.71080000       9.26415000      14.98851000       0.34738000      -0.04234900       0.17302500
C        2.46829000       1.41366000      15.00474000      -0.74712100       1.04386900      -0.07163800
C        3.69374000       0.73753000      14.99764000       0.70364200      -0.84896500       0.23020900
C        1.21657000       3.54336000      15.00751000       0.73100800       0.41601200      -0.06957200
C        2.46126000       2.84872000      14.99098000       0.18879500      -0.16730600       0.16627500
C        0.00719000       5.68333000      14.99919000      -0.30198200       0.48144500      -0.03540800
C        1.23004000       4.96942000      14.97528000       0.17531300       0.15475300       0.17264600
C       -1.23114000       7.84124000      14.96015000      -0.24117300       0.43273100       0.14464000
C       -0.00153000       7.12813000      14.99188000       0.09815800      -0.49440500      -0.22182600
C       -2.47970000      10.00021000      15.00173000       0.11764100      -0.69381200      -0.24857000
C       -1.24389000       9.27973000      14.97781000      -0.05464900      -0.52606400       0.20594100
C        4.94300000       1.43137000      15.02997000      -0.28899600       0.44054000      -0.27389700
C        6.17342000       0.71239000      15.04466000      -0.05718900       0.21145000      -0.08184200
C        3.69917000       3.57937000      14.98809000      -0.28865600      -0.56316100      -0.18391300
C        4.93567000       2.86557000      14.98806000       0.29443700      -0.23586400       0.28021900
C        2.46804000       5.69098000      14.96436000      -0.59451800      -0.15760500       0.07669500
C        3.69102000       5.00211000      14.97264000       1.19042600      -0.62887800       0.15381700
C        1.23690000       7.83016000      14.98080000      -0.12040900       0.28302400       0.12846800
C        2.45956000       7.09980000      14.98105000       0.31450500       1.13959900      -0.11489000
C       -0.00799000       9.96827000      15.02124000       0.59084500       0.42710100      -0.14644300
C        1.24246000       9.26474000      15.00191000      -0.43231000      -0.13225900       0.15017300
C        7.40738000       1.43603000      15.03608000      -0.19720700      -0.10939900       0.11866800
C        8.63278000       0.71742000      15.03600000       0.36582500       0.69198000      -0.25742800
C        6.18238000       3.57085000      14.99626000      -0.14872700      -0.27752000      -0.00805500
C        7.41642000       2.86499000      15.02986000      -0.36178600      -0.54275300      -0.21386400
C        4.95370000       5.68822000      15.00306000      -0.52337300       0.54818900      -0.38812000
C        6.19952000       4.98513000      14.97383000      -0.98602000       0.07236800       0.33947100
C        3.68744000       7.84157000      14.98454000       0.29243800      -0.48260800       0.18809800
C        4.93881000       7.12006000      14.99901000      -0.48627300       0.05846800       0.07746800
C        2.47021000       9.99685000      15.03022000      -0.73198400      -0.74093000      -0.11114000
C        3.68122000       9.27539000      15.01337000       0.73204600      -0.62242100      -0.10922500
C        9.87011000       1.43396000      14.98229000      -0.02488600      -0.16549800       0.20824900
C       11.10554000       0.72012000      14.99899000      -0.50075700      -0.66331900       0.20484300
C        8.64638000       3.56819000      15.00678000       0.12721000       0.02174700       0.01521900
C        9.87508000       2.85857000      14.96888000      -0.38318400      -0.72826500       0.27268000
C        7.41879000       5.69330000      14.99745000       0.43133400      -0.03444800       0.06075900
C        8.65654000       4.98089000      15.01976000       0.10265900       0.77276200      -0.34763200
C        6.16629000       7.82894000      15.02177000       0.43873900      -0.11920800      -0.21762500
C        7.41060000       7.10845000      15.00683000      -0.37393000       0.57932100       0.11815300
C        4.92085000       9.97247000      15.00815000       0.64519400       0.05609400      -0.00620600
C        6.17159000       9.24932000      15.00751000      -0.72397700       0.37955100       0.04507100
50
Lattice="12.340151 0.0 0.0 -6.170077 10.686884 0.0 0.0 0.0 50.0" Properties=species:S:1:pos:R:3:force:R:3 virial="-6.5051 -0.00634 -0.00134 -0.00634 -6.27393 -0.0021 -0.00134 -0.0021 -0.25846" energy=-465.828943 pbc="T T T"
C        0.00237000       1.42621000      15.00676000      -0.18652300      -0.00566600      -0.05766700
C        1.23356000       0.71415000      15.00756000      -0.02700400      -0.21101000      -0.00509400
C       -1.23648000       3.56355000      15.00455000       0.05554000      -0.19554300      -0.02970100
C       -0.00099000       2.85194000      14.99874000       0.07703700      -0.04105500       0.09173700
C       -2.46312000       5.70079000      15.00988000       0.00873400      -0.01678000      -0.11051400
C       -1.23230000       4.98533000      15.00694000       0.09496700       0.12580200      -0.03376600
C       -3.70471000       7.83334000      14.99793000       0.26149200       0.23035200      -0.00196200
C       -2.46182000       7.12338000      15.00352000      -0.27065100       0.11627500       0.03956300
C       -4.93519000       9.97313000      14.99943000      -0.04401400       0.13968700       0.02436100
C       -3.70011000       9.26473000      14.99746000      -0.09891000      -0.23648900       0.00278900
C        2.46491000       1.42242000      15.01101000       0.10523000       0.11117100      -0.12828100
C        3.69910000       0.71826000      14.99921000       0.13915400      -0.26371200       0.06391200
C        1.23765000       3.56034000      15.00013000      -0.20668700      -0.00215700      -0.01149200
C        2.46802000       2.84538000      14.99952000      -0.23255500       0.02411600       0.04330800
C        0.00539000       5.69830000      14.99800000      -0.20081000       0.04066600      -0.00904400
C        1.23642000       4.98440000      14.99875000      -0.00297000       0.07556800      -0.02520800
C       -1.23039000       7.83914000      15.00549000      -0.11411100      -0.01414300      -0.05649400
C        0.00294000       7.12633000      14.99098000       0.10078800      -0.06790500       0.19255400
C       -2.46759000       9.97864000      14.99926000      -0.13833300       0.01556200       0.04249400
C       -1.24001000       9.26449000      15.00780000       0.45706000       0.00941300      -0.11009600
C        4.93741000       1.42475000      15.00006000      -0.33939000       0.13376200      -0.09577200
C        6.16520000       0.71633000      14.99464000       0.28741700      -0.26541300       0.06781600
C        3.69332000       3.55626000      14.99429000       0.41263000       0.18556500       0.03397500
C        4.92951000       2.84754000      14.99327000       0.27506600       0.11768700       0.09078300
C        2.46627000       5.70029000      14.99659000       0.27434600      -0.15640700       0.01823900
C        3.70359000       4.98264000      14.99867000      -0.23743800       0.14986800      -0.04366200
C        1.23905000       7.83907000      15.00832000      -0.15809700      -0.17826700      -0.13797600
C        2.47141000       7.12274000      14.99931000      -0.08202200       0.14189000       0.05666200
C        0.00229000       9.97531000      14.99657000      -0.31054800       0.01096600       0.10954600
C        1.23334000       9.26094000      15.00753000       0.07116900       0.08201400      -0.06390700
C        7.39963000       1.42453000      15.00399000       0.25776600       0.04753600      -0.08554200
C        8.63857000       0.70654000      15.01038000      -0.25465600       0.20205100      -0.06020400
C        6.16956000       3.56246000      15.00147000      -0.15928600      -0.07934300      -0.09865400
C        7.40474000       2.85246000      14.99084000      -0.05940500      -0.12034800       0.11734400
C        4.93459000       5.69937000      15.00014000       0.12603800      -0.05612000       0.00307400
C        6.17103000       4.98483000      15.00388000       0.00765800       0.20692500       0.00356000
C        3.70346000       7.83928000      15.00109000      -0.00603700      -0.21346200      -0.03678100
C        4.93623000       7.12676000      14.99721000      -0.05595600      -0.07751200       0.02013200
C        2.46817000       9.97089000      15.00265000       0.01912700       0.03812300       0.06981800
C        3.70281000       9.25957000      15.00010000      -0.04644900       0.12866500       0.01578900
C        9.86773000       1.42331000      15.01067000       0.24607800      -0.12326000      -0.07796800
C       11.10786000       0.71119000      15.00328000      -0.12856200       0.07682300       0.05460700
C        8.63866000       3.56562000      14.99096000       0.01520500      -0.08817100       0.05323000
C        9.86925000       2.84520000      15.00120000       0.04077100       0.25644100       0.02235600
C        7.40609000       5.70369000      15.00750000      -0.07541800      -0.20389000      -0.13608700
C        8.64390000       4.99121000      14.99566000      -0.20435000      -0.02277200       0.10659100
C        6.16650000       7.84295000      14.99546000       0.09276000      -0.25670600       0.00744400
C        7.39948000       7.12668000      14.99573000       0.12660100       0.01949200       0.07360200
C        4.93533000       9.97298000      14.99969000       0.04080600       0.11477400       0.01752500
C        6.16919000       9.26246000      14.99862000       0.04674200       0.09494200      -0.02693800
50
Lattice="12.340151 0.0 0.0 -6.170077 10.686884 0.0 0.0 0.0 50.0" Properties=species:S:1:pos:R:3:force:R:3 virial="-6.02967 -0.16537 0.014 -0.16537 -6.63034 -0.0113 0.014 -0.0113 -0.47357" energy=-465.590606 pbc="T T T"
C        0.01312000       1.43553000      15.00601000      -0.59959400      -0.08302900       0.33831200
C        1.24175000       0.73178000      15.03124000      -0.38443200      -0.71220700      -0.05284800
C       -1.23768000       3.54481000      14.98134000      -0.01861100       0.80395800       0.37855100
C       -0.00467000       2.85048000      15.01369000       0.36170900       0.14256300      -0.19838100
C       -2.49000000       5.68572000      14.97853000       1.07567600       0.39433400       0.13038900
C       -1.23222000       4.97024000      14.99827000      -0.43408800       0.57189100      -0.21443700
C       -3.71643000       7.82633000      14.98626000       0.64304400       0.65169200       0.02835300
C       -2.46946000       7.12781000      14.98374000      -0.44170500      -0.65450300      -0.03371100
C       -4.93111000       9.99291000      15.00772000      -0.00147700      -0.29328000       0.06616000
C       -3.70925000       9.26732000      14.98216000       0.19819900      -0.25345100      -0.00710400
C        2.45988000       1.42710000      15.05177000       0.69780000       0.33267200      -0.38582200
C        3.69695000       0.71357000      14.97927000       0.27232700      -0.12227900       0.28811600
C        1.22925000       3.57158000      15.01243000      -0.06208700      -0.04481100       0.06059000
C        2.45396000       2.85128000      15.04091000       0.50129200       0.15124900      -0.45648100
C        0.00234000       5.70525000      14.99381000      -0.09237100      -0.62012200      -0.18136600
C        1.24431000       4.99585000      14.98207000      -0.28864600      -0.10471100       0.04615000
C       -1.23363000       7.83604000      14.98884000      -0.16463500      -0.49810700      -0.12845200
C       -0.00231000       7.11751000      14.96731000       0.42933000       0.90938900       0.34637200
C       -2.46883000       9.97710000      14.96180000      -0.13156900      -0.35119900       0.24462200
C       -1.23702000       9.24659000      14.99453000       0.21551900       0.90385300      -0.10808500
C        4.94518000       1.40922000      14.99394000      -0.41530600       0.54721200       0.15555000
C        6.18051000       0.71584000      15.01777000      -0.15571400      -0.78306600      -0.12301400
C        3.69714000       3.55629000      14.95576000       0.07768300      -0.23343000       0.54525800
C        4.93713000       2.83591000      15.01421000      -0.21449700       0.29255700      -0.24897900
C        2.48319000       5.70006000      14.95748000      -0.50226000      -0.18837900       0.01912100
C        3.70395000       4.98019000      14.93343000       0.21282100       0.05038300       0.27541500
C        1.24099000       7.85705000      14.99055000      -0.22367400      -1.22310100      -0.07978700
C        2.47351000       7.11350000      14.98683000      -0.04556500       1.27392300      -0.16914000
C        0.00114000       9.96683000      15.01956000      -0.04921100       0.41533600      -0.17467400
C        1.24224000       9.27626000      15.00508000      -0.05153200      -0.43100900       0.14222100
C        7.41433000       1.42071000      15.01058000      -0.13269100      -0.08660100       0.18893100
C        8.65297000       0.70615000      15.01763000      -0.46251300       0.37809000       0.06411100
C        6.16387000       3.56287000      15.04260000      -0.08822200      -0.53321100      -0.05864400
C        7.39973000       2.84214000      15.02945000      -0.13448500      -0.05656400      -0.09484100
C        4.93461000       5.69743000      14.98016000      -0.29455600       0.42550800       0.01422500
C        6.15150000       4.98103000      15.04704000       0.63517300       0.13637200      -0.51562400
C        3.69883000       7.85751000      14.98266000       0.28937600      -0.78559200      -0.01122500
C        4.93668000       7.13533000      14.97558000      -0.00901200      -0.01066900       0.19252200
C        2.48133000       9.97686000      15.02343000      -0.38469800       0.37776900      -0.20463900
C        3.70537000       9.28165000      15.00126000       0.33696400      -0.72136900       0.24955900
C        9.87075000       1.42874000      15.02076000       0.37008800       0.12825700       0.00297200
C       11.11007000       0.73092000      15.02580000       0.28638300      -0.87524500      -0.04048700
C        8.62772000       3.53845000      15.00357000       0.09227200       1.21372800       0.11186500
C        9.86366000       2.85809000      15.01329000       0.08216600      -0.85488900      -0.23875700
C        7.39302000       5.68657000      14.99244000      -0.16920600       0.33923900       0.35159800
C        8.62266000       4.97960000      14.98791000      -0.02267100      -0.49930000      -0.00861000
C        6.18020000       7.84724000      15.01023000      -0.43243400      -0.42542700      -0.12608500
C        7.39935000       7.11855000      15.00148000      -0.04700500      -0.26886200      -0.10717500
C        4.94719000       9.96976000      15.03902000      -0.08507600       1.04557400      -0.28531200
C        6.18410000       9.26657000      15.02146000      -0.23827900       0.22886300       0.01271800
50
Lattice="12.340151 0.0 0.0 -6.170077 10.686884 0.0 0.0 0.0 50.0" Properties=species:S:1:pos:R:3:force:R:3 virial="-6.00886 -0.43359 0.0407 -0.43359 -6.7587 0.17575 0.0407 0.17575 -0.55258" energy=-465.512833 pbc="T T T"
C        0.00356000       1.40439000      15.08553000      -0.60690300       0.62455400      -0.36241800
C        1.23376000       0.72475000      15.03566000      -0.14167000      -1.11875400      -0.08129500
C       -1.23379000       3.54374000      15.02393000       0.44130500       0.64564800      -0.29589200
C        0.00285000       2.82790000      15.02860000      -0.14026600       0.29805900       0.03807800
C       -2.47493000       5.70752000      14.98900000       0.85248400      -1.04998800      -0.11318400
C       -1.21711000       4.98248000      14.98124000      -0.53340700       0.13185300       0.12969700
C       -3.70630000       7.83661000      14.98468000       0.37745800       0.35676100      -0.06029400
C       -2.47160000       7.12204000      14.93666000       0.05685200       0.63105400       0.30909500
C       -4.94666000       9.98143000      15.01936000       0.48057100      -0.09499600       0.27534900
C       -3.70215000       9.26817000      15.01266000      -0.36480000      -0.19800900      -0.43456100
C        2.45727000       1.42070000      14.98494000       0.57281700       0.39021900       0.41213600
C        3.69312000       0.71213000      15.00572000       0.45899600       0.15075900      -0.20470900
C        1.23455000       3.54580000      14.97237000      -0.17863800       0.65228800       0.00738800
C        2.46205000       2.84435000      14.99117000       0.45165500      -0.10737700      -0.07515900
C        0.01962000       5.70471000      14.96595000      -0.62185500       0.07628300       0.02234200
C        1.24803000       4.98828000      14.92906000      -0.34299700      -0.55932100       0.58873900
C       -1.23396000       7.85719000      14.93087000      -0.15220300      -0.53449900       0.36536400
C       -0.00558000       7.14463000      15.00023000       0.55031300      -0.54109400      -0.60780500
C       -2.47097000       9.98227000      14.96253000       0.07678800      -0.20296600       0.33871500
C       -1.22767000       9.27669000      14.94681000      -0.17711800       0.32410800      -0.15759400
C        4.94789000       1.41149000      15.03428000      -1.10573100       1.20165600      -0.15907800
C        6.16758000       0.72962000      15.01214000       0.96320800      -0.05493500      -0.26738600
C        3.70642000       3.55432000      15.00156000      -0.32404000       0.00563700       0.04393300
C        4.94259000       2.85574000      15.03575000      -0.02642600      -0.53170100      -0.26962100
C        2.47920000       5.69107000      14.98607000      -0.40781100      -0.12757500      -0.31806400
C        3.69914000       4.97583000      14.98950000       0.71607500       0.12654300       0.08660300
C        1.24133000       7.84457000      14.98593000      -0.68098000      -0.21777100       0.15161200
C        2.46355000       7.10496000      14.99479000       0.39142600       1.00306500      -0.18495800
C        0.00761000      10.00520000      14.94807000      -0.72960200      -0.87442800       0.40434800
C        1.21658000       9.27544000      14.98369000       0.52861200      -0.57382600      -0.13483100
C        7.41359000       1.44752000      15.00555000      -0.51681800      -0.46713900       0.21864300
C        8.63540000       0.70745000      15.03861000      -0.37778100       0.01550300      -0.26877500
C        6.16965000       3.57693000      15.00124000       0.03871500       0.07418000       0.26600000
C        7.39983000       2.87059000      15.01018000       0.27702900      -0.67121300       0.19534500
C        4.94091000       5.69106000      14.99651000      -0.39306400       0.66902900      -0.13466600
C        6.17591000       5.00571000      15.00433000       0.00717100      -0.41461800      -0.08507300
C        3.69992000       7.83227000      14.96878000      -0.11777900      -0.22489800       0.38176600
C        4.94029000       7.12876000      14.97083000      -0.06122200      -0.36082300       0.10691200
C        2.44439000       9.96042000      15.01396000       0.81629900       0.80811100       0.17208000
C        3.68842000       9.25481000      15.02535000      -0.24254200      -0.17605600      -0.38719500
C        9.86358000       1.41251000      15.04283000       0.53575500       0.19729300       0.04160400
C       11.09918000       0.70156000      15.07882000       0.04162300      -0.25815900      -0.24634900
C        8.64363000       3.54977000      15.05316000       0.03034400       0.32349100      -0.53112300
C        9.87761000       2.84115000      15.00837000      -0.34943700      -0.33082500       0.57065700
C        7.40915000       5.71989000      14.99756000       0.28867400      -1.37531400       0.15410800
C        8.64425000       4.96108000      15.02706000      -0.25825600       1.58573300      -0.10427700
C        6.17863000       7.83921000      14.98618000      -0.46308100      -0.01850000       0.19932300
C        7.40682000       7.12586000      14.99596000       0.09410800       0.37413200      -0.09589200
C        4.91937000       9.95938000      15.02403000       0.31647200       0.46309600       0.45599800
C        6.16531000       9.26214000      15.03460000      -0.05031900      -0.04427000      -0.35563700
50
Lattice="12.340151 0.0 0.0 -6.170077 10.686884 0.0 0.0 0.0 50.0" Properties=species:S:1:pos:R:3:force:R:3 virial="-5.91993 0.24048 -0.16969 0.24048 -7.4179 0.07034 -0.16969 0.07034 -0.86362" energy=-465.058441 pbc="T T T"
C        0.00617000       1.43061000      15.01514000       0.80385700       1.22249700      -0.72033100
C        1.24835000       0.72432000      15.01382000       0.03755700      -0.54501300       0.18601300
C       -1.26033000       3.59233000      14.88753000       1.05666100      -0.37219700       0.79841800
C        0.01134000       2.87408000      14.93697000      -1.11379600      -0.60464900       0.17547400
C       -2.49496000       5.70683000      15.04989000      -0.04288100       0.68042700      -0.23168200
C       -1.26888000       5.01856000      15.03687000       1.18086200      -0.60952300      -0.63606000
C       -3.71474000       7.84708000      15.01898000       0.05903800       0.25097200      -0.71896700
C       -2.48181000       7.14514000      15.01382000       0.09336300      -0.31379900       0.37384200
C       -4.93016000       9.97071000      15.00806000      -0.09390400       1.08908600      -0.20521500
C       -3.70268000       9.28496000      14.96712000       0.18729400      -1.08927500       0.39237700
C        2.50551000       1.42371000      15.01218000      -2.18669400       0.80029200      -0.21332000
C        3.69909000       0.72804000      14.97630000       1.29018000      -1.19822500       0.23015500
C        1.25373000       3.55093000      14.98238000      -0.95763300       0.42060800       0.07855900
C        2.46895000       2.85028000      15.00023000       1.31150800      -0.09019400      -0.09912600
C        0.00336000       5.71871000      15.04979000      -0.45771700      -1.09712700       0.26557500
C        1.23417000       4.96430000      15.03545000      -0.26916400       1.13813100      -0.16762800
C       -1.24657000       7.86022000      15.03188000       0.74766000      -0.73147400       0.22112400
C        0.01609000       7.12787000      15.09213000      -0.95137500       0.85624400      -0.13670300
C       -2.47223000       9.98031000      14.96524000       0.28252700       0.69004900       0.25228900
C       -1.22858000       9.28831000      15.02420000      -0.79922700      -1.44623700      -0.22249100
C        4.94444000       1.40746000      15.01167000       0.02062400       0.67336600      -0.46380400
C        6.17291000       0.66744000      14.98093000      -0.29935900       0.63506100      -0.03815700
C        3.71072000       3.58025000      14.98013000      -0.44320800      -0.55778000       0.06747000