       N       E                     dE             d eps       ncg     rms          rms(c)
DAV:   1     0.369475164131E+04    0.36948E+04   -0.11883E+05  1704   0.105E+03
DAV:   2     0.188248145529E+03   -0.35065E+04   -0.32442E+04  2136   0.238E+02
DAV:   3    -0.832106608976E+03   -0.10204E+04   -0.99634E+03  1800   0.135E+02
DAV:   4    -0.894919100840E+03   -0.62812E+02   -0.61816E+02  1712   0.431E+01
DAV:   5    -0.896476318449E+03   -0.15572E+01   -0.15346E+01  1784   0.662E+00    0.451E+01
DAV:   6    -0.847783478332E+03    0.48693E+02   -0.46475E+01  1592   0.125E+01    0.265E+01
DAV:   7    -0.829638304158E+03    0.18145E+02   -0.64229E+01  1568   0.143E+01    0.725E+00
DAV:   8    -0.829355493722E+03    0.28281E+00   -0.23691E+00  1616   0.332E+00    0.102E+00
DAV:   9    -0.829248443498E+03    0.10705E+00   -0.26257E-01  1656   0.100E+00    0.570E-01
DAV:  10    -0.829212237897E+03    0.36206E-01   -0.45678E-02  1760   0.427E-01    0.363E-01
DAV:  11    -0.829183537999E+03    0.28700E-01   -0.20635E-02  1544   0.240E-01    0.246E-01
DAV:  12    -0.829179212382E+03    0.43256E-02   -0.25162E-02  1552   0.233E-01    0.152E-01
DAV:  13    -0.829191812464E+03   -0.12600E-01   -0.86303E-03  1560   0.151E-01    0.854E-02
DAV:  14    -0.829208957102E+03   -0.17145E-01   -0.13013E-03  1608   0.726E-02    0.567E-02
DAV:  15    -0.829229250130E+03   -0.20293E-01   -0.18463E-03  1552   0.661E-02    0.296E-02
DAV:  16    -0.829236990678E+03   -0.77405E-02   -0.41060E-04  1616   0.351E-02    0.223E-02
DAV:  17    -0.829241999827E+03   -0.50091E-02   -0.30185E-04  1592   0.238E-02    0.118E-02
DAV:  18    -0.829244188505E+03   -0.21887E-02   -0.10006E-04  1592   0.143E-02    0.616E-03
DAV:  19    -0.829245142660E+03   -0.95416E-03   -0.29231E-05  1424   0.847E-03    0.390E-03
DAV:  20    -0.829245527821E+03   -0.38516E-03   -0.73528E-06  1352   0.406E-03    0.275E-03
DAV:  21    -0.829245739061E+03   -0.21124E-03   -0.26951E-06  1288   0.297E-03    0.131E-03
DAV:  22    -0.829245810128E+03   -0.71066E-04   -0.44164E-07  1016   0.139E-03    0.887E-04
DAV:  23    -0.829245846220E+03   -0.36093E-04   -0.37224E-07   968   0.117E-03    0.646E-04
DAV:  24    -0.829245862419E+03   -0.16199E-04   -0.12395E-07   936   0.678E-04    0.392E-04
DAV:  25    -0.829245867588E+03   -0.51698E-05   -0.48051E-08   944   0.568E-04    0.181E-04
DAV:  26    -0.829245872617E+03   -0.50284E-05   -0.41959E-08   880   0.365E-04    0.264E-04
DAV:  27    -0.829245873841E+03   -0.12245E-05   -0.99252E-09   944   0.306E-04    0.960E-05
DAV:  28    -0.829245876114E+03   -0.22730E-05   -0.10743E-08   920   0.192E-04    0.101E-04
DAV:  29    -0.829245876719E+03   -0.60422E-06   -0.29011E-09   944   0.128E-04
   1 F= -.82924588E+03 E0= -.82920778E+03  d E =-.761848E-01
