unknown system                          
            1
    28.050000    0.000000    0.000000
     0.000000    8.100000    0.000000
     0.000000    0.000000   33.500000
   C 
    92
Direct configuration=     1
   0.03318995  0.13684198  0.48078806
   0.03248471  0.31582840  0.48578209
   0.07626809  0.06102852  0.48820299
   0.07080820  0.39525556  0.50098806
   0.11960214  0.14429136  0.49365373
   0.11675116  0.31359877  0.50136119
   0.16403672  0.06202593  0.49289552
   0.16324528  0.39608889  0.50553433
   0.20640036  0.14432840  0.49202090
   0.20622032  0.31213580  0.49716716
   0.24991373  0.06736580  0.48325672
   0.25246524  0.39519630  0.49322388
   0.29212513  0.14590123  0.47434328
   0.29281283  0.31322716  0.48129851
   0.33553191  0.06464790  0.46620896
   0.33839465  0.38687901  0.47879104
   0.37937611  0.14313457  0.45816119
   0.37963280  0.31115309  0.46468358
   0.42072727  0.06193753  0.44403284
   0.42301248  0.39465185  0.45768060
   0.46368984  0.14104198  0.43686866
   0.46315865  0.31334568  0.43930448
   0.50560071  0.06203963  0.42560000
   0.50648128  0.39051605  0.43182090
   0.54860963  0.13914444  0.41585672
   0.54979679  0.30279506  0.42147164
   0.59254189  0.05424691  0.40648358
   0.59486275  0.38504938  0.41452836
   0.63914439  0.13327531  0.40214030
   0.63886275  0.29826914  0.40674030
   0.68487344  0.05350037  0.39980597
   0.68372906  0.38518642  0.40477313
   0.72933333  0.14200741  0.39718507
   0.73026381  0.30980494  0.39969851
   0.77434938  0.06196840  0.40566567
   0.77464171  0.38737531  0.40902687
   0.81898396  0.13570741  0.41320000
   0.81845989  0.30688765  0.41760299
   0.85980392  0.05442198  0.43094030
   0.86103387  0.38797284  0.43051343
   0.90349020  0.13997531  0.44171642
   0.90193939  0.30527160  0.44540896
   0.94309091  0.05402494  0.45820000
   0.94060606  0.38620370  0.46435522
   0.98398930  0.13767407  0.46776716
   0.98312299  0.30735185  0.47160896
   0.02721636  0.64353457  0.49630746
   0.02853294  0.81783457  0.49124776
   0.07044421  0.56622222  0.50489851
   0.07381462  0.89804198  0.49482985
   0.11686061  0.64779753  0.50598209
   0.11808841  0.81471728  0.50307164
   0.16078503  0.56083333  0.50885373
   0.16252264  0.89224938  0.50080896
   0.20905098  0.63920494  0.50831343
   0.20640642  0.81205062  0.49850746
   0.25253512  0.55728889  0.50031045
   0.25087843  0.89559383  0.48874925
   0.29698966  0.64709012  0.49180299
   0.29511943  0.81618765  0.48635821
   0.33895330  0.56117037  0.48078507
   0.33558253  0.89318889  0.46812836
   0.38060606  0.64345802  0.46898806
   0.37826738  0.81090864  0.46040597
   0.42454189  0.56334444  0.45644179
   0.42146524  0.89261975  0.44632537
   0.46765775  0.64041111  0.44464776
   0.46493048  0.80853951  0.43727164
   0.50976114  0.56024074  0.43372537
   0.50540463  0.88887160  0.42487761
   0.55210339  0.64165802  0.42360299
   0.55102317  0.80667037  0.41606269
   0.59622103  0.55100617  0.41767463
   0.59272727  0.88413951  0.40427761
   0.63998574  0.63203827  0.41168955
   0.63986809  0.80231852  0.40428955
   0.68592513  0.55161728  0.40920597
   0.68531551  0.88359753  0.39860000
   0.72836720  0.63986914  0.40871940
   0.73121569  0.80990741  0.40390746
   0.77335472  0.55610864  0.41267761
   0.77480570  0.88863951  0.41131940
   0.81564349  0.63550741  0.42666269
   0.81455258  0.80250000  0.42670149
   0.85752585  0.55825432  0.43698209
   0.85682353  0.88515432  0.43900896
   0.89665954  0.63682840  0.45538806
   0.89698039  0.80576667  0.45751940
   0.93768984  0.55558272  0.46977910
   0.93679857  0.89470617  0.47087463
   0.97679857  0.63648148  0.48632537
   0.97614260  0.80759136  0.48547463
