       N       E                     dE             d eps       ncg     rms          rms(c)
DAV:   1     0.371533983576E+04    0.37153E+04   -0.11895E+05  1712   0.105E+03
DAV:   2     0.189426475284E+03   -0.35259E+04   -0.32719E+04  2144   0.238E+02
DAV:   3    -0.834022241720E+03   -0.10234E+04   -0.10002E+04  1792   0.135E+02
DAV:   4    -0.896217064030E+03   -0.62195E+02   -0.61227E+02  1712   0.431E+01
DAV:   5    -0.897754239247E+03   -0.15372E+01   -0.15162E+01  1800   0.660E+00    0.457E+01
DAV:   6    -0.847726310156E+03    0.50028E+02   -0.47779E+01  1584   0.126E+01    0.268E+01
DAV:   7    -0.829074506011E+03    0.18652E+02   -0.65974E+01  1560   0.145E+01    0.736E+00
DAV:   8    -0.828782632652E+03    0.29187E+00   -0.24449E+00  1600   0.331E+00    0.104E+00
DAV:   9    -0.828679770796E+03    0.10286E+00   -0.23156E-01  1664   0.913E-01    0.579E-01
DAV:  10    -0.828638836104E+03    0.40935E-01   -0.45549E-02  1744   0.411E-01    0.398E-01
DAV:  11    -0.828601897617E+03    0.36938E-01   -0.24196E-02  1560   0.253E-01    0.241E-01
DAV:  12    -0.828595565843E+03    0.63318E-02   -0.22277E-02  1560   0.219E-01    0.159E-01
DAV:  13    -0.828606342151E+03   -0.10776E-01   -0.10931E-02  1544   0.151E-01    0.863E-02
DAV:  14    -0.828623485312E+03   -0.17143E-01   -0.10918E-03  1616   0.632E-02    0.571E-02
DAV:  15    -0.828643571804E+03   -0.20086E-01   -0.16412E-03  1600   0.582E-02    0.321E-02
DAV:  16    -0.828653602312E+03   -0.10031E-01   -0.56225E-04  1616   0.356E-02    0.223E-02
DAV:  17    -0.828659629083E+03   -0.60268E-02   -0.39577E-04  1584   0.257E-02    0.103E-02
DAV:  18    -0.828661839398E+03   -0.22103E-02   -0.99937E-05  1640   0.126E-02    0.663E-03
DAV:  19    -0.828662996368E+03   -0.11570E-02   -0.38002E-05  1312   0.810E-03    0.376E-03
DAV:  20    -0.828663399700E+03   -0.40333E-03   -0.71975E-06  1368   0.371E-03    0.200E-03
DAV:  21    -0.828663631138E+03   -0.23144E-03   -0.28929E-06  1264   0.239E-03    0.103E-03
DAV:  22    -0.828663679711E+03   -0.48573E-04   -0.21072E-07  1056   0.897E-04    0.613E-04
DAV:  23    -0.828663711179E+03   -0.31468E-04   -0.19130E-07   952   0.727E-04    0.362E-04
DAV:  24    -0.828663726608E+03   -0.15428E-04   -0.10088E-07   944   0.529E-04    0.208E-04
DAV:  25    -0.828663730279E+03   -0.36709E-05   -0.24255E-08   968   0.316E-04    0.142E-04
DAV:  26    -0.828663734788E+03   -0.45098E-05   -0.23927E-08   936   0.267E-04    0.102E-04
DAV:  27    -0.828663735977E+03   -0.11888E-05   -0.61789E-09   968   0.162E-04    0.610E-05
DAV:  28    -0.828663738003E+03   -0.20258E-05   -0.61781E-09   944   0.129E-04    0.491E-05
DAV:  29    -0.828663738547E+03   -0.54407E-06   -0.22409E-09   952   0.863E-05
   1 F= -.82866374E+03 E0= -.82862131E+03  d E =-.848513E-01
