 vasp.6.5.0 16Dec24 (build Feb 19 2025 19:45:31) complex                         
 executed on              LinuxNV date 2025.10.25  11:20:34
 running    2 mpi-ranks, on    1 nodes
 distrk:  each k-point on    2 cores,    1 groups
 distr:  one band on NCORE=   1 cores,    2 groups
 Offloading initialized ...    2 GPUs detected


--------------------------------------------------------------------------------------------------------


 INCAR:
   ISTART = 0            (Not Read existing wavefunction
   ISPIN = 1            (Non-Spin polarised DFT, Default\=1)
   ICHARG = 2            (The initial guess charge density is generated by superposition of atomic charge density)
   LREAL = Auto         (Projection operators: automatic)
   ENCUT = 500          (Cut-off energy for plane wave basis set, in eV)
   LWAVE = .FALSE.       (Write WAVECAR or not)
   LCHARG = .FALSE.       (Write CHGCAR or not)
   PREC = Accurate   (Precision level)
   KGAMMA = .TRUE.
   ALGO = Normal
   NSW = 0           (Default: NSW \= 0)
   IBRION = -1           (Ions are not moved)
   ISMEAR = 0
   EDIFF = 1E-06        (SCF energy convergence
   NELM = 150          (Max electronic SCF steps)

 POTCAR:    PAW_PBE C 08Apr2002                   
 POTCAR:    PAW_PBE C 08Apr2002                   
   SHA256 =  253f7b50bb8d59471dbedb8285d89021f4a42ed1a2c5d38a03a736e69125dd95 C/POTCAR              
   COPYR  = (c) Copyright 08Apr2002 Georg Kresse                                                    
   COPYR  = This file is part of the software VASP. Any use, copying, and all other rights are regul
   COPYR  = If you do not have a valid VASP license, you may not use, copy or distribute this file. 
   VRHFIN =C: s2p2                                                                                  
   LEXCH  = PE                                                                                      
   EATOM  =   147.1560 eV,   10.8157 Ry                                                             
                                                                                                    
   TITEL  = PAW_PBE C 08Apr2002                                                                     
   LULTRA =        F    use ultrasoft PP ?                                                          
   IUNSCR =        1    unscreen: 0-lin 1-nonlin 2-no                                               
   RPACOR =    1.200    partial core radius                                                         
   POMASS =   12.011; ZVAL   =    4.000    mass and valenz                                          
   RCORE  =    1.500    outmost cutoff radius                                                       
   RWIGS  =    1.630; RWIGS  =    0.863    wigner-seitz radius (au A)                               
   ENMAX  =  400.000; ENMIN  =  300.000 eV                                                          
   ICORE  =        2    local potential                                                             
   LCOR   =        T    correct aug charges                                                         
   LPAW   =        T    paw PP                                                                      
   EAUG   =  644.873                                                                                
   DEXC   =    0.000                                                                                
   RMAX   =    1.529    core radius for proj-oper                                                   
   RAUG   =    1.300    factor for augmentation sphere                                              
   RDEP   =    1.501    radius for radial grids                                                     
   RDEPT  =    1.300    core radius for aug-charge                                                  
                                                                                                    
   Atomic configuration                                                                             
    4 entries                                                                                       
     n  l   j            E        occ.                                                              
     1  0  0.50      -273.3789   2.0000                                                             
     2  0  0.50       -13.7508   2.0000                                                             
     2  1  0.50        -5.2854   2.0000                                                             
     3  2  1.50        -5.4423   0.0000                                                             
   Description                                                                                      
     l       E           TYP  RCUT    TYP  RCUT                                                     
     0    -13.7508458     23  1.200                                                                 
     0     -8.2022199     23  1.200                                                                 
     1     -5.2854383     23  1.500                                                                 
     1     34.0145650     23  1.500                                                                 
     2     -5.4423304      7  1.500                                                                 
  local pseudopotential read in
  partial core-charges read in
  partial kinetic energy density read in
  atomic valenz-charges read in
  non local Contribution for L=            0  read in
    real space projection operators read in
  non local Contribution for L=            0  read in
    real space projection operators read in
  non local Contribution for L=            1  read in
    real space projection operators read in
  non local Contribution for L=            1  read in
    real space projection operators read in
    PAW grid and wavefunctions read in
 
   number of l-projection  operators is LMAX  =            4
   number of lm-projection operators is LMMAX =            8
 
 Optimization of the real space projectors (new method)

 maximal supplied QI-value         = 25.13
 optimisation between [QCUT,QGAM] = [ 11.31, 22.87] = [ 35.82,146.48] Ry 
 Optimized for a Real-space Cutoff    1.03 Angstroem

   l    n(q)    QCUT    max X(q) W(low)/X(q) W(high)/X(q)  e(spline) 
   0      7    11.310   115.676    0.20E-03    0.90E-03    0.20E-06
   0      7    11.310    87.132    0.20E-03    0.89E-03    0.19E-06
   1      6    11.310     4.429    0.16E-03    0.28E-03    0.12E-06
   1      6    11.310     2.733    0.12E-03    0.21E-03    0.99E-07
  PAW_PBE C 08Apr2002                   :
 energy of atom  1       EATOM= -147.1560
 kinetic energy error for atom=    0.0076 (will be added to EATOM!!)
 
 
 POSCAR:  C
  positions in cartesian coordinates
  No initial velocities read in


 exchange-correlation table for PE
   RHO(1)=    0.500       N(1)  =     2000
   RHO(2)=  100.500       N(2)  =     4000
 


--------------------------------------------------------------------------------------------------------


 ion  position               nearest neighbor table
   1  0.008  0.108  0.448-   2 1.39   3 1.42  45 1.45  46 2.02
   2  0.010  0.279  0.446-   1 1.39   4 1.40  46 1.52  45 2.05
   3  0.052  0.024  0.454-  50 1.38   1 1.42   5 1.45
   4  0.052  0.365  0.454-  49 1.32   2 1.40   6 1.47
   5  0.098  0.102  0.458-   6 1.39   7 1.39   3 1.45
   6  0.097  0.273  0.459-   8 1.38   5 1.39   4 1.47
   7  0.140  0.021  0.469-  54 1.36   5 1.39   9 1.43
   8  0.137  0.353  0.472-   6 1.38  53 1.38  10 1.43
   9  0.183  0.107  0.480-  10 1.35  11 1.42   7 1.43
  10  0.182  0.274  0.479-   9 1.35   8 1.43  12 1.43
  11  0.224  0.024  0.492-  13 1.38   9 1.42  58 1.43
  12  0.225  0.351  0.492-  57 1.36  14 1.38  10 1.43
  13  0.267  0.105  0.499-  14 1.36  11 1.38  15 1.47
  14  0.269  0.273  0.498-  13 1.36  12 1.38  16 1.42
  15  0.311  0.022  0.513-  17 1.35  62 1.36  13 1.47
  16  0.311  0.353  0.511-  61 1.34  18 1.40  14 1.42
  17  0.351  0.100  0.524-  15 1.35  18 1.40  19 1.42
  18  0.353  0.273  0.522-  20 1.39  16 1.40  17 1.40
  19  0.394  0.019  0.534-  21 1.37  66 1.39  17 1.42
  20  0.395  0.349  0.534-  22 1.38  65 1.38  18 1.39
  21  0.437  0.098  0.539-  19 1.37  22 1.41  23 1.43
  22  0.439  0.272  0.538-  20 1.38  24 1.40  21 1.41
  23  0.483  0.022  0.544-  70 1.36  25 1.41  21 1.43
  24  0.482  0.352  0.545-  69 1.35  22 1.40  26 1.42
  25  0.527  0.102  0.544-  26 1.37  23 1.41  27 1.42
  26  0.527  0.271  0.546-  25 1.37  24 1.42  28 1.44
  27  0.572  0.022  0.539-  74 1.37  25 1.42  29 1.43
  28  0.573  0.355  0.545-  73 1.37  30 1.41  26 1.44
  29  0.616  0.108  0.534-  30 1.34  31 1.39  27 1.43
  30  0.616  0.273  0.537-  29 1.34  28 1.41  32 1.42
  31  0.656  0.024  0.520-  29 1.39  78 1.40  33 1.42
  32  0.660  0.352  0.528-  77 1.36  30 1.42  34 1.43
  33  0.699  0.100  0.507-  34 1.38  35 1.41  31 1.42
  34  0.701  0.267  0.514-  33 1.38  36 1.39  32 1.43
  35  0.739  0.019  0.491-  82 1.38  33 1.41  37 1.43
  36  0.739  0.355  0.498-  34 1.39  81 1.39  38 1.46
  37  0.782  0.106  0.480-  38 1.34  39 1.39  35 1.43
  38  0.781  0.271  0.482-  37 1.34  36 1.46  40 1.46
  39  0.824  0.030  0.469-  37 1.39  86 1.40  41 1.41
  40  0.826  0.355  0.474-  42 1.37  85 1.37  38 1.46
  41  0.867  0.109  0.458-  42 1.37  39 1.41  43 1.45
  42  0.867  0.277  0.462-  41 1.37  40 1.37  44 1.48
  43  0.911  0.025  0.452-  90 1.36  45 1.42  41 1.45
  44  0.912  0.361  0.451-  89 1.38  46 1.40  42 1.48
  45  0.956  0.110  0.452-  46 1.38  43 1.42   1 1.45   2 2.05
  46  0.956  0.280  0.450-  45 1.38  44 1.40   2 1.52   1 2.02
  47  0.006  0.604  0.456-  49 1.37  48 1.39  91 1.45  92 2.00
  48  0.005  0.775  0.459-  47 1.39  92 1.41  50 1.42  91 1.97
  49  0.048  0.523  0.463-   4 1.32  47 1.37  51 1.48
  50  0.050  0.857  0.461-   3 1.38  48 1.42  52 1.42
  51  0.095  0.601  0.472-  53 1.39  52 1.39  49 1.48
  52  0.092  0.773  0.471-  51 1.39  50 1.42  54 1.44
  53  0.137  0.520  0.481-   8 1.38  51 1.39  55 1.42
  54  0.137  0.857  0.477-   7 1.36  56 1.43  52 1.44
  55  0.179  0.605  0.492-  56 1.37  53 1.42  57 1.42
  56  0.179  0.774  0.490-  55 1.37  58 1.41  54 1.43
  57  0.222  0.518  0.498-  12 1.36  55 1.42  59 1.43
  58  0.223  0.849  0.498-  60 1.38  56 1.41  11 1.43
  59  0.267  0.598  0.507-  60 1.38  61 1.40  57 1.43
  60  0.265  0.768  0.509-  59 1.38  58 1.38  62 1.47
  61  0.309  0.517  0.517-  16 1.34  59 1.40  63 1.44
  62  0.308  0.858  0.521-  15 1.36  64 1.42  60 1.47
  63  0.350  0.603  0.533-  64 1.38  61 1.44  65 1.46
  64  0.350  0.774  0.533-  66 1.38  63 1.38  62 1.42
  65  0.394  0.517  0.543-  20 1.38  67 1.43  63 1.46
  66  0.394  0.848  0.539-  64 1.38  19 1.39  68 1.45
  67  0.438  0.596  0.551-  68 1.37  69 1.40  65 1.43
  68  0.438  0.765  0.548-  67 1.37  70 1.44  66 1.45
  69  0.482  0.516  0.553-  24 1.35  67 1.40  71 1.41
  70  0.482  0.856  0.550-  23 1.36  68 1.44  72 1.49
  71  0.526  0.602  0.556-  72 1.31  69 1.41  73 1.49
  72  0.528  0.762  0.552-  71 1.31  74 1.46  70 1.49
  73  0.574  0.522  0.551-  28 1.37  75 1.38  71 1.49
  74  0.571  0.853  0.541-  27 1.37  76 1.43  72 1.46
  75  0.615  0.601  0.541-  73 1.38  77 1.40  76 1.42
  76  0.617  0.776  0.538-  78 1.38  75 1.42  74 1.43
  77  0.657  0.519  0.529-  32 1.36  75 1.40  79 1.47
  78  0.655  0.851  0.519-  76 1.38  31 1.40  80 1.44
  79  0.701  0.607  0.518-  80 1.36  81 1.41  77 1.47
  80  0.700  0.772  0.512-  79 1.36  82 1.43  78 1.44
  81  0.742  0.525  0.503-  36 1.39  79 1.41  83 1.44
  82  0.741  0.849  0.494-  84 1.37  35 1.38  80 1.43
  83  0.784  0.606  0.489-  84 1.39  85 1.40  81 1.44
  84  0.783  0.776  0.483-  82 1.37  83 1.39  86 1.45
  85  0.824  0.525  0.474-  40 1.37  83 1.40  87 1.41
  86  0.827  0.858  0.473-  88 1.37  39 1.40  84 1.45
  87  0.868  0.608  0.468-  89 1.36  88 1.39  85 1.41
  88  0.870  0.779  0.467-  86 1.37  87 1.39  90 1.40
  89  0.910  0.526  0.461-  87 1.36  44 1.38  91 1.42
  90  0.912  0.859  0.457-  43 1.36  92 1.37  88 1.40
  91  0.955  0.605  0.459-  92 1.37  89 1.42  47 1.45  48 1.97
  92  0.955  0.774  0.458-  91 1.37  90 1.37  48 1.41  47 2.00
 
  LATTYP: Found a simple orthorhombic cell.
 ALAT       =     8.1000000000
 B/A-ratio  =     3.4629629630
 C/A-ratio  =     4.1358024691
  
  Lattice vectors:
  
 A1 = (   0.0000000000,  -8.1000000000,   0.0000000000)
 A2 = (  28.0500000000,   0.0000000000,   0.0000000000)
 A3 = (   0.0000000000,   0.0000000000,  33.5000000000)


Analysis of symmetry for initial positions (statically):
=====================================================================
 Subroutine PRICEL returns:
 Original cell was already a primitive cell.
 

 Routine SETGRP: Setting up the symmetry group for a 
 simple orthorhombic supercell.


 Subroutine GETGRP returns: Found  1 space group operations
 (whereof  1 operations were pure point group operations)
 out of a pool of  8 trial point group operations.


The static configuration has the point symmetry C_1 .


Analysis of symmetry for dynamics (positions and initial velocities):
=====================================================================
 Subroutine PRICEL returns:
 Original cell was already a primitive cell.
 

 Routine SETGRP: Setting up the symmetry group for a 
 simple orthorhombic supercell.


 Subroutine GETGRP returns: Found  1 space group operations
 (whereof  1 operations were pure point group operations)
 out of a pool of  8 trial point group operations.


The dynamic configuration has the point symmetry C_1 .


 Subroutine INISYM returns: Found  1 space group operations
 (whereof  1 operations are pure point group operations),
 and found     1 'primitive' translations


----------------------------------------------------------------------------------------

                                     Primitive cell                                     

  volume of cell :    7611.3675

  direct lattice vectors                    reciprocal lattice vectors
    28.050000000  0.000000000  0.000000000     0.035650624  0.000000000  0.000000000
     0.000000000  8.100000000  0.000000000     0.000000000  0.123456790  0.000000000
     0.000000000  0.000000000 33.500000000     0.000000000  0.000000000  0.029850746

  length of vectors
    28.050000000  8.100000000 33.500000000     0.035650624  0.123456790  0.029850746

  position of ions in fractional coordinates (direct lattice)
     0.007512763  0.107847531  0.448158209
     0.009889519  0.279102469  0.446489552
     0.051611052  0.024490864  0.453707463
     0.052203922  0.365002469  0.453779104
     0.097813547  0.101890494  0.458152239
     0.096967201  0.273379012  0.459432836
     0.139613904  0.021409506  0.469026866
     0.137453832  0.353290123  0.472364179
     0.182532977  0.107081481  0.479605970
     0.182059893  0.273997531  0.479453731
     0.224445276  0.023623580  0.492014925
     0.225265597  0.351361728  0.492241791
     0.267095544  0.104545926  0.498501493
     0.268653119  0.272830864  0.497591045
     0.310500178  0.022150988  0.512737313
     0.310722995  0.353496296  0.511229851
     0.350895187  0.099976914  0.523808955
     0.352949020  0.272716049  0.522017910
     0.393875223  0.018880247  0.534271642
     0.394866310  0.349451852  0.534161194
     0.436727273  0.098092716  0.539373134
     0.438531194  0.272434568  0.538026866
     0.482573975  0.022454938  0.543889552
     0.482203209  0.352172840  0.545008955
     0.527172906  0.101883827  0.544020896
     0.527311943  0.271416049  0.546017910
     0.571907308  0.021876790  0.538656716
     0.572602496  0.354830864  0.545164179
     0.616110517  0.107997160  0.534286567
     0.615807487  0.273054321  0.537170149
     0.655757576  0.023854568  0.520146269
     0.659518717  0.351819753  0.528056716
     0.698513369  0.100345802  0.506534328
     0.700998217  0.267483951  0.513644776
     0.739147950  0.019127531  0.491068657
     0.739358289  0.354754321  0.498328358
     0.781500891  0.105762593  0.479826866
     0.781030303  0.270909877  0.481680597
     0.823714795  0.029670988  0.468749254
     0.826270945  0.355106173  0.474023881
     0.866559715  0.109057160  0.458283582
     0.866909091  0.277000000  0.461847761
     0.911422460  0.025092099  0.451528358
     0.911529412  0.361434568  0.450623881
     0.955828877  0.110134074  0.451776119
     0.955739750  0.280146914  0.450307463
     0.006298111  0.604271605  0.455722388
     0.005113226  0.774956790  0.459495522
     0.048131194  0.522993827  0.463322388
     0.049681996  0.856692593  0.460659701
     0.094715508  0.601338272  0.471943284
     0.092486988  0.772588889  0.471059701
     0.136841711  0.519920988  0.481008955
     0.137268449  0.856767901  0.476835821
     0.179102674  0.605214815  0.491791045
     0.179355080  0.773637037  0.489782090
     0.222486988  0.517535802  0.497922388
     0.223483422  0.849254321  0.498322388
     0.266681996  0.598375309  0.506967164
     0.264795009  0.768116049  0.509167164
     0.308898396  0.517220988  0.516979104
     0.308205704  0.857572840  0.521065672
     0.349613191  0.603111111  0.532525373
     0.350275223  0.774033333  0.533349254
     0.393586453  0.516517284  0.542770149
     0.394046346  0.848320988  0.539483582
     0.438331551  0.595554321  0.550719403
     0.438392157  0.764502469  0.548089552
     0.482456328  0.515588889  0.552611940
     0.482385027  0.855612346  0.549582090
     0.525960784  0.601970370  0.555919403
     0.527939394  0.762446914  0.551611940
     0.573511586  0.522176543  0.550919403
     0.570955437  0.853056790  0.540925373
     0.615465241  0.601411111  0.540785075
     0.616916221  0.776146914  0.538325373
     0.656998217  0.518864198  0.529059701
     0.654549020  0.851469136  0.519149254
     0.700862745  0.606527160  0.517558209
     0.699757576  0.772287654  0.511611940
     0.741836007  0.524902469  0.503429851
     0.740791444  0.849169136  0.494292537
     0.784210339  0.605944444  0.489205970
     0.782844920  0.776318519  0.483438806
     0.824445633  0.524516049  0.473964179
     0.826901961  0.858493827  0.472761194
     0.868003565  0.607528395  0.467823881
     0.869657754  0.779379012  0.466752239
     0.909647059  0.526366667  0.460850746
     0.912459893  0.859276543  0.457286567
     0.954837790  0.604550617  0.458668657
     0.954812834  0.774046914  0.457686567

  ion indices of the primitive-cell ions
   primitive index   ion index
                 1           1
                 2           2
                 3           3
                 4           4
                 5           5
                 6           6
                 7           7
                 8           8
                 9           9
                10          10
                11          11
                12          12
                13          13
                14          14
                15          15
                16          16
                17          17
                18          18
                19          19
                20          20
                21          21
                22          22
                23          23
                24          24
                25          25
                26          26
                27          27
                28          28
                29          29
                30          30
                31          31
                32          32
                33          33
                34          34
                35          35
                36          36
                37          37
                38          38
                39          39
                40          40
                41          41
                42          42
                43          43
                44          44
                45          45
                46          46
                47          47
                48          48
                49          49
                50          50
                51          51
                52          52
                53          53
                54          54
                55          55
                56          56
                57          57
                58          58
                59          59
                60          60
                61          61
                62          62
                63          63
                64          64
                65          65
                66          66
                67          67
                68          68
                69          69
                70          70
                71          71
                72          72
                73          73
                74          74
                75          75
                76          76
                77          77
                78          78
                79          79
                80          80
                81          81
                82          82
                83          83
                84          84
                85          85
                86          86
                87          87
                88          88
                89          89
                90          90
                91          91
                92          92

----------------------------------------------------------------------------------------

 
 
 KPOINTS: K-Spacing Value to Generate K-Mesh: 0.03

Automatic generation of k-mesh.
 Grid dimensions read from file:
 generate k-points for:    1    4    1

 Generating k-lattice:

  Cartesian coordinates                     Fractional coordinates (reciprocal lattice)
     0.035650624  0.000000000  0.000000000     1.000000000  0.000000000  0.000000000
     0.000000000  0.030864198  0.000000000     0.000000000  0.250000000  0.000000000
     0.000000000  0.000000000  0.029850746     0.000000000  0.000000000  1.000000000

  Length of vectors
     0.035650624  0.030864198  0.029850746

  Shift w.r.t. Gamma in fractional coordinates (k-lattice)
     0.000000000  0.000000000  0.000000000

 
 Subroutine IBZKPT returns following result:
 ===========================================
 
 Found      3 irreducible k-points:
 
 Following reciprocal coordinates:
            Coordinates               Weight
  0.000000  0.000000  0.000000      1.000000
  0.000000  0.250000  0.000000      2.000000
  0.000000  0.500000  0.000000      1.000000
 
 Following cartesian coordinates:
            Coordinates               Weight
  0.000000  0.000000  0.000000      1.000000
  0.000000  0.030864  0.000000      2.000000
  0.000000  0.061728  0.000000      1.000000
 


--------------------------------------------------------------------------------------------------------




 Dimension of arrays:
   k-points           NKPTS =      3   k-points in BZ     NKDIM =      3   number of bands    NBANDS=    232
   number of dos      NEDOS =    301   number of ions     NIONS =     92
   non local maximal  LDIM  =      4   non local SUM 2l+1 LMDIM =      8
   total plane-waves  NPLWV = ******
   max r-space proj   IRMAX =   1967   max aug-charges    IRDMAX=   5083
   dimension x,y,z NGX =   210 NGY =   60 NGZ =  250
   dimension x,y,z NGXF=   420 NGYF=  120 NGZF=  500
   support grid    NGXF=   420 NGYF=  120 NGZF=  500
   ions per type =              92
   NGX,Y,Z   is equivalent  to a cutoff of  12.45, 12.31, 12.41 a.u.
   NGXF,Y,Z  is equivalent  to a cutoff of  24.89, 24.63, 24.81 a.u.

 SYSTEM =  unknown system                          
 POSCAR =   C                                      

 Startparameter for this run:
   NWRITE =      2    write-flag & timer
   PREC   = accura    normal or accurate (medium, high low for compatibility)
   ISTART =      0    job   : 0-new  1-cont  2-samecut
   ICHARG =      2    charge: 1-file 2-atom 10-const
   ISPIN  =      1    spin polarized calculation?
   LNONCOLLINEAR =      F non collinear calculations
   LSORBIT =      F    spin-orbit coupling
   INIWAV =      1    electr: 0-lowe 1-rand  2-diag
   LASPH  =      F    aspherical Exc in radial PAW
 Electronic Relaxation 1
   ENCUT  =  500.0 eV  36.75 Ry    6.06 a.u.  51.14 14.77 61.08*2*pi/ulx,y,z
   ENINI  =  500.0     initial cutoff
   ENAUG  =  644.9 eV  augmentation charge cutoff
   NELM   =    150;   NELMIN=  2; NELMDL= -5     # of ELM steps 
   EDIFF  = 0.1E-05   stopping-criterion for ELM
   LREAL  =      T    real-space projection
   NLSPLINE    = F    spline interpolate recip. space projectors
   LCOMPAT=      F    compatible to vasp.4.4
   GGA_COMPAT  = T    GGA compatible to vasp.4.4-vasp.4.6
   LMAXPAW     = -100 max onsite density
   LMAXMIX     =    2 max onsite mixed and CHGCAR
   VOSKOWN=      0    Vosko Wilk Nusair interpolation
   ROPT   =   -0.00025
 Ionic relaxation
   EDIFFG = 0.1E-04   stopping-criterion for IOM
   NSW    =      0    number of steps for IOM
   NBLOCK =      1;   KBLOCK =      1    inner block; outer block 
   IBRION =     -1    ionic relax: 0-MD 1-quasi-New 2-CG
   NFREE  =      0    steps in history (QN), initial steepest desc. (CG)
   ISIF   =      2    stress and relaxation
   IWAVPR =     10    prediction:  0-non 1-charg 2-wave 3-comb
   ISYM   =      2    0-nonsym 1-usesym 2-fastsym
   LCORR  =      T    Harris-Foulkes like correction to forces

   POTIM  = 0.5000    time-step for ionic-motion
   TEIN   =    0.0    initial temperature
   TEBEG  =    0.0;   TEEND  =   0.0 temperature during run
   SMASS  =  -3.00    Nose mass-parameter (am)
   estimated Nose-frequenzy (Omega)   =  0.10E-29 period in steps = 0.13E+47 mass=  -0.180E-25a.u.
   SCALEE = 1.0000    scale energy and forces
   NPACO  =    256;   APACO  = 10.0  distance and # of slots for P.C.
   PSTRESS=    0.0 pullay stress

  Mass of Ions in am
   POMASS =  12.01
  Ionic Valenz
   ZVAL   =   4.00
  Atomic Wigner-Seitz radii
   RWIGS  =  -1.00
  virtual crystal weights 
   VCA    =   1.00
   NELECT =     368.0000    total number of electrons
   NUPDOWN=      -1.0000    fix difference up-down

 DOS related values:
   EMIN   =  10.00;   EMAX   =-10.00  energy-range for DOS
   EFERMI =   0.00;   METHOD = LEGACY      
   ISMEAR =     0;   SIGMA  =   0.20  broadening in eV -4-tet -1-fermi 0-gaus
   EFERMI_NEDOS =   21; number of points for ismear=-14 and -15

 Electronic relaxation 2 (details)
   IALGO  =     38    algorithm
   LDIAG  =      T    sub-space diagonalisation (order eigenvalues)
   LSUBROT=      F    optimize rotation matrix (better conditioning)
   TURBO    =      0    0=normal 1=particle mesh
   IRESTART =      0    0=no restart 2=restart with 2 vectors
   NREBOOT  =      0    no. of reboots
   NMIN     =      0    reboot dimension
   EREF     =   0.00    reference energy to select bands
   IMIX   =      4    mixing-type and parameters
     AMIX     =   0.40;   BMIX     =  1.00
     AMIX_MAG =   1.60;   BMIX_MAG =  1.00
     AMIN     =   0.10
     WC   =   100.;   INIMIX=   1;  MIXPRE=   1;  MAXMIX= -45

 Intra band minimization:
   WEIMIN = 0.0000     energy-eigenvalue tresh-hold
   EBREAK =  0.11E-08  absolut break condition
   DEPER  =   0.30     relativ break condition  

   TIME   =   0.40     timestep for ELM

  volume/ion in A,a.u.               =      82.73       558.30
  Fermi-wavevector in a.u.,A,eV,Ry     =   0.596398  1.127030  4.839472  0.355691
  Thomas-Fermi vector in A             =   1.646729
 
 Write flags
   LWAVE        =      F    write WAVECAR
   LDOWNSAMPLE  =      F    k-point downsampling of WAVECAR
   LCHARG       =      F    write CHGCAR
   LVTOT        =      F    write LOCPOT, total local potential
   LVHAR        =      F    write LOCPOT, Hartree potential only
   WRT_POTENTIAL= false  ! write potential to hdf5 file
   LELF         =      F    write electronic localiz. function (ELF)
   LORBIT       =      0    0 simple, 1 ext, 2 COOP (PROOUT), +10 PAW based schemes


 Python interface
   PLUGINS active      =      F    recompile with -DPLUGINS to activate
 
 Dipole corrections
   LMONO      =      F    monopole corrections only (constant potential shift)
   LDIPOL     =      F    correct potential (dipole corrections)
   IDIPOL     =      0    1-x, 2-y, 3-z, 4-all directions 
   EPSILON    =  1.0000000 bulk dielectric constant
   LVACPOTAV  =      F  vacuum potentials using an averaging scheme for the charge density
   VACPOTFLAT =  0.1000000 required flatness to determine vacuum potential
 
Coulomb truncation method
  LTRUNCATE          =      F  Coulomb kernel truncation to be used
  IDIMENSIONALITY    =      3  Dimensionality of cutoff (0 molecules / 2 surfaces)
  ISURFACE           =     -1  Direction of surface normal
  LCOARSEN           =      F  Coarsen the charge grid before padding, preferred

 
 Exchange correlation treatment:
   GGA     = PE    functional components
   XC_C    = 1    coefficients multiplying the functional components
   LIBXC   =     F    Libxc                    
   VOSKOWN =     0    Vosko Wilk Nusair interpolation
   LHFCALC =     F    Hartree Fock is set to
   LHFONE  =     F    Hartree Fock one center treatment
   AEXX    =    0.0000 exact exchange contribution

 Parameters of functionals:
   PE:
     No parameter
 
 Van der Waals corrections
   IVDW    =     0    specifies the selected vdW correction

 Linear response parameters
   LEPSILON=     F    determine dielectric tensor
   LRPA    =     F    only Hartree local field effects (RPA)
   LNABLA  =     F    use nabla operator in PAW spheres
   LVEL    =     F    velocity operator in full k-point grid
   CSHIFT  =0.1000    complex shift for real part using Kramers Kronig
   OMEGAMAX=  -1.0    maximum frequency
   DEG_THRESHOLD= 0.2000000E-02 threshold for treating states as degnerate
   RTIME   =   -0.100 relaxation time in fs
  (WPLASMAI=    0.000 imaginary part of plasma frequency in eV, 0.658/RTIME)
   DFIELD  = 0.0000000 0.0000000 0.0000000 field for delta impulse in time
 
  Optional k-point grid parameters
   LKPOINTS_OPT  =     F    use optional k-point grid
   KPOINTS_OPT_MODE=     1    mode for optional k-point grid
 
 Orbital magnetization related:
   ORBITALMAG=     F  switch on orbital magnetization
   LCHIMAG   =     F  perturbation theory with respect to B field
   DQ        =  0.001000  dq finite difference perturbation B field
   LLRAUG    =     F  two centre corrections for induced B field
   LBONE     =     F  B-component reconstruction in AE one-centre
   LVGVCALC  =     T  calculate vGv susceptibility
   LVGVAPPL  =     F  apply vGv susceptibility instead of pGv for G=0

 Random number generation:
   RANDOM_GENERATOR = DEFAULT
   PCG_SEED         = not used


--------------------------------------------------------------------------------------------------------


 Static calculation
 charge density and potential will be updated during run
 non-spin polarized calculation
 Variant of blocked Davidson
 Davidson routine will perform the subspace rotation
 perform sub-space diagonalisation
    after iterative eigenvector-optimisation
 modified Broyden-mixing scheme, WC =      100.0
 initial mixing is a Kerker type mixing with AMIX =  0.4000 and BMIX =      1.0000
 Hartree-type preconditioning will be used
 using additional bands            48
 real space projection scheme for non local part
 use partial core corrections
 calculate Harris-corrections to forces 
   (improved forces if not selfconsistent)
 use gradient corrections 
 use of overlap-Matrix (Vanderbilt PP)
 Gauss-broadening in eV      SIGMA  =   0.20


--------------------------------------------------------------------------------------------------------


  energy-cutoff  :      500.00
  volume of cell :     7611.37
      direct lattice vectors                 reciprocal lattice vectors
    28.050000000  0.000000000  0.000000000     0.035650624  0.000000000  0.000000000
     0.000000000  8.100000000  0.000000000     0.000000000  0.123456790  0.000000000
     0.000000000  0.000000000 33.500000000     0.000000000  0.000000000  0.029850746

  length of vectors
    28.050000000  8.100000000 33.500000000     0.035650624  0.123456790  0.029850746


 
 k-points in units of 2pi/SCALE and weight: K-Spacing Value to Generate K-Mesh: 0.03
   0.00000000  0.00000000  0.00000000       0.250
   0.00000000  0.03086420  0.00000000       0.500
   0.00000000  0.06172840  0.00000000       0.250
 
 k-points in reciprocal lattice and weights: K-Spacing Value to Generate K-Mesh: 0.03
   0.00000000  0.00000000  0.00000000       0.250
   0.00000000  0.25000000  0.00000000       0.500
   0.00000000  0.50000000  0.00000000       0.250
 
 position of ions in fractional coordinates (direct lattice) 
   0.00751276  0.10784753  0.44815821
   0.00988952  0.27910247  0.44648955
   0.05161105  0.02449086  0.45370746
   0.05220392  0.36500247  0.45377910
   0.09781355  0.10189049  0.45815224
   0.09696720  0.27337901  0.45943284
   0.13961390  0.02140951  0.46902687
   0.13745383  0.35329012  0.47236418
   0.18253298  0.10708148  0.47960597
   0.18205989  0.27399753  0.47945373
   0.22444528  0.02362358  0.49201493
   0.22526560  0.35136173  0.49224179
   0.26709554  0.10454593  0.49850149
   0.26865312  0.27283086  0.49759104
   0.31050018  0.02215099  0.51273731
   0.31072299  0.35349630  0.51122985
   0.35089519  0.09997691  0.52380896
   0.35294902  0.27271605  0.52201791
   0.39387522  0.01888025  0.53427164
   0.39486631  0.34945185  0.53416119
   0.43672727  0.09809272  0.53937313
   0.43853119  0.27243457  0.53802687
   0.48257398  0.02245494  0.54388955
   0.48220321  0.35217284  0.54500896
   0.52717291  0.10188383  0.54402090
   0.52731194  0.27141605  0.54601791
   0.57190731  0.02187679  0.53865672
   0.57260250  0.35483086  0.54516418
   0.61611052  0.10799716  0.53428657
   0.61580749  0.27305432  0.53717015
   0.65575758  0.02385457  0.52014627
   0.65951872  0.35181975  0.52805672
   0.69851337  0.10034580  0.50653433
   0.70099822  0.26748395  0.51364478
   0.73914795  0.01912753  0.49106866
   0.73935829  0.35475432  0.49832836
   0.78150089  0.10576259  0.47982687
   0.78103030  0.27090988  0.48168060
   0.82371480  0.02967099  0.46874925
   0.82627094  0.35510617  0.47402388
   0.86655971  0.10905716  0.45828358
   0.86690909  0.27700000  0.46184776
   0.91142246  0.02509210  0.45152836
   0.91152941  0.36143457  0.45062388
   0.95582888  0.11013407  0.45177612
   0.95573975  0.28014691  0.45030746
   0.00629811  0.60427160  0.45572239
   0.00511323  0.77495679  0.45949552
   0.04813119  0.52299383  0.46332239
   0.04968200  0.85669259  0.46065970
   0.09471551  0.60133827  0.47194328
   0.09248699  0.77258889  0.47105970
   0.13684171  0.51992099  0.48100896
   0.13726845  0.85676790  0.47683582
   0.17910267  0.60521481  0.49179104
   0.17935508  0.77363704  0.48978209
   0.22248699  0.51753580  0.49792239
   0.22348342  0.84925432  0.49832239
   0.26668200  0.59837531  0.50696716
   0.26479501  0.76811605  0.50916716
   0.30889840  0.51722099  0.51697910
   0.30820570  0.85757284  0.52106567
   0.34961319  0.60311111  0.53252537
   0.35027522  0.77403333  0.53334925
   0.39358645  0.51651728  0.54277015
   0.39404635  0.84832099  0.53948358
   0.43833155  0.59555432  0.55071940
   0.43839216  0.76450247  0.54808955
   0.48245633  0.51558889  0.55261194
   0.48238503  0.85561235  0.54958209
   0.52596078  0.60197037  0.55591940
   0.52793939  0.76244691  0.55161194
   0.57351159  0.52217654  0.55091940
   0.57095544  0.85305679  0.54092537
   0.61546524  0.60141111  0.54078507
   0.61691622  0.77614691  0.53832537
   0.65699822  0.51886420  0.52905970
   0.65454902  0.85146914  0.51914925
   0.70086275  0.60652716  0.51755821
   0.69975758  0.77228765  0.51161194
   0.74183601  0.52490247  0.50342985
   0.74079144  0.84916914  0.49429254
   0.78421034  0.60594444  0.48920597
   0.78284492  0.77631852  0.48343881
   0.82444563  0.52451605  0.47396418
   0.82690196  0.85849383  0.47276119
   0.86800357  0.60752840  0.46782388
   0.86965775  0.77937901  0.46675224
   0.90964706  0.52636667  0.46085075
   0.91245989  0.85927654  0.45728657
   0.95483779  0.60455062  0.45866866
   0.95481283  0.77404691  0.45768657
 
 position of ions in cartesian coordinates  (Angst):
   0.21073300  0.87356500 15.01330000
   0.27740100  2.26073000 14.95740000
   1.44769000  0.19837600 15.19920000
   1.46432000  2.95652000 15.20160000
   2.74367000  0.82531300 15.34810000
   2.71993000  2.21437000 15.39100000
   3.91617000  0.17341700 15.71240000
   3.85558000  2.86165000 15.82420000
   5.12005000  0.86736000 16.06680000
   5.10678000  2.21938000 16.06170000
   6.29569000  0.19135100 16.48250000
   6.31870000  2.84603000 16.49010000
   7.49203000  0.84682200 16.69980000
   7.53572000  2.20993000 16.66930000
   8.70953000  0.17942300 17.17670000
   8.71578000  2.86332000 17.12620000
   9.84261000  0.80981300 17.54760000
   9.90022000  2.20900000 17.48760000
  11.04820000  0.15293000 17.89810000
  11.07600000  2.83056000 17.89440000
  12.25020000  0.79455100 18.06900000
  12.30080000  2.20672000 18.02390000
  13.53620000  0.18188500 18.22030000
  13.52580000  2.85260000 18.25780000
  14.78720000  0.82525900 18.22470000
  14.79110000  2.19847000 18.29160000
  16.04200000  0.17720200 18.04500000
  16.06150000  2.87413000 18.26300000
  17.28190000  0.87477700 17.89860000
  17.27340000  2.21174000 17.99520000
  18.39400000  0.19322200 17.42490000
  18.49950000  2.84974000 17.68990000
  19.59330000  0.81280100 16.96890000
  19.66300000  2.16662000 17.20710000
  20.73310000  0.15493300 16.45080000
  20.73900000  2.87351000 16.69400000
  21.92110000  0.85667700 16.07420000
  21.90790000  2.19437000 16.13630000
  23.10520000  0.24033500 15.70310000
  23.17690000  2.87636000 15.87980000
  24.30700000  0.88336300 15.35250000
  24.31680000  2.24370000 15.47190000
  25.56540000  0.20324600 15.12620000
  25.56840000  2.92762000 15.09590000
  26.81100000  0.89208600 15.13450000
  26.80850000  2.26919000 15.08530000
   0.17666200  4.89460000 15.26670000
   0.14342600  6.27715000 15.39310000
   1.35008000  4.23625000 15.52130000
   1.39358000  6.93921000 15.43210000
   2.65677000  4.87084000 15.81010000
   2.59426000  6.25797000 15.78050000
   3.83841000  4.21136000 16.11380000
   3.85038000  6.93982000 15.97400000
   5.02383000  4.90224000 16.47500000
   5.03091000  6.26646000 16.40770000
   6.24076000  4.19204000 16.68040000
   6.26871000  6.87896000 16.69380000
   7.48043000  4.84684000 16.98340000
   7.42750000  6.22174000 17.05710000
   8.66460000  4.18949000 17.31880000
   8.64517000  6.94634000 17.45570000
   9.80665000  4.88520000 17.83960000
   9.82522000  6.26967000 17.86720000
  11.04010000  4.18379000 18.18280000
  11.05300000  6.87140000 18.07270000
  12.29520000  4.82399000 18.44910000
  12.29690000  6.19247000 18.36100000
  13.53290000  4.17627000 18.51250000
  13.53090000  6.93046000 18.41100000
  14.75320000  4.87596000 18.62330000
  14.80870000  6.17582000 18.47900000
  16.08700000  4.22963000 18.45580000
  16.01530000  6.90976000 18.12100000
  17.26380000  4.87143000 18.11630000
  17.30450000  6.28679000 18.03390000
  18.42880000  4.20280000 17.72350000
  18.36010000  6.89690000 17.39150000
  19.65920000  4.91287000 17.33820000
  19.62820000  6.25553000 17.13900000
  20.80850000  4.25171000 16.86490000
  20.77920000  6.87827000 16.55880000
  21.99710000  4.90815000 16.38840000
  21.95880000  6.28818000 16.19520000
  23.12570000  4.24858000 15.87780000
  23.19460000  6.95380000 15.83750000
  24.34750000  4.92098000 15.67210000
  24.39390000  6.31297000 15.63620000
  25.51560000  4.26357000 15.43850000
  25.59450000  6.96014000 15.31910000
  26.78320000  4.89686000 15.36540000
  26.78250000  6.26978000 15.33250000
 


--------------------------------------------------------------------------------------------------------


 k-point     1 :   0.0000 0.0000 0.0000  plane waves:  193173
 k-point     2 :   0.0000 0.2500 0.0000  plane waves:  193166
 k-point     3 :   0.0000 0.5000 0.0000  plane waves:  193226

 maximum and minimum number of plane-waves per node :    193226   193166

 maximum number of plane-waves:    193226
 maximum index in each direction: 
   IXMAX=   51   IYMAX=   14   IZMAX=   61
   IXMIN=  -51   IYMIN=  -15   IZMIN=  -61


 serial   3D FFT for wavefunctions
 parallel 3D FFT for charge:
    minimum data exchange during FFTs selected (reduces bandwidth)


 total amount of memory used by VASP MPI-rank0  2294514. kBytes
=======================================================================

   base                                    :      30000. kBytes
   nonlr-proj                              :      15080. kBytes
   fftplans                                :     436558. kBytes
   grid                                    :     732614. kBytes
   one-center                              :        282. kBytes
   wavefun                                 :    1079980. kBytes
 
     INWAV:  cpu time      0.0000: real time      0.0000
 Broyden mixing: mesh for mixing (old mesh)
   NGX =103   NGY = 29   NGZ =123
  (NGX  =420   NGY  =120   NGZ  =500)
  gives a total of 367401 points

 initial charge density was supplied:
 charge density of overlapping atoms calculated
 number of electron     368.0000000 magnetization 
 keeping initial charge density in first step


--------------------------------------------------------------------------------------------------------


 Maximum index for non-local projection operator          1872
 Maximum index for augmentation-charges          2387 (set IRDMAX)


--------------------------------------------------------------------------------------------------------


 First call to EWALD:  gamma=   0.090
 Maximum number of real-space cells   2x   6x   2
 Maximum number of reciprocal cells   4x   1x   4

    FEWALD:  cpu time      0.1614: real time      0.1614


--------------------------------------- Ionic step        1  -------------------------------------------




--------------------------------------- Iteration      1(   1)  ---------------------------------------


    POTLOK:  cpu time      0.4189: real time      0.4473
    SETDIJ:  cpu time      0.0430: real time      0.0430
     EDDAV:  cpu time     11.0413: real time     11.0456
       DOS:  cpu time      0.0008: real time      0.0008
    --------------------------------------------
      LOOP:  cpu time     11.5040: real time     11.5368

 eigenvalue-minimisations  :  1712
 total energy-change (2. order) : 0.3715340E+04  (-0.1189515E+05)
 number of electron     368.0000000 magnetization 
 augmentation part      368.0000000 magnetization 

 Free energy of the ion-electron system (eV)
  ---------------------------------------------------
  alpha Z        PSCENC =        91.34886789
  Ewald energy   TEWEN  =    119643.52568012
  -Hartree energ DENC   =   -128961.36164318
  -exchange      EXHF   =         0.00000000
  -V(xc)+E(xc)   XCENC  =      1221.93616112
  PAW double counting   =      9984.02826696   -10036.41360137
  entropy T*S    EENTRO =        -0.84215265
  eigenvalues    EBANDS =     -1764.53653704
  atomic energy  EATOM  =     13537.65479391
  Solvation  Ediel_sol  =         0.00000000
  ---------------------------------------------------
  free energy    TOTEN  =      3715.33983576 eV

  energy without entropy =     3716.18198841  energy(sigma->0) =     3715.76091208


--------------------------------------------------------------------------------------------------------




--------------------------------------- Iteration      1(   2)  ---------------------------------------


     EDDAV:  cpu time     13.0843: real time     13.0898
       DOS:  cpu time      0.0007: real time      0.0007
    --------------------------------------------
      LOOP:  cpu time     13.0850: real time     13.0905

 eigenvalue-minimisations  :  2144
 total energy-change (2. order) :-0.3525913E+04  (-0.3271881E+04)
 number of electron     368.0000000 magnetization 
 augmentation part      368.0000000 magnetization 

 Free energy of the ion-electron system (eV)
  ---------------------------------------------------
  alpha Z        PSCENC =        91.34886789
  Ewald energy   TEWEN  =    119643.52568012
  -Hartree energ DENC   =   -128961.36164318
  -exchange      EXHF   =         0.00000000
  -V(xc)+E(xc)   XCENC  =      1221.93616112
  PAW double counting   =      9984.02826696   -10036.41360137
  entropy T*S    EENTRO =        -0.22332164
  eigenvalues    EBANDS =     -5291.06872852
  atomic energy  EATOM  =     13537.65479391
  Solvation  Ediel_sol  =         0.00000000
  ---------------------------------------------------
  free energy    TOTEN  =       189.42647528 eV

  energy without entropy =      189.64979693  energy(sigma->0) =      189.53813611


--------------------------------------------------------------------------------------------------------




--------------------------------------- Iteration      1(   3)  ---------------------------------------


     EDDAV:  cpu time     11.2904: real time     11.2952
       DOS:  cpu time      0.0007: real time      0.0007
    --------------------------------------------
      LOOP:  cpu time     11.2910: real time     11.2959

 eigenvalue-minimisations  :  1792
 total energy-change (2. order) :-0.1023449E+04  (-0.1000173E+04)
 number of electron     368.0000000 magnetization 
 augmentation part      368.0000000 magnetization 

 Free energy of the ion-electron system (eV)
  ---------------------------------------------------
  alpha Z        PSCENC =        91.34886789
  Ewald energy   TEWEN  =    119643.52568012
  -Hartree energ DENC   =   -128961.36164318
  -exchange      EXHF   =         0.00000000
  -V(xc)+E(xc)   XCENC  =      1221.93616112
  PAW double counting   =      9984.02826696   -10036.41360137
  entropy T*S    EENTRO =        -0.05045069
  eigenvalues    EBANDS =     -6314.69031648
  atomic energy  EATOM  =     13537.65479391
  Solvation  Ediel_sol  =         0.00000000
  ---------------------------------------------------
  free energy    TOTEN  =      -834.02224172 eV

  energy without entropy =     -833.97179103  energy(sigma->0) =     -833.99701638


--------------------------------------------------------------------------------------------------------




--------------------------------------- Iteration      1(   4)  ---------------------------------------


     EDDAV:  cpu time     10.8767: real time     10.8808
       DOS:  cpu time      0.0007: real time      0.0007
    --------------------------------------------
      LOOP:  cpu time     10.8773: real time     10.8814

 eigenvalue-minimisations  :  1712
 total energy-change (2. order) :-0.6219482E+02  (-0.6122695E+02)
 number of electron     368.0000000 magnetization 
 augmentation part      368.0000000 magnetization 

 Free energy of the ion-electron system (eV)
  ---------------------------------------------------
  alpha Z        PSCENC =        91.34886789
  Ewald energy   TEWEN  =    119643.52568012
  -Hartree energ DENC   =   -128961.36164318
  -exchange      EXHF   =         0.00000000
  -V(xc)+E(xc)   XCENC  =      1221.93616112
  PAW double counting   =      9984.02826696   -10036.41360137
  entropy T*S    EENTRO =        -0.06930632
  eigenvalues    EBANDS =     -6376.86628316
  atomic energy  EATOM  =     13537.65479391
  Solvation  Ediel_sol  =         0.00000000
  ---------------------------------------------------
  free energy    TOTEN  =      -896.21706403 eV

  energy without entropy =     -896.14775771  energy(sigma->0) =     -896.18241087


--------------------------------------------------------------------------------------------------------




--------------------------------------- Iteration      1(   5)  ---------------------------------------


     EDDAV:  cpu time     11.2961: real time     11.3000
       DOS:  cpu time      0.0007: real time      0.0007
    CHARGE:  cpu time      1.2165: real time      1.2165
    MIXING:  cpu time      0.2743: real time      0.2755
    --------------------------------------------
      LOOP:  cpu time     12.7876: real time     12.7927

 eigenvalue-minimisations  :  1800
 total energy-change (2. order) :-0.1537175E+01  (-0.1516160E+01)
 number of electron     368.0000005 magnetization 
 augmentation part       10.1765902 magnetization 

 Broyden mixing:
  rms(total) = 0.45682E+01    rms(broyden)= 0.45677E+01
  rms(prec ) = 0.46860E+01
  weight for this iteration     100.00

 Free energy of the ion-electron system (eV)
  ---------------------------------------------------
  alpha Z        PSCENC =        91.34886789
  Ewald energy   TEWEN  =    119643.52568012
  -Hartree energ DENC   =   -128961.36164318
  -exchange      EXHF   =         0.00000000
  -V(xc)+E(xc)   XCENC  =      1221.93616112
  PAW double counting   =      9984.02826696   -10036.41360137
  entropy T*S    EENTRO =        -0.07014152
  eigenvalues    EBANDS =     -6378.40262317
  atomic energy  EATOM  =     13537.65479391
  Solvation  Ediel_sol  =         0.00000000
  ---------------------------------------------------
  free energy    TOTEN  =      -897.75423925 eV

  energy without entropy =     -897.68409773  energy(sigma->0) =     -897.71916849


--------------------------------------------------------------------------------------------------------




--------------------------------------- Iteration      1(   6)  ---------------------------------------


    POTLOK:  cpu time      0.3210: real time      0.3211
    SETDIJ:  cpu time      0.0403: real time      0.0404
     EDDAV:  cpu time     10.2371: real time     10.2418
       DOS:  cpu time      0.0007: real time      0.0007
    CHARGE:  cpu time      1.1572: real time      1.1605
    MIXING:  cpu time      0.2783: real time      0.2783
    --------------------------------------------
      LOOP:  cpu time     12.0346: real time     12.0428

 eigenvalue-minimisations  :  1584
 total energy-change (2. order) : 0.5002793E+02  (-0.4777934E+01)
 number of electron     368.0000005 magnetization 
 augmentation part        9.7520167 magnetization 

 Broyden mixing:
  rms(total) = 0.26833E+01    rms(broyden)= 0.26832E+01
  rms(prec ) = 0.27416E+01
  weight for this iteration     100.00

 eigenvalues of (default mixing * dielectric matrix)
  average eigenvalue GAMMA=   2.1823
  2.1823

 Free energy of the ion-electron system (eV)
  ---------------------------------------------------
  alpha Z        PSCENC =        91.34886789
  Ewald energy   TEWEN  =    119643.52568012
  -Hartree energ DENC   =   -129534.37397205
  -exchange      EXHF   =         0.00000000
  -V(xc)+E(xc)   XCENC  =      1245.35394978
  PAW double counting   =     18977.12784318   -19037.17109869
  entropy T*S    EENTRO =        -0.07835430
  eigenvalues    EBANDS =     -5771.11402000
  atomic energy  EATOM  =     13537.65479391
  Solvation  Ediel_sol  =         0.00000000
  ---------------------------------------------------
  free energy    TOTEN  =      -847.72631016 eV

  energy without entropy =     -847.64795586  energy(sigma->0) =     -847.68713301


--------------------------------------------------------------------------------------------------------




--------------------------------------- Iteration      1(   7)  ---------------------------------------


    POTLOK:  cpu time      0.3206: real time      0.3207
    SETDIJ:  cpu time      0.0403: real time      0.0402
     EDDAV:  cpu time     10.1105: real time     10.1141
       DOS:  cpu time      0.0007: real time      0.0007
    CHARGE:  cpu time      1.1552: real time      1.1561
    MIXING:  cpu time      0.2799: real time      0.2799
    --------------------------------------------
      LOOP:  cpu time     11.9073: real time     11.9119

 eigenvalue-minimisations  :  1560
 total energy-change (2. order) : 0.1865180E+02  (-0.6597398E+01)
 number of electron     368.0000005 magnetization 
 augmentation part        9.1951779 magnetization 

 Broyden mixing:
  rms(total) = 0.73573E+00    rms(broyden)= 0.73545E+00
  rms(prec ) = 0.74557E+00
  weight for this iteration     100.00

 eigenvalues of (default mixing * dielectric matrix)
  average eigenvalue GAMMA=   2.1850
  2.1850  2.1850

 Free energy of the ion-electron system (eV)
  ---------------------------------------------------
  alpha Z        PSCENC =        91.34886789
  Ewald energy   TEWEN  =    119643.52568012
  -Hartree energ DENC   =   -130302.94650237
  -exchange      EXHF   =         0.00000000
  -V(xc)+E(xc)   XCENC  =      1276.56814942
  PAW double counting   =     36698.25591795   -36765.24588798
  entropy T*S    EENTRO =        -0.08663201
  eigenvalues    EBANDS =     -5008.14889294
  atomic energy  EATOM  =     13537.65479391
  Solvation  Ediel_sol  =         0.00000000
  ---------------------------------------------------
  free energy    TOTEN  =      -829.07450601 eV

  energy without entropy =     -828.98787400  energy(sigma->0) =     -829.03119001


--------------------------------------------------------------------------------------------------------




--------------------------------------- Iteration      1(   8)  ---------------------------------------


    POTLOK:  cpu time      0.3204: real time      0.3205
    SETDIJ:  cpu time      0.0402: real time      0.0402
     EDDAV:  cpu time     10.3147: real time     10.3184
       DOS:  cpu time      0.0008: real time      0.0008
    CHARGE:  cpu time      1.1523: real time      1.1554
    MIXING:  cpu time      0.2850: real time      0.2850
    --------------------------------------------
      LOOP:  cpu time     12.1134: real time     12.1203

 eigenvalue-minimisations  :  1600
 total energy-change (2. order) : 0.2918734E+00  (-0.2444891E+00)
 number of electron     368.0000005 magnetization 
 augmentation part        9.1776404 magnetization 

 Broyden mixing:
  rms(total) = 0.10362E+00    rms(broyden)= 0.10358E+00
  rms(prec ) = 0.12571E+00
  weight for this iteration     100.00

 eigenvalues of (default mixing * dielectric matrix)
  average eigenvalue GAMMA=   1.8169
  1.0485  2.0191  2.3832

 Free energy of the ion-electron system (eV)
  ---------------------------------------------------
  alpha Z        PSCENC =        91.34886789
  Ewald energy   TEWEN  =    119643.52568012
  -Hartree energ DENC   =   -130397.12968712
  -exchange      EXHF   =         0.00000000
  -V(xc)+E(xc)   XCENC  =      1276.36563975
  PAW double counting   =     40932.69638417   -40997.04555809
  entropy T*S    EENTRO =        -0.08520056
  eigenvalues    EBANDS =     -4916.11355272
  atomic energy  EATOM  =     13537.65479391
  Solvation  Ediel_sol  =         0.00000000
  ---------------------------------------------------
  free energy    TOTEN  =      -828.78263265 eV

  energy without entropy =     -828.69743210  energy(sigma->0) =     -828.74003237


--------------------------------------------------------------------------------------------------------




--------------------------------------- Iteration      1(   9)  ---------------------------------------


    POTLOK:  cpu time      0.3204: real time      0.3205
    SETDIJ:  cpu time      0.0403: real time      0.0403
     EDDAV:  cpu time     10.6374: real time     10.6411
       DOS:  cpu time      0.0007: real time      0.0007
    CHARGE:  cpu time      1.1534: real time      1.1555
    MIXING:  cpu time      0.2859: real time      0.2866
    --------------------------------------------
      LOOP:  cpu time     12.4381: real time     12.4447

 eigenvalue-minimisations  :  1664
 total energy-change (2. order) : 0.1028619E+00  (-0.2315627E-01)
 number of electron     368.0000005 magnetization 
 augmentation part        9.1566230 magnetization 

 Broyden mixing:
  rms(total) = 0.57919E-01    rms(broyden)= 0.57910E-01
  rms(prec ) = 0.80454E-01
  weight for this iteration     100.00

 eigenvalues of (default mixing * dielectric matrix)
  average eigenvalue GAMMA=   1.6507
  2.1865  2.1865  0.9280  1.3017

 Free energy of the ion-electron system (eV)
  ---------------------------------------------------
  alpha Z        PSCENC =        91.34886789
  Ewald energy   TEWEN  =    119643.52568012
  -Hartree energ DENC   =   -130460.80493600
  -exchange      EXHF   =         0.00000000
  -V(xc)+E(xc)   XCENC  =      1277.60766273
  PAW double counting   =     41487.51395281   -41551.86528613
  entropy T*S    EENTRO =        -0.08438483
  eigenvalues    EBANDS =     -4853.57612128
  atomic energy  EATOM  =     13537.65479391
  Solvation  Ediel_sol  =         0.00000000
  ---------------------------------------------------
  free energy    TOTEN  =      -828.67977080 eV

  energy without entropy =     -828.59538596  energy(sigma->0) =     -828.63757838


--------------------------------------------------------------------------------------------------------




--------------------------------------- Iteration      1(  10)  ---------------------------------------


    POTLOK:  cpu time      0.3208: real time      0.3206
    SETDIJ:  cpu time      0.0402: real time      0.0402
     EDDAV:  cpu time     11.0446: real time     11.0485
       DOS:  cpu time      0.0007: real time      0.0007
    CHARGE:  cpu time      1.1528: real time      1.1560
    MIXING:  cpu time      0.2927: real time      0.2928
    --------------------------------------------
      LOOP:  cpu time     12.8518: real time     12.8588

 eigenvalue-minimisations  :  1744
 total energy-change (2. order) : 0.4093469E-01  (-0.4554914E-02)
 number of electron     368.0000005 magnetization 
 augmentation part        9.1454316 magnetization 

 Broyden mixing:
  rms(total) = 0.39796E-01    rms(broyden)= 0.39793E-01
  rms(prec ) = 0.60130E-01
  weight for this iteration     100.00

 eigenvalues of (default mixing * dielectric matrix)
  average eigenvalue GAMMA=   1.6810
  2.3928  2.3928  1.6553  1.0650  0.8991

 Free energy of the ion-electron system (eV)
  ---------------------------------------------------
  alpha Z        PSCENC =        91.34886789
  Ewald energy   TEWEN  =    119643.52568012
  -Hartree energ DENC   =   -130507.72767979
  -exchange      EXHF   =         0.00000000
  -V(xc)+E(xc)   XCENC  =      1278.05837602
  PAW double counting   =     41337.12598750   -41401.41227053
  entropy T*S    EENTRO =        -0.08470660
  eigenvalues    EBANDS =     -4807.12788461
  atomic energy  EATOM  =     13537.65479391
  Solvation  Ediel_sol  =         0.00000000
  ---------------------------------------------------
  free energy    TOTEN  =      -828.63883610 eV

  energy without entropy =     -828.55412950  energy(sigma->0) =     -828.59648280


--------------------------------------------------------------------------------------------------------




--------------------------------------- Iteration      1(  11)  ---------------------------------------


    POTLOK:  cpu time      0.3207: real time      0.3207
    SETDIJ:  cpu time      0.0430: real time      0.0430
     EDDAV:  cpu time     10.1225: real time     10.1261
       DOS:  cpu time      0.0008: real time      0.0008
    CHARGE:  cpu time      1.1657: real time      1.1672
    MIXING:  cpu time      0.2986: real time      0.3003
    --------------------------------------------
      LOOP:  cpu time     11.9511: real time     11.9581

 eigenvalue-minimisations  :  1560
 total energy-change (2. order) : 0.3693849E-01  (-0.2419552E-02)
 number of electron     368.0000005 magnetization 
 augmentation part        9.1406795 magnetization 

 Broyden mixing:
  rms(total) = 0.24052E-01    rms(broyden)= 0.24049E-01
  rms(prec ) = 0.39095E-01
  weight for this iteration     100.00

 eigenvalues of (default mixing * dielectric matrix)
  average eigenvalue GAMMA=   1.7471
  2.9131  2.5969  1.8972  0.9976  1.0388  1.0388

 Free energy of the ion-electron system (eV)
  ---------------------------------------------------
  alpha Z        PSCENC =        91.34886789
  Ewald energy   TEWEN  =    119643.52568012
  -Hartree energ DENC   =   -130576.17739981
  -exchange      EXHF   =         0.00000000
  -V(xc)+E(xc)   XCENC  =      1278.64762363
  PAW double counting   =     41254.92108372   -41319.07938721
  entropy T*S    EENTRO =        -0.08495084
  eigenvalues    EBANDS =     -4739.35820902
  atomic energy  EATOM  =     13537.65479391
  Solvation  Ediel_sol  =         0.00000000
  ---------------------------------------------------
  free energy    TOTEN  =      -828.60189762 eV

  energy without entropy =     -828.51694677  energy(sigma->0) =     -828.55942220


--------------------------------------------------------------------------------------------------------




--------------------------------------- Iteration      1(  12)  ---------------------------------------


    POTLOK:  cpu time      0.3203: real time      0.3203
    SETDIJ:  cpu time      0.0403: real time      0.0402
     EDDAV:  cpu time     10.1192: real time     10.1229
       DOS:  cpu time      0.0008: real time      0.0008
    CHARGE:  cpu time      1.1531: real time      1.1555
    MIXING:  cpu time      0.3067: real time      0.3076
    --------------------------------------------
      LOOP:  cpu time     11.9403: real time     11.9474

 eigenvalue-minimisations  :  1560
 total energy-change (2. order) : 0.6331774E-02  (-0.2227682E-02)
 number of electron     368.0000005 magnetization 
 augmentation part        9.1341008 magnetization 

 Broyden mixing:
  rms(total) = 0.15861E-01    rms(broyden)= 0.15858E-01
  rms(prec ) = 0.24487E-01
  weight for this iteration     100.00

 eigenvalues of (default mixing * dielectric matrix)
  average eigenvalue GAMMA=   2.0191
  4.6568  2.2998  2.2998  1.8674  1.0766  0.9667  0.9667

 Free energy of the ion-electron system (eV)
  ---------------------------------------------------
  alpha Z        PSCENC =        91.34886789
  Ewald energy   TEWEN  =    119643.52568012
  -Hartree energ DENC   =   -130642.37035493
  -exchange      EXHF   =         0.00000000
  -V(xc)+E(xc)   XCENC  =      1279.25232806
  PAW double counting   =     41267.69743082   -41331.81940748
  entropy T*S    EENTRO =        -0.08475202
  eigenvalues    EBANDS =     -4673.80015222
  atomic energy  EATOM  =     13537.65479391
  Solvation  Ediel_sol  =         0.00000000
  ---------------------------------------------------
  free energy    TOTEN  =      -828.59556584 eV

  energy without entropy =     -828.51081382  energy(sigma->0) =     -828.55318983


--------------------------------------------------------------------------------------------------------




--------------------------------------- Iteration      1(  13)  ---------------------------------------


    POTLOK:  cpu time      0.3192: real time      0.3192
    SETDIJ:  cpu time      0.0402: real time      0.0402
     EDDAV:  cpu time     10.0330: real time     10.0365
       DOS:  cpu time      0.0008: real time      0.0008
    CHARGE:  cpu time      1.1552: real time      1.1564
    MIXING:  cpu time      0.3132: real time      0.3132
    --------------------------------------------
      LOOP:  cpu time     11.8615: real time     11.8663

 eigenvalue-minimisations  :  1544
 total energy-change (2. order) :-0.1077631E-01  (-0.1093088E-02)
 number of electron     368.0000005 magnetization 
 augmentation part        9.1304171 magnetization 

 Broyden mixing:
  rms(total) = 0.86349E-02    rms(broyden)= 0.86322E-02
  rms(prec ) = 0.12473E-01
  weight for this iteration     100.00

 eigenvalues of (default mixing * dielectric matrix)
  average eigenvalue GAMMA=   2.0553
  5.4333  2.5671  2.1141  2.1141  1.1853  1.1853  0.9218  0.9218

 Free energy of the ion-electron system (eV)
  ---------------------------------------------------
  alpha Z        PSCENC =        91.34886789
  Ewald energy   TEWEN  =    119643.52568012
  -Hartree energ DENC   =   -130698.52676236
  -exchange      EXHF   =         0.00000000
  -V(xc)+E(xc)   XCENC  =      1279.54053856
  PAW double counting   =     41254.10065404   -41318.22681855
  entropy T*S    EENTRO =        -0.08492394
  eigenvalues    EBANDS =     -4617.93837182
  atomic energy  EATOM  =     13537.65479391
  Solvation  Ediel_sol  =         0.00000000
  ---------------------------------------------------
  free energy    TOTEN  =      -828.60634215 eV

  energy without entropy =     -828.52141822  energy(sigma->0) =     -828.56388018


--------------------------------------------------------------------------------------------------------




--------------------------------------- Iteration      1(  14)  ---------------------------------------


    POTLOK:  cpu time      0.3199: real time      0.3200
    SETDIJ:  cpu time      0.0404: real time      0.0404
     EDDAV:  cpu time     10.4036: real time     10.4075
       DOS:  cpu time      0.0007: real time      0.0007
    CHARGE:  cpu time      1.1556: real time      1.1557
    MIXING:  cpu time      0.3209: real time      0.3225
    --------------------------------------------
      LOOP:  cpu time     12.2412: real time     12.2469

 eigenvalue-minimisations  :  1616
 total energy-change (2. order) :-0.1714316E-01  (-0.1091782E-03)
 number of electron     368.0000005 magnetization 
 augmentation part        9.1300730 magnetization 

 Broyden mixing:
  rms(total) = 0.57139E-02    rms(broyden)= 0.57136E-02
  rms(prec ) = 0.81612E-02
  weight for this iteration     100.00

 eigenvalues of (default mixing * dielectric matrix)
  average eigenvalue GAMMA=   2.1449
  6.2356  2.6384  2.6384  1.9432  1.7032  1.2249  1.0672  0.9264  0.9264

 Free energy of the ion-electron system (eV)
  ---------------------------------------------------
  alpha Z        PSCENC =        91.34886789
  Ewald energy   TEWEN  =    119643.52568012
  -Hartree energ DENC   =   -130712.83984719
  -exchange      EXHF   =         0.00000000
  -V(xc)+E(xc)   XCENC  =      1279.51073651
  PAW double counting   =     41216.61641390   -41280.74454870
  entropy T*S    EENTRO =        -0.08481473
  eigenvalues    EBANDS =     -4603.61076702
  atomic energy  EATOM  =     13537.65479391
  Solvation  Ediel_sol  =         0.00000000
  ---------------------------------------------------
  free energy    TOTEN  =      -828.62348531 eV

  energy without entropy =     -828.53867058  energy(sigma->0) =     -828.58107795


--------------------------------------------------------------------------------------------------------




--------------------------------------- Iteration      1(  15)  ---------------------------------------


    POTLOK:  cpu time      0.3210: real time      0.3210
    SETDIJ:  cpu time      0.0403: real time      0.0403
     EDDAV:  cpu time     10.2978: real time     10.3045
       DOS:  cpu time      0.0007: real time      0.0007
    CHARGE:  cpu time      1.1514: real time      1.1546
    MIXING:  cpu time      0.3318: real time      0.3318
    --------------------------------------------
      LOOP:  cpu time     12.1431: real time     12.1530

 eigenvalue-minimisations  :  1600
 total energy-change (2. order) :-0.2008649E-01  (-0.1641187E-03)
 number of electron     368.0000005 magnetization 
 augmentation part        9.1293667 magnetization 

 Broyden mixing:
  rms(total) = 0.32143E-02    rms(broyden)= 0.32139E-02
  rms(prec ) = 0.45305E-02
  weight for this iteration     100.00

 eigenvalues of (default mixing * dielectric matrix)
  average eigenvalue GAMMA=   2.2215
  7.1476  3.4543  2.3367  1.9313  1.9313  1.2893  1.2893  0.9935  0.9211  0.9211

 Free energy of the ion-electron system (eV)
  ---------------------------------------------------
  alpha Z        PSCENC =        91.34886789
  Ewald energy   TEWEN  =    119643.52568012
  -Hartree energ DENC   =   -130724.44869877
  -exchange      EXHF   =         0.00000000
  -V(xc)+E(xc)   XCENC  =      1279.51774278
  PAW double counting   =     41239.96737763   -41304.09999176
  entropy T*S    EENTRO =        -0.08482884
  eigenvalues    EBANDS =     -4592.02451477
  atomic energy  EATOM  =     13537.65479391
  Solvation  Ediel_sol  =         0.00000000
  ---------------------------------------------------
  free energy    TOTEN  =      -828.64357180 eV

  energy without entropy =     -828.55874297  energy(sigma->0) =     -828.60115739


--------------------------------------------------------------------------------------------------------




--------------------------------------- Iteration      1(  16)  ---------------------------------------


    POTLOK:  cpu time      0.3208: real time      0.3208
    SETDIJ:  cpu time      0.0403: real time      0.0403
     EDDAV:  cpu time     10.3773: real time     10.3809
       DOS:  cpu time      0.0008: real time      0.0008
    CHARGE:  cpu time      1.1637: real time      1.1643
    MIXING:  cpu time      0.3424: real time      0.3428
    --------------------------------------------
      LOOP:  cpu time     12.2453: real time     12.2500

 eigenvalue-minimisations  :  1616
 total energy-change (2. order) :-0.1003051E-01  (-0.5622464E-04)
 number of electron     368.0000005 magnetization 
 augmentation part        9.1291495 magnetization 

 Broyden mixing:
  rms(total) = 0.22263E-02    rms(broyden)= 0.22262E-02
  rms(prec ) = 0.28621E-02
  weight for this iteration     100.00

 eigenvalues of (default mixing * dielectric matrix)
  average eigenvalue GAMMA=   2.2964
  7.7944  3.9558  2.4412  2.4412  1.8685  1.4436  1.4436  0.9399  0.9399  0.9486
  1.0443

 Free energy of the ion-electron system (eV)
  ---------------------------------------------------
  alpha Z        PSCENC =        91.34886789
  Ewald energy   TEWEN  =    119643.52568012
  -Hartree energ DENC   =   -130729.41946724
  -exchange      EXHF   =         0.00000000
  -V(xc)+E(xc)   XCENC  =      1279.50231144
  PAW double counting   =     41229.99466114   -41294.13018602
  entropy T*S    EENTRO =        -0.08484596
  eigenvalues    EBANDS =     -4587.04541757
  atomic energy  EATOM  =     13537.65479391
  Solvation  Ediel_sol  =         0.00000000
  ---------------------------------------------------
  free energy    TOTEN  =      -828.65360231 eV

  energy without entropy =     -828.56875635  energy(sigma->0) =     -828.61117933


--------------------------------------------------------------------------------------------------------




--------------------------------------- Iteration      1(  17)  ---------------------------------------


    POTLOK:  cpu time      0.3211: real time      0.3211
    SETDIJ:  cpu time      0.0402: real time      0.0402
     EDDAV:  cpu time     10.2080: real time     10.2159
       DOS:  cpu time      0.0007: real time      0.0007
    CHARGE:  cpu time      1.1534: real time      1.1559
    MIXING:  cpu time      0.3500: real time      0.3500
    --------------------------------------------
      LOOP:  cpu time     12.0733: real time     12.0838

 eigenvalue-minimisations  :  1584
 total energy-change (2. order) :-0.6026771E-02  (-0.3957656E-04)
 number of electron     368.0000005 magnetization 
 augmentation part        9.1292189 magnetization 

 Broyden mixing:
  rms(total) = 0.10320E-02    rms(broyden)= 0.10319E-02
  rms(prec ) = 0.14000E-02
  weight for this iteration     100.00

 eigenvalues of (default mixing * dielectric matrix)
  average eigenvalue GAMMA=   2.3409
  8.4175  4.5921  2.5776  2.2073  2.1624  1.3914  1.3914  1.4311  0.9315  0.9315
  1.1001  0.9569

 Free energy of the ion-electron system (eV)
  ---------------------------------------------------
  alpha Z        PSCENC =        91.34886789
  Ewald energy   TEWEN  =    119643.52568012
  -Hartree energ DENC   =   -130731.43661644
  -exchange      EXHF   =         0.00000000
  -V(xc)+E(xc)   XCENC  =      1279.49046878
  PAW double counting   =     41231.50196913   -41295.63010504
  entropy T*S    EENTRO =        -0.08484243
  eigenvalues    EBANDS =     -4585.02984500
  atomic energy  EATOM  =     13537.65479391
  Solvation  Ediel_sol  =         0.00000000
  ---------------------------------------------------
  free energy    TOTEN  =      -828.65962908 eV

  energy without entropy =     -828.57478665  energy(sigma->0) =     -828.61720787


--------------------------------------------------------------------------------------------------------




--------------------------------------- Iteration      1(  18)  ---------------------------------------


    POTLOK:  cpu time      0.3198: real time      0.3213
    SETDIJ:  cpu time      0.0402: real time      0.0402
     EDDAV:  cpu time     10.5166: real time     10.5216
       DOS:  cpu time      0.0008: real time      0.0008
    CHARGE:  cpu time      1.1543: real time      1.1557
    MIXING:  cpu time      0.3632: real time      0.3634
    --------------------------------------------
      LOOP:  cpu time     12.3948: real time     12.4030

 eigenvalue-minimisations  :  1640
 total energy-change (2. order) :-0.2210315E-02  (-0.9993651E-05)
 number of electron     368.0000005 magnetization 
 augmentation part        9.1290786 magnetization 

 Broyden mixing:
  rms(total) = 0.66327E-03    rms(broyden)= 0.66320E-03
  rms(prec ) = 0.85653E-03
  weight for this iteration     100.00

 eigenvalues of (default mixing * dielectric matrix)
  average eigenvalue GAMMA=   2.3852
  8.8634  4.9992  2.8536  2.5712  1.9465  1.9465  1.4179  1.4179  0.9263  0.9263
  0.9788  1.0800  1.0800

 Free energy of the ion-electron system (eV)
  ---------------------------------------------------
  alpha Z        PSCENC =        91.34886789
  Ewald energy   TEWEN  =    119643.52568012
  -Hartree energ DENC   =   -130732.57614459
  -exchange      EXHF   =         0.00000000
  -V(xc)+E(xc)   XCENC  =      1279.49442088
  PAW double counting   =     41235.58634428   -41299.71489843
  entropy T*S    EENTRO =        -0.08485540
  eigenvalues    EBANDS =     -4583.89604804
  atomic energy  EATOM  =     13537.65479391
  Solvation  Ediel_sol  =         0.00000000
  ---------------------------------------------------
  free energy    TOTEN  =      -828.66183940 eV

  energy without entropy =     -828.57698400  energy(sigma->0) =     -828.61941170


--------------------------------------------------------------------------------------------------------




--------------------------------------- Iteration      1(  19)  ---------------------------------------


    POTLOK:  cpu time      0.3211: real time      0.3212
    SETDIJ:  cpu time      0.0404: real time      0.0405
     EDDAV:  cpu time      8.8916: real time      8.8946
       DOS:  cpu time      0.0007: real time      0.0007
    CHARGE:  cpu time      1.1543: real time      1.1564
    MIXING:  cpu time      0.3730: real time      0.3733
    --------------------------------------------
      LOOP:  cpu time     10.7812: real time     10.7867

 eigenvalue-minimisations  :  1312
 total energy-change (2. order) :-0.1156970E-02  (-0.3800246E-05)
 number of electron     368.0000005 magnetization 
 augmentation part        9.1291290 magnetization 

 Broyden mixing:
  rms(total) = 0.37574E-03    rms(broyden)= 0.37573E-03
  rms(prec ) = 0.46993E-03
  weight for this iteration     100.00

 eigenvalues of (default mixing * dielectric matrix)
  average eigenvalue GAMMA=   2.3937
  8.9386  5.5859  3.1690  2.3622  2.3622  2.0005  1.4398  1.4398  1.2118  1.2118
  0.9279  0.9279  0.9672  0.9672

 Free energy of the ion-electron system (eV)
  ---------------------------------------------------
  alpha Z        PSCENC =        91.34886789
  Ewald energy   TEWEN  =    119643.52568012
  -Hartree energ DENC   =   -130732.82320039
  -exchange      EXHF   =         0.00000000
  -V(xc)+E(xc)   XCENC  =      1279.48926679
  PAW double counting   =     41231.86481262   -41295.99219561
  entropy T*S    EENTRO =        -0.08485009
  eigenvalues    EBANDS =     -4583.64617160
  atomic energy  EATOM  =     13537.65479391
  Solvation  Ediel_sol  =         0.00000000
  ---------------------------------------------------
  free energy    TOTEN  =      -828.66299637 eV

  energy without entropy =     -828.57814628  energy(sigma->0) =     -828.62057132


--------------------------------------------------------------------------------------------------------




--------------------------------------- Iteration      1(  20)  ---------------------------------------


    POTLOK:  cpu time      0.3211: real time      0.3211
    SETDIJ:  cpu time      0.0401: real time      0.0402
     EDDAV:  cpu time      9.1804: real time      9.1836
       DOS:  cpu time      0.0007: real time      0.0007
    CHARGE:  cpu time      1.1539: real time      1.1558
    MIXING:  cpu time      0.3838: real time      0.3862
    --------------------------------------------
      LOOP:  cpu time     11.0801: real time     11.0876

 eigenvalue-minimisations  :  1368
 total energy-change (2. order) :-0.4033323E-03  (-0.7197496E-06)
 number of electron     368.0000005 magnetization 
 augmentation part        9.1290970 magnetization 

 Broyden mixing:
  rms(total) = 0.20003E-03    rms(broyden)= 0.20001E-03
  rms(prec ) = 0.25620E-03
  weight for this iteration     100.00

 eigenvalues of (default mixing * dielectric matrix)
  average eigenvalue GAMMA=   2.4479
  9.2569  5.9185  3.8193  2.6504  2.3267  2.0106  1.7204  1.4480  1.4480  0.9291
  0.9291  1.1061  1.1061  1.0247  1.0247

 Free energy of the ion-electron system (eV)
  ---------------------------------------------------
  alpha Z        PSCENC =        91.34886789
  Ewald energy   TEWEN  =    119643.52568012
  -Hartree energ DENC   =   -130733.05418853
  -exchange      EXHF   =         0.00000000
  -V(xc)+E(xc)   XCENC  =      1279.49035398
  PAW double counting   =     41232.70984743   -41296.83789274
  entropy T*S    EENTRO =        -0.08485071
  eigenvalues    EBANDS =     -4583.41601105
  atomic energy  EATOM  =     13537.65479391
  Solvation  Ediel_sol  =         0.00000000
  ---------------------------------------------------
  free energy    TOTEN  =      -828.66339970 eV

  energy without entropy =     -828.57854899  energy(sigma->0) =     -828.62097435


--------------------------------------------------------------------------------------------------------




--------------------------------------- Iteration      1(  21)  ---------------------------------------


    POTLOK:  cpu time      0.3213: real time      0.3213
    SETDIJ:  cpu time      0.0403: real time      0.0402
     EDDAV:  cpu time      8.6647: real time      8.6678
       DOS:  cpu time      0.0007: real time      0.0007
    CHARGE:  cpu time      1.1643: real time      1.1675
    MIXING:  cpu time      0.3962: real time      0.3982
    --------------------------------------------
      LOOP:  cpu time     10.5875: real time     10.5958

 eigenvalue-minimisations  :  1264
 total energy-change (2. order) :-0.2314383E-03  (-0.2892900E-06)
 number of electron     368.0000005 magnetization 
 augmentation part        9.1290883 magnetization 

 Broyden mixing:
  rms(total) = 0.10340E-03    rms(broyden)= 0.10340E-03
  rms(prec ) = 0.12718E-03
  weight for this iteration     100.00

 eigenvalues of (default mixing * dielectric matrix)
  average eigenvalue GAMMA=   2.4209
  9.2293  6.2473  4.0149  2.6440  2.4340  2.0323  2.0323  1.4643  1.4643  1.2088
  1.2088  0.9321  0.9321  0.9676  0.9612  0.9612

 Free energy of the ion-electron system (eV)
  ---------------------------------------------------
  alpha Z        PSCENC =        91.34886789
  Ewald energy   TEWEN  =    119643.52568012
  -Hartree energ DENC   =   -130733.17735727
  -exchange      EXHF   =         0.00000000
  -V(xc)+E(xc)   XCENC  =      1279.49009412
  PAW double counting   =     41231.82994599   -41295.95853633
  entropy T*S    EENTRO =        -0.08485120
  eigenvalues    EBANDS =     -4583.29226836
  atomic energy  EATOM  =     13537.65479391
  Solvation  Ediel_sol  =         0.00000000
  ---------------------------------------------------
  free energy    TOTEN  =      -828.66363114 eV

  energy without entropy =     -828.57877994  energy(sigma->0) =     -828.62120554


[...]
   0.903E+00 -.664E+01 -.852E+01   -.114E+01 0.561E+01 0.800E+01   -.372E+00 -.819E+00 0.385E+00   -.242E-05 0.166E-05 0.119E-06
   0.134E+02 -.286E+01 -.713E+02   -.142E+02 0.192E+01 0.712E+02   0.460E+00 -.270E+00 0.497E+00   0.208E-05 -.200E-05 -.525E-07
   0.129E+02 0.302E+01 -.662E+02   -.131E+02 -.211E+01 0.663E+02   -.875E-01 0.789E+00 0.223E+00   0.148E-05 -.166E-05 -.112E-05
   -.942E+00 0.787E+01 -.833E+02   0.205E+01 -.664E+01 0.834E+02   0.151E+01 0.119E+01 -.532E+00   0.596E-05 -.157E-05 -.469E-06
   -.517E+01 -.159E+01 -.479E+02   0.558E+01 0.105E-01 0.474E+02   -.162E+00 -.759E+00 0.789E+00   0.597E-05 0.322E-06 -.464E-06
   0.407E+01 -.113E+02 -.903E+02   -.473E+01 0.114E+02 0.898E+02   -.291E+00 -.978E+00 0.774E+00   0.585E-05 -.797E-06 -.169E-05
   -.145E+01 0.168E+02 -.914E+02   0.207E+01 -.179E+02 0.913E+02   0.426E+00 -.177E+00 0.615E+00   0.407E-05 0.275E-05 -.189E-05
   -.460E+01 0.140E+02 -.107E+03   0.541E+01 -.137E+02 0.107E+03   -.231E+00 0.570E+00 -.632E+00   0.604E-05 -.281E-05 -.241E-05
   -.676E+01 -.122E+02 -.124E+03   0.698E+01 0.123E+02 0.124E+03   0.809E-01 -.885E-02 -.411E+00   0.600E-05 -.727E-06 -.269E-05
   -.446E+01 -.962E+01 -.689E+02   0.438E+01 0.102E+02 0.687E+02   -.106E+01 -.313E+00 0.821E+00   0.617E-05 0.147E-07 -.214E-05
   -.543E+01 0.136E+02 -.135E+03   0.473E+01 -.137E+02 0.135E+03   -.133E+00 -.505E+00 0.626E+00   0.865E-05 -.367E-06 -.423E-05
   -.148E+02 0.152E+02 -.110E+03   0.143E+02 -.162E+02 0.111E+03   -.116E+01 -.123E+01 -.114E+01   0.115E-05 0.224E-06 -.108E-05
   -.190E+02 -.137E+02 -.124E+03   0.193E+02 0.151E+02 0.124E+03   0.236E+00 -.398E+00 -.154E-02   0.302E-05 0.488E-06 -.259E-05
   -.116E+02 -.447E+01 -.217E+02   0.125E+02 0.394E+01 0.214E+02   0.340E+00 -.483E+00 -.657E+00   -.413E-05 0.477E-06 0.192E-05
   -.372E+02 0.144E+02 -.107E+03   0.376E+02 -.152E+02 0.107E+03   -.846E+00 0.456E-01 0.993E-01   -.348E-05 0.102E-05 -.212E-06
   0.549E+01 0.117E+02 0.264E+02   -.570E+01 -.122E+02 -.267E+02   -.182E+00 0.600E+00 0.968E+00   -.252E-05 0.168E-05 0.187E-05
   -.217E+02 -.575E+01 -.769E+02   0.216E+02 0.565E+01 0.775E+02   -.117E+01 0.895E+00 -.131E+01   -.346E-05 0.128E-05 0.147E-05
   0.216E+02 -.975E+01 0.875E+02   -.216E+02 0.960E+01 -.879E+02   -.116E+00 0.540E+00 0.753E+00   -.314E-05 -.354E-06 0.244E-05
   -.578E+01 0.338E+01 0.273E+02   0.686E+01 -.317E+01 -.280E+02   0.150E+01 -.259E+00 0.662E+00   -.557E-05 0.820E-06 0.233E-05
   0.236E+02 0.138E+02 0.876E+02   -.247E+02 -.148E+02 -.872E+02   -.457E+00 -.233E+00 -.581E+00   -.306E-05 -.275E-06 0.251E-05
   0.212E+02 -.294E+02 0.850E+02   -.214E+02 0.317E+02 -.852E+02   0.645E+00 0.790E+00 0.112E+01   -.216E-05 0.213E-06 0.179E-05
   0.164E+02 -.384E+01 0.122E+03   -.158E+02 0.287E+01 -.123E+03   0.724E+00 -.105E+01 0.221E+00   0.127E-05 0.136E-05 0.150E-05
   0.132E+02 0.101E+02 0.424E+02   -.151E+02 -.103E+02 -.411E+02   -.131E+01 0.240E+00 -.140E+01   0.387E-05 0.479E-06 0.204E-06
   0.565E+01 0.145E+02 0.164E+03   -.513E+01 -.148E+02 -.165E+03   0.260E+00 -.178E+00 0.440E+00   0.328E-05 0.158E-05 0.179E-05
   -.907E+01 -.124E+02 0.110E+03   0.114E+02 0.122E+02 -.110E+03   0.425E+00 -.238E+00 -.138E+01   0.201E-05 0.176E-05 0.157E-05
   -.208E+01 -.114E+02 0.193E+03   0.204E+01 0.124E+02 -.194E+03   0.707E+00 0.855E+00 0.201E+01   -.670E-05 0.156E-05 0.158E-05
   0.460E+01 0.710E+01 0.221E+03   -.562E+01 -.738E+01 -.222E+03   0.815E-01 -.626E+00 0.397E+01   -.788E-05 -.825E-06 0.285E-05
   -.443E+01 0.644E+02 0.115E+03   0.707E+00 -.658E+02 -.114E+03   0.109E+01 0.117E+01 -.141E+01   -.499E-06 0.636E-05 0.231E-05
   -.126E+02 -.644E+02 0.142E+03   0.106E+02 0.658E+02 -.142E+03   0.674E+00 -.123E+01 -.130E+01   0.802E-06 -.462E-05 0.291E-05
   -.835E+00 0.593E+02 0.145E+03   0.391E+01 -.601E+02 -.146E+03   -.150E+01 0.155E+01 0.295E+01   0.527E-06 0.991E-05 0.358E-05
   -.703E+01 -.722E+02 0.624E+02   0.116E+02 0.741E+02 -.617E+02   -.135E-01 -.173E+01 -.149E+01   -.378E-06 -.919E-05 0.205E-05
   0.584E+01 -.118E+02 0.284E+02   -.465E+01 0.135E+02 -.262E+02   0.152E+01 0.425E+00 -.257E+01   0.258E-05 -.151E-05 0.944E-06
   0.796E+01 0.131E+01 0.856E+02   -.832E+01 -.120E+01 -.862E+02   -.628E+00 -.588E+00 0.970E+00   0.221E-05 -.102E-05 0.157E-05
   0.136E+02 0.937E+01 0.282E+02   -.150E+02 -.890E+01 -.286E+02   -.193E+01 0.110E+01 0.708E+00   -.282E-05 -.270E-06 -.124E-05
   0.849E+01 -.136E+02 0.226E+02   -.813E+01 0.132E+02 -.220E+02   0.100E+01 0.295E+00 -.646E+00   -.945E-06 0.216E-05 -.675E-06
   0.826E+01 -.441E+01 -.230E+02   -.747E+01 0.435E+01 0.236E+02   -.784E+00 0.302E+00 -.111E+01   0.268E-06 0.250E-05 -.598E-06
   0.441E+01 0.138E+02 0.325E+02   -.501E+01 -.148E+02 -.325E+02   0.248E+00 -.419E+00 -.219E-01   0.607E-07 0.419E-06 -.156E-06
   0.165E+02 0.106E+02 -.498E+02   -.165E+02 -.112E+02 0.501E+02   -.121E+00 -.108E+01 -.520E+00   -.104E-05 0.471E-05 -.110E-05
   0.157E+02 -.170E+02 -.182E+02   -.160E+02 0.178E+02 0.182E+02   0.158E+00 -.601E+00 0.161E+00   -.106E-05 -.154E-05 -.106E-05
   0.145E+02 -.142E+02 -.268E+02   -.142E+02 0.151E+02 0.270E+02   0.781E+00 0.707E+00 -.142E+00   -.105E-05 0.377E-05 0.440E-06
   0.120E+02 -.296E+01 -.256E+02   -.126E+02 0.435E+01 0.253E+02   -.659E+00 0.126E+01 -.667E+00   -.342E-05 -.240E-05 -.755E-06
   0.553E+01 0.455E+01 -.582E+01   -.637E+01 -.473E+01 0.552E+01   -.808E+00 0.770E+00 0.861E+00   -.244E-05 0.457E-06 -.371E-06
   0.268E+01 -.125E+02 -.488E+02   -.914E+00 0.126E+02 0.496E+02   0.438E+00 0.601E+00 0.254E+00   -.468E-05 -.141E-05 -.123E-05
   0.203E+01 -.197E+02 -.418E+02   -.128E+01 0.210E+02 0.423E+02   0.283E-01 0.871E+00 -.303E-01   -.336E-05 0.124E-06 -.336E-06
   0.346E+02 0.154E+02 -.939E+02   -.357E+02 -.164E+02 0.940E+02   0.119E-01 -.910E+00 -.120E+01   -.192E-05 -.924E-06 0.213E-06
   0.244E+02 0.118E+02 -.122E+03   -.239E+02 -.123E+02 0.123E+03   0.494E+00 -.693E+00 0.194E+00   -.360E-05 0.157E-05 -.167E-05
   0.340E+02 -.517E+01 -.132E+03   -.348E+02 0.483E+01 0.132E+03   -.380E+00 -.955E+00 -.474E+00   0.687E-07 0.152E-06 -.946E-06
   0.342E+02 -.139E+02 -.173E+03   -.351E+02 0.145E+02 0.173E+03   0.121E+00 0.311E+00 -.120E+01   0.238E-05 0.209E-05 -.914E-06
   0.409E+01 0.106E+02 -.123E+03   -.267E+01 -.105E+02 0.123E+03   -.326E+00 0.667E+00 0.491E-01   0.203E-05 -.153E-05 -.167E-05
   0.257E+02 0.834E+01 -.193E+03   -.263E+02 -.862E+01 0.193E+03   -.606E+00 0.749E+00 -.413E+00   0.789E-05 0.279E-05 -.239E-05
   0.144E+02 -.163E+02 -.155E+03   -.141E+02 0.173E+02 0.155E+03   -.696E+00 0.112E+01 0.506E-01   0.430E-05 -.142E-05 -.254E-05
   0.260E+00 -.104E+02 -.187E+03   -.316E+00 0.109E+02 0.187E+03   -.141E+00 0.648E+00 0.577E-01   0.500E-05 0.175E-05 -.390E-05
   -.879E+00 0.113E+02 -.158E+03   0.167E+01 -.126E+02 0.158E+03   -.962E-01 -.146E+01 -.369E+00   0.443E-05 0.245E-06 -.311E-05
   -.149E+02 0.228E+02 -.233E+03   0.161E+02 -.257E+02 0.234E+03   0.155E+01 -.528E+00 -.891E+00   0.349E-05 0.142E-05 -.463E-05
   -.970E+01 -.315E+02 -.176E+03   0.899E+01 0.352E+02 0.176E+03   -.576E+00 0.240E+01 -.841E+00   0.534E-05 -.195E-05 -.385E-05
   -.110E+02 -.160E+02 -.216E+03   0.922E+01 0.164E+02 0.217E+03   -.831E+00 -.466E+00 -.111E+01   0.624E-05 0.783E-06 -.493E-05
   0.455E+01 0.172E+02 -.819E+02   -.457E+01 -.184E+02 0.815E+02   0.939E+00 -.162E+00 0.189E+01   0.526E-05 0.100E-05 -.281E-05
   -.274E+02 -.429E+01 -.149E+03   0.277E+02 0.578E+01 0.149E+03   0.744E+00 0.381E+00 0.569E+00   0.261E-05 -.122E-05 -.282E-05
   -.273E+02 -.628E+01 -.161E+03   0.265E+02 0.568E+01 0.163E+03   -.170E+01 -.160E+01 -.289E+01   0.124E-05 0.706E-07 -.181E-05
   -.310E+02 -.181E+02 -.948E+02   0.321E+02 0.191E+02 0.943E+02   0.161E+01 0.631E+00 0.469E+00   -.276E-05 -.218E-05 -.769E-06
   0.131E+01 0.135E+02 0.248E+02   -.671E+00 -.132E+02 -.266E+02   0.186E+01 0.916E+00 0.280E+01   -.279E-05 0.397E-06 0.176E-05
   -.229E+02 0.143E+02 -.109E+03   0.219E+02 -.151E+02 0.110E+03   0.227E-02 -.373E+00 -.951E+00   -.228E-05 -.621E-06 0.491E-06
   -.110E+02 -.191E+02 -.371E+02   0.107E+02 0.200E+02 0.375E+02   -.462E+00 -.329E+00 -.101E+01   -.181E-05 -.193E-05 0.143E-05
   -.253E+02 -.617E+01 -.514E+02   0.258E+02 0.608E+01 0.513E+02   0.292E+00 -.507E+00 -.412E+00   -.508E-05 0.858E-07 0.229E-05
   0.194E+02 0.122E+02 0.424E+02   -.205E+02 -.117E+02 -.423E+02   -.609E+00 0.127E+01 0.145E+00   -.294E-05 -.530E-06 0.245E-05
   -.531E+01 0.116E+02 -.170E+02   0.507E+01 -.113E+02 0.178E+02   -.773E+00 -.151E+00 -.152E+01   -.209E-05 -.258E-07 0.150E-05
   0.111E+01 -.650E+01 0.737E+02   0.600E+00 0.572E+01 -.744E+02   0.419E+00 -.953E+00 0.141E+01   -.392E-05 -.762E-06 0.225E-05
   0.191E+02 -.806E+01 0.902E+02   -.197E+02 0.827E+01 -.908E+02   0.113E+01 0.222E-01 0.203E+01   0.189E-05 -.243E-06 0.250E-06
   0.144E+02 0.753E+01 0.667E+02   -.155E+02 -.674E+01 -.665E+02   -.160E+01 0.155E+00 -.246E+00   0.355E-06 -.116E-05 0.124E-05
   0.767E+01 0.332E+01 0.542E+02   -.896E+01 -.226E+01 -.537E+02   0.357E+00 0.272E+00 -.443E+00   0.192E-05 -.244E-05 0.319E-06
   -.446E+01 -.701E+01 0.598E+02   0.499E+01 0.634E+01 -.596E+02   -.756E+00 -.708E+00 -.296E+00   0.223E-05 -.155E-05 0.456E-06
   -.184E+02 0.472E+01 0.701E+02   0.198E+02 -.560E+01 -.703E+02   0.244E+01 0.967E-01 -.140E+01   -.825E-05 -.409E-06 0.251E-05
   -.927E+01 -.233E+01 0.122E+03   0.929E+01 0.232E+01 -.122E+03   0.901E-01 -.588E+00 0.418E+00   -.677E-05 -.104E-06 0.142E-05
   -.619E+01 0.721E+02 0.746E+02   0.176E+01 -.739E+02 -.742E+02   0.820E+00 0.212E+01 -.464E+00   0.283E-05 0.671E-05 0.243E-05
   -.665E+01 -.663E+02 0.930E+02   0.285E+01 0.676E+02 -.929E+02   0.139E+01 -.122E+01 0.234E-01   0.513E-05 -.738E-05 0.273E-05
 -----------------------------------------------------------------------------------------------
   -.484E+00 0.263E+00 -.158E+01   -.421E-12 0.256E-12 0.126E-11   0.486E+00 -.137E+00 0.156E+01   0.470E-05 0.361E-05 0.184E-04
 
 
 POSITION                                       TOTAL-FORCE (eV/Angst)
 -----------------------------------------------------------------------------------
      0.21073      0.87357     15.01330         3.473531      0.358929     -0.137752
      0.27740      2.26073     14.95740         0.079628     -0.693102      0.224743
      1.44769      0.19838     15.19920        -0.325934     -0.023274      0.201910
      1.46432      2.95652     15.20160        -0.033667     -4.925435     -0.126588
      2.74367      0.82531     15.34810        -2.324133      1.167296     -0.641682
      2.71993      2.21437     15.39100        -1.736002      0.427775     -0.553370
      3.91617      0.17342     15.71240         0.851973      0.557929      0.726271
      3.85558      2.86165     15.82420         2.219714      0.509178      0.710056
      5.12005      0.86736     16.06680        -0.325347     -1.951275     -0.708733
      5.10678      2.21938     16.06170         0.269089      0.351764      0.340163
      6.29569      0.19135     16.48250        -0.372241     -1.780837      0.034471
      6.31870      2.84603     16.49010        -1.852213      0.597824     -0.897932
      7.49203      0.84682     16.69980         2.258129     -0.938794      0.690063
      7.53572      2.20993     16.66930         0.646200     -0.113696      0.535905
      8.70953      0.17942     17.17670        -3.378522     -0.435109     -0.262629
      8.71578      2.86332     17.12620        -0.089885     -1.353418     -0.134455
      9.84261      0.80981     17.54760         2.688234      2.257180     -0.292884
      9.90022      2.20900     17.48760        -0.603964     -1.854969     -0.139072
     11.04820      0.15293     17.89810        -0.351758     -1.216415      0.388456
     11.07600      2.83056     17.89440        -0.271507      1.697054      0.347122
     12.25020      0.79455     18.06900         2.614434      2.416859     -0.434555
     12.30080      2.20672     18.02390         0.245539     -2.338823      0.334761
     13.53620      0.18189     18.22030        -0.953536     -0.811168      0.248169
     13.52580      2.85260     18.25780         1.049525     -1.313300      0.507721
     14.78720      0.82526     18.22470         0.584224      0.848567     -0.653001
     14.79110      2.19847     18.29160         0.304866      0.069929     -0.422859
     16.04200      0.17720     18.04500        -1.139159      0.263381      0.674164
     16.06150      2.87413     18.26300        -0.837240     -0.590418      0.607885
     17.28190      0.87478     17.89860        -1.712795     -2.231507     -0.716230
     17.27340      2.21174     17.99520         0.503370      0.964705     -0.032150
     18.39400      0.19322     17.42490         1.189091     -1.015553     -0.993887
     18.49950      2.84974     17.68990        -0.448437     -0.755319      0.214549
     19.59330      0.81280     16.96890        -0.386519      0.055693      0.632172
     19.66300      2.16662     17.20710        -1.335447      0.795036     -0.692219
     20.73310      0.15493     16.45080        -0.078371      0.387065      0.349586
     20.73900      2.87351     16.69400         2.581855     -0.045639     -0.018287
     21.92110      0.85668     16.07420        -1.496509     -1.207222     -0.176351
     21.90790      2.19437     16.13630         0.432374      3.140241      0.920891
     23.10520      0.24033     15.70310         1.322674     -2.017971     -0.198303
     23.17690      2.87636     15.87980        -3.194751      0.109432     -0.160012
     24.30700      0.88336     15.35250         0.775330     -0.401157      0.085914
     24.31680      2.24370     15.47190         2.778938     -0.351179     -1.961873
     25.56540      0.20325     15.12620         0.661588      1.931513      0.983309
     25.56840      2.92762     15.09590        -0.932552     -0.905180      2.585822
     26.81100      0.89209     15.13450        -2.626142     -0.195749     -0.937983
     26.80850      2.26919     15.08530        -1.339876      0.141175     -0.828209
      0.17666      4.89460     15.26670         1.577481      0.835193      1.881435
      0.14343      6.27715     15.39310         4.525402      0.175298     -0.822392
      1.35008      4.23625     15.52130         2.708734      2.159964     -0.309162
      1.39358      6.93921     15.43210        -0.990713     -0.478301      0.406555
      2.65677      4.87084     15.81010        -3.256627      1.563603      0.353758
      2.59426      6.25797     15.78050         1.363162     -0.046018     -0.068969
      3.83841      4.21136     16.11380        -0.002637      0.249168     -0.566691
      3.85038      6.93982     15.97400        -0.357557     -1.365546      0.034756
      5.02383      4.90224     16.47500        -0.111463     -1.745247     -0.180037
      5.03091      6.26646     16.40770        -0.096437      0.183113      0.186899
      6.24076      4.19204     16.68040         1.015210      1.580086      0.045480
      6.26871      6.87896     16.69380        -1.237702      2.650342     -0.944890
      7.48043      4.84684     16.98340        -1.642526      0.590829      0.559348
      7.42750      6.22174     17.05710         2.203167      0.711046      1.037335
      8.66460      4.18949     17.31880         0.773869      2.195986      0.494069
      8.64517      6.94634     17.45570        -1.143008     -1.827608     -1.144325
      9.80665      4.88520     17.83960         0.964158     -1.197200      0.461664
      9.82522      6.26967     17.86720        -1.196377     -1.298880     -0.243772
     11.04010      4.18379     18.18280        -0.728808      0.916190     -1.200401
     11.05300      6.87140     18.07270         1.098839      0.712836      0.368300
     12.29520      4.82399     18.44910        -1.270972      0.467377     -0.171134
     12.29690      6.19247     18.36100        -0.453507      2.177255      0.123648
     13.53290      4.17627     18.51250        -0.196994      1.148243      0.374785
     13.53090      6.93046     18.41100         0.694832     -2.787508     -0.205907
     14.75320      4.87596     18.62330         2.769900     -3.392259     -0.342600
     14.80870      6.17582     18.47900        -1.286448      6.106969     -0.898811
     16.08700      4.22963     18.45580        -2.628680     -0.032446     -0.213310
     16.01530      6.90976     18.12100         0.920549     -1.350144      1.405056
     17.26380      4.87143     18.11630         0.970124      1.873760      0.331962
     17.30450      6.28679     18.03390        -2.577895     -2.208324     -1.087942
     18.42880      4.20280     17.72350         2.690151      1.552173     -0.037913
     18.36010      6.89690     17.39150         2.500290      1.242721      0.989027
     19.65920      4.91287     17.33820        -1.021105     -1.238101     -0.119734
     19.62820      6.25553     17.13900        -0.799753      0.534772     -0.555644
     20.80850      4.25171     16.86490         0.806556     -0.591222     -0.478917
     20.77920      6.87827     16.55880        -1.714636      1.798062      0.305037
     21.99710      4.90815     16.38840        -1.016019      0.145085     -0.753923
     21.95880      6.28818     16.19520         2.123433     -1.733649      0.707519
     23.12570      4.24858     15.87780         0.525095      0.230976      1.474617
     23.19460      6.95380     15.83750        -2.724708      0.946395     -0.070190
     24.34750      4.92098     15.67210        -0.935325      1.329437      0.016298
     24.39390      6.31297     15.63620        -0.223458     -1.387137     -0.147442
     25.51560      4.26357     15.43850         3.905274     -0.784246     -1.543337
     25.59450      6.96014     15.31910         0.114593     -0.606885      0.224011
     26.78320      4.89686     15.36540        -3.617034      0.304821     -0.071462
     26.78250      6.26978     15.33250        -2.404233      0.107003      0.174260
 -----------------------------------------------------------------------------------
    total drift:                                0.001939      0.125851     -0.019587


--------------------------------------------------------------------------------------------------------



  FREE ENERGIE OF THE ION-ELECTRON SYSTEM (eV)
  ---------------------------------------------------
  free  energy   TOTEN  =      -828.66373855 eV

  energy  without entropy=     -828.57888725  energy(sigma->0) =     -828.62131290
 


--------------------------------------------------------------------------------------------------------


    POTLOK:  cpu time      0.4530: real time      0.4529


--------------------------------------------------------------------------------------------------------


     LOOP+:  cpu time    333.4315: real time    333.6330
    4ORBIT:  cpu time      0.0000: real time      0.0000

 total amount of memory used by VASP MPI-rank0  2294514. kBytes
=======================================================================

   base                                    :      30000. kBytes
   nonlr-proj                              :      15080. kBytes
   fftplans                                :     436558. kBytes
   grid                                    :     732614. kBytes
   one-center                              :        282. kBytes
   wavefun                                 :    1079980. kBytes
 
  
  
 General timing and accounting informations for this job:
 ========================================================
  
                  Total CPU time used (sec):      366.576
                            User time (sec):      358.219
                          System time (sec):        8.356
                         Elapsed time (sec):      366.893
  
                   Maximum memory used (kb):     3732844.
                   Average memory used (kb):          N/A
  
                          Minor page faults:      3178723
                          Major page faults:         4992
                 Voluntary context switches:        10129
