<?xml version="1.0" encoding="ISO-8859-1"?>
<modeling>
 <generator>
  <i name="program" type="string">vasp </i>
  <i name="version" type="string">6.5.0  </i>
  <i name="subversion" type="string">16Dec24 (build Feb 19 2025 19:45:31) complex                          parallel </i>
  <i name="platform" type="string">LinuxNV </i>
  <i name="date" type="string">2025 10 25 </i>
  <i name="time" type="string">11:20:34 </i>
 </generator>
 <incar>
  <i type="int" name="ISTART">     0</i>
  <i type="string" name="PREC">Accurate   (Precision level)</i>
  <i type="string" name="ALGO">Normal</i>
  <i type="int" name="ISPIN">     1</i>
  <i type="int" name="ICHARG">     2</i>
  <i type="int" name="NELM">   150</i>
  <i type="int" name="IBRION">    -1</i>
  <i name="EDIFF">      0.00000100</i>
  <i type="int" name="NSW">     0</i>
  <i name="ENCUT">    500.00000000</i>
  <i type="string" name="LREAL">Auto         (Projection operators: automatic)</i>
  <i type="int" name="ISMEAR">     0</i>
  <i type="logical" name="KGAMMA"> T  </i>
  <i type="logical" name="LWAVE"> F  </i>
  <i type="logical" name="LCHARG"> F  </i>
 </incar>
 <primitive_cell>
  <structure name="primitive_cell" >
   <crystal>
    <varray name="basis" >
     <v>      28.05000000       0.00000000       0.00000000 </v>
     <v>       0.00000000       8.10000000       0.00000000 </v>
     <v>       0.00000000       0.00000000      33.50000000 </v>
    </varray>
    <i name="volume">   7611.36750000 </i>
    <varray name="rec_basis" >
     <v>       0.03565062       0.00000000       0.00000000 </v>
     <v>       0.00000000       0.12345679       0.00000000 </v>
     <v>       0.00000000       0.00000000       0.02985075 </v>
    </varray>
   </crystal>
   <varray name="positions" >
    <v>       0.00751276       0.10784753       0.44815821 </v>
    <v>       0.00988952       0.27910247       0.44648955 </v>
    <v>       0.05161105       0.02449086       0.45370746 </v>
    <v>       0.05220392       0.36500247       0.45377910 </v>
    <v>       0.09781355       0.10189049       0.45815224 </v>
    <v>       0.09696720       0.27337901       0.45943284 </v>
    <v>       0.13961390       0.02140951       0.46902687 </v>
    <v>       0.13745383       0.35329012       0.47236418 </v>
    <v>       0.18253298       0.10708148       0.47960597 </v>
    <v>       0.18205989       0.27399753       0.47945373 </v>
    <v>       0.22444528       0.02362358       0.49201493 </v>
    <v>       0.22526560       0.35136173       0.49224179 </v>
    <v>       0.26709554       0.10454593       0.49850149 </v>
    <v>       0.26865312       0.27283086       0.49759104 </v>
    <v>       0.31050018       0.02215099       0.51273731 </v>
    <v>       0.31072299       0.35349630       0.51122985 </v>
    <v>       0.35089519       0.09997691       0.52380896 </v>
    <v>       0.35294902       0.27271605       0.52201791 </v>
    <v>       0.39387522       0.01888025       0.53427164 </v>
    <v>       0.39486631       0.34945185       0.53416119 </v>
    <v>       0.43672727       0.09809272       0.53937313 </v>
    <v>       0.43853119       0.27243457       0.53802687 </v>
    <v>       0.48257398       0.02245494       0.54388955 </v>
    <v>       0.48220321       0.35217284       0.54500896 </v>
    <v>       0.52717291       0.10188383       0.54402090 </v>
    <v>       0.52731194       0.27141605       0.54601791 </v>
    <v>       0.57190731       0.02187679       0.53865672 </v>
    <v>       0.57260250       0.35483086       0.54516418 </v>
    <v>       0.61611052       0.10799716       0.53428657 </v>
    <v>       0.61580749       0.27305432       0.53717015 </v>
    <v>       0.65575758       0.02385457       0.52014627 </v>
    <v>       0.65951872       0.35181975       0.52805672 </v>
    <v>       0.69851337       0.10034580       0.50653433 </v>
    <v>       0.70099822       0.26748395       0.51364478 </v>
    <v>       0.73914795       0.01912753       0.49106866 </v>
    <v>       0.73935829       0.35475432       0.49832836 </v>
    <v>       0.78150089       0.10576259       0.47982687 </v>
    <v>       0.78103030       0.27090988       0.48168060 </v>
    <v>       0.82371480       0.02967099       0.46874925 </v>
    <v>       0.82627094       0.35510617       0.47402388 </v>
    <v>       0.86655971       0.10905716       0.45828358 </v>
    <v>       0.86690909       0.27700000       0.46184776 </v>
    <v>       0.91142246       0.02509210       0.45152836 </v>
    <v>       0.91152941       0.36143457       0.45062388 </v>
    <v>       0.95582888       0.11013407       0.45177612 </v>
    <v>       0.95573975       0.28014691       0.45030746 </v>
    <v>       0.00629811       0.60427160       0.45572239 </v>
    <v>       0.00511323       0.77495679       0.45949552 </v>
    <v>       0.04813119       0.52299383       0.46332239 </v>
    <v>       0.04968200       0.85669259       0.46065970 </v>
    <v>       0.09471551       0.60133827       0.47194328 </v>
    <v>       0.09248699       0.77258889       0.47105970 </v>
    <v>       0.13684171       0.51992099       0.48100896 </v>
    <v>       0.13726845       0.85676790       0.47683582 </v>
    <v>       0.17910267       0.60521481       0.49179104 </v>
    <v>       0.17935508       0.77363704       0.48978209 </v>
    <v>       0.22248699       0.51753580       0.49792239 </v>
    <v>       0.22348342       0.84925432       0.49832239 </v>
    <v>       0.26668200       0.59837531       0.50696716 </v>
    <v>       0.26479501       0.76811605       0.50916716 </v>
    <v>       0.30889840       0.51722099       0.51697910 </v>
    <v>       0.30820570       0.85757284       0.52106567 </v>
    <v>       0.34961319       0.60311111       0.53252537 </v>
    <v>       0.35027522       0.77403333       0.53334925 </v>
    <v>       0.39358645       0.51651728       0.54277015 </v>
    <v>       0.39404635       0.84832099       0.53948358 </v>
    <v>       0.43833155       0.59555432       0.55071940 </v>
    <v>       0.43839216       0.76450247       0.54808955 </v>
    <v>       0.48245633       0.51558889       0.55261194 </v>
    <v>       0.48238503       0.85561235       0.54958209 </v>
    <v>       0.52596078       0.60197037       0.55591940 </v>
    <v>       0.52793939       0.76244691       0.55161194 </v>
    <v>       0.57351159       0.52217654       0.55091940 </v>
    <v>       0.57095544       0.85305679       0.54092537 </v>
    <v>       0.61546524       0.60141111       0.54078507 </v>
    <v>       0.61691622       0.77614691       0.53832537 </v>
    <v>       0.65699822       0.51886420       0.52905970 </v>
    <v>       0.65454902       0.85146914       0.51914925 </v>
    <v>       0.70086275       0.60652716       0.51755821 </v>
    <v>       0.69975758       0.77228765       0.51161194 </v>
    <v>       0.74183601       0.52490247       0.50342985 </v>
    <v>       0.74079144       0.84916914       0.49429254 </v>
    <v>       0.78421034       0.60594444       0.48920597 </v>
    <v>       0.78284492       0.77631852       0.48343881 </v>
    <v>       0.82444563       0.52451605       0.47396418 </v>
    <v>       0.82690196       0.85849383       0.47276119 </v>
    <v>       0.86800357       0.60752840       0.46782388 </v>
    <v>       0.86965775       0.77937901       0.46675224 </v>
    <v>       0.90964706       0.52636667       0.46085075 </v>
    <v>       0.91245989       0.85927654       0.45728657 </v>
    <v>       0.95483779       0.60455062       0.45866866 </v>
    <v>       0.95481283       0.77404691       0.45768657 </v>
   </varray>
  </structure>
  <varray name="primitive_index" >
   <v type="int" >        1 </v>
   <v type="int" >        2 </v>
   <v type="int" >        3 </v>
   <v type="int" >        4 </v>
   <v type="int" >        5 </v>
   <v type="int" >        6 </v>
   <v type="int" >        7 </v>
   <v type="int" >        8 </v>
   <v type="int" >        9 </v>
   <v type="int" >       10 </v>
   <v type="int" >       11 </v>
   <v type="int" >       12 </v>
   <v type="int" >       13 </v>
   <v type="int" >       14 </v>
   <v type="int" >       15 </v>
   <v type="int" >       16 </v>
   <v type="int" >       17 </v>
   <v type="int" >       18 </v>
   <v type="int" >       19 </v>
   <v type="int" >       20 </v>
   <v type="int" >       21 </v>
   <v type="int" >       22 </v>
   <v type="int" >       23 </v>
   <v type="int" >       24 </v>
   <v type="int" >       25 </v>
   <v type="int" >       26 </v>
   <v type="int" >       27 </v>
   <v type="int" >       28 </v>
   <v type="int" >       29 </v>
   <v type="int" >       30 </v>
   <v type="int" >       31 </v>
   <v type="int" >       32 </v>
   <v type="int" >       33 </v>
   <v type="int" >       34 </v>
   <v type="int" >       35 </v>
   <v type="int" >       36 </v>
   <v type="int" >       37 </v>
   <v type="int" >       38 </v>
   <v type="int" >       39 </v>
   <v type="int" >       40 </v>
   <v type="int" >       41 </v>
   <v type="int" >       42 </v>
   <v type="int" >       43 </v>
   <v type="int" >       44 </v>
   <v type="int" >       45 </v>
   <v type="int" >       46 </v>
   <v type="int" >       47 </v>
   <v type="int" >       48 </v>
   <v type="int" >       49 </v>
   <v type="int" >       50 </v>
   <v type="int" >       51 </v>
   <v type="int" >       52 </v>
   <v type="int" >       53 </v>
   <v type="int" >       54 </v>
   <v type="int" >       55 </v>
   <v type="int" >       56 </v>
   <v type="int" >       57 </v>
   <v type="int" >       58 </v>
   <v type="int" >       59 </v>
   <v type="int" >       60 </v>
   <v type="int" >       61 </v>
   <v type="int" >       62 </v>
   <v type="int" >       63 </v>
   <v type="int" >       64 </v>
   <v type="int" >       65 </v>
   <v type="int" >       66 </v>
   <v type="int" >       67 </v>
   <v type="int" >       68 </v>
   <v type="int" >       69 </v>
   <v type="int" >       70 </v>
   <v type="int" >       71 </v>
   <v type="int" >       72 </v>
   <v type="int" >       73 </v>
   <v type="int" >       74 </v>
   <v type="int" >       75 </v>
   <v type="int" >       76 </v>
   <v type="int" >       77 </v>
   <v type="int" >       78 </v>
   <v type="int" >       79 </v>
   <v type="int" >       80 </v>
   <v type="int" >       81 </v>
   <v type="int" >       82 </v>
   <v type="int" >       83 </v>
   <v type="int" >       84 </v>
   <v type="int" >       85 </v>
   <v type="int" >       86 </v>
   <v type="int" >       87 </v>
   <v type="int" >       88 </v>
   <v type="int" >       89 </v>
   <v type="int" >       90 </v>
   <v type="int" >       91 </v>
   <v type="int" >       92 </v>
  </varray>
 </primitive_cell>
 <kpoints>
  <generation param="Gamma">
   <v type="int" name="divisions">       1        4        1 </v>
   <v name="usershift">      0.00000000       0.00000000       0.00000000 </v>
   <v name="genvec1">      1.00000000       0.00000000       0.00000000 </v>
   <v name="genvec2">      0.00000000       0.25000000       0.00000000 </v>
   <v name="genvec3">      0.00000000       0.00000000       1.00000000 </v>
   <v name="shift">      0.00000000       0.00000000       0.00000000 </v>
  </generation>
  <varray name="kpointlist" >
   <v>       0.00000000       0.00000000       0.00000000 </v>
   <v>       0.00000000       0.25000000       0.00000000 </v>
   <v>       0.00000000       0.50000000       0.00000000 </v>
  </varray>
  <varray name="weights" >
   <v>       0.25000000 </v>
   <v>       0.50000000 </v>
   <v>       0.25000000 </v>
  </varray>
 </kpoints>
 <parameters>
  <separator name="general" >
   <i type="string" name="SYSTEM">unknown system</i>
   <i type="logical" name="LCOMPAT"> F  </i>
  </separator>
  <separator name="electronic" >
   <i type="string" name="PREC">accura</i>
   <i name="ENMAX">    500.00000000</i>
   <i name="ENAUG">    644.87300000</i>
   <i name="EDIFF">      0.00000100</i>
   <i type="int" name="IALGO">    38</i>
   <i type="int" name="IWAVPR">    10</i>
   <i type="int" name="NBANDS">   232</i>
   <i type="int" name="NBANDSLOW">    -1</i>
   <i type="int" name="NBANDSHIGH">    -1</i>
   <i name="NELECT">    368.00000000</i>
   <i type="int" name="TURBO">     0</i>
   <i type="int" name="IRESTART">     0</i>
   <i type="int" name="NREBOOT">     0</i>
   <i type="int" name="NMIN">     0</i>
   <i name="EREF">      0.00000000</i>
   <separator name="electronic smearing" >
    <i type="int" name="ISMEAR">     0</i>
    <i name="SIGMA">      0.20000000</i>
    <i name="KSPACING">      0.50000000</i>
    <i type="logical" name="KGAMMA"> T  </i>
    <i type="logical" name="KBLOWUP"> T  </i>
   </separator>
   <separator name="electronic projectors" >
    <i type="logical" name="LREAL"> T  </i>
    <v name="ROPT">     -0.00025000</v>
    <i type="int" name="LMAXPAW">  -100</i>
    <i type="int" name="LMAXMIX">     2</i>
    <i type="logical" name="NLSPLINE"> F  </i>
   </separator>
   <separator name="electronic startup" >
    <i type="int" name="ISTART">     0</i>
    <i type="int" name="ICHARG">     2</i>
    <i type="int" name="INIWAV">     1</i>
   </separator>
   <separator name="electronic spin" >
    <i type="int" name="ISPIN">     1</i>
    <i type="logical" name="LNONCOLLINEAR"> F  </i>
    <v name="MAGMOM">      1.00000000      1.00000000      1.00000000      1.00000000      1.00000000      1.00000000      1.00000000      1.00000000      1.00000000      1.00000000      1.00000000      1.00000000      1.00000000      1.00000000      1.00000000      1.00000000      1.00000000      1.00000000      1.00000000      1.00000000
      1.00000000      1.00000000      1.00000000      1.00000000      1.00000000      1.00000000      1.00000000      1.00000000      1.00000000      1.00000000      1.00000000      1.00000000      1.00000000      1.00000000      1.00000000      1.00000000      1.00000000      1.00000000      1.00000000      1.00000000
      1.00000000      1.00000000      1.00000000      1.00000000      1.00000000      1.00000000      1.00000000      1.00000000      1.00000000      1.00000000      1.00000000      1.00000000      1.00000000      1.00000000      1.00000000      1.00000000      1.00000000      1.00000000      1.00000000      1.00000000
      1.00000000      1.00000000      1.00000000      1.00000000      1.00000000      1.00000000      1.00000000      1.00000000      1.00000000      1.00000000      1.00000000      1.00000000      1.00000000      1.00000000      1.00000000      1.00000000      1.00000000      1.00000000      1.00000000      1.00000000
      1.00000000      1.00000000      1.00000000      1.00000000      1.00000000      1.00000000      1.00000000      1.00000000      1.00000000      1.00000000      1.00000000      1.00000000</v>
    <i name="NUPDOWN">     -1.00000000</i>
    <i type="logical" name="LSORBIT"> F  </i>
    <v name="SAXIS">      0.00000000      0.00000000      1.00000000</v>
    <i type="logical" name="LSPIRAL"> F  </i>
    <v name="QSPIRAL">      0.00000000      0.00000000      0.00000000</v>
    <i type="logical" name="LZEROZ"> F  </i>
   </separator>
   <separator name="electronic exchange-correlation" >
    <i type="logical" name="LASPH"> F  </i>
   </separator>
   <separator name="electronic convergence" >
    <i type="int" name="NELM">   150</i>
    <i type="int" name="NELMDL">    -5</i>
    <i type="int" name="NELMIN">     2</i>
    <i name="ENINI">    500.00000000</i>
    <separator name="electronic convergence detail" >
     <i type="logical" name="LDIAG"> T  </i>
     <i type="logical" name="LSUBROT"> F  </i>
     <i name="WEIMIN">      0.00000000</i>
     <i name="EBREAK">      0.00000000</i>
     <i name="DEPER">      0.30000000</i>
     <i type="int" name="NRMM">     4</i>
     <i name="TIME">      0.40000000</i>
    </separator>
   </separator>
   <separator name="electronic mixer" >
    <i name="AMIX">      0.40000000</i>
    <i name="BMIX">      1.00000000</i>
    <i name="AMIN">      0.10000000</i>
    <i name="AMIX_MAG">      1.60000000</i>
    <i name="BMIX_MAG">      1.00000000</i>
    <separator name="electronic mixer details" >
     <i type="int" name="IMIX">     4</i>
     <i type="logical" name="MIXFIRST"> F  </i>
     <i type="int" name="MAXMIX">   -45</i>
     <i name="WC">    100.00000000</i>
     <i type="int" name="INIMIX">     1</i>
     <i type="int" name="MIXPRE">     1</i>
     <i type="int" name="MREMOVE">     5</i>
    </separator>
   </separator>
   <separator name="electronic dipolcorrection" >
    <i type="logical" name="LDIPOL"> F  </i>
    <i type="logical" name="LMONO"> F  </i>
    <i type="int" name="IDIPOL">     0</i>
    <i name="EPSILON">      1.00000000</i>
    <v name="DIPOL">   -100.00000000   -100.00000000   -100.00000000</v>
    <i name="EFIELD">      0.00000000</i>
    <i type="logical" name="LVACPOTAV"> F  </i>
   </separator>
  </separator>
  <separator name="grids" >
   <i type="int" name="NGX">   210</i>
   <i type="int" name="NGY">    60</i>
   <i type="int" name="NGZ">   250</i>
   <i type="int" name="NGXF">   420</i>
   <i type="int" name="NGYF">   120</i>
   <i type="int" name="NGZF">   500</i>
   <i type="logical" name="ADDGRID"> F  </i>
  </separator>
  <separator name="ionic" >
   <i type="int" name="NSW">     0</i>
   <i type="int" name="IBRION">    -1</i>
   <i type="int" name="MDALGO">     0</i>
   <i type="int" name="ISIF">     2</i>
   <i name="PSTRESS">      0.00000000</i>
   <i name="EDIFFG">      0.00001000</i>
   <i type="int" name="NFREE">     0</i>
   <i name="POTIM">      0.50000000</i>
   <i name="SMASS">     -3.00000000</i>
   <i name="SCALEE">      1.00000000</i>
  </separator>
  <separator name="ionic md" >
   <i name="TEBEG">      0.00010000</i>
   <i name="TEEND">      0.00010000</i>
   <i type="int" name="NBLOCK">     1</i>
   <i type="int" name="KBLOCK">     1</i>
   <i type="int" name="NPACO">   256</i>
   <i name="APACO">     10.00000000</i>
  </separator>
  <separator name="symmetry" >
   <i type="int" name="ISYM">     2</i>
   <i name="SYMPREC">      0.00001000</i>
  </separator>
  <separator name="dos" >
   <i type="int" name="LORBIT">     0</i>
   <v name="RWIGS">     -1.00000000</v>
   <i type="int" name="NEDOS">   301</i>
   <i name="EMIN">     10.00000000</i>
   <i name="EMAX">    -10.00000000</i>
   <i name="EFERMI">      0.00000000</i>
  </separator>
  <separator name="writing" >
   <i type="int" name="NWRITE">     2</i>
   <i type="logical" name="LWAVE"> F  </i>
   <i type="logical" name="LDOWNSAMPLE"> F  </i>
   <i type="logical" name="LCHARG"> F  </i>
   <i type="logical" name="LPARD"> F  </i>
   <i type="logical" name="LVTOT"> F  </i>
   <i type="logical" name="LVHAR"> F  </i>
   <i type="logical" name="LELF"> F  </i>
   <i type="logical" name="LOPTICS"> F  </i>
   <v name="STM">      0.00000000      0.00000000      0.00000000      0.00000000      0.00000000      0.00000000      0.00000000</v>
  </separator>
  <separator name="performance" >
   <i type="int" name="NPAR">     2</i>
   <i type="int" name="NSIM">     4</i>
   <i type="int" name="NBLK">    -1</i>
   <i type="logical" name="LPLANE"> T  </i>
   <i type="logical" name="LSCALAPACK"> T  </i>
   <i type="logical" name="LSCAAWARE"> F  </i>
   <i type="logical" name="LSCALU"> F  </i>
   <i type="logical" name="LASYNC"> F  </i>
   <i type="logical" name="LORBITALREAL"> F  </i>
  </separator>
  <separator name="miscellaneous" >
   <i type="int" name="IDIOT">     3</i>
   <i type="int" name="PHON_NSTRUCT">    -1</i>
   <i type="logical" name="LMUSIC"> F  </i>
   <v name="POMASS">     12.01100000</v>
   <v name="DARWINR">      0.00000000</v>
   <v name="DARWINV">      1.00000000</v>
   <i type="logical" name="LCORR"> T  </i>
  </separator>
  <i type="logical" name="GGA_COMPAT"> T  </i>
  <i type="logical" name="LBERRY"> F  </i>
  <i type="int" name="ICORELEVEL">     0</i>
  <i type="logical" name="LDAU"> F  </i>
  <i type="int" name="I_CONSTRAINED_M">     0</i>
  <separator name="electronic exchange-correlation" >
   <i type="string" name="GGA    ">PE</i>
   <i type="string" name="XC_C">1</i>
   <i type="int" name="VOSKOWN">     0</i>
   <i type="logical" name="LHFCALC"> F  </i>
   <i type="string" name="PRECFOCK"></i>
   <i type="logical" name="LSYMGRAD"> F  </i>
   <i type="logical" name="LHFONE"> F  </i>
   <i type="logical" name="LRHFCALC"> F  </i>
   <i type="logical" name="LTHOMAS"> F  </i>
   <i type="logical" name="LMODELHF"> F  </i>
   <i type="logical" name="LFOCKACE"> F  </i>
   <i name="ENCUT4O">     -1.00000000</i>
   <i type="int" name="EXXOEP">     0</i>
   <i type="int" name="FOURORBIT">     0</i>
   <i name="AEXX">      0.00000000</i>
   <i name="HFALPHA">      0.00000000</i>
   <i name="MCALPHA">      0.00000000</i>
   <i name="ALDAX">      1.00000000</i>
   <i name="AGGAX">      1.00000000</i>
   <i name="AMGGAX">      1.00000000</i>
   <i name="ALDAC">      1.00000000</i>
   <i name="AGGAC">      1.00000000</i>
   <i name="AMGGAC">      1.00000000</i>
   <i type="int" name="NKREDX">     1</i>
   <i type="int" name="NKREDY">     1</i>
   <i type="int" name="NKREDZ">     1</i>
   <i type="logical" name="SHIFTRED"> F  </i>
   <i type="logical" name="ODDONLY"> F  </i>
   <i type="logical" name="EVENONLY"> F  </i>
   <i type="int" name="LMAXFOCK">     0</i>
   <i type="int" name="NMAXFOCKAE">     0</i>
   <i type="logical" name="LFOCKAEDFT"> F  </i>
   <i name="HFSCREEN">      0.00000000</i>
   <i name="HFSCREENC">      0.00000000</i>
   <i type="int" name="NBANDSGWLOW">     0</i>
  </separator>
  <separator name="vdW DFT" >
   <i type="logical" name="LUSE_VDW"> F  </i>
   <i type="int" name="IVDW_NL">    -1</i>
   <i type="logical" name="LSPIN_VDW"> F  </i>
   <i name="ZAB_VDW">     -0.84910000</i>
   <i name="GAMMA_VDW">      1.39626340</i>
   <i name="ALPHA_VDW">      0.00000000</i>
   <i name="PARAM1">      0.12340000</i>
   <i name="PARAM2">      1.00000000</i>
   <i name="BPARAM">      6.30000000</i>
   <i name="CPARAM">      0.00930000</i>
  </separator>
  <separator name="model GW" >
   <i type="int" name="MODEL_GW">     0</i>
   <i name="MODEL_EPS0">     49.63935326</i>
   <i name="MODEL_ALPHA">      1.00000000</i>
  </separator>
  <separator name="linear response parameters" >
   <i type="logical" name="LEPSILON"> F  </i>
   <i type="logical" name="LRPA"> F  </i>
   <i type="logical" name="LNABLA"> F  </i>
   <i type="logical" name="LVEL"> F  </i>
   <i name="CSHIFT">      0.10000000</i>
   <i name="OMEGAMAX">     -1.00000000</i>
   <i name="DEG_THRESHOLD">      0.00200000</i>
   <i name="RTIME">     -0.10000000</i>
   <i name="WPLASMAI">      0.00000000</i>
   <v name="DFIELD">      0.00000000      0.00000000      0.00000000</v>
   <v name="WPLASMA">      0.00000000      0.00000000      0.00000000      0.00000000      0.00000000      0.00000000      0.00000000      0.00000000      0.00000000</v>
  </separator>
  <separator name="orbital magnetization" >
   <i type="logical" name="NUCIND"> F  </i>
   <v name="MAGPOS">      0.00000000      0.00000000      0.00000000</v>
   <i type="logical" name="LNICSALL"> T  </i>
   <i type="logical" name="ORBITALMAG"> F  </i>
   <i type="logical" name="LMAGBLOCH"> F  </i>
   <i type="logical" name="LCHIMAG"> F  </i>
   <i type="logical" name="LGAUGE"> T  </i>
   <i type="int" name="MAGATOM">     0</i>
   <v name="MAGDIPOL">      0.00000000      0.00000000      0.00000000</v>
   <v name="AVECCONST">      0.00000000      0.00000000      0.00000000</v>
  </separator>
  <separator name="response functions" >
   <i type="logical" name="LALL_IN_ONE"> F  </i>
   <i type="int" name="IALL_IN_ONE">    -1</i>
   <i type="int" name="NBANDS_WAVE">    -1</i>
   <i type="logical" name="LFINITE_TEMPERATURE"> F  </i>
   <i type="logical" name="LADDER"> F  </i>
   <i type="logical" name="LRPAFORCE"> F  </i>
   <i type="logical" name="LFXC"> F  </i>
   <i type="logical" name="LHARTREE"> T  </i>
   <i type="int" name="IBSE">     2</i>
   <v type="int" name="KPOINT">    -1     0     0     0</v>
   <i type="logical" name="LTCTC"> F  </i>
   <i type="logical" name="LTCTE"> F  </i>
   <i type="logical" name="LTETE"> F  </i>
   <i type="logical" name="LTRIPLET"> F  </i>
   <i type="logical" name="LFXCEPS"> F  </i>
   <i type="logical" name="LFXHEG"> F  </i>
   <i type="int" name="NATURALO">     2</i>
   <i type="logical" name="LHOLEGF"> F  </i>
   <i type="logical" name="L2ORDER"> F  </i>
   <i type="logical" name="LDMP1"> F  </i>
   <i type="logical" name="LMP2LT"> F  </i>
   <i type="logical" name="LSMP2LT"> F  </i>
   <i type="logical" name="LGWLF"> F  </i>
   <i name="ENCUTGW">     -1.60000002</i>
   <i name="ENCUTGWSOFT">     -1.60000002</i>
   <i name="ENCUTLF">     -1.00000000</i>
   <i type="logical" name="ESF_SPLINES"> F  </i>
   <i name="ESF_CONV">      0.01000000</i>
   <i type="int" name="ESF_NINTER">    15</i>
   <i type="int" name="LMAXMP2">    -1</i>
   <i name="SCISSOR">      0.00000000</i>
   <i type="int" name="NOMEGA">     0</i>
   <i type="int" name="NOMEGAR">     0</i>
   <i type="int" name="NBANDSGW">    -1</i>
   <i type="int" name="NBANDSO">    -1</i>
   <i type="int" name="NBANDSV">    -1</i>
   <i type="int" name="NELMGW">     1</i>
   <i type="int" name="NELMHF">     1</i>
   <i type="int" name="DIM">     3</i>
   <i type="int" name="IESPILON">     4</i>
   <i type="int" name="ANTIRES">     0</i>
   <i name="OMEGAMAX">    -30.00000000</i>
   <i name="OMEGAMIN">    -30.00000000</i>
   <i name="OMEGATL">   -200.00000000</i>
   <i type="int" name="OMEGAGRID">     0</i>
   <i name="CSHIFT">     -0.10000000</i>
   <i type="logical" name="LSELFENERGY"> F  </i>
   <i type="logical" name="LSPECTRAL"> F  </i>
   <i type="logical" name="LSPECTRALGW"> F  </i>
   <i type="logical" name="LSINGLES"> F  </i>
   <i type="logical" name="LFERMIGW"> F  </i>
   <i type="logical" name="ODDONLYGW"> F  </i>
   <i type="logical" name="EVENONLYGW"> F  </i>
   <i type="int" name="NKREDLFX">     1</i>
   <i type="int" name="NKREDLFY">     1</i>
   <i type="int" name="NKREDLFZ">     1</i>
   <i type="int" name="MAXMEM">  2800</i>
   <i type="int" name="TELESCOPE">     0</i>
   <i type="int" name="NTAUPAR">    -1</i>
   <i type="int" name="NOMEGAPAR">    -1</i>
   <i name="DAMP_NEWTON">      0.80000001</i>
   <i name="LAMBDA">      1.00000000</i>
  </separator>
  <separator name="External order field" >
   <i name="OFIELD_KAPPA">      0.00000000</i>
   <v name="OFIELD_K">      0.00000000      0.00000000      0.00000000</v>
   <i name="OFIELD_Q6_NEAR">      0.00000000</i>
   <i name="OFIELD_Q6_FAR">      0.00000000</i>
   <i name="OFIELD_A">      0.00000000</i>
  </separator>
  <separator name="optional k-points parameters" >
   <i type="int" name="KPOINTS_OPT_MODE">     1</i>
   <i type="logical" name="LKPOINTS_OPT"> F  </i>
  </separator>
 </parameters>
 <atominfo>
  <atoms>      92 </atoms>
  <types>       1 </types>
  <array name="atoms" >
   <dimension dim="1">ion</dimension>
   <field type="string">element</field>
   <field type="int">atomtype</field>
   <set>
    <rc><c>C </c><c>   1</c></rc>
    <rc><c>C </c><c>   1</c></rc>
    <rc><c>C </c><c>   1</c></rc>
    <rc><c>C </c><c>   1</c></rc>
    <rc><c>C </c><c>   1</c></rc>
    <rc><c>C </c><c>   1</c></rc>
    <rc><c>C </c><c>   1</c></rc>
    <rc><c>C </c><c>   1</c></rc>
    <rc><c>C </c><c>   1</c></rc>
    <rc><c>C </c><c>   1</c></rc>
    <rc><c>C </c><c>   1</c></rc>
    <rc><c>C </c><c>   1</c></rc>
    <rc><c>C </c><c>   1</c></rc>
    <rc><c>C </c><c>   1</c></rc>
    <rc><c>C </c><c>   1</c></rc>
    <rc><c>C </c><c>   1</c></rc>
    <rc><c>C </c><c>   1</c></rc>
    <rc><c>C </c><c>   1</c></rc>
    <rc><c>C </c><c>   1</c></rc>
    <rc><c>C </c><c>   1</c></rc>
    <rc><c>C </c><c>   1</c></rc>
    <rc><c>C </c><c>   1</c></rc>
    <rc><c>C </c><c>   1</c></rc>
    <rc><c>C </c><c>   1</c></rc>
    <rc><c>C </c><c>   1</c></rc>
    <rc><c>C </c><c>   1</c></rc>
    <rc><c>C </c><c>   1</c></rc>
    <rc><c>C </c><c>   1</c></rc>
    <rc><c>C </c><c>   1</c></rc>
    <rc><c>C </c><c>   1</c></rc>
    <rc><c>C </c><c>   1</c></rc>
    <rc><c>C </c><c>   1</c></rc>
    <rc><c>C </c><c>   1</c></rc>
    <rc><c>C </c><c>   1</c></rc>
    <rc><c>C </c><c>   1</c></rc>
    <rc><c>C </c><c>   1</c></rc>
    <rc><c>C </c><c>   1</c></rc>
    <rc><c>C </c><c>   1</c></rc>
    <rc><c>C </c><c>   1</c></rc>
    <rc><c>C </c><c>   1</c></rc>
    <rc><c>C </c><c>   1</c></rc>
    <rc><c>C </c><c>   1</c></rc>
    <rc><c>C </c><c>   1</c></rc>
    <rc><c>C </c><c>   1</c></rc>
    <rc><c>C </c><c>   1</c></rc>
    <rc><c>C </c><c>   1</c></rc>
    <rc><c>C </c><c>   1</c></rc>
    <rc><c>C </c><c>   1</c></rc>
    <rc><c>C </c><c>   1</c></rc>
    <rc><c>C </c><c>   1</c></rc>
    <rc><c>C </c><c>   1</c></rc>
    <rc><c>C </c><c>   1</c></rc>
    <rc><c>C </c><c>   1</c></rc>
    <rc><c>C </c><c>   1</c></rc>
    <rc><c>C </c><c>   1</c></rc>
    <rc><c>C </c><c>   1</c></rc>
    <rc><c>C </c><c>   1</c></rc>
    <rc><c>C </c><c>   1</c></rc>
    <rc><c>C </c><c>   1</c></rc>
    <rc><c>C </c><c>   1</c></rc>
    <rc><c>C </c><c>   1</c></rc>
    <rc><c>C </c><c>   1</c></rc>
    <rc><c>C </c><c>   1</c></rc>
    <rc><c>C </c><c>   1</c></rc>
    <rc><c>C </c><c>   1</c></rc>
    <rc><c>C </c><c>   1</c></rc>
    <rc><c>C </c><c>   1</c></rc>
    <rc><c>C </c><c>   1</c></rc>
    <rc><c>C </c><c>   1</c></rc>
    <rc><c>C </c><c>   1</c></rc>
    <rc><c>C </c><c>   1</c></rc>
    <rc><c>C </c><c>   1</c></rc>
    <rc><c>C </c><c>   1</c></rc>
    <rc><c>C </c><c>   1</c></rc>
    <rc><c>C </c><c>   1</c></rc>
    <rc><c>C </c><c>   1</c></rc>
    <rc><c>C </c><c>   1</c></rc>
    <rc><c>C </c><c>   1</c></rc>
    <rc><c>C </c><c>   1</c></rc>
    <rc><c>C </c><c>   1</c></rc>
    <rc><c>C </c><c>   1</c></rc>
    <rc><c>C </c><c>   1</c></rc>
    <rc><c>C </c><c>   1</c></rc>
    <rc><c>C </c><c>   1</c></rc>
    <rc><c>C </c><c>   1</c></rc>
    <rc><c>C </c><c>   1</c></rc>
    <rc><c>C </c><c>   1</c></rc>
    <rc><c>C </c><c>   1</c></rc>
    <rc><c>C </c><c>   1</c></rc>
    <rc><c>C </c><c>   1</c></rc>
    <rc><c>C </c><c>   1</c></rc>
    <rc><c>C </c><c>   1</c></rc>
   </set>
  </array>
  <array name="atomtypes" >
   <dimension dim="1">type</dimension>
   <field type="int">atomspertype</field>
   <field type="string">element</field>
   <field>mass</field>
   <field>valence</field>
   <field type="string">pseudopotential</field>
   <set>
    <rc><c>  92</c><c>C </c><c>     12.01100000</c><c>      4.00000000</c><c>  PAW_PBE C 08Apr2002                   </c></rc>
   </set>
  </array>
 </atominfo>
 <structure name="initialpos" >
  <crystal>
   <varray name="basis" >
    <v>      28.05000000       0.00000000       0.00000000 </v>
    <v>       0.00000000       8.10000000       0.00000000 </v>
    <v>       0.00000000       0.00000000      33.50000000 </v>
   </varray>
   <i name="volume">   7611.36750000 </i>
   <varray name="rec_basis" >
    <v>       0.03565062       0.00000000       0.00000000 </v>
    <v>       0.00000000       0.12345679       0.00000000 </v>
    <v>       0.00000000       0.00000000       0.02985075 </v>
   </varray>
  </crystal>
  <varray name="positions" >
   <v>       0.00751276       0.10784753       0.44815821 </v>
   <v>       0.00988952       0.27910247       0.44648955 </v>
   <v>       0.05161105       0.02449086       0.45370746 </v>
   <v>       0.05220392       0.36500247       0.45377910 </v>
   <v>       0.09781355       0.10189049       0.45815224 </v>
   <v>       0.09696720       0.27337901       0.45943284 </v>
   <v>       0.13961390       0.02140951       0.46902687 </v>
   <v>       0.13745383       0.35329012       0.47236418 </v>
   <v>       0.18253298       0.10708148       0.47960597 </v>
   <v>       0.18205989       0.27399753       0.47945373 </v>
   <v>       0.22444528       0.02362358       0.49201493 </v>
   <v>       0.22526560       0.35136173       0.49224179 </v>
   <v>       0.26709554       0.10454593       0.49850149 </v>
   <v>       0.26865312       0.27283086       0.49759104 </v>
   <v>       0.31050018       0.02215099       0.51273731 </v>
   <v>       0.31072299       0.35349630       0.51122985 </v>
   <v>       0.35089519       0.09997691       0.52380896 </v>
   <v>       0.35294902       0.27271605       0.52201791 </v>
   <v>       0.39387522       0.01888025       0.53427164 </v>
   <v>       0.39486631       0.34945185       0.53416119 </v>
   <v>       0.43672727       0.09809272       0.53937313 </v>
   <v>       0.43853119       0.27243457       0.53802687 </v>
   <v>       0.48257398       0.02245494       0.54388955 </v>
   <v>       0.48220321       0.35217284       0.54500896 </v>
   <v>       0.52717291       0.10188383       0.54402090 </v>
   <v>       0.52731194       0.27141605       0.54601791 </v>
   <v>       0.57190731       0.02187679       0.53865672 </v>
   <v>       0.57260250       0.35483086       0.54516418 </v>
   <v>       0.61611052       0.10799716       0.53428657 </v>
   <v>       0.61580749       0.27305432       0.53717015 </v>
   <v>       0.65575758       0.02385457       0.52014627 </v>
   <v>       0.65951872       0.35181975       0.52805672 </v>
   <v>       0.69851337       0.10034580       0.50653433 </v>
   <v>       0.70099822       0.26748395       0.51364478 </v>
   <v>       0.73914795       0.01912753       0.49106866 </v>
   <v>       0.73935829       0.35475432       0.49832836 </v>
   <v>       0.78150089       0.10576259       0.47982687 </v>
   <v>       0.78103030       0.27090988       0.48168060 </v>
   <v>       0.82371480       0.02967099       0.46874925 </v>
   <v>       0.82627094       0.35510617       0.47402388 </v>
   <v>       0.86655971       0.10905716       0.45828358 </v>
   <v>       0.86690909       0.27700000       0.46184776 </v>
   <v>       0.91142246       0.02509210       0.45152836 </v>
   <v>       0.91152941       0.36143457       0.45062388 </v>
   <v>       0.95582888       0.11013407       0.45177612 </v>
   <v>       0.95573975       0.28014691       0.45030746 </v>
   <v>       0.00629811       0.60427160       0.45572239 </v>
   <v>       0.00511323       0.77495679       0.45949552 </v>
   <v>       0.04813119       0.52299383       0.46332239 </v>
   <v>       0.04968200       0.85669259       0.46065970 </v>
   <v>       0.09471551       0.60133827       0.47194328 </v>
   <v>       0.09248699       0.77258889       0.47105970 </v>
   <v>       0.13684171       0.51992099       0.48100896 </v>
   <v>       0.13726845       0.85676790       0.47683582 </v>
   <v>       0.17910267       0.60521481       0.49179104 </v>
   <v>       0.17935508       0.77363704       0.48978209 </v>
   <v>       0.22248699       0.51753580       0.49792239 </v>
   <v>       0.22348342       0.84925432       0.49832239 </v>
   <v>       0.26668200       0.59837531       0.50696716 </v>
   <v>       0.26479501       0.76811605       0.50916716 </v>
   <v>       0.30889840       0.51722099       0.51697910 </v>
   <v>       0.30820570       0.85757284       0.52106567 </v>
   <v>       0.34961319       0.60311111       0.53252537 </v>
   <v>       0.35027522       0.77403333       0.53334925 </v>
   <v>       0.39358645       0.51651728       0.54277015 </v>
   <v>       0.39404635       0.84832099       0.53948358 </v>
   <v>       0.43833155       0.59555432       0.55071940 </v>
   <v>       0.43839216       0.76450247       0.54808955 </v>
   <v>       0.48245633       0.51558889       0.55261194 </v>
   <v>       0.48238503       0.85561235       0.54958209 </v>
   <v>       0.52596078       0.60197037       0.55591940 </v>
   <v>       0.52793939       0.76244691       0.55161194 </v>
   <v>       0.57351159       0.52217654       0.55091940 </v>
   <v>       0.57095544       0.85305679       0.54092537 </v>
   <v>       0.61546524       0.60141111       0.54078507 </v>
   <v>       0.61691622       0.77614691       0.53832537 </v>
   <v>       0.65699822       0.51886420       0.52905970 </v>
   <v>       0.65454902       0.85146914       0.51914925 </v>
   <v>       0.70086275       0.60652716       0.51755821 </v>
   <v>       0.69975758       0.77228765       0.51161194 </v>
   <v>       0.74183601       0.52490247       0.50342985 </v>
   <v>       0.74079144       0.84916914       0.49429254 </v>
   <v>       0.78421034       0.60594444       0.48920597 </v>
   <v>       0.78284492       0.77631852       0.48343881 </v>
   <v>       0.82444563       0.52451605       0.47396418 </v>
   <v>       0.82690196       0.85849383       0.47276119 </v>
   <v>       0.86800357       0.60752840       0.46782388 </v>
   <v>       0.86965775       0.77937901       0.46675224 </v>
   <v>       0.90964706       0.52636667       0.46085075 </v>
   <v>       0.91245989       0.85927654       0.45728657 </v>
   <v>       0.95483779       0.60455062       0.45866866 </v>
   <v>       0.95481283       0.77404691       0.45768657 </v>
  </varray>
 </structure>
 <calculation>
  <scstep>
   <time name="dav">   11.04   11.05</time>
   <time name="total">   11.50   11.54</time>
   <energy>
    <i name="alphaZ">     91.34886789 </i>
    <i name="ewald"> 119643.52568012 </i>
    <i name="hartreedc">-128961.36164318 </i>
    <i name="XCdc">   1221.93616112 </i>
    <i name="pawpsdc">   9984.02826696 </i>
    <i name="pawaedc"> -10036.41360137 </i>
    <i name="eentropy">     -0.84215265 </i>
    <i name="bandstr">  -1764.53653704 </i>
    <i name="atom">  13537.65479391 </i>
    <i name="e_fr_energy">   3715.33983576 </i>
    <i name="e_wo_entrp">   3716.18198841 </i>
    <i name="e_0_energy">   3715.76091208 </i>
   </energy>
  </scstep>
  <scstep>
   <time name="dav">   13.08   13.09</time>
   <time name="total">   13.08   13.09</time>
   <energy>
    <i name="e_fr_energy">    189.42647528 </i>
    <i name="e_wo_entrp">    189.64979693 </i>
    <i name="e_0_energy">    189.53813611 </i>
   </energy>
  </scstep>
  <scstep>
   <time name="dav">   11.29   11.30</time>
   <time name="total">   11.29   11.30</time>
   <energy>
    <i name="e_fr_energy">   -834.02224172 </i>
    <i name="e_wo_entrp">   -833.97179103 </i>
    <i name="e_0_energy">   -833.99701638 </i>
   </energy>
  </scstep>
  <scstep>
   <time name="dav">   10.88   10.88</time>
   <time name="total">   10.88   10.88</time>
   <energy>
    <i name="e_fr_energy">   -896.21706403 </i>
    <i name="e_wo_entrp">   -896.14775771 </i>
    <i name="e_0_energy">   -896.18241087 </i>
   </energy>
  </scstep>
  <scstep>
   <time name="dav">   11.30   11.30</time>
   <time name="total">   12.79   12.79</time>
   <energy>
    <i name="e_fr_energy">   -897.75423925 </i>
    <i name="e_wo_entrp">   -897.68409773 </i>
    <i name="e_0_energy">   -897.71916849 </i>
   </energy>
  </scstep>
  <scstep>
   <time name="dav">   10.24   10.24</time>
   <time name="total">   12.03   12.04</time>
   <energy>
    <i name="e_fr_energy">   -847.72631016 </i>
    <i name="e_wo_entrp">   -847.64795586 </i>
    <i name="e_0_energy">   -847.68713301 </i>
   </energy>
  </scstep>
  <scstep>
   <time name="dav">   10.11   10.11</time>
   <time name="total">   11.91   11.91</time>
   <energy>
    <i name="e_fr_energy">   -829.07450601 </i>
    <i name="e_wo_entrp">   -828.98787400 </i>
    <i name="e_0_energy">   -829.03119001 </i>
   </energy>
  </scstep>
  <scstep>
   <time name="dav">   10.31   10.32</time>
   <time name="total">   12.11   12.12</time>
   <energy>
    <i name="e_fr_energy">   -828.78263265 </i>
    <i name="e_wo_entrp">   -828.69743210 </i>
    <i name="e_0_energy">   -828.74003237 </i>
   </energy>
  </scstep>
  <scstep>
   <time name="dav">   10.64   10.64</time>
   <time name="total">   12.44   12.44</time>
   <energy>
    <i name="e_fr_energy">   -828.67977080 </i>
    <i name="e_wo_entrp">   -828.59538596 </i>
    <i name="e_0_energy">   -828.63757838 </i>
   </energy>
  </scstep>
  <scstep>
   <time name="dav">   11.04   11.05</time>
   <time name="total">   12.85   12.86</time>
   <energy>
    <i name="e_fr_energy">   -828.63883610 </i>
    <i name="e_wo_entrp">   -828.55412950 </i>
    <i name="e_0_energy">   -828.59648280 </i>
   </energy>
  </scstep>
  <scstep>
   <time name="dav">   10.12   10.13</time>
   <time name="total">   11.95   11.96</time>
   <energy>
    <i name="e_fr_energy">   -828.60189762 </i>
    <i name="e_wo_entrp">   -828.51694677 </i>
    <i name="e_0_energy">   -828.55942220 </i>
   </energy>
  </scstep>
  <scstep>
   <time name="dav">   10.12   10.12</time>
   <time name="total">   11.94   11.95</time>
   <energy>
    <i name="e_fr_energy">   -828.59556584 </i>
    <i name="e_wo_entrp">   -828.51081382 </i>
    <i name="e_0_energy">   -828.55318983 </i>
   </energy>
  </scstep>
  <scstep>
   <time name="dav">   10.03   10.04</time>
   <time name="total">   11.86   11.87</time>
   <energy>
    <i name="e_fr_energy">   -828.60634215 </i>
    <i name="e_wo_entrp">   -828.52141822 </i>
    <i name="e_0_energy">   -828.56388018 </i>
   </energy>
  </scstep>
  <scstep>
   <time name="dav">   10.40   10.41</time>
   <time name="total">   12.24   12.25</time>
   <energy>
    <i name="e_fr_energy">   -828.62348531 </i>
    <i name="e_wo_entrp">   -828.53867058 </i>
    <i name="e_0_energy">   -828.58107795 </i>
   </energy>
  </scstep>
  <scstep>
   <time name="dav">   10.30   10.30</time>
   <time name="total">   12.14   12.15</time>
   <energy>
    <i name="e_fr_energy">   -828.64357180 </i>
    <i name="e_wo_entrp">   -828.55874297 </i>
    <i name="e_0_energy">   -828.60115739 </i>
   </energy>
  </scstep>
  <scstep>
   <time name="dav">   10.38   10.38</time>
   <time name="total">   12.25   12.25</time>
   <energy>
    <i name="e_fr_energy">   -828.65360231 </i>
    <i name="e_wo_entrp">   -828.56875635 </i>
    <i name="e_0_energy">   -828.61117933 </i>
   </energy>
  </scstep>
  <scstep>
   <time name="dav">   10.21   10.22</time>
   <time name="total">   12.07   12.08</time>
   <energy>
    <i name="e_fr_energy">   -828.65962908 </i>
    <i name="e_wo_entrp">   -828.57478665 </i>
    <i name="e_0_energy">   -828.61720787 </i>
   </energy>
  </scstep>
  <scstep>
   <time name="dav">   10.52   10.52</time>
   <time name="total">   12.39   12.40</time>
   <energy>
    <i name="e_fr_energy">   -828.66183940 </i>
    <i name="e_wo_entrp">   -828.57698400 </i>
    <i name="e_0_energy">   -828.61941170 </i>
   </energy>
  </scstep>
  <scstep>
   <time name="dav">    8.89    8.89</time>
   <time name="total">   10.78   10.79</time>
   <energy>
    <i name="e_fr_energy">   -828.66299637 </i>
    <i name="e_wo_entrp">   -828.57814628 </i>
    <i name="e_0_energy">   -828.62057132 </i>
   </energy>
  </scstep>
  <scstep>
   <time name="dav">    9.18    9.18</time>
   <time name="total">   11.08   11.09</time>
   <energy>
    <i name="e_fr_energy">   -828.66339970 </i>
    <i name="e_wo_entrp">   -828.57854899 </i>
    <i name="e_0_energy">   -828.62097435 </i>
   </energy>
  </scstep>
  <scstep>
   <time name="dav">    8.66    8.67</time>
   <time name="total">   10.59   10.60</time>
   <energy>
    <i name="e_fr_energy">   -828.66363114 </i>
    <i name="e_wo_entrp">   -828.57877994 </i>
    <i name="e_0_energy">   -828.62120554 </i>
   </energy>
  </scstep>
  <scstep>
   <time name="dav">    7.68    7.68</time>
   <time name="total">    9.61    9.61</time>
   <energy>
    <i name="e_fr_energy">   -828.66367971 </i>
    <i name="e_wo_entrp">   -828.57882862 </i>
    <i name="e_0_energy">   -828.62125416 </i>
   </energy>
  </scstep>
  <scstep>
   <time name="dav">    7.12    7.13</time>
   <time name="total">    9.08    9.08</time>
   <energy>
    <i name="e_fr_energy">   -828.66371118 </i>
    <i name="e_wo_entrp">   -828.57885950 </i>
    <i name="e_0_energy">   -828.62128534 </i>
   </energy>
  </scstep>
  <scstep>
   <time name="dav">    7.07    7.07</time>
   <time name="total">    9.03    9.04</time>
   <energy>
    <i name="e_fr_energy">   -828.66372661 </i>
    <i name="e_wo_entrp">   -828.57887534 </i>
    <i name="e_0_energy">   -828.62130097 </i>
   </energy>
  </scstep>
  <scstep>
   <time name="dav">    7.21    7.21</time>
   <time name="total">    9.18    9.19</time>
   <energy>
    <i name="e_fr_energy">   -828.66373028 </i>
    <i name="e_wo_entrp">   -828.57887903 </i>
    <i name="e_0_energy">   -828.62130465 </i>
   </energy>
  </scstep>
  <scstep>
   <time name="dav">    7.04    7.04</time>
   <time name="total">    9.04    9.04</time>
   <energy>
    <i name="e_fr_energy">   -828.66373479 </i>
    <i name="e_wo_entrp">   -828.57888354 </i>
    <i name="e_0_energy">   -828.62130916 </i>
   </energy>
  </scstep>
  <scstep>
   <time name="dav">    7.21    7.21</time>
   <time name="total">    9.22    9.22</time>
   <energy>
    <i name="e_fr_energy">   -828.66373598 </i>
    <i name="e_wo_entrp">   -828.57888474 </i>
    <i name="e_0_energy">   -828.62131036 </i>
   </energy>
  </scstep>
  <scstep>
   <time name="dav">    7.07    7.08</time>
   <time name="total">    9.10    9.10</time>
   <energy>
    <i name="e_fr_energy">   -828.66373800 </i>
    <i name="e_wo_entrp">   -828.57888668 </i>
    <i name="e_0_energy">   -828.62131234 </i>
   </energy>
  </scstep>
  <scstep>
   <time name="dav">    7.13    7.13</time>
   <time name="total">    7.49    7.49</time>
   <energy>
    <i name="alphaZ">     91.34886789 </i>
    <i name="ewald"> 119643.52568012 </i>
    <i name="hartreedc">-130733.28394603 </i>
    <i name="XCdc">   1279.49042300 </i>
    <i name="pawpsdc">  41232.31324725 </i>
    <i name="pawaedc"> -41296.44169185 </i>
    <i name="eentropy">     -0.08485130 </i>
    <i name="bandstr">  -4583.18626153 </i>
    <i name="atom">  13537.65479391 </i>
    <i name="e_fr_energy">   -828.66373855 </i>
    <i name="e_wo_entrp">   -828.57888725 </i>
    <i name="e_0_energy">   -828.62131290 </i>
   </energy>
  </scstep>
  <structure>
   <crystal>
    <varray name="basis" >
     <v>      28.05000000       0.00000000       0.00000000 </v>
     <v>       0.00000000       8.10000000       0.00000000 </v>
     <v>       0.00000000       0.00000000      33.50000000 </v>
    </varray>
    <i name="volume">   7611.36750000 </i>
    <varray name="rec_basis" >
     <v>       0.03565062       0.00000000       0.00000000 </v>
     <v>       0.00000000       0.12345679       0.00000000 </v>
     <v>       0.00000000       0.00000000       0.02985075 </v>
    </varray>
   </crystal>
   <varray name="positions" >
    <v>       0.00751276       0.10784753       0.44815821 </v>
    <v>       0.00988952       0.27910247       0.44648955 </v>
    <v>       0.05161105       0.02449086       0.45370746 </v>
    <v>       0.05220392       0.36500247       0.45377910 </v>
    <v>       0.09781355       0.10189049       0.45815224 </v>
    <v>       0.09696720       0.27337901       0.45943284 </v>
    <v>       0.13961390       0.02140951       0.46902687 </v>
    <v>       0.13745383       0.35329012       0.47236418 </v>
    <v>       0.18253298       0.10708148       0.47960597 </v>
    <v>       0.18205989       0.27399753       0.47945373 </v>
    <v>       0.22444528       0.02362358       0.49201493 </v>
    <v>       0.22526560       0.35136173       0.49224179 </v>
    <v>       0.26709554       0.10454593       0.49850149 </v>
    <v>       0.26865312       0.27283086       0.49759104 </v>
    <v>       0.31050018       0.02215099       0.51273731 </v>
    <v>       0.31072299       0.35349630       0.51122985 </v>
    <v>       0.35089519       0.09997691       0.52380896 </v>
    <v>       0.35294902       0.27271605       0.52201791 </v>
    <v>       0.39387522       0.01888025       0.53427164 </v>
    <v>       0.39486631       0.34945185       0.53416119 </v>
    <v>       0.43672727       0.09809272       0.53937313 </v>
    <v>       0.43853119       0.27243457       0.53802687 </v>
    <v>       0.48257398       0.02245494       0.54388955 </v>
    <v>       0.48220321       0.35217284       0.54500896 </v>
    <v>       0.52717291       0.10188383       0.54402090 </v>
    <v>       0.52731194       0.27141605       0.54601791 </v>
    <v>       0.57190731       0.02187679       0.53865672 </v>
    <v>       0.57260250       0.35483086       0.54516418 </v>
    <v>       0.61611052       0.10799716       0.53428657 </v>
    <v>       0.61580749       0.27305432       0.53717015 </v>
    <v>       0.65575758       0.02385457       0.52014627 </v>
    <v>       0.65951872       0.35181975       0.52805672 </v>
    <v>       0.69851337       0.10034580       0.50653433 </v>
    <v>       0.70099822       0.26748395       0.51364478 </v>
    <v>       0.73914795       0.01912753       0.49106866 </v>
    <v>       0.73935829       0.35475432       0.49832836 </v>
    <v>       0.78150089       0.10576259       0.47982687 </v>
    <v>       0.78103030       0.27090988       0.48168060 </v>
    <v>       0.82371480       0.02967099       0.46874925 </v>
    <v>       0.82627094       0.35510617       0.47402388 </v>
    <v>       0.86655971       0.10905716       0.45828358 </v>
    <v>       0.86690909       0.27700000       0.46184776 </v>
    <v>       0.91142246       0.02509210       0.45152836 </v>
    <v>       0.91152941       0.36143457       0.45062388 </v>
    <v>       0.95582888       0.11013407       0.45177612 </v>
    <v>       0.95573975       0.28014691       0.45030746 </v>
    <v>       0.00629811       0.60427160       0.45572239 </v>
    <v>       0.00511323       0.77495679       0.45949552 </v>
    <v>       0.04813119       0.52299383       0.46332239 </v>
    <v>       0.04968200       0.85669259       0.46065970 </v>
    <v>       0.09471551       0.60133827       0.47194328 </v>
    <v>       0.09248699       0.77258889       0.47105970 </v>
    <v>       0.13684171       0.51992099       0.48100896 </v>
    <v>       0.13726845       0.85676790       0.47683582 </v>
    <v>       0.17910267       0.60521481       0.49179104 </v>
    <v>       0.17935508       0.77363704       0.48978209 </v>
    <v>       0.22248699       0.51753580       0.49792239 </v>
    <v>       0.22348342       0.84925432       0.49832239 </v>
    <v>       0.26668200       0.59837531       0.50696716 </v>
    <v>       0.26479501       0.76811605       0.50916716 </v>
    <v>       0.30889840       0.51722099       0.51697910 </v>
    <v>       0.30820570       0.85757284       0.52106567 </v>
    <v>       0.34961319       0.60311111       0.53252537 </v>
    <v>       0.35027522       0.77403333       0.53334925 </v>
    <v>       0.39358645       0.51651728       0.54277015 </v>
    <v>       0.39404635       0.84832099       0.53948358 </v>
    <v>       0.43833155       0.59555432       0.55071940 </v>
    <v>       0.43839216       0.76450247       0.54808955 </v>
    <v>       0.48245633       0.51558889       0.55261194 </v>
    <v>       0.48238503       0.85561235       0.54958209 </v>
    <v>       0.52596078       0.60197037       0.55591940 </v>
    <v>       0.52793939       0.76244691       0.55161194 </v>
    <v>       0.57351159       0.52217654       0.55091940 </v>
    <v>       0.57095544       0.85305679       0.54092537 </v>
    <v>       0.61546524       0.60141111       0.54078507 </v>
    <v>       0.61691622       0.77614691       0.53832537 </v>
    <v>       0.65699822       0.51886420       0.52905970 </v>
    <v>       0.65454902       0.85146914       0.51914925 </v>
    <v>       0.70086275       0.60652716       0.51755821 </v>
    <v>       0.69975758       0.77228765       0.51161194 </v>
    <v>       0.74183601       0.52490247       0.50342985 </v>
    <v>       0.74079144       0.84916914       0.49429254 </v>
    <v>       0.78421034       0.60594444       0.48920597 </v>
    <v>       0.78284492       0.77631852       0.48343881 </v>
    <v>       0.82444563       0.52451605       0.47396418 </v>
    <v>       0.82690196       0.85849383       0.47276119 </v>
    <v>       0.86800357       0.60752840       0.46782388 </v>
    <v>       0.86965775       0.77937901       0.46675224 </v>
    <v>       0.90964706       0.52636667       0.46085075 </v>
    <v>       0.91245989       0.85927654       0.45728657 </v>
    <v>       0.95483779       0.60455062       0.45866866 </v>
    <v>       0.95481283       0.77404691       0.45768657 </v>
   </varray>
  </structure>
  <varray name="forces" >
   <v>       3.47353145       0.35892874      -0.13775194 </v>
   <v>       0.07962824      -0.69310225       0.22474349 </v>
   <v>      -0.32593404      -0.02327439       0.20191017 </v>
   <v>      -0.03366662      -4.92543511      -0.12658806 </v>
   <v>      -2.32413278       1.16729620      -0.64168249 </v>
   <v>      -1.73600223       0.42777527      -0.55336970 </v>
   <v>       0.85197346       0.55792900       0.72627143 </v>
   <v>       2.21971410       0.50917827       0.71005638 </v>
   <v>      -0.32534734      -1.95127494      -0.70873264 </v>
   <v>       0.26908863       0.35176399       0.34016312 </v>
   <v>      -0.37224074      -1.78083655       0.03447089 </v>
   <v>      -1.85221341       0.59782416      -0.89793162 </v>
   <v>       2.25812861      -0.93879388       0.69006279 </v>
   <v>       0.64620021      -0.11369606       0.53590517 </v>
   <v>      -3.37852197      -0.43510887      -0.26262942 </v>
   <v>      -0.08988459      -1.35341776      -0.13445486 </v>
   <v>       2.68823408       2.25717990      -0.29288435 </v>
   <v>      -0.60396429      -1.85496856      -0.13907247 </v>
   <v>      -0.35175758      -1.21641492       0.38845601 </v>
   <v>      -0.27150698       1.69705413       0.34712237 </v>
   <v>       2.61443407       2.41685862      -0.43455471 </v>
   <v>       0.24553921      -2.33882331       0.33476071 </v>
   <v>      -0.95353597      -0.81116809       0.24816883 </v>
   <v>       1.04952519      -1.31329962       0.50772124 </v>
   <v>       0.58422450       0.84856724      -0.65300141 </v>
   <v>       0.30486632       0.06992899      -0.42285930 </v>
   <v>      -1.13915880       0.26338063       0.67416407 </v>
   <v>      -0.83723984      -0.59041794       0.60788521 </v>
   <v>      -1.71279463      -2.23150655      -0.71623038 </v>
   <v>       0.50337007       0.96470503      -0.03214986 </v>
   <v>       1.18909128      -1.01555271      -0.99388715 </v>
   <v>      -0.44843690      -0.75531943       0.21454864 </v>
   <v>      -0.38651886       0.05569281       0.63217218 </v>
   <v>      -1.33544720       0.79503648      -0.69221943 </v>
   <v>      -0.07837076       0.38706550       0.34958582 </v>
   <v>       2.58185528      -0.04563890      -0.01828716 </v>
   <v>      -1.49650854      -1.20722240      -0.17635099 </v>
   <v>       0.43237419       3.14024113       0.92089104 </v>
   <v>       1.32267403      -2.01797058      -0.19830303 </v>
   <v>      -3.19475073       0.10943242      -0.16001168 </v>
   <v>       0.77532969      -0.40115686       0.08591403 </v>
   <v>       2.77893846      -0.35117883      -1.96187338 </v>
   <v>       0.66158771       1.93151300       0.98330866 </v>
   <v>      -0.93255242      -0.90517997       2.58582183 </v>
   <v>      -2.62614190      -0.19574903      -0.93798304 </v>
   <v>      -1.33987589       0.14117455      -0.82820904 </v>
   <v>       1.57748136       0.83519272       1.88143454 </v>
   <v>       4.52540192       0.17529808      -0.82239162 </v>
   <v>       2.70873384       2.15996384      -0.30916154 </v>
   <v>      -0.99071289      -0.47830122       0.40655548 </v>
   <v>      -3.25662713       1.56360268       0.35375793 </v>
   <v>       1.36316239      -0.04601796      -0.06896887 </v>
   <v>      -0.00263652       0.24916815      -0.56669051 </v>
   <v>      -0.35755712      -1.36554631       0.03475611 </v>
   <v>      -0.11146281      -1.74524747      -0.18003715 </v>
   <v>      -0.09643671       0.18311333       0.18689883 </v>
   <v>       1.01520983       1.58008585       0.04547968 </v>
   <v>      -1.23770187       2.65034214      -0.94489013 </v>
   <v>      -1.64252624       0.59082882       0.55934790 </v>
   <v>       2.20316663       0.71104588       1.03733528 </v>
   <v>       0.77386941       2.19598569       0.49406880 </v>
   <v>      -1.14300818      -1.82760805      -1.14432456 </v>
   <v>       0.96415758      -1.19720036       0.46166375 </v>
   <v>      -1.19637749      -1.29888030      -0.24377240 </v>
   <v>      -0.72880814       0.91618958      -1.20040086 </v>
   <v>       1.09883911       0.71283591       0.36829998 </v>
   <v>      -1.27097242       0.46737712      -0.17113410 </v>
   <v>      -0.45350740       2.17725531       0.12364820 </v>
   <v>      -0.19699443       1.14824306       0.37478462 </v>
   <v>       0.69483182      -2.78750828      -0.20590672 </v>
   <v>       2.76990019      -3.39225871      -0.34259973 </v>
   <v>      -1.28644823       6.10696912      -0.89881104 </v>
   <v>      -2.62867965      -0.03244586      -0.21331038 </v>
   <v>       0.92054860      -1.35014366       1.40505550 </v>
   <v>       0.97012438       1.87375998       0.33196166 </v>
   <v>      -2.57789502      -2.20832364      -1.08794203 </v>
   <v>       2.69015096       1.55217308      -0.03791346 </v>
   <v>       2.50028966       1.24272100       0.98902721 </v>
   <v>      -1.02110542      -1.23810122      -0.11973446 </v>
   <v>      -0.79975299       0.53477172      -0.55564394 </v>
   <v>       0.80655636      -0.59122199      -0.47891720 </v>
   <v>      -1.71463631       1.79806201       0.30503726 </v>
   <v>      -1.01601933       0.14508500      -0.75392265 </v>
   <v>       2.12343276      -1.73364885       0.70751945 </v>
   <v>       0.52509546       0.23097633       1.47461693 </v>
   <v>      -2.72470776       0.94639519      -0.07018982 </v>
   <v>      -0.93532473       1.32943742       0.01629758 </v>
   <v>      -0.22345769      -1.38713713      -0.14744165 </v>
   <v>       3.90527406      -0.78424551      -1.54333682 </v>
   <v>       0.11459266      -0.60688546       0.22401096 </v>
   <v>      -3.61703377       0.30482132      -0.07146205 </v>
   <v>      -2.40423250       0.10700318       0.17426005 </v>
  </varray>
  <varray name="stress" >
   <v>      -2.68651348      -0.99187895      -0.21706028 </v>
   <v>      -0.99187894      56.31381142       0.99924921 </v>
   <v>      -0.21706028       0.99924921      -0.96997763 </v>
  </varray>
  <energy>
   <i name="e_fr_energy">   -828.66373855 </i>
   <i name="e_wo_entrp">   -828.57888725 </i>
   <i name="e_0_energy">   -828.62131290 </i>
  </energy>
  <time name="totalsc">  333.43  333.63</time>
  <eigenvalues>
   <array>
    <dimension dim="1">band</dimension>
    <dimension dim="2">kpoint</dimension>
    <dimension dim="3">spin</dimension>
    <field>eigene</field>
    <field>occ</field>
    <set>
     <set comment="spin 1">
      <set comment="kpoint 1">
       <r>  -23.2354    1.0000 </r>
       <r>  -23.0734    1.0000 </r>
       <r>  -22.9961    1.0000 </r>
       <r>  -22.7043    1.0000 </r>
       <r>  -22.6273    1.0000 </r>
       <r>  -22.3853    1.0000 </r>
       <r>  -22.0820    1.0000 </r>
       <r>  -21.9547    1.0000 </r>
       <r>  -21.5134    1.0000 </r>
       <r>  -21.4557    1.0000 </r>
       <r>  -21.3991    1.0000 </r>
       <r>  -21.3798    1.0000 </r>
       <r>  -21.2865    1.0000 </r>
       <r>  -21.1917    1.0000 </r>
       <r>  -21.1753    1.0000 </r>
       <r>  -21.0644    1.0000 </r>
       <r>  -21.0301    1.0000 </r>
       <r>  -20.9561    1.0000 </r>
       <r>  -20.7812    1.0000 </r>
       <r>  -20.5629    1.0000 </r>
       <r>  -20.3573    1.0000 </r>
       <r>  -20.3359    1.0000 </r>
       <r>  -20.1381    1.0000 </r>
       <r>  -20.0994    1.0000 </r>
       <r>  -20.0010    1.0000 </r>
       <r>  -19.7428    1.0000 </r>
       <r>  -19.4974    1.0000 </r>
       <r>  -19.4201    1.0000 </r>
       <r>  -19.2353    1.0000 </r>
       <r>  -18.9625    1.0000 </r>
       <r>  -18.6841    1.0000 </r>
       <r>  -18.6682    1.0000 </r>
       <r>  -18.5801    1.0000 </r>
       <r>  -18.4382    1.0000 </r>
       <r>  -18.1824    1.0000 </r>
       <r>  -17.6856    1.0000 </r>
       <r>  -17.4225    1.0000 </r>
       <r>  -17.2182    1.0000 </r>
       <r>  -16.9833    1.0000 </r>
       <r>  -16.9001    1.0000 </r>
       <r>  -16.7840    1.0000 </r>
       <r>  -16.6688    1.0000 </r>
       <r>  -16.6572    1.0000 </r>
       <r>  -16.6160    1.0000 </r>
       <r>  -16.5954    1.0000 </r>
       <r>  -16.5356    1.0000 </r>
       <r>  -16.4981    1.0000 </r>
       <r>  -16.3806    1.0000 </r>
       <r>  -16.3569    1.0000 </r>
       <r>  -16.3093    1.0000 </r>
       <r>  -16.3012    1.0000 </r>
       <r>  -16.1775    1.0000 </r>
       <r>  -16.0662    1.0000 </r>
       <r>  -15.9853    1.0000 </r>
       <r>  -15.8385    1.0000 </r>
       <r>  -15.6444    1.0000 </r>
       <r>  -15.4264    1.0000 </r>
       <r>  -15.3528    1.0000 </r>
       <r>  -15.2219    1.0000 </r>
       <r>  -15.2000    1.0000 </r>
       <r>  -15.1274    1.0000 </r>
       <r>  -14.9665    1.0000 </r>
       <r>  -14.3816    1.0000 </r>
       <r>  -14.1177    1.0000 </r>
       <r>  -14.1072    1.0000 </r>
       <r>  -14.0278    1.0000 </r>
       <r>  -13.9188    1.0000 </r>
       <r>  -13.7742    1.0000 </r>
       <r>  -13.6790    1.0000 </r>
       <r>  -13.6114    1.0000 </r>
       <r>  -13.4893    1.0000 </r>
       <r>  -13.4360    1.0000 </r>
       <r>  -13.3448    1.0000 </r>
       <r>  -13.1517    1.0000 </r>
       <r>  -12.9940    1.0000 </r>
       <r>  -12.9055    1.0000 </r>
       <r>  -12.6569    1.0000 </r>
       <r>  -12.4717    1.0000 </r>
       <r>  -12.1965    1.0000 </r>
       <r>  -12.1424    1.0000 </r>
       <r>  -12.0544    1.0000 </r>
       <r>  -11.9862    1.0000 </r>
       <r>  -11.9043    1.0000 </r>
       <r>  -11.8147    1.0000 </r>
       <r>  -11.7324    1.0000 </r>
       <r>  -11.5727    1.0000 </r>
       <r>  -11.3791    1.0000 </r>
       <r>  -11.1947    1.0000 </r>
       <r>  -11.0974    1.0000 </r>
       <r>  -11.0419    1.0000 </r>
       <r>  -10.9912    1.0000 </r>
       <r>  -10.9595    1.0000 </r>
       <r>  -10.7793    1.0000 </r>
       <r>  -10.7387    1.0000 </r>
       <r>  -10.7203    1.0000 </r>
       <r>  -10.6484    1.0000 </r>
       <r>  -10.5824    1.0000 </r>
       <r>  -10.5611    1.0000 </r>
       <r>  -10.4794    1.0000 </r>
       <r>  -10.3911    1.0000 </r>
       <r>  -10.3335    1.0000 </r>
       <r>  -10.2652    1.0000 </r>
       <r>  -10.2294    1.0000 </r>
       <r>  -10.1412    1.0000 </r>
       <r>  -10.0549    1.0000 </r>
       <r>  -10.0117    1.0000 </r>
       <r>   -9.8497    1.0000 </r>
       <r>   -9.8041    1.0000 </r>
       <r>   -9.6969    1.0000 </r>
       <r>   -9.6771    1.0000 </r>
       <r>   -9.6330    1.0000 </r>
       <r>   -9.5961    1.0000 </r>
       <r>   -9.5697    1.0000 </r>
       <r>   -9.5305    1.0000 </r>
       <r>   -9.5116    1.0000 </r>
       <r>   -9.4926    1.0000 </r>
       <r>   -9.4703    1.0000 </r>
       <r>   -9.4282    1.0000 </r>
       <r>   -9.4183    1.0000 </r>
       <r>   -9.3501    1.0000 </r>
       <r>   -9.3271    1.0000 </r>
       <r>   -9.3036    1.0000 </r>
       <r>   -9.2865    1.0000 </r>
       <r>   -9.2661    1.0000 </r>
       <r>   -9.2452    1.0000 </r>
       <r>   -9.2058    1.0000 </r>
       <r>   -9.2031    1.0000 </r>
       <r>   -9.1369    1.0000 </r>
       <r>   -9.0736    1.0000 </r>
       <r>   -9.0671    1.0000 </r>
       <r>   -9.0349    1.0000 </r>
       <r>   -9.0272    1.0000 </r>
       <r>   -8.9891    1.0000 </r>
       <r>   -8.9487    1.0000 </r>
       <r>   -8.9280    1.0000 </r>
       <r>   -8.8800    1.0000 </r>
       <r>   -8.8649    1.0000 </r>
       <r>   -8.8082    1.0000 </r>
       <r>   -8.7525    1.0000 </r>
       <r>   -8.7233    1.0000 </r>
       <r>   -8.6941    1.0000 </r>
       <r>   -8.6279    1.0000 </r>
       <r>   -8.5877    1.0000 </r>
       <r>   -8.5096    1.0000 </r>
       <r>   -8.4369    1.0000 </r>
       <r>   -8.3678    1.0000 </r>
       <r>   -8.0849    1.0000 </r>
       <r>   -7.9747    1.0000 </r>
       <r>   -7.8894    1.0000 </r>
       <r>   -7.7829    1.0000 </r>
       <r>   -7.7147    1.0000 </r>
       <r>   -7.6188    1.0000 </r>
       <r>   -7.5740    1.0000 </r>
       <r>   -7.5029    1.0000 </r>
       <r>   -7.4363    1.0000 </r>
       <r>   -7.3972    1.0000 </r>
       <r>   -7.2346    1.0000 </r>
       <r>   -7.1436    1.0000 </r>
       <r>   -7.0343    1.0000 </r>
       <r>   -6.9377    1.0000 </r>
       <r>   -6.8208    1.0000 </r>
       <r>   -6.7404    1.0000 </r>
       <r>   -6.6800    1.0000 </r>
       <r>   -6.5247    1.0000 </r>
       <r>   -6.3881    1.0000 </r>
       <r>   -6.2887    1.0000 </r>
       <r>   -6.2040    1.0000 </r>
       <r>   -6.0850    1.0000 </r>
       <r>   -6.0661    1.0000 </r>
       <r>   -5.9843    1.0000 </r>
       <r>   -5.8902    1.0000 </r>
       <r>   -5.8504    1.0000 </r>
       <r>   -5.7730    1.0000 </r>
       <r>   -5.0567    1.0000 </r>
       <r>   -4.9601    1.0000 </r>
       <r>   -4.8340    1.0000 </r>
       <r>   -4.6680    1.0000 </r>
       <r>   -4.5557    1.0000 </r>
       <r>   -4.5119    1.0000 </r>
       <r>   -4.4073    1.0000 </r>
       <r>   -4.3315    1.0000 </r>
       <r>   -3.7135    1.0000 </r>
       <r>   -3.6173    0.9994 </r>
       <r>   -3.1884    0.5878 </r>
       <r>   -3.0787    0.2900 </r>
       <r>   -2.6969    0.0006 </r>
       <r>   -2.5891    0.0000 </r>
       <r>   -2.5162    0.0000 </r>
       <r>   -2.2620    0.0000 </r>
       <r>   -2.0712    0.0000 </r>
       <r>   -1.7338    0.0000 </r>
       <r>   -1.5996    0.0000 </r>
       <r>   -1.5050    0.0000 </r>
       <r>   -1.4431    0.0000 </r>
       <r>   -1.4196    0.0000 </r>
       <r>   -1.3903    0.0000 </r>
       <r>   -1.2318    0.0000 </r>
       <r>   -1.1921    0.0000 </r>
       <r>   -0.8015    0.0000 </r>
       <r>   -0.6869    0.0000 </r>
       <r>   -0.5240    0.0000 </r>
       <r>   -0.3846    0.0000 </r>
       <r>   -0.0408    0.0000 </r>
       <r>    0.0455    0.0000 </r>
       <r>    0.1382    0.0000 </r>
       <r>    0.2359    0.0000 </r>
       <r>    0.3412    0.0000 </r>
       <r>    0.5338    0.0000 </r>
       <r>    0.6447    0.0000 </r>
       <r>    0.7110    0.0000 </r>
       <r>    0.7525    0.0000 </r>
       <r>    0.8618    0.0000 </r>
       <r>    0.9104    0.0000 </r>
       <r>    0.9243    0.0000 </r>
       <r>    0.9852    0.0000 </r>
       <r>    0.9885    0.0000 </r>
       <r>    1.0810    0.0000 </r>
       <r>    1.1486    0.0000 </r>
       <r>    1.1575    0.0000 </r>
       <r>    1.2214    0.0000 </r>
       <r>    1.2982    0.0000 </r>
       <r>    1.3109    0.0000 </r>
       <r>    1.3241    0.0000 </r>
       <r>    1.4069    0.0000 </r>
       <r>    1.4654    0.0000 </r>
       <r>    1.5525    0.0000 </r>
       <r>    1.5585    0.0000 </r>
       <r>    1.7075    0.0000 </r>
       <r>    1.7173    0.0000 </r>
       <r>    1.7284    0.0000 </r>
       <r>    1.7306    0.0000 </r>
       <r>    1.8914    0.0000 </r>
      </set>
      <set comment="kpoint 2">
       <r>  -23.1660    1.0000 </r>
       <r>  -22.9792    1.0000 </r>
       <r>  -22.8961    1.0000 </r>
       <r>  -22.6480    1.0000 </r>
       <r>  -22.5292    1.0000 </r>
       <r>  -22.4755    1.0000 </r>
       <r>  -22.1763    1.0000 </r>
       <r>  -22.0781    1.0000 </r>
       <r>  -22.0001    1.0000 </r>
       <r>  -21.8689    1.0000 </r>
       <r>  -21.8141    1.0000 </r>
       <r>  -21.7087    1.0000 </r>
       <r>  -21.2958    1.0000 </r>
       <r>  -21.1848    1.0000 </r>
       <r>  -21.0573    1.0000 </r>
       <r>  -20.9271    1.0000 </r>
       <r>  -20.6538    1.0000 </r>
       <r>  -20.5173    1.0000 </r>
       <r>  -20.4793    1.0000 </r>
       <r>  -20.2812    1.0000 </r>
       <r>  -20.1629    1.0000 </r>
       <r>  -20.1280    1.0000 </r>
       <r>  -20.0303    1.0000 </r>
       <r>  -19.9420    1.0000 </r>
       <r>  -19.8769    1.0000 </r>
       <r>  -19.5005    1.0000 </r>
       <r>  -19.4666    1.0000 </r>
       <r>  -19.1603    1.0000 </r>
       <r>  -19.0888    1.0000 </r>
       <r>  -18.8947    1.0000 </r>
       <r>  -18.6612    1.0000 </r>
       <r>  -18.6038    1.0000 </r>
       <r>  -18.5108    1.0000 </r>
       <r>  -18.2503    1.0000 </r>
       <r>  -18.1680    1.0000 </r>
       <r>  -18.0893    1.0000 </r>
       <r>  -18.0593    1.0000 </r>
       <r>  -17.9665    1.0000 </r>
       <r>  -17.8153    1.0000 </r>
       <r>  -17.7411    1.0000 </r>
       <r>  -17.5008    1.0000 </r>
       <r>  -17.4150    1.0000 </r>
       <r>  -17.2487    1.0000 </r>
       <r>  -17.1820    1.0000 </r>
       <r>  -17.0165    1.0000 </r>
       <r>  -16.5658    1.0000 </r>
       <r>  -16.3174    1.0000 </r>
       <r>  -16.2067    1.0000 </r>
       <r>  -16.0853    1.0000 </r>
       <r>  -15.8530    1.0000 </r>
       <r>  -15.7929    1.0000 </r>
       <r>  -15.6387    1.0000 </r>
       <r>  -15.5772    1.0000 </r>
       <r>  -15.3094    1.0000 </r>
       <r>  -15.2577    1.0000 </r>
       <r>  -15.2122    1.0000 </r>
       <r>  -15.1413    1.0000 </r>
       <r>  -15.0791    1.0000 </r>
       <r>  -14.9786    1.0000 </r>
       <r>  -14.9332    1.0000 </r>
       <r>  -14.8933    1.0000 </r>
       <r>  -14.7629    1.0000 </r>
       <r>  -14.5494    1.0000 </r>
       <r>  -14.3656    1.0000 </r>
       <r>  -14.3150    1.0000 </r>
       <r>  -14.1570    1.0000 </r>
       <r>  -13.9267    1.0000 </r>
       <r>  -13.8475    1.0000 </r>
       <r>  -13.3371    1.0000 </r>
       <r>  -13.2435    1.0000 </r>
       <r>  -13.2032    1.0000 </r>
       <r>  -13.1397    1.0000 </r>
       <r>  -12.9375    1.0000 </r>
       <r>  -12.8420    1.0000 </r>
       <r>  -12.7918    1.0000 </r>
       <r>  -12.7562    1.0000 </r>
       <r>  -12.6697    1.0000 </r>
       <r>  -12.5183    1.0000 </r>
       <r>  -12.3537    1.0000 </r>
       <r>  -12.3072    1.0000 </r>
       <r>  -12.1372    1.0000 </r>
       <r>  -12.0879    1.0000 </r>
       <r>  -11.9662    1.0000 </r>
       <r>  -11.9310    1.0000 </r>
       <r>  -11.6896    1.0000 </r>
       <r>  -11.6005    1.0000 </r>
       <r>  -11.5248    1.0000 </r>
       <r>  -11.3892    1.0000 </r>
       <r>  -11.2742    1.0000 </r>
       <r>  -11.1772    1.0000 </r>
       <r>  -11.0513    1.0000 </r>
       <r>  -11.0258    1.0000 </r>
       <r>  -10.9930    1.0000 </r>
       <r>  -10.9505    1.0000 </r>
       <r>  -10.9087    1.0000 </r>
       <r>  -10.8751    1.0000 </r>
       <r>  -10.8319    1.0000 </r>
       <r>  -10.7841    1.0000 </r>
       <r>  -10.7035    1.0000 </r>
       <r>  -10.6003    1.0000 </r>
       <r>  -10.5674    1.0000 </r>
       <r>  -10.5032    1.0000 </r>
       <r>  -10.4758    1.0000 </r>
       <r>  -10.4253    1.0000 </r>
       <r>  -10.3874    1.0000 </r>
       <r>  -10.3266    1.0000 </r>
       <r>  -10.2203    1.0000 </r>
       <r>  -10.1196    1.0000 </r>
       <r>  -10.0704    1.0000 </r>
       <r>   -9.9726    1.0000 </r>
       <r>   -9.9523    1.0000 </r>
       <r>   -9.9211    1.0000 </r>
       <r>   -9.8805    1.0000 </r>
       <r>   -9.8010    1.0000 </r>
       <r>   -9.7441    1.0000 </r>
       <r>   -9.7026    1.0000 </r>
       <r>   -9.6655    1.0000 </r>
       <r>   -9.6348    1.0000 </r>
       <r>   -9.5956    1.0000 </r>
       <r>   -9.5344    1.0000 </r>
       <r>   -9.4841    1.0000 </r>
       <r>   -9.4617    1.0000 </r>
       <r>   -9.3791    1.0000 </r>
       <r>   -9.3081    1.0000 </r>
       <r>   -9.2843    1.0000 </r>
       <r>   -9.2002    1.0000 </r>
       <r>   -8.9690    1.0000 </r>
       <r>   -8.8901    1.0000 </r>
       <r>   -8.8297    1.0000 </r>
       <r>   -8.7793    1.0000 </r>
       <r>   -8.7191    1.0000 </r>
       <r>   -8.6772    1.0000 </r>
       <r>   -8.6578    1.0000 </r>
       <r>   -8.6080    1.0000 </r>
       <r>   -8.5701    1.0000 </r>
       <r>   -8.5313    1.0000 </r>
       <r>   -8.4780    1.0000 </r>
       <r>   -8.4044    1.0000 </r>
       <r>   -8.3314    1.0000 </r>
       <r>   -8.2724    1.0000 </r>
       <r>   -8.2485    1.0000 </r>
       <r>   -8.1800    1.0000 </r>
       <r>   -8.1368    1.0000 </r>
       <r>   -8.0849    1.0000 </r>
       <r>   -8.0182    1.0000 </r>
       <r>   -7.9793    1.0000 </r>
       <r>   -7.8939    1.0000 </r>
       <r>   -7.8354    1.0000 </r>
       <r>   -7.7539    1.0000 </r>
       <r>   -7.6732    1.0000 </r>
       <r>   -7.6287    1.0000 </r>
       <r>   -7.5376    1.0000 </r>
       <r>   -7.5027    1.0000 </r>
       <r>   -7.4193    1.0000 </r>
       <r>   -7.3447    1.0000 </r>
       <r>   -7.3099    1.0000 </r>
       <r>   -7.1757    1.0000 </r>
       <r>   -6.9974    1.0000 </r>
       <r>   -6.9180    1.0000 </r>
       <r>   -6.8824    1.0000 </r>
       <r>   -6.8676    1.0000 </r>
       <r>   -6.6809    1.0000 </r>
       <r>   -6.6124    1.0000 </r>
       <r>   -6.5432    1.0000 </r>
       <r>   -6.4779    1.0000 </r>
       <r>   -6.2148    1.0000 </r>
       <r>   -6.1839    1.0000 </r>
       <r>   -6.1327    1.0000 </r>
       <r>   -6.0957    1.0000 </r>
       <r>   -5.9388    1.0000 </r>
       <r>   -5.8686    1.0000 </r>
       <r>   -5.8127    1.0000 </r>
       <r>   -5.7546    1.0000 </r>
       <r>   -5.6625    1.0000 </r>
       <r>   -5.5755    1.0000 </r>
       <r>   -5.4525    1.0000 </r>
       <r>   -5.1935    1.0000 </r>
       <r>   -5.0864    1.0000 </r>
       <r>   -4.7612    1.0000 </r>
       <r>   -4.6545    1.0000 </r>
       <r>   -4.5249    1.0000 </r>
       <r>   -4.4658    1.0000 </r>
       <r>   -4.4017    1.0000 </r>
       <r>   -3.4248    0.9709 </r>
       <r>   -2.9660    0.0885 </r>
       <r>   -2.5540    0.0000 </r>
       <r>   -2.1073    0.0000 </r>
       <r>   -2.0260    0.0000 </r>
       <r>   -1.6261    0.0000 </r>
       <r>   -1.4882    0.0000 </r>
       <r>   -1.4062    0.0000 </r>
       <r>   -1.3515    0.0000 </r>
       <r>   -1.3054    0.0000 </r>
       <r>   -1.2266    0.0000 </r>
       <r>   -1.1281    0.0000 </r>
       <r>   -1.0261    0.0000 </r>
       <r>   -0.9401    0.0000 </r>
       <r>   -0.8333    0.0000 </r>
       <r>   -0.7437    0.0000 </r>
       <r>   -0.5770    0.0000 </r>
       <r>   -0.1807    0.0000 </r>
       <r>   -0.1251    0.0000 </r>
       <r>   -0.0586    0.0000 </r>
       <r>    0.0628    0.0000 </r>
       <r>    0.1404    0.0000 </r>
       <r>    0.1721    0.0000 </r>
       <r>    0.2796    0.0000 </r>
       <r>    0.3444    0.0000 </r>
       <r>    0.3761    0.0000 </r>
       <r>    0.7705    0.0000 </r>
       <r>    0.8044    0.0000 </r>
       <r>    0.8521    0.0000 </r>
       <r>    1.0417    0.0000 </r>
       <r>    1.0534    0.0000 </r>
       <r>    1.0805    0.0000 </r>
       <r>    1.1138    0.0000 </r>
       <r>    1.1284    0.0000 </r>
       <r>    1.2494    0.0000 </r>
       <r>    1.2890    0.0000 </r>
       <r>    1.3000    0.0000 </r>
       <r>    1.3267    0.0000 </r>
       <r>    1.3636    0.0000 </r>
       <r>    1.3981    0.0000 </r>
       <r>    1.4296    0.0000 </r>
       <r>    1.4607    0.0000 </r>
       <r>    1.4739    0.0000 </r>
       <r>    1.5487    0.0000 </r>
       <r>    1.6041    0.0000 </r>
       <r>    1.6459    0.0000 </r>
       <r>    1.6840    0.0000 </r>
       <r>    1.7168    0.0000 </r>
       <r>    1.7245    0.0000 </r>
      </set>
      <set comment="kpoint 3">
       <r>  -23.0573    1.0000 </r>
       <r>  -22.7838    1.0000 </r>
       <r>  -22.6872    1.0000 </r>
       <r>  -22.6337    1.0000 </r>
       <r>  -22.6088    1.0000 </r>
       <r>  -22.5460    1.0000 </r>
       <r>  -22.3208    1.0000 </r>
       <r>  -22.2660    1.0000 </r>
       <r>  -22.2552    1.0000 </r>
       <r>  -22.1787    1.0000 </r>
       <r>  -21.7754    1.0000 </r>
       <r>  -21.6834    1.0000 </r>
       <r>  -21.5621    1.0000 </r>
       <r>  -21.5187    1.0000 </r>
       <r>  -20.9479    1.0000 </r>
       <r>  -20.9160    1.0000 </r>
       <r>  -20.6712    1.0000 </r>
       <r>  -20.5976    1.0000 </r>
       <r>  -19.9494    1.0000 </r>
       <r>  -19.8590    1.0000 </r>
       <r>  -19.7011    1.0000 </r>
       <r>  -19.6172    1.0000 </r>
       <r>  -19.5363    1.0000 </r>
       <r>  -19.4639    1.0000 </r>
       <r>  -19.4195    1.0000 </r>
       <r>  -19.3550    1.0000 </r>
       <r>  -19.2611    1.0000 </r>
       <r>  -19.2325    1.0000 </r>
       <r>  -19.0832    1.0000 </r>
       <r>  -19.0354    1.0000 </r>
       <r>  -18.9445    1.0000 </r>
       <r>  -18.8937    1.0000 </r>
       <r>  -18.6510    1.0000 </r>
       <r>  -18.5692    1.0000 </r>
       <r>  -18.4913    1.0000 </r>
       <r>  -18.4042    1.0000 </r>
       <r>  -18.3171    1.0000 </r>
       <r>  -18.2895    1.0000 </r>
       <r>  -18.1511    1.0000 </r>
       <r>  -18.0619    1.0000 </r>
       <r>  -17.7555    1.0000 </r>
       <r>  -17.7269    1.0000 </r>
       <r>  -17.6451    1.0000 </r>
       <r>  -17.5951    1.0000 </r>
       <r>  -16.8865    1.0000 </r>
       <r>  -16.8824    1.0000 </r>
       <r>  -16.2625    1.0000 </r>
       <r>  -16.2213    1.0000 </r>
       <r>  -16.1203    1.0000 </r>
       <r>  -15.9924    1.0000 </r>
       <r>  -15.9546    1.0000 </r>
       <r>  -15.8508    1.0000 </r>
       <r>  -15.2625    1.0000 </r>
       <r>  -15.2067    1.0000 </r>
       <r>  -15.0980    1.0000 </r>
       <r>  -15.0506    1.0000 </r>
       <r>  -14.8948    1.0000 </r>
       <r>  -14.8063    1.0000 </r>
       <r>  -14.7858    1.0000 </r>
       <r>  -14.6978    1.0000 </r>
       <r>  -14.0051    1.0000 </r>
       <r>  -13.9498    1.0000 </r>
       <r>  -13.7609    1.0000 </r>
       <r>  -13.6997    1.0000 </r>
       <r>  -13.6636    1.0000 </r>
       <r>  -13.6354    1.0000 </r>
       <r>  -13.6092    1.0000 </r>
       <r>  -13.5682    1.0000 </r>
       <r>  -13.5447    1.0000 </r>
       <r>  -13.5066    1.0000 </r>
       <r>  -13.4741    1.0000 </r>
       <r>  -13.4692    1.0000 </r>
       <r>  -13.4285    1.0000 </r>
       <r>  -13.3602    1.0000 </r>
       <r>  -13.1121    1.0000 </r>
       <r>  -13.0191    1.0000 </r>
       <r>  -12.3462    1.0000 </r>
       <r>  -12.2794    1.0000 </r>
       <r>  -12.1901    1.0000 </r>
       <r>  -12.1672    1.0000 </r>
       <r>  -12.0781    1.0000 </r>
       <r>  -12.0125    1.0000 </r>
       <r>  -11.9665    1.0000 </r>
       <r>  -11.9138    1.0000 </r>
       <r>  -11.9043    1.0000 </r>
       <r>  -11.8038    1.0000 </r>
       <r>  -11.7671    1.0000 </r>
       <r>  -11.6868    1.0000 </r>
       <r>  -11.6224    1.0000 </r>
       <r>  -11.5626    1.0000 </r>
       <r>  -11.3010    1.0000 </r>
       <r>  -11.2614    1.0000 </r>
       <r>  -11.1910    1.0000 </r>
       <r>  -11.1261    1.0000 </r>
       <r>  -11.0596    1.0000 </r>
       <r>  -10.9420    1.0000 </r>
       <r>  -10.7636    1.0000 </r>
       <r>  -10.7241    1.0000 </r>
       <r>  -10.6907    1.0000 </r>
       <r>  -10.6438    1.0000 </r>
       <r>  -10.5904    1.0000 </r>
       <r>  -10.5500    1.0000 </r>
       <r>  -10.5212    1.0000 </r>
       <r>  -10.4888    1.0000 </r>
       <r>  -10.4638    1.0000 </r>
       <r>  -10.4567    1.0000 </r>
       <r>  -10.3654    1.0000 </r>
       <r>  -10.3134    1.0000 </r>
       <r>  -10.2955    1.0000 </r>
       <r>  -10.2415    1.0000 </r>
       <r>  -10.2005    1.0000 </r>
       <r>  -10.1667    1.0000 </r>
       <r>  -10.1232    1.0000 </r>
       <r>  -10.0681    1.0000 </r>
       <r>  -10.0568    1.0000 </r>
[...]
       <r>   -22.7110    13.6207     6.6087 </r>
       <r>   -22.6140    15.9234     8.1547 </r>
       <r>   -22.5169    16.4284     9.7497 </r>
       <r>   -22.4198    14.7012    11.1771 </r>
       <r>   -22.3227    12.9867    12.4379 </r>
       <r>   -22.2256    12.9362    13.6939 </r>
       <r>   -22.1285    13.8564    15.0392 </r>
       <r>   -22.0314    14.3680    16.4342 </r>
       <r>   -21.9343    14.2198    17.8148 </r>
       <r>   -21.8372    13.8753    19.1619 </r>
       <r>   -21.7402    13.2648    20.4498 </r>
       <r>   -21.6431    12.2127    21.6355 </r>
       <r>   -21.5460    11.4264    22.7449 </r>
       <r>   -21.4489    11.6287    23.8739 </r>
       <r>   -21.3518    12.6559    25.1027 </r>
       <r>   -21.2547    13.9895    26.4609 </r>
       <r>   -21.1576    15.1771    27.9344 </r>
       <r>   -21.0605    15.8194    29.4703 </r>
       <r>   -20.9634    15.3598    30.9616 </r>
       <r>   -20.8664    13.5007    32.2723 </r>
       <r>   -20.7693    11.5358    33.3923 </r>
       <r>   -20.6722    11.3528    34.4946 </r>
       <r>   -20.5751    12.5849    35.7164 </r>
       <r>   -20.4780    13.2501    37.0029 </r>
       <r>   -20.3809    12.9163    38.2569 </r>
       <r>   -20.2838    13.0538    39.5243 </r>
       <r>   -20.1867    14.5955    40.9413 </r>
       <r>   -20.0896    16.6120    42.5542 </r>
       <r>   -19.9925    17.4019    44.2437 </r>
       <r>   -19.8955    16.1061    45.8074 </r>
       <r>   -19.7984    13.3941    47.1079 </r>
       <r>   -19.7013    11.3694    48.2117 </r>
       <r>   -19.6042    11.9940    49.3762 </r>
       <r>   -19.5071    14.6323    50.7968 </r>
       <r>   -19.4100    16.3060    52.3800 </r>
       <r>   -19.3129    15.7014    53.9044 </r>
       <r>   -19.2158    14.6608    55.3278 </r>
       <r>   -19.1187    14.5032    56.7359 </r>
       <r>   -19.0217    14.3940    58.1334 </r>
       <r>   -18.9246    13.5134    59.4454 </r>
       <r>   -18.8275    12.5863    60.6674 </r>
       <r>   -18.7304    13.3869    61.9671 </r>
       <r>   -18.6333    15.9998    63.5205 </r>
       <r>   -18.5362    17.6586    65.2350 </r>
       <r>   -18.4391    16.7680    66.8630 </r>
       <r>   -18.3420    15.3758    68.3558 </r>
       <r>   -18.2449    15.7666    69.8866 </r>
       <r>   -18.1479    17.1768    71.5542 </r>
       <r>   -18.0508    17.1573    73.2200 </r>
       <r>   -17.9537    15.1889    74.6947 </r>
       <r>   -17.8566    13.4624    76.0018 </r>
       <r>   -17.7595    13.3861    77.3014 </r>
       <r>   -17.6624    13.5685    78.6188 </r>
       <r>   -17.5653    12.7762    79.8592 </r>
       <r>   -17.4682    11.7003    80.9952 </r>
       <r>   -17.3711    11.0396    82.0670 </r>
       <r>   -17.2741    10.7612    83.1118 </r>
       <r>   -17.1770    10.6009    84.1410 </r>
       <r>   -17.0799    10.3799    85.1488 </r>
       <r>   -16.9828    10.3211    86.1508 </r>
       <r>   -16.8857    10.3490    87.1556 </r>
       <r>   -16.7886    10.3614    88.1616 </r>
       <r>   -16.6915    11.1018    89.2395 </r>
       <r>   -16.5944    12.6480    90.4674 </r>
       <r>   -16.4973    13.9363    91.8205 </r>
       <r>   -16.4003    15.1070    93.2872 </r>
       <r>   -16.3032    16.9296    94.9309 </r>
       <r>   -16.2061    18.3491    96.7124 </r>
       <r>   -16.1090    18.0886    98.4686 </r>
       <r>   -16.0119    16.7741   100.0972 </r>
       <r>   -15.9148    15.6290   101.6146 </r>
       <r>   -15.8177    14.7544   103.0471 </r>
       <r>   -15.7206    13.5710   104.3647 </r>
       <r>   -15.6235    12.0641   105.5360 </r>
       <r>   -15.5264    10.8677   106.5911 </r>
       <r>   -15.4294    11.4408   107.7019 </r>
       <r>   -15.3323    15.1892   109.1766 </r>
       <r>   -15.2352    20.6615   111.1826 </r>
       <r>   -15.1381    24.2256   113.5347 </r>
       <r>   -15.0410    24.3802   115.9017 </r>
       <r>   -14.9439    22.4541   118.0817 </r>
       <r>   -14.8468    19.4941   119.9744 </r>
       <r>   -14.7497    15.5859   121.4876 </r>
       <r>   -14.6526    11.5063   122.6048 </r>
       <r>   -14.5556     8.8167   123.4608 </r>
       <r>   -14.4585     8.3666   124.2731 </r>
       <r>   -14.3614     9.3985   125.1856 </r>
       <r>   -14.2643    10.5012   126.2051 </r>
       <r>   -14.1672    11.3852   127.3105 </r>
       <r>   -14.0701    12.6488   128.5386 </r>
       <r>   -13.9730    14.1932   129.9166 </r>
       <r>   -13.8759    15.3581   131.4077 </r>
       <r>   -13.7788    16.1740   132.9780 </r>
       <r>   -13.6818    17.4011   134.6674 </r>
       <r>   -13.5847    19.0762   136.5195 </r>
       <r>   -13.4876    20.2074   138.4815 </r>
       <r>   -13.3905    20.1514   140.4379 </r>
       <r>   -13.2934    19.2771   142.3095 </r>
       <r>   -13.1963    18.1398   144.0707 </r>
       <r>   -13.0992    16.8099   145.7028 </r>
       <r>   -13.0021    15.6812   147.2252 </r>
       <r>   -12.9050    15.4882   148.7290 </r>
       <r>   -12.8080    15.7686   150.2599 </r>
       <r>   -12.7109    15.1267   151.7286 </r>
       <r>   -12.6138    13.3410   153.0238 </r>
       <r>   -12.5167    11.9457   154.1836 </r>
       <r>   -12.4196    12.4850   155.3958 </r>
       <r>   -12.3225    15.0023   156.8524 </r>
       <r>   -12.2254    18.5030   158.6488 </r>
       <r>   -12.1283    22.0081   160.7855 </r>
       <r>   -12.0312    24.4803   163.1623 </r>
       <r>   -11.9342    24.7792   165.5681 </r>
       <r>   -11.8371    22.9165   167.7930 </r>
       <r>   -11.7400    20.6493   169.7979 </r>
       <r>   -11.6429    19.2604   171.6678 </r>
       <r>   -11.5458    18.0011   173.4155 </r>
       <r>   -11.4487    16.4998   175.0175 </r>
       <r>   -11.3516    16.2711   176.5972 </r>
       <r>   -11.2545    18.4554   178.3891 </r>
       <r>   -11.1574    22.5762   180.5810 </r>
       <r>   -11.0604    27.4217   183.2433 </r>
       <r>   -10.9633    31.1979   186.2723 </r>
       <r>   -10.8662    32.7092   189.4480 </r>
       <r>   -10.7691    33.1725   192.6687 </r>
       <r>   -10.6720    34.5960   196.0276 </r>
       <r>   -10.5749    37.1076   199.6303 </r>
       <r>   -10.4778    38.8539   203.4026 </r>
       <r>   -10.3807    38.1290   207.1045 </r>
       <r>   -10.2836    35.6525   210.5660 </r>
       <r>   -10.1865    33.7900   213.8466 </r>
       <r>   -10.0895    33.6301   217.1117 </r>
       <r>    -9.9924    33.9124   220.4043 </r>
       <r>    -9.8953    33.3439   223.6416 </r>
       <r>    -9.7982    33.0584   226.8512 </r>
       <r>    -9.7011    34.6952   230.2197 </r>
       <r>    -9.6040    37.4414   233.8549 </r>
       <r>    -9.5069    39.6174   237.7013 </r>
       <r>    -9.4098    40.8473   241.6671 </r>
       <r>    -9.3127    40.6520   245.6140 </r>
       <r>    -9.2157    37.7896   249.2829 </r>
       <r>    -9.1186    33.1429   252.5008 </r>
       <r>    -9.0215    30.2452   255.4372 </r>
       <r>    -8.9244    30.9745   258.4445 </r>
       <r>    -8.8273    33.9336   261.7391 </r>
       <r>    -8.7302    36.7851   265.3105 </r>
       <r>    -8.6331    37.5085   268.9522 </r>
       <r>    -8.5360    35.6009   272.4087 </r>
       <r>    -8.4389    32.9753   275.6102 </r>
       <r>    -8.3419    31.4533   278.6640 </r>
       <r>    -8.2448    30.6263   281.6375 </r>
       <r>    -8.1477    29.2652   284.4788 </r>
       <r>    -8.0506    27.1095   287.1108 </r>
       <r>    -7.9535    25.1578   289.5534 </r>
       <r>    -7.8564    24.8184   291.9630 </r>
       <r>    -7.7593    26.5561   294.5413 </r>
       <r>    -7.6622    29.1646   297.3728 </r>
       <r>    -7.5651    30.6803   300.3516 </r>
       <r>    -7.4681    30.4032   303.3034 </r>
       <r>    -7.3710    29.1418   306.1327 </r>
       <r>    -7.2739    27.5510   308.8076 </r>
       <r>    -7.1768    25.8273   311.3152 </r>
       <r>    -7.0797    24.7504   313.7182 </r>
       <r>    -6.9826    25.2267   316.1674 </r>
       <r>    -6.8855    26.4208   318.7326 </r>
       <r>    -6.7884    26.5189   321.3073 </r>
       <r>    -6.6913    25.4446   323.7777 </r>
       <r>    -6.5943    24.0351   326.1112 </r>
       <r>    -6.4972    22.2054   328.2671 </r>
       <r>    -6.4001    20.3213   330.2401 </r>
       <r>    -6.3030    19.9422   332.1763 </r>
       <r>    -6.2059    21.4954   334.2632 </r>
       <r>    -6.1088    23.2827   336.5237 </r>
       <r>    -6.0117    24.3528   338.8881 </r>
       <r>    -5.9146    25.3835   341.3526 </r>
       <r>    -5.8175    25.8160   343.8591 </r>
       <r>    -5.7205    24.1178   346.2006 </r>
       <r>    -5.6234    20.3459   348.1760 </r>
       <r>    -5.5263    15.7706   349.7071 </r>
       <r>    -5.4292    11.8081   350.8536 </r>
       <r>    -5.3321    10.0061   351.8251 </r>
       <r>    -5.2350    10.7840   352.8721 </r>
       <r>    -5.1379    12.1283   354.0496 </r>
       <r>    -5.0408    11.6736   355.1830 </r>
       <r>    -4.9437     9.7312   356.1278 </r>
       <r>    -4.8466     8.5975   356.9625 </r>
       <r>    -4.7496     9.5409   357.8888 </r>
       <r>    -4.6525    11.8796   359.0422 </r>
       <r>    -4.5554    14.2454   360.4253 </r>
       <r>    -4.4583    15.0931   361.8907 </r>
       <r>    -4.3612    13.1507   363.1674 </r>
       <r>    -4.2641     9.1153   364.0524 </r>
       <r>    -4.1670     5.3961   364.5763 </r>
       <r>    -4.0699     3.4001   364.9065 </r>
       <r>    -3.9728     2.6928   365.1679 </r>
       <r>    -3.8758     2.5080   365.4114 </r>
       <r>    -3.7787     2.6675   365.6704 </r>
       <r>    -3.6816     3.1554   365.9767 </r>
       <r>    -3.5845     3.6770   366.3337 </r>
       <r>    -3.4874     3.9931   366.7214 </r>
       <r>    -3.3903     4.0048   367.1102 </r>
       <r>    -3.2932     3.7579   367.4751 </r>
       <r>    -3.1961     3.7550   367.8397 </r>
       <r>    -3.0990     4.3211   368.2592 </r>
       <r>    -3.0020     4.9768   368.7424 </r>
       <r>    -2.9049     5.2015   369.2474 </r>
       <r>    -2.8078     5.4157   369.7732 </r>
       <r>    -2.7107     6.4863   370.4029 </r>
       <r>    -2.6136     8.0697   371.1864 </r>
       <r>    -2.5165     8.4171   372.0036 </r>
       <r>    -2.4194     6.7824   372.6621 </r>
       <r>    -2.3223     4.9590   373.1436 </r>
       <r>    -2.2252     4.9787   373.6270 </r>
       <r>    -2.1282     6.5338   374.2613 </r>
       <r>    -2.0311     7.4943   374.9889 </r>
       <r>    -1.9340     6.6900   375.6385 </r>
       <r>    -1.8369     5.8358   376.2051 </r>
       <r>    -1.7398     7.4745   376.9308 </r>
       <r>    -1.6427    11.8979   378.0859 </r>
       <r>    -1.5456    17.3157   379.7671 </r>
       <r>    -1.4485    21.5976   381.8640 </r>
       <r>    -1.3514    23.4088   384.1367 </r>
       <r>    -1.2544    22.9119   386.3612 </r>
       <r>    -1.1573    21.1377   388.4134 </r>
       <r>    -1.0602    18.7747   390.2363 </r>
       <r>    -0.9631    16.3932   391.8279 </r>
       <r>    -0.8660    14.7452   393.2595 </r>
       <r>    -0.7689    14.1586   394.6341 </r>
       <r>    -0.6718    14.1727   396.0101 </r>
       <r>    -0.5747    13.7888   397.3489 </r>
       <r>    -0.4776    12.2234   398.5356 </r>
       <r>    -0.3805    10.2699   399.5327 </r>
       <r>    -0.2835    10.2745   400.5303 </r>
       <r>    -0.1864    13.2822   401.8198 </r>
       <r>    -0.0893    17.1715   403.4870 </r>
       <r>     0.0078    19.3977   405.3703 </r>
       <r>     0.1049    20.1409   407.3258 </r>
       <r>     0.2020    20.9307   409.3579 </r>
       <r>     0.2991    21.8731   411.4816 </r>
       <r>     0.3962    21.5256   413.5715 </r>
       <r>     0.4933    19.6152   415.4759 </r>
       <r>     0.5903    18.7059   417.2920 </r>
       <r>     0.6874    21.1486   419.3453 </r>
       <r>     0.7845    25.9148   421.8614 </r>
       <r>     0.8816    30.2854   424.8017 </r>
       <r>     0.9787    33.7314   428.0767 </r>
       <r>     1.0758    37.7086   431.7378 </r>
       <r>     1.1729    42.5283   435.8668 </r>
       <r>     1.2700    47.1791   440.4474 </r>
       <r>     1.3671    49.9750   445.2994 </r>
       <r>     1.4641    49.2297   450.0791 </r>
       <r>     1.5612    44.9247   454.4408 </r>
       <r>     1.6583    38.0211   458.1322 </r>
       <r>     1.7554    28.7996   460.9284 </r>
       <r>     1.8525    18.1348   462.6891 </r>
       <r>     1.9496     8.9118   463.5543 </r>
       <r>     2.0467     3.3548   463.8800 </r>
       <r>     2.1438     0.9770   463.9749 </r>
       <r>     2.2409     0.2185   463.9961 </r>
       <r>     2.3379     0.0358   463.9996 </r>
       <r>     2.4350     0.0041   464.0000 </r>
       <r>     2.5321     0.0003   464.0000 </r>
       <r>     2.6292     0.0000   464.0000 </r>
       <r>     2.7263     0.0000   464.0000 </r>
       <r>     2.8234     0.0000   464.0000 </r>
       <r>     2.9205     0.0000   464.0000 </r>
       <r>     3.0176     0.0000   464.0000 </r>
       <r>     3.1147     0.0000   464.0000 </r>
       <r>     3.2117     0.0000   464.0000 </r>
       <r>     3.3088     0.0000   464.0000 </r>
       <r>     3.4059     0.0000   464.0000 </r>
       <r>     3.5030     0.0000   464.0000 </r>
       <r>     3.6001     0.0000   464.0000 </r>
       <r>     3.6972     0.0000   464.0000 </r>
       <r>     3.7943     0.0000   464.0000 </r>
       <r>     3.8914     0.0000   464.0000 </r>
      </set>
     </set>
    </array>
   </total>
  </dos>
 </calculation>
 <structure name="finalpos" >
  <crystal>
   <varray name="basis" >
    <v>      28.05000000       0.00000000       0.00000000 </v>
    <v>       0.00000000       8.10000000       0.00000000 </v>
    <v>       0.00000000       0.00000000      33.50000000 </v>
   </varray>
   <i name="volume">   7611.36750000 </i>
   <varray name="rec_basis" >
    <v>       0.03565062       0.00000000       0.00000000 </v>
    <v>       0.00000000       0.12345679       0.00000000 </v>
    <v>       0.00000000       0.00000000       0.02985075 </v>
   </varray>
  </crystal>
  <varray name="positions" >
   <v>       0.00751276       0.10784753       0.44815821 </v>
   <v>       0.00988952       0.27910247       0.44648955 </v>
   <v>       0.05161105       0.02449086       0.45370746 </v>
   <v>       0.05220392       0.36500247       0.45377910 </v>
   <v>       0.09781355       0.10189049       0.45815224 </v>
   <v>       0.09696720       0.27337901       0.45943284 </v>
   <v>       0.13961390       0.02140951       0.46902687 </v>
   <v>       0.13745383       0.35329012       0.47236418 </v>
   <v>       0.18253298       0.10708148       0.47960597 </v>
   <v>       0.18205989       0.27399753       0.47945373 </v>
   <v>       0.22444528       0.02362358       0.49201493 </v>
   <v>       0.22526560       0.35136173       0.49224179 </v>
   <v>       0.26709554       0.10454593       0.49850149 </v>
   <v>       0.26865312       0.27283086       0.49759104 </v>
   <v>       0.31050018       0.02215099       0.51273731 </v>
   <v>       0.31072299       0.35349630       0.51122985 </v>
   <v>       0.35089519       0.09997691       0.52380896 </v>
   <v>       0.35294902       0.27271605       0.52201791 </v>
   <v>       0.39387522       0.01888025       0.53427164 </v>
   <v>       0.39486631       0.34945185       0.53416119 </v>
   <v>       0.43672727       0.09809272       0.53937313 </v>
   <v>       0.43853119       0.27243457       0.53802687 </v>
   <v>       0.48257398       0.02245494       0.54388955 </v>
   <v>       0.48220321       0.35217284       0.54500896 </v>
   <v>       0.52717291       0.10188383       0.54402090 </v>
   <v>       0.52731194       0.27141605       0.54601791 </v>
   <v>       0.57190731       0.02187679       0.53865672 </v>
   <v>       0.57260250       0.35483086       0.54516418 </v>
   <v>       0.61611052       0.10799716       0.53428657 </v>
   <v>       0.61580749       0.27305432       0.53717015 </v>
   <v>       0.65575758       0.02385457       0.52014627 </v>
   <v>       0.65951872       0.35181975       0.52805672 </v>
   <v>       0.69851337       0.10034580       0.50653433 </v>
   <v>       0.70099822       0.26748395       0.51364478 </v>
   <v>       0.73914795       0.01912753       0.49106866 </v>
   <v>       0.73935829       0.35475432       0.49832836 </v>
   <v>       0.78150089       0.10576259       0.47982687 </v>
   <v>       0.78103030       0.27090988       0.48168060 </v>
   <v>       0.82371480       0.02967099       0.46874925 </v>
   <v>       0.82627094       0.35510617       0.47402388 </v>
   <v>       0.86655971       0.10905716       0.45828358 </v>
   <v>       0.86690909       0.27700000       0.46184776 </v>
   <v>       0.91142246       0.02509210       0.45152836 </v>
   <v>       0.91152941       0.36143457       0.45062388 </v>
   <v>       0.95582888       0.11013407       0.45177612 </v>
   <v>       0.95573975       0.28014691       0.45030746 </v>
   <v>       0.00629811       0.60427160       0.45572239 </v>
   <v>       0.00511323       0.77495679       0.45949552 </v>
   <v>       0.04813119       0.52299383       0.46332239 </v>
   <v>       0.04968200       0.85669259       0.46065970 </v>
   <v>       0.09471551       0.60133827       0.47194328 </v>
   <v>       0.09248699       0.77258889       0.47105970 </v>
   <v>       0.13684171       0.51992099       0.48100896 </v>
   <v>       0.13726845       0.85676790       0.47683582 </v>
   <v>       0.17910267       0.60521481       0.49179104 </v>
   <v>       0.17935508       0.77363704       0.48978209 </v>
   <v>       0.22248699       0.51753580       0.49792239 </v>
   <v>       0.22348342       0.84925432       0.49832239 </v>
   <v>       0.26668200       0.59837531       0.50696716 </v>
   <v>       0.26479501       0.76811605       0.50916716 </v>
   <v>       0.30889840       0.51722099       0.51697910 </v>
   <v>       0.30820570       0.85757284       0.52106567 </v>
   <v>       0.34961319       0.60311111       0.53252537 </v>
   <v>       0.35027522       0.77403333       0.53334925 </v>
   <v>       0.39358645       0.51651728       0.54277015 </v>
   <v>       0.39404635       0.84832099       0.53948358 </v>
   <v>       0.43833155       0.59555432       0.55071940 </v>
   <v>       0.43839216       0.76450247       0.54808955 </v>
   <v>       0.48245633       0.51558889       0.55261194 </v>
   <v>       0.48238503       0.85561235       0.54958209 </v>
   <v>       0.52596078       0.60197037       0.55591940 </v>
   <v>       0.52793939       0.76244691       0.55161194 </v>
   <v>       0.57351159       0.52217654       0.55091940 </v>
   <v>       0.57095544       0.85305679       0.54092537 </v>
   <v>       0.61546524       0.60141111       0.54078507 </v>
   <v>       0.61691622       0.77614691       0.53832537 </v>
   <v>       0.65699822       0.51886420       0.52905970 </v>
   <v>       0.65454902       0.85146914       0.51914925 </v>
   <v>       0.70086275       0.60652716       0.51755821 </v>
   <v>       0.69975758       0.77228765       0.51161194 </v>
   <v>       0.74183601       0.52490247       0.50342985 </v>
   <v>       0.74079144       0.84916914       0.49429254 </v>
   <v>       0.78421034       0.60594444       0.48920597 </v>
   <v>       0.78284492       0.77631852       0.48343881 </v>
   <v>       0.82444563       0.52451605       0.47396418 </v>
   <v>       0.82690196       0.85849383       0.47276119 </v>
   <v>       0.86800357       0.60752840       0.46782388 </v>
   <v>       0.86965775       0.77937901       0.46675224 </v>
   <v>       0.90964706       0.52636667       0.46085075 </v>
   <v>       0.91245989       0.85927654       0.45728657 </v>
   <v>       0.95483779       0.60455062       0.45866866 </v>
   <v>       0.95481283       0.77404691       0.45768657 </v>
  </varray>
 </structure>
</modeling>
