  92  92   0   0
  0.8273226E+02  0.2805000E-08  0.8100000E-09  0.3350000E-08  0.5000000E-15
   1.0000000000000000E-004
  CAR 
 unknown system                          
      3.76593971    -25.19931577  301     -3.13357337      1.00000000
    -25.199  0.0000E+00  0.0000E+00
    -25.103  0.0000E+00  0.0000E+00
    -25.006  0.0000E+00  0.0000E+00
    -24.910  0.0000E+00  0.0000E+00
    -24.813  0.0000E+00  0.0000E+00
    -24.717  0.0000E+00  0.0000E+00
    -24.620  0.0000E+00  0.0000E+00
    -24.523  0.0000E+00  0.0000E+00
    -24.427  0.0000E+00  0.0000E+00
    -24.330  0.3162E-14  0.3053E-15
    -24.234  0.6753E-12  0.6550E-13
    -24.137  0.8734E-10  0.8499E-11
    -24.041  0.7178E-08  0.7015E-09
    -23.944  0.3763E-06  0.3703E-07
    -23.848  0.1265E-04  0.1258E-05
    -23.751  0.2743E-03  0.2775E-04
    -23.655  0.3875E-02  0.4019E-03
    -23.558  0.3607E-01  0.3885E-02
    -23.461  0.2246E+00  0.2557E-01
    -23.365  0.9526E+00  0.1175E+00
    -23.268  0.2820E+01  0.3898E+00
    -23.172  0.6013E+01  0.9704E+00
    -23.075  0.9635E+01  0.1901E+01
    -22.979  0.1223E+02  0.3082E+01
    -22.882  0.1322E+02  0.4358E+01
    -22.786  0.1365E+02  0.5676E+01
    -22.689  0.1502E+02  0.7127E+01
    -22.592  0.1669E+02  0.8738E+01
    -22.496  0.1636E+02  0.1032E+02
    -22.399  0.1415E+02  0.1168E+02
    -22.303  0.1260E+02  0.1290E+02
    -22.206  0.1277E+02  0.1413E+02
    -22.110  0.1358E+02  0.1544E+02
    -22.013  0.1411E+02  0.1681E+02
    -21.917  0.1420E+02  0.1818E+02
    -21.820  0.1373E+02  0.1950E+02
    -21.723  0.1293E+02  0.2075E+02
    -21.627  0.1227E+02  0.2194E+02
    -21.530  0.1179E+02  0.2307E+02
    -21.434  0.1147E+02  0.2418E+02
    -21.337  0.1183E+02  0.2532E+02
    -21.241  0.1339E+02  0.2662E+02
    -21.144  0.1552E+02  0.2811E+02
    -21.048  0.1654E+02  0.2971E+02
    -20.951  0.1531E+02  0.3119E+02
    -20.855  0.1299E+02  0.3244E+02
    -20.758  0.1202E+02  0.3360E+02
    -20.661  0.1293E+02  0.3485E+02
    -20.565  0.1405E+02  0.3621E+02
    -20.468  0.1412E+02  0.3757E+02
    -20.372  0.1346E+02  0.3887E+02
    -20.275  0.1312E+02  0.4014E+02
    -20.179  0.1367E+02  0.4146E+02
    -20.082  0.1470E+02  0.4288E+02
    -19.986  0.1530E+02  0.4435E+02
    -19.889  0.1489E+02  0.4579E+02
    -19.792  0.1372E+02  0.4712E+02
    -19.696  0.1355E+02  0.4843E+02
    -19.599  0.1550E+02  0.4992E+02
    -19.503  0.1717E+02  0.5158E+02
    -19.406  0.1575E+02  0.5310E+02
    -19.310  0.1269E+02  0.5433E+02
    -19.213  0.1153E+02  0.5544E+02
    -19.117  0.1309E+02  0.5670E+02
    -19.020  0.1477E+02  0.5813E+02
    -18.924  0.1427E+02  0.5951E+02
    -18.827  0.1265E+02  0.6073E+02
    -18.730  0.1264E+02  0.6195E+02
    -18.634  0.1501E+02  0.6340E+02
    -18.537  0.1756E+02  0.6509E+02
    -18.441  0.1791E+02  0.6682E+02
    -18.344  0.1691E+02  0.6846E+02
    -18.248  0.1683E+02  0.7008E+02
    -18.151  0.1740E+02  0.7176E+02
    -18.055  0.1677E+02  0.7338E+02
    -17.958  0.1487E+02  0.7481E+02
    -17.861  0.1332E+02  0.7610E+02
    -17.765  0.1272E+02  0.7733E+02
    -17.668  0.1230E+02  0.7852E+02
    -17.572  0.1183E+02  0.7966E+02
    -17.475  0.1180E+02  0.8080E+02
    -17.379  0.1196E+02  0.8195E+02
    -17.282  0.1164E+02  0.8308E+02
    -17.186  0.1126E+02  0.8416E+02
    -17.089  0.1149E+02  0.8527E+02
    -16.992  0.1170E+02  0.8640E+02
    -16.896  0.1113E+02  0.8748E+02
    -16.799  0.1062E+02  0.8850E+02
    -16.703  0.1140E+02  0.8960E+02
    -16.606  0.1288E+02  0.9085E+02
    -16.510  0.1378E+02  0.9218E+02
    -16.413  0.1433E+02  0.9356E+02
    -16.317  0.1538E+02  0.9505E+02
    -16.220  0.1692E+02  0.9668E+02
    -16.124  0.1836E+02  0.9845E+02
    -16.027  0.1880E+02  0.1003E+03
    -15.930  0.1743E+02  0.1020E+03
    -15.834  0.1464E+02  0.1034E+03
    -15.737  0.1211E+02  0.1045E+03
    -15.641  0.1113E+02  0.1056E+03
    -15.544  0.1163E+02  0.1067E+03
    -15.448  0.1366E+02  0.1081E+03
    -15.351  0.1750E+02  0.1097E+03
    -15.255  0.2149E+02  0.1118E+03
    -15.158  0.2315E+02  0.1141E+03
    -15.061  0.2213E+02  0.1162E+03
    -14.965  0.1984E+02  0.1181E+03
    -14.868  0.1732E+02  0.1198E+03
    -14.772  0.1472E+02  0.1212E+03
    -14.675  0.1206E+02  0.1224E+03
    -14.579  0.9860E+01  0.1233E+03
    -14.482  0.8945E+01  0.1242E+03
    -14.386  0.9457E+01  0.1251E+03
    -14.289  0.1069E+02  0.1261E+03
    -14.193  0.1194E+02  0.1273E+03
    -14.096  0.1324E+02  0.1286E+03
    -13.999  0.1490E+02  0.1300E+03
    -13.903  0.1649E+02  0.1316E+03
    -13.806  0.1734E+02  0.1333E+03
    -13.710  0.1759E+02  0.1350E+03
    -13.613  0.1772E+02  0.1367E+03
    -13.517  0.1801E+02  0.1384E+03
    -13.420  0.1864E+02  0.1402E+03
    -13.324  0.1936E+02  0.1421E+03
    -13.227  0.1927E+02  0.1439E+03
    -13.130  0.1747E+02  0.1456E+03
    -13.034  0.1472E+02  0.1470E+03
    -12.937  0.1329E+02  0.1483E+03
    -12.841  0.1386E+02  0.1497E+03
    -12.744  0.1479E+02  0.1511E+03
    -12.648  0.1477E+02  0.1525E+03
    -12.551  0.1419E+02  0.1539E+03
    -12.455  0.1431E+02  0.1553E+03
    -12.358  0.1580E+02  0.1568E+03
    -12.262  0.1847E+02  0.1586E+03
    -12.165  0.2193E+02  0.1607E+03
    -12.068  0.2485E+02  0.1631E+03
    -11.972  0.2556E+02  0.1656E+03
    -11.875  0.2401E+02  0.1679E+03
    -11.779  0.2117E+02  0.1699E+03
    -11.682  0.1771E+02  0.1716E+03
    -11.586  0.1461E+02  0.1730E+03
    -11.489  0.1345E+02  0.1743E+03
    -11.393  0.1522E+02  0.1758E+03
    -11.296  0.1916E+02  0.1777E+03
    -11.199  0.2355E+02  0.1799E+03
    -11.103  0.2741E+02  0.1826E+03
    -11.006  0.3065E+02  0.1855E+03
    -10.910  0.3306E+02  0.1887E+03
    -10.813  0.3388E+02  0.1920E+03
    -10.717  0.3331E+02  0.1952E+03
    -10.620  0.3360E+02  0.1985E+03
    -10.524  0.3608E+02  0.2019E+03
    -10.427  0.3860E+02  0.2057E+03
    -10.330  0.3844E+02  0.2094E+03
    -10.234  0.3609E+02  0.2129E+03
    -10.137  0.3431E+02  0.2162E+03
    -10.041  0.3404E+02  0.2195E+03
     -9.944  0.3395E+02  0.2228E+03
     -9.848  0.3374E+02  0.2260E+03
     -9.751  0.3491E+02  0.2294E+03
     -9.655  0.3785E+02  0.2330E+03
     -9.558  0.4104E+02  0.2370E+03
     -9.462  0.4288E+02  0.2411E+03
     -9.365  0.4247E+02  0.2452E+03
     -9.268  0.3889E+02  0.2490E+03
     -9.172  0.3269E+02  0.2521E+03
     -9.075  0.2761E+02  0.2548E+03
     -8.979  0.2726E+02  0.2574E+03
     -8.882  0.3114E+02  0.2605E+03
     -8.786  0.3580E+02  0.2639E+03
     -8.689  0.3838E+02  0.2676E+03
     -8.593  0.3796E+02  0.2713E+03
     -8.496  0.3492E+02  0.2747E+03
     -8.399  0.3118E+02  0.2777E+03
     -8.303  0.2924E+02  0.2805E+03
     -8.206  0.2908E+02  0.2833E+03
     -8.110  0.2852E+02  0.2860E+03
     -8.013  0.2690E+02  0.2886E+03
     -7.917  0.2578E+02  0.2911E+03
     -7.820  0.2621E+02  0.2937E+03
     -7.724  0.2745E+02  0.2963E+03
     -7.627  0.2831E+02  0.2990E+03
     -7.531  0.2873E+02  0.3018E+03
     -7.434  0.2921E+02  0.3046E+03
     -7.337  0.2943E+02  0.3075E+03
     -7.241  0.2823E+02  0.3102E+03
     -7.144  0.2573E+02  0.3127E+03
     -7.048  0.2362E+02  0.3150E+03
     -6.951  0.2298E+02  0.3172E+03
     -6.855  0.2340E+02  0.3195E+03
     -6.758  0.2418E+02  0.3218E+03
     -6.662  0.2491E+02  0.3242E+03
     -6.565  0.2490E+02  0.3266E+03
     -6.468  0.2330E+02  0.3288E+03
     -6.372  0.2083E+02  0.3309E+03
     -6.275  0.1956E+02  0.3327E+03
     -6.179  0.1998E+02  0.3347E+03
     -6.082  0.2140E+02  0.3367E+03
     -5.986  0.2372E+02  0.3390E+03
     -5.889  0.2607E+02  0.3415E+03
     -5.793  0.2649E+02  0.3441E+03
     -5.696  0.2435E+02  0.3465E+03
     -5.599  0.2054E+02  0.3484E+03
     -5.503  0.1595E+02  0.3500E+03
     -5.406  0.1165E+02  0.3511E+03
     -5.310  0.9710E+01  0.3520E+03
     -5.213  0.1095E+02  0.3531E+03
     -5.117  0.1271E+02  0.3543E+03
     -5.020  0.1193E+02  0.3555E+03
     -4.924  0.9317E+01  0.3564E+03
     -4.827  0.7859E+01  0.3571E+03
     -4.731  0.8979E+01  0.3580E+03
     -4.634  0.1182E+02  0.3591E+03
     -4.537  0.1465E+02  0.3606E+03
     -4.441  0.1562E+02  0.3621E+03
     -4.344  0.1335E+02  0.3634E+03
     -4.248  0.8859E+01  0.3642E+03
     -4.151  0.4918E+01  0.3647E+03
     -4.055  0.2936E+01  0.3650E+03
     -3.958  0.2569E+01  0.3652E+03
     -3.862  0.3047E+01  0.3655E+03
     -3.765  0.3591E+01  0.3659E+03
     -3.668  0.3666E+01  0.3662E+03
     -3.572  0.3451E+01  0.3665E+03
     -3.475  0.3402E+01  0.3669E+03
     -3.379  0.3313E+01  0.3672E+03
     -3.282  0.3011E+01  0.3675E+03
     -3.186  0.3206E+01  0.3678E+03
     -3.089  0.4261E+01  0.3682E+03
     -2.993  0.5361E+01  0.3687E+03
     -2.896  0.5755E+01  0.3693E+03
     -2.800  0.5731E+01  0.3698E+03
     -2.703  0.5706E+01  0.3704E+03
     -2.606  0.5744E+01  0.3709E+03
     -2.510  0.6194E+01  0.3715E+03
     -2.413  0.6936E+01  0.3722E+03
     -2.317  0.7332E+01  0.3729E+03
     -2.220  0.7708E+01  0.3737E+03
     -2.124  0.8240E+01  0.3745E+03
     -2.027  0.7763E+01  0.3752E+03
     -1.931  0.6205E+01  0.3758E+03
     -1.834  0.5972E+01  0.3764E+03
     -1.737  0.9139E+01  0.3773E+03
     -1.641  0.1476E+02  0.3787E+03
     -1.544  0.1988E+02  0.3806E+03
     -1.448  0.2220E+02  0.3827E+03
     -1.351  0.2153E+02  0.3848E+03
     -1.255  0.1965E+02  0.3867E+03
     -1.158  0.1861E+02  0.3885E+03
     -1.062  0.1843E+02  0.3903E+03
     -0.965  0.1745E+02  0.3920E+03
     -0.869  0.1508E+02  0.3934E+03
     -0.772  0.1279E+02  0.3947E+03
     -0.675  0.1186E+02  0.3958E+03
     -0.579  0.1214E+02  0.3970E+03
     -0.482  0.1263E+02  0.3982E+03
     -0.386  0.1262E+02  0.3994E+03
     -0.289  0.1284E+02  0.4007E+03
     -0.193  0.1442E+02  0.4021E+03
     -0.096  0.1686E+02  0.4037E+03
      0.000  0.1868E+02  0.4055E+03
      0.097  0.1954E+02  0.4074E+03
      0.194  0.2044E+02  0.4094E+03
      0.290  0.2151E+02  0.4114E+03
      0.387  0.2109E+02  0.4135E+03
      0.483  0.1897E+02  0.4153E+03
      0.580  0.1837E+02  0.4171E+03
      0.676  0.2156E+02  0.4192E+03
      0.773  0.2645E+02  0.4217E+03
      0.869  0.2992E+02  0.4246E+03
      0.966  0.3216E+02  0.4277E+03
      1.063  0.3537E+02  0.4311E+03
      1.159  0.4011E+02  0.4350E+03
      1.256  0.4550E+02  0.4394E+03
      1.352  0.5034E+02  0.4442E+03
      1.449  0.5245E+02  0.4493E+03
      1.545  0.4949E+02  0.4541E+03
      1.642  0.4140E+02  0.4581E+03
      1.738  0.3029E+02  0.4610E+03
      1.835  0.1853E+02  0.4628E+03
      1.931  0.8746E+01  0.4636E+03
      2.028  0.2953E+01  0.4639E+03
      2.125  0.6794E+00  0.4640E+03
      2.221  0.1037E+00  0.4640E+03
      2.318  0.1035E-01  0.4640E+03
      2.414  0.6718E-03  0.4640E+03
      2.511  0.2819E-04  0.4640E+03
      2.607  0.7628E-06  0.4640E+03
      2.704  0.1328E-07  0.4640E+03
      2.800  0.1483E-09  0.4640E+03
      2.897  0.1062E-11  0.4640E+03
      2.994  0.3450E-14  0.4640E+03
      3.090  0.0000E+00  0.4640E+03
      3.187  0.0000E+00  0.4640E+03
      3.283  0.0000E+00  0.4640E+03
      3.380  0.0000E+00  0.4640E+03
      3.476  0.0000E+00  0.4640E+03
      3.573  0.0000E+00  0.4640E+03
      3.669  0.0000E+00  0.4640E+03
      3.766  0.0000E+00  0.4640E+03
