<?xml version="1.0" encoding="ISO-8859-1"?>
<modeling>
 <generator>
  <i name="program" type="string">vasp </i>
  <i name="version" type="string">6.5.0  </i>
  <i name="subversion" type="string">16Dec24 (build Feb 19 2025 19:45:31) complex                          parallel </i>
  <i name="platform" type="string">LinuxNV </i>
  <i name="date" type="string">2025 10 25 </i>
  <i name="time" type="string">15:02:34 </i>
 </generator>
 <incar>
  <i type="int" name="ISTART">     0</i>
  <i type="string" name="PREC">Accurate   (Precision level)</i>
  <i type="string" name="ALGO">Normal</i>
  <i type="int" name="ISPIN">     1</i>
  <i type="int" name="ICHARG">     2</i>
  <i type="int" name="NELM">   150</i>
  <i type="int" name="IBRION">    -1</i>
  <i name="EDIFF">      0.00000100</i>
  <i type="int" name="NSW">     0</i>
  <i name="ENCUT">    500.00000000</i>
  <i type="string" name="LREAL">Auto         (Projection operators: automatic)</i>
  <i type="int" name="ISMEAR">     0</i>
  <i type="logical" name="KGAMMA"> T  </i>
  <i type="logical" name="LWAVE"> F  </i>
  <i type="logical" name="LCHARG"> F  </i>
 </incar>
 <primitive_cell>
  <structure name="primitive_cell" >
   <crystal>
    <varray name="basis" >
     <v>      28.05000000       0.00000000       0.00000000 </v>
     <v>       0.00000000       8.10000000       0.00000000 </v>
     <v>       0.00000000       0.00000000      33.50000000 </v>
    </varray>
    <i name="volume">   7611.36750000 </i>
    <varray name="rec_basis" >
     <v>       0.03565062       0.00000000       0.00000000 </v>
     <v>       0.00000000       0.12345679       0.00000000 </v>
     <v>       0.00000000       0.00000000       0.02985075 </v>
    </varray>
   </crystal>
   <varray name="positions" >
    <v>       0.00461458       0.10084889       0.50743881 </v>
    <v>       0.00275462       0.27850741       0.51014030 </v>
    <v>       0.04606310       0.01747506       0.49976716 </v>
    <v>       0.04749697       0.35458642       0.50393433 </v>
    <v>       0.09003886       0.10384667       0.48876716 </v>
    <v>       0.09022068       0.27239753       0.48777612 </v>
    <v>       0.13358788       0.02182728       0.48368657 </v>
    <v>       0.13486025       0.35226543       0.48555522 </v>
    <v>       0.17518859       0.10674914       0.47225075 </v>
    <v>       0.17784599       0.27273086       0.47520597 </v>
    <v>       0.21979715       0.02455938       0.46474925 </v>
    <v>       0.21944635       0.35380864       0.46337612 </v>
    <v>       0.26405989       0.10477654       0.45849552 </v>
    <v>       0.26329947       0.27674444       0.45729552 </v>
    <v>       0.30930588       0.02430679       0.45953731 </v>
    <v>       0.30772193       0.35975556       0.45628358 </v>
    <v>       0.35380998       0.10391975       0.45562388 </v>
    <v>       0.35285312       0.27959383       0.45313433 </v>
    <v>       0.39715865       0.01798469       0.46074925 </v>
    <v>       0.39715508       0.35537037       0.45704179 </v>
    <v>       0.44140107       0.10326691       0.46396119 </v>
    <v>       0.44226738       0.27542469       0.46164478 </v>
    <v>       0.48426738       0.02212012       0.47265970 </v>
    <v>       0.48363280       0.35185309       0.47171642 </v>
    <v>       0.52820677       0.10537358       0.47533134 </v>
    <v>       0.52935116       0.27593951       0.47534328 </v>
    <v>       0.57214973       0.02627235       0.48635522 </v>
    <v>       0.57196791       0.35146173       0.48605075 </v>
    <v>       0.61723708       0.10358481       0.49080597 </v>
    <v>       0.61529055       0.27306790       0.49423284 </v>
    <v>       0.65856328       0.01982605       0.50699403 </v>
    <v>       0.65659893       0.35531358       0.51003582 </v>
    <v>       0.70100178       0.09947099       0.51557313 </v>
    <v>       0.70028520       0.27127654       0.51628657 </v>
    <v>       0.74280927       0.02009160       0.52823881 </v>
    <v>       0.74244563       0.35969630       0.53239701 </v>
    <v>       0.78504813       0.10585605       0.53447463 </v>
    <v>       0.78536185       0.27164691       0.53486269 </v>
    <v>       0.82735116       0.01416556       0.54178507 </v>
    <v>       0.82718717       0.35627531       0.54272836 </v>
    <v>       0.87236007       0.10478840       0.53821791 </v>
    <v>       0.87220677       0.26946790       0.53902687 </v>
    <v>       0.91605348       0.02288370       0.52899403 </v>
    <v>       0.91525490       0.35835185       0.53779403 </v>
    <v>       0.95556506       0.10290481       0.51909254 </v>
    <v>       0.95477362       0.27540000       0.52319104 </v>
    <v>       0.01133729       0.60354815       0.52716716 </v>
    <v>       0.01074984       0.77382593       0.52408955 </v>
    <v>       0.05074403       0.51696914       0.51389851 </v>
    <v>       0.04979501       0.85725062       0.50770746 </v>
    <v>       0.09378360       0.60318395       0.50276716 </v>
    <v>       0.09311230       0.77053580       0.50309254 </v>
    <v>       0.13514225       0.52398395       0.49012239 </v>
    <v>       0.13595758       0.85348765       0.49220896 </v>
    <v>       0.17809733       0.60386667       0.48194925 </v>
    <v>       0.17894296       0.77404198       0.48582090 </v>
    <v>       0.22156970       0.52064815       0.46981493 </v>
    <v>       0.22024563       0.85342716       0.47348060 </v>
    <v>       0.26421711       0.60288148       0.47068060 </v>
    <v>       0.26460036       0.77323827       0.47461791 </v>
    <v>       0.30952050       0.52053580       0.46645672 </v>
    <v>       0.30879073       0.85870370       0.47233731 </v>
    <v>       0.35304599       0.60310741       0.47336716 </v>
    <v>       0.35318717       0.76867901       0.47275224 </v>
    <v>       0.39749733       0.51645802       0.47130746 </v>
    <v>       0.39660963       0.85397654       0.46852239 </v>
    <v>       0.43999287       0.60070988       0.47485373 </v>
    <v>       0.44100178       0.76736914       0.47526269 </v>
    <v>       0.48400713       0.52046420       0.47880597 </v>
    <v>       0.48505169       0.84791975       0.47912836 </v>
    <v>       0.52841355       0.60099753       0.49003881 </v>
    <v>       0.52636720       0.77555309       0.49133731 </v>
    <v>       0.57162923       0.51823457       0.49411045 </v>
    <v>       0.56884848       0.86163951       0.49560896 </v>
    <v>       0.61050267       0.60514691       0.51069851 </v>
    <v>       0.61090909       0.78158642       0.50922985 </v>
    <v>       0.65298396       0.51994938       0.51862090 </v>
    <v>       0.65434938       0.85652099       0.51854925 </v>
    <v>       0.69432086       0.60452593       0.53608358 </v>
    <v>       0.69467023       0.77328148       0.53627463 </v>
    <v>       0.73878788       0.52631481       0.54498507 </v>
    <v>       0.73962923       0.85618765       0.54098806 </v>
    <v>       0.78217469       0.59811358       0.55097910 </v>
    <v>       0.78294831       0.77188889       0.55257612 </v>
    <v>       0.82767914       0.52339136       0.54910149 </v>
    <v>       0.82778610       0.85029877       0.54779403 </v>
    <v>       0.87239929       0.60173580       0.54976418 </v>
    <v>       0.87149020       0.76917284       0.54297910 </v>
    <v>       0.91824242       0.52248395       0.54439701 </v>
    <v>       0.91367201       0.85260247       0.53139403 </v>
    <v>       0.95981462       0.60985062       0.53582388 </v>
    <v>       0.95731551       0.77511235       0.52951940 </v>
   </varray>
  </structure>
  <varray name="primitive_index" >
   <v type="int" >        1 </v>
   <v type="int" >        2 </v>
   <v type="int" >        3 </v>
   <v type="int" >        4 </v>
   <v type="int" >        5 </v>
   <v type="int" >        6 </v>
   <v type="int" >        7 </v>
   <v type="int" >        8 </v>
   <v type="int" >        9 </v>
   <v type="int" >       10 </v>
   <v type="int" >       11 </v>
   <v type="int" >       12 </v>
   <v type="int" >       13 </v>
   <v type="int" >       14 </v>
   <v type="int" >       15 </v>
   <v type="int" >       16 </v>
   <v type="int" >       17 </v>
   <v type="int" >       18 </v>
   <v type="int" >       19 </v>
   <v type="int" >       20 </v>
   <v type="int" >       21 </v>
   <v type="int" >       22 </v>
   <v type="int" >       23 </v>
   <v type="int" >       24 </v>
   <v type="int" >       25 </v>
   <v type="int" >       26 </v>
   <v type="int" >       27 </v>
   <v type="int" >       28 </v>
   <v type="int" >       29 </v>
   <v type="int" >       30 </v>
   <v type="int" >       31 </v>
   <v type="int" >       32 </v>
   <v type="int" >       33 </v>
   <v type="int" >       34 </v>
   <v type="int" >       35 </v>
   <v type="int" >       36 </v>
   <v type="int" >       37 </v>
   <v type="int" >       38 </v>
   <v type="int" >       39 </v>
   <v type="int" >       40 </v>
   <v type="int" >       41 </v>
   <v type="int" >       42 </v>
   <v type="int" >       43 </v>
   <v type="int" >       44 </v>
   <v type="int" >       45 </v>
   <v type="int" >       46 </v>
   <v type="int" >       47 </v>
   <v type="int" >       48 </v>
   <v type="int" >       49 </v>
   <v type="int" >       50 </v>
   <v type="int" >       51 </v>
   <v type="int" >       52 </v>
   <v type="int" >       53 </v>
   <v type="int" >       54 </v>
   <v type="int" >       55 </v>
   <v type="int" >       56 </v>
   <v type="int" >       57 </v>
   <v type="int" >       58 </v>
   <v type="int" >       59 </v>
   <v type="int" >       60 </v>
   <v type="int" >       61 </v>
   <v type="int" >       62 </v>
   <v type="int" >       63 </v>
   <v type="int" >       64 </v>
   <v type="int" >       65 </v>
   <v type="int" >       66 </v>
   <v type="int" >       67 </v>
   <v type="int" >       68 </v>
   <v type="int" >       69 </v>
   <v type="int" >       70 </v>
   <v type="int" >       71 </v>
   <v type="int" >       72 </v>
   <v type="int" >       73 </v>
   <v type="int" >       74 </v>
   <v type="int" >       75 </v>
   <v type="int" >       76 </v>
   <v type="int" >       77 </v>
   <v type="int" >       78 </v>
   <v type="int" >       79 </v>
   <v type="int" >       80 </v>
   <v type="int" >       81 </v>
   <v type="int" >       82 </v>
   <v type="int" >       83 </v>
   <v type="int" >       84 </v>
   <v type="int" >       85 </v>
   <v type="int" >       86 </v>
   <v type="int" >       87 </v>
   <v type="int" >       88 </v>
   <v type="int" >       89 </v>
   <v type="int" >       90 </v>
   <v type="int" >       91 </v>
   <v type="int" >       92 </v>
  </varray>
 </primitive_cell>
 <kpoints>
  <generation param="Gamma">
   <v type="int" name="divisions">       1        4        1 </v>
   <v name="usershift">      0.00000000       0.00000000       0.00000000 </v>
   <v name="genvec1">      1.00000000       0.00000000       0.00000000 </v>
   <v name="genvec2">      0.00000000       0.25000000       0.00000000 </v>
   <v name="genvec3">      0.00000000       0.00000000       1.00000000 </v>
   <v name="shift">      0.00000000       0.00000000       0.00000000 </v>
  </generation>
  <varray name="kpointlist" >
   <v>       0.00000000       0.00000000       0.00000000 </v>
   <v>       0.00000000       0.25000000       0.00000000 </v>
   <v>       0.00000000       0.50000000       0.00000000 </v>
  </varray>
  <varray name="weights" >
   <v>       0.25000000 </v>
   <v>       0.50000000 </v>
   <v>       0.25000000 </v>
  </varray>
 </kpoints>
 <parameters>
  <separator name="general" >
   <i type="string" name="SYSTEM">unknown system</i>
   <i type="logical" name="LCOMPAT"> F  </i>
  </separator>
  <separator name="electronic" >
   <i type="string" name="PREC">accura</i>
   <i name="ENMAX">    500.00000000</i>
   <i name="ENAUG">    644.87300000</i>
   <i name="EDIFF">      0.00000100</i>
   <i type="int" name="IALGO">    38</i>
   <i type="int" name="IWAVPR">    10</i>
   <i type="int" name="NBANDS">   232</i>
   <i type="int" name="NBANDSLOW">    -1</i>
   <i type="int" name="NBANDSHIGH">    -1</i>
   <i name="NELECT">    368.00000000</i>
   <i type="int" name="TURBO">     0</i>
   <i type="int" name="IRESTART">     0</i>
   <i type="int" name="NREBOOT">     0</i>
   <i type="int" name="NMIN">     0</i>
   <i name="EREF">      0.00000000</i>
   <separator name="electronic smearing" >
    <i type="int" name="ISMEAR">     0</i>
    <i name="SIGMA">      0.20000000</i>
    <i name="KSPACING">      0.50000000</i>
    <i type="logical" name="KGAMMA"> T  </i>
    <i type="logical" name="KBLOWUP"> T  </i>
   </separator>
   <separator name="electronic projectors" >
    <i type="logical" name="LREAL"> T  </i>
    <v name="ROPT">     -0.00025000</v>
    <i type="int" name="LMAXPAW">  -100</i>
    <i type="int" name="LMAXMIX">     2</i>
    <i type="logical" name="NLSPLINE"> F  </i>
   </separator>
   <separator name="electronic startup" >
    <i type="int" name="ISTART">     0</i>
    <i type="int" name="ICHARG">     2</i>
    <i type="int" name="INIWAV">     1</i>
   </separator>
   <separator name="electronic spin" >
    <i type="int" name="ISPIN">     1</i>
    <i type="logical" name="LNONCOLLINEAR"> F  </i>
    <v name="MAGMOM">      1.00000000      1.00000000      1.00000000      1.00000000      1.00000000      1.00000000      1.00000000      1.00000000      1.00000000      1.00000000      1.00000000      1.00000000      1.00000000      1.00000000      1.00000000      1.00000000      1.00000000      1.00000000      1.00000000      1.00000000
      1.00000000      1.00000000      1.00000000      1.00000000      1.00000000      1.00000000      1.00000000      1.00000000      1.00000000      1.00000000      1.00000000      1.00000000      1.00000000      1.00000000      1.00000000      1.00000000      1.00000000      1.00000000      1.00000000      1.00000000
      1.00000000      1.00000000      1.00000000      1.00000000      1.00000000      1.00000000      1.00000000      1.00000000      1.00000000      1.00000000      1.00000000      1.00000000      1.00000000      1.00000000      1.00000000      1.00000000      1.00000000      1.00000000      1.00000000      1.00000000
      1.00000000      1.00000000      1.00000000      1.00000000      1.00000000      1.00000000      1.00000000      1.00000000      1.00000000      1.00000000      1.00000000      1.00000000      1.00000000      1.00000000      1.00000000      1.00000000      1.00000000      1.00000000      1.00000000      1.00000000
      1.00000000      1.00000000      1.00000000      1.00000000      1.00000000      1.00000000      1.00000000      1.00000000      1.00000000      1.00000000      1.00000000      1.00000000</v>
    <i name="NUPDOWN">     -1.00000000</i>
    <i type="logical" name="LSORBIT"> F  </i>
    <v name="SAXIS">      0.00000000      0.00000000      1.00000000</v>
    <i type="logical" name="LSPIRAL"> F  </i>
    <v name="QSPIRAL">      0.00000000      0.00000000      0.00000000</v>
    <i type="logical" name="LZEROZ"> F  </i>
   </separator>
   <separator name="electronic exchange-correlation" >
    <i type="logical" name="LASPH"> F  </i>
   </separator>
   <separator name="electronic convergence" >
    <i type="int" name="NELM">   150</i>
    <i type="int" name="NELMDL">    -5</i>
    <i type="int" name="NELMIN">     2</i>
    <i name="ENINI">    500.00000000</i>
    <separator name="electronic convergence detail" >
     <i type="logical" name="LDIAG"> T  </i>
     <i type="logical" name="LSUBROT"> F  </i>
     <i name="WEIMIN">      0.00000000</i>
     <i name="EBREAK">      0.00000000</i>
     <i name="DEPER">      0.30000000</i>
     <i type="int" name="NRMM">     4</i>
     <i name="TIME">      0.40000000</i>
    </separator>
   </separator>
   <separator name="electronic mixer" >
    <i name="AMIX">      0.40000000</i>
    <i name="BMIX">      1.00000000</i>
    <i name="AMIN">      0.10000000</i>
    <i name="AMIX_MAG">      1.60000000</i>
    <i name="BMIX_MAG">      1.00000000</i>
    <separator name="electronic mixer details" >
     <i type="int" name="IMIX">     4</i>
     <i type="logical" name="MIXFIRST"> F  </i>
     <i type="int" name="MAXMIX">   -45</i>
     <i name="WC">    100.00000000</i>
     <i type="int" name="INIMIX">     1</i>
     <i type="int" name="MIXPRE">     1</i>
     <i type="int" name="MREMOVE">     5</i>
    </separator>
   </separator>
   <separator name="electronic dipolcorrection" >
    <i type="logical" name="LDIPOL"> F  </i>
    <i type="logical" name="LMONO"> F  </i>
    <i type="int" name="IDIPOL">     0</i>
    <i name="EPSILON">      1.00000000</i>
    <v name="DIPOL">   -100.00000000   -100.00000000   -100.00000000</v>
    <i name="EFIELD">      0.00000000</i>
    <i type="logical" name="LVACPOTAV"> F  </i>
   </separator>
  </separator>
  <separator name="grids" >
   <i type="int" name="NGX">   210</i>
   <i type="int" name="NGY">    60</i>
   <i type="int" name="NGZ">   250</i>
   <i type="int" name="NGXF">   420</i>
   <i type="int" name="NGYF">   120</i>
   <i type="int" name="NGZF">   500</i>
   <i type="logical" name="ADDGRID"> F  </i>
  </separator>
  <separator name="ionic" >
   <i type="int" name="NSW">     0</i>
   <i type="int" name="IBRION">    -1</i>
   <i type="int" name="MDALGO">     0</i>
   <i type="int" name="ISIF">     2</i>
   <i name="PSTRESS">      0.00000000</i>
   <i name="EDIFFG">      0.00001000</i>
   <i type="int" name="NFREE">     0</i>
   <i name="POTIM">      0.50000000</i>
   <i name="SMASS">     -3.00000000</i>
   <i name="SCALEE">      1.00000000</i>
  </separator>
  <separator name="ionic md" >
   <i name="TEBEG">      0.00010000</i>
   <i name="TEEND">      0.00010000</i>
   <i type="int" name="NBLOCK">     1</i>
   <i type="int" name="KBLOCK">     1</i>
   <i type="int" name="NPACO">   256</i>
   <i name="APACO">     10.00000000</i>
  </separator>
  <separator name="symmetry" >
   <i type="int" name="ISYM">     2</i>
   <i name="SYMPREC">      0.00001000</i>
  </separator>
  <separator name="dos" >
   <i type="int" name="LORBIT">     0</i>
   <v name="RWIGS">     -1.00000000</v>
   <i type="int" name="NEDOS">   301</i>
   <i name="EMIN">     10.00000000</i>
   <i name="EMAX">    -10.00000000</i>
   <i name="EFERMI">      0.00000000</i>
  </separator>
  <separator name="writing" >
   <i type="int" name="NWRITE">     2</i>
   <i type="logical" name="LWAVE"> F  </i>
   <i type="logical" name="LDOWNSAMPLE"> F  </i>
   <i type="logical" name="LCHARG"> F  </i>
   <i type="logical" name="LPARD"> F  </i>
   <i type="logical" name="LVTOT"> F  </i>
   <i type="logical" name="LVHAR"> F  </i>
   <i type="logical" name="LELF"> F  </i>
   <i type="logical" name="LOPTICS"> F  </i>
   <v name="STM">      0.00000000      0.00000000      0.00000000      0.00000000      0.00000000      0.00000000      0.00000000</v>
  </separator>
  <separator name="performance" >
   <i type="int" name="NPAR">     2</i>
   <i type="int" name="NSIM">     4</i>
   <i type="int" name="NBLK">    -1</i>
   <i type="logical" name="LPLANE"> T  </i>
   <i type="logical" name="LSCALAPACK"> T  </i>
   <i type="logical" name="LSCAAWARE"> F  </i>
   <i type="logical" name="LSCALU"> F  </i>
   <i type="logical" name="LASYNC"> F  </i>
   <i type="logical" name="LORBITALREAL"> F  </i>
  </separator>
  <separator name="miscellaneous" >
   <i type="int" name="IDIOT">     3</i>
   <i type="int" name="PHON_NSTRUCT">    -1</i>
   <i type="logical" name="LMUSIC"> F  </i>
   <v name="POMASS">     12.01100000</v>
   <v name="DARWINR">      0.00000000</v>
   <v name="DARWINV">      1.00000000</v>
   <i type="logical" name="LCORR"> T  </i>
  </separator>
  <i type="logical" name="GGA_COMPAT"> T  </i>
  <i type="logical" name="LBERRY"> F  </i>
  <i type="int" name="ICORELEVEL">     0</i>
  <i type="logical" name="LDAU"> F  </i>
  <i type="int" name="I_CONSTRAINED_M">     0</i>
  <separator name="electronic exchange-correlation" >
   <i type="string" name="GGA    ">PE</i>
   <i type="string" name="XC_C">1</i>
   <i type="int" name="VOSKOWN">     0</i>
   <i type="logical" name="LHFCALC"> F  </i>
   <i type="string" name="PRECFOCK"></i>
   <i type="logical" name="LSYMGRAD"> F  </i>
   <i type="logical" name="LHFONE"> F  </i>
   <i type="logical" name="LRHFCALC"> F  </i>
   <i type="logical" name="LTHOMAS"> F  </i>
   <i type="logical" name="LMODELHF"> F  </i>
   <i type="logical" name="LFOCKACE"> F  </i>
   <i name="ENCUT4O">     -1.00000000</i>
   <i type="int" name="EXXOEP">     0</i>
   <i type="int" name="FOURORBIT">     0</i>
   <i name="AEXX">      0.00000000</i>
   <i name="HFALPHA">      0.00000000</i>
   <i name="MCALPHA">      0.00000000</i>
   <i name="ALDAX">      1.00000000</i>
   <i name="AGGAX">      1.00000000</i>
   <i name="AMGGAX">      1.00000000</i>
   <i name="ALDAC">      1.00000000</i>
   <i name="AGGAC">      1.00000000</i>
   <i name="AMGGAC">      1.00000000</i>
   <i type="int" name="NKREDX">     1</i>
   <i type="int" name="NKREDY">     1</i>
   <i type="int" name="NKREDZ">     1</i>
   <i type="logical" name="SHIFTRED"> F  </i>
   <i type="logical" name="ODDONLY"> F  </i>
   <i type="logical" name="EVENONLY"> F  </i>
   <i type="int" name="LMAXFOCK">     0</i>
   <i type="int" name="NMAXFOCKAE">     0</i>
   <i type="logical" name="LFOCKAEDFT"> F  </i>
   <i name="HFSCREEN">      0.00000000</i>
   <i name="HFSCREENC">      0.00000000</i>
   <i type="int" name="NBANDSGWLOW">     0</i>
  </separator>
  <separator name="vdW DFT" >
   <i type="logical" name="LUSE_VDW"> F  </i>
   <i type="int" name="IVDW_NL">    -1</i>
   <i type="logical" name="LSPIN_VDW"> F  </i>
   <i name="ZAB_VDW">     -0.84910000</i>
   <i name="GAMMA_VDW">      1.39626340</i>
   <i name="ALPHA_VDW">      0.00000000</i>
   <i name="PARAM1">      0.12340000</i>
   <i name="PARAM2">      1.00000000</i>
   <i name="BPARAM">      6.30000000</i>
   <i name="CPARAM">      0.00930000</i>
  </separator>
  <separator name="model GW" >
   <i type="int" name="MODEL_GW">     0</i>
   <i name="MODEL_EPS0">     49.63935326</i>
   <i name="MODEL_ALPHA">      1.00000000</i>
  </separator>
  <separator name="linear response parameters" >
   <i type="logical" name="LEPSILON"> F  </i>
   <i type="logical" name="LRPA"> F  </i>
   <i type="logical" name="LNABLA"> F  </i>
   <i type="logical" name="LVEL"> F  </i>
   <i name="CSHIFT">      0.10000000</i>
   <i name="OMEGAMAX">     -1.00000000</i>
   <i name="DEG_THRESHOLD">      0.00200000</i>
   <i name="RTIME">     -0.10000000</i>
   <i name="WPLASMAI">      0.00000000</i>
   <v name="DFIELD">      0.00000000      0.00000000      0.00000000</v>
   <v name="WPLASMA">      0.00000000      0.00000000      0.00000000      0.00000000      0.00000000      0.00000000      0.00000000      0.00000000      0.00000000</v>
  </separator>
  <separator name="orbital magnetization" >
   <i type="logical" name="NUCIND"> F  </i>
   <v name="MAGPOS">      0.00000000      0.00000000      0.00000000</v>
   <i type="logical" name="LNICSALL"> T  </i>
   <i type="logical" name="ORBITALMAG"> F  </i>
   <i type="logical" name="LMAGBLOCH"> F  </i>
   <i type="logical" name="LCHIMAG"> F  </i>
   <i type="logical" name="LGAUGE"> T  </i>
   <i type="int" name="MAGATOM">     0</i>
   <v name="MAGDIPOL">      0.00000000      0.00000000      0.00000000</v>
   <v name="AVECCONST">      0.00000000      0.00000000      0.00000000</v>
  </separator>
  <separator name="response functions" >
   <i type="logical" name="LALL_IN_ONE"> F  </i>
   <i type="int" name="IALL_IN_ONE">    -1</i>
   <i type="int" name="NBANDS_WAVE">    -1</i>
   <i type="logical" name="LFINITE_TEMPERATURE"> F  </i>
   <i type="logical" name="LADDER"> F  </i>
   <i type="logical" name="LRPAFORCE"> F  </i>
   <i type="logical" name="LFXC"> F  </i>
   <i type="logical" name="LHARTREE"> T  </i>
   <i type="int" name="IBSE">     2</i>
   <v type="int" name="KPOINT">    -1     0     0     0</v>
   <i type="logical" name="LTCTC"> F  </i>
   <i type="logical" name="LTCTE"> F  </i>
   <i type="logical" name="LTETE"> F  </i>
   <i type="logical" name="LTRIPLET"> F  </i>
   <i type="logical" name="LFXCEPS"> F  </i>
   <i type="logical" name="LFXHEG"> F  </i>
   <i type="int" name="NATURALO">     2</i>
   <i type="logical" name="LHOLEGF"> F  </i>
   <i type="logical" name="L2ORDER"> F  </i>
   <i type="logical" name="LDMP1"> F  </i>
   <i type="logical" name="LMP2LT"> F  </i>
   <i type="logical" name="LSMP2LT"> F  </i>
   <i type="logical" name="LGWLF"> F  </i>
   <i name="ENCUTGW">     -1.60000002</i>
   <i name="ENCUTGWSOFT">     -1.60000002</i>
   <i name="ENCUTLF">     -1.00000000</i>
   <i type="logical" name="ESF_SPLINES"> F  </i>
   <i name="ESF_CONV">      0.01000000</i>
   <i type="int" name="ESF_NINTER">    15</i>
   <i type="int" name="LMAXMP2">    -1</i>
   <i name="SCISSOR">      0.00000000</i>
   <i type="int" name="NOMEGA">     0</i>
   <i type="int" name="NOMEGAR">     0</i>
   <i type="int" name="NBANDSGW">    -1</i>
   <i type="int" name="NBANDSO">    -1</i>
   <i type="int" name="NBANDSV">    -1</i>
   <i type="int" name="NELMGW">     1</i>
   <i type="int" name="NELMHF">     1</i>
   <i type="int" name="DIM">     3</i>
   <i type="int" name="IESPILON">     4</i>
   <i type="int" name="ANTIRES">     0</i>
   <i name="OMEGAMAX">    -30.00000000</i>
   <i name="OMEGAMIN">    -30.00000000</i>
   <i name="OMEGATL">   -200.00000000</i>
   <i type="int" name="OMEGAGRID">     0</i>
   <i name="CSHIFT">     -0.10000000</i>
   <i type="logical" name="LSELFENERGY"> F  </i>
   <i type="logical" name="LSPECTRAL"> F  </i>
   <i type="logical" name="LSPECTRALGW"> F  </i>
   <i type="logical" name="LSINGLES"> F  </i>
   <i type="logical" name="LFERMIGW"> F  </i>
   <i type="logical" name="ODDONLYGW"> F  </i>
   <i type="logical" name="EVENONLYGW"> F  </i>
   <i type="int" name="NKREDLFX">     1</i>
   <i type="int" name="NKREDLFY">     1</i>
   <i type="int" name="NKREDLFZ">     1</i>
   <i type="int" name="MAXMEM">  2800</i>
   <i type="int" name="TELESCOPE">     0</i>
   <i type="int" name="NTAUPAR">    -1</i>
   <i type="int" name="NOMEGAPAR">    -1</i>
   <i name="DAMP_NEWTON">      0.80000001</i>
   <i name="LAMBDA">      1.00000000</i>
  </separator>
  <separator name="External order field" >
   <i name="OFIELD_KAPPA">      0.00000000</i>
   <v name="OFIELD_K">      0.00000000      0.00000000      0.00000000</v>
   <i name="OFIELD_Q6_NEAR">      0.00000000</i>
   <i name="OFIELD_Q6_FAR">      0.00000000</i>
   <i name="OFIELD_A">      0.00000000</i>
  </separator>
  <separator name="optional k-points parameters" >
   <i type="int" name="KPOINTS_OPT_MODE">     1</i>
   <i type="logical" name="LKPOINTS_OPT"> F  </i>
  </separator>
 </parameters>
 <atominfo>
  <atoms>      92 </atoms>
  <types>       1 </types>
  <array name="atoms" >
   <dimension dim="1">ion</dimension>
   <field type="string">element</field>
   <field type="int">atomtype</field>
   <set>
    <rc><c>C </c><c>   1</c></rc>
    <rc><c>C </c><c>   1</c></rc>
    <rc><c>C </c><c>   1</c></rc>
    <rc><c>C </c><c>   1</c></rc>
    <rc><c>C </c><c>   1</c></rc>
    <rc><c>C </c><c>   1</c></rc>
    <rc><c>C </c><c>   1</c></rc>
    <rc><c>C </c><c>   1</c></rc>
    <rc><c>C </c><c>   1</c></rc>
    <rc><c>C </c><c>   1</c></rc>
    <rc><c>C </c><c>   1</c></rc>
    <rc><c>C </c><c>   1</c></rc>
    <rc><c>C </c><c>   1</c></rc>
    <rc><c>C </c><c>   1</c></rc>
    <rc><c>C </c><c>   1</c></rc>
    <rc><c>C </c><c>   1</c></rc>
    <rc><c>C </c><c>   1</c></rc>
    <rc><c>C </c><c>   1</c></rc>
    <rc><c>C </c><c>   1</c></rc>
    <rc><c>C </c><c>   1</c></rc>
    <rc><c>C </c><c>   1</c></rc>
    <rc><c>C </c><c>   1</c></rc>
    <rc><c>C </c><c>   1</c></rc>
    <rc><c>C </c><c>   1</c></rc>
    <rc><c>C </c><c>   1</c></rc>
    <rc><c>C </c><c>   1</c></rc>
    <rc><c>C </c><c>   1</c></rc>
    <rc><c>C </c><c>   1</c></rc>
    <rc><c>C </c><c>   1</c></rc>
    <rc><c>C </c><c>   1</c></rc>
    <rc><c>C </c><c>   1</c></rc>
    <rc><c>C </c><c>   1</c></rc>
    <rc><c>C </c><c>   1</c></rc>
    <rc><c>C </c><c>   1</c></rc>
    <rc><c>C </c><c>   1</c></rc>
    <rc><c>C </c><c>   1</c></rc>
    <rc><c>C </c><c>   1</c></rc>
    <rc><c>C </c><c>   1</c></rc>
    <rc><c>C </c><c>   1</c></rc>
    <rc><c>C </c><c>   1</c></rc>
    <rc><c>C </c><c>   1</c></rc>
    <rc><c>C </c><c>   1</c></rc>
    <rc><c>C </c><c>   1</c></rc>
    <rc><c>C </c><c>   1</c></rc>
    <rc><c>C </c><c>   1</c></rc>
    <rc><c>C </c><c>   1</c></rc>
    <rc><c>C </c><c>   1</c></rc>
    <rc><c>C </c><c>   1</c></rc>
    <rc><c>C </c><c>   1</c></rc>
    <rc><c>C </c><c>   1</c></rc>
    <rc><c>C </c><c>   1</c></rc>
    <rc><c>C </c><c>   1</c></rc>
    <rc><c>C </c><c>   1</c></rc>
    <rc><c>C </c><c>   1</c></rc>
    <rc><c>C </c><c>   1</c></rc>
    <rc><c>C </c><c>   1</c></rc>
    <rc><c>C </c><c>   1</c></rc>
    <rc><c>C </c><c>   1</c></rc>
    <rc><c>C </c><c>   1</c></rc>
    <rc><c>C </c><c>   1</c></rc>
    <rc><c>C </c><c>   1</c></rc>
    <rc><c>C </c><c>   1</c></rc>
    <rc><c>C </c><c>   1</c></rc>
    <rc><c>C </c><c>   1</c></rc>
    <rc><c>C </c><c>   1</c></rc>
    <rc><c>C </c><c>   1</c></rc>
    <rc><c>C </c><c>   1</c></rc>
    <rc><c>C </c><c>   1</c></rc>
    <rc><c>C </c><c>   1</c></rc>
    <rc><c>C </c><c>   1</c></rc>
    <rc><c>C </c><c>   1</c></rc>
    <rc><c>C </c><c>   1</c></rc>
    <rc><c>C </c><c>   1</c></rc>
    <rc><c>C </c><c>   1</c></rc>
    <rc><c>C </c><c>   1</c></rc>
    <rc><c>C </c><c>   1</c></rc>
    <rc><c>C </c><c>   1</c></rc>
    <rc><c>C </c><c>   1</c></rc>
    <rc><c>C </c><c>   1</c></rc>
    <rc><c>C </c><c>   1</c></rc>
    <rc><c>C </c><c>   1</c></rc>
    <rc><c>C </c><c>   1</c></rc>
    <rc><c>C </c><c>   1</c></rc>
    <rc><c>C </c><c>   1</c></rc>
    <rc><c>C </c><c>   1</c></rc>
    <rc><c>C </c><c>   1</c></rc>
    <rc><c>C </c><c>   1</c></rc>
    <rc><c>C </c><c>   1</c></rc>
    <rc><c>C </c><c>   1</c></rc>
    <rc><c>C </c><c>   1</c></rc>
    <rc><c>C </c><c>   1</c></rc>
    <rc><c>C </c><c>   1</c></rc>
   </set>
  </array>
  <array name="atomtypes" >
   <dimension dim="1">type</dimension>
   <field type="int">atomspertype</field>
   <field type="string">element</field>
   <field>mass</field>
   <field>valence</field>
   <field type="string">pseudopotential</field>
   <set>
    <rc><c>  92</c><c>C </c><c>     12.01100000</c><c>      4.00000000</c><c>  PAW_PBE C 08Apr2002                   </c></rc>
   </set>
  </array>
 </atominfo>
 <structure name="initialpos" >
  <crystal>
   <varray name="basis" >
    <v>      28.05000000       0.00000000       0.00000000 </v>
    <v>       0.00000000       8.10000000       0.00000000 </v>
    <v>       0.00000000       0.00000000      33.50000000 </v>
   </varray>
   <i name="volume">   7611.36750000 </i>
   <varray name="rec_basis" >
    <v>       0.03565062       0.00000000       0.00000000 </v>
    <v>       0.00000000       0.12345679       0.00000000 </v>
    <v>       0.00000000       0.00000000       0.02985075 </v>
   </varray>
  </crystal>
  <varray name="positions" >
   <v>       0.00461458       0.10084889       0.50743881 </v>
   <v>       0.00275462       0.27850741       0.51014030 </v>
   <v>       0.04606310       0.01747506       0.49976716 </v>
   <v>       0.04749697       0.35458642       0.50393433 </v>
   <v>       0.09003886       0.10384667       0.48876716 </v>
   <v>       0.09022068       0.27239753       0.48777612 </v>
   <v>       0.13358788       0.02182728       0.48368657 </v>
   <v>       0.13486025       0.35226543       0.48555522 </v>
   <v>       0.17518859       0.10674914       0.47225075 </v>
   <v>       0.17784599       0.27273086       0.47520597 </v>
   <v>       0.21979715       0.02455938       0.46474925 </v>
   <v>       0.21944635       0.35380864       0.46337612 </v>
   <v>       0.26405989       0.10477654       0.45849552 </v>
   <v>       0.26329947       0.27674444       0.45729552 </v>
   <v>       0.30930588       0.02430679       0.45953731 </v>
   <v>       0.30772193       0.35975556       0.45628358 </v>
   <v>       0.35380998       0.10391975       0.45562388 </v>
   <v>       0.35285312       0.27959383       0.45313433 </v>
   <v>       0.39715865       0.01798469       0.46074925 </v>
   <v>       0.39715508       0.35537037       0.45704179 </v>
   <v>       0.44140107       0.10326691       0.46396119 </v>
   <v>       0.44226738       0.27542469       0.46164478 </v>
   <v>       0.48426738       0.02212012       0.47265970 </v>
   <v>       0.48363280       0.35185309       0.47171642 </v>
   <v>       0.52820677       0.10537358       0.47533134 </v>
   <v>       0.52935116       0.27593951       0.47534328 </v>
   <v>       0.57214973       0.02627235       0.48635522 </v>
   <v>       0.57196791       0.35146173       0.48605075 </v>
   <v>       0.61723708       0.10358481       0.49080597 </v>
   <v>       0.61529055       0.27306790       0.49423284 </v>
   <v>       0.65856328       0.01982605       0.50699403 </v>
   <v>       0.65659893       0.35531358       0.51003582 </v>
   <v>       0.70100178       0.09947099       0.51557313 </v>
   <v>       0.70028520       0.27127654       0.51628657 </v>
   <v>       0.74280927       0.02009160       0.52823881 </v>
   <v>       0.74244563       0.35969630       0.53239701 </v>
   <v>       0.78504813       0.10585605       0.53447463 </v>
   <v>       0.78536185       0.27164691       0.53486269 </v>
   <v>       0.82735116       0.01416556       0.54178507 </v>
   <v>       0.82718717       0.35627531       0.54272836 </v>
   <v>       0.87236007       0.10478840       0.53821791 </v>
   <v>       0.87220677       0.26946790       0.53902687 </v>
   <v>       0.91605348       0.02288370       0.52899403 </v>
   <v>       0.91525490       0.35835185       0.53779403 </v>
   <v>       0.95556506       0.10290481       0.51909254 </v>
   <v>       0.95477362       0.27540000       0.52319104 </v>
   <v>       0.01133729       0.60354815       0.52716716 </v>
   <v>       0.01074984       0.77382593       0.52408955 </v>
   <v>       0.05074403       0.51696914       0.51389851 </v>
   <v>       0.04979501       0.85725062       0.50770746 </v>
   <v>       0.09378360       0.60318395       0.50276716 </v>
   <v>       0.09311230       0.77053580       0.50309254 </v>
   <v>       0.13514225       0.52398395       0.49012239 </v>
   <v>       0.13595758       0.85348765       0.49220896 </v>
   <v>       0.17809733       0.60386667       0.48194925 </v>
   <v>       0.17894296       0.77404198       0.48582090 </v>
   <v>       0.22156970       0.52064815       0.46981493 </v>
   <v>       0.22024563       0.85342716       0.47348060 </v>
   <v>       0.26421711       0.60288148       0.47068060 </v>
   <v>       0.26460036       0.77323827       0.47461791 </v>
   <v>       0.30952050       0.52053580       0.46645672 </v>
   <v>       0.30879073       0.85870370       0.47233731 </v>
   <v>       0.35304599       0.60310741       0.47336716 </v>
   <v>       0.35318717       0.76867901       0.47275224 </v>
   <v>       0.39749733       0.51645802       0.47130746 </v>
   <v>       0.39660963       0.85397654       0.46852239 </v>
   <v>       0.43999287       0.60070988       0.47485373 </v>
   <v>       0.44100178       0.76736914       0.47526269 </v>
   <v>       0.48400713       0.52046420       0.47880597 </v>
   <v>       0.48505169       0.84791975       0.47912836 </v>
   <v>       0.52841355       0.60099753       0.49003881 </v>
   <v>       0.52636720       0.77555309       0.49133731 </v>
   <v>       0.57162923       0.51823457       0.49411045 </v>
   <v>       0.56884848       0.86163951       0.49560896 </v>
   <v>       0.61050267       0.60514691       0.51069851 </v>
   <v>       0.61090909       0.78158642       0.50922985 </v>
   <v>       0.65298396       0.51994938       0.51862090 </v>
   <v>       0.65434938       0.85652099       0.51854925 </v>
   <v>       0.69432086       0.60452593       0.53608358 </v>
   <v>       0.69467023       0.77328148       0.53627463 </v>
   <v>       0.73878788       0.52631481       0.54498507 </v>
   <v>       0.73962923       0.85618765       0.54098806 </v>
   <v>       0.78217469       0.59811358       0.55097910 </v>
   <v>       0.78294831       0.77188889       0.55257612 </v>
   <v>       0.82767914       0.52339136       0.54910149 </v>
   <v>       0.82778610       0.85029877       0.54779403 </v>
   <v>       0.87239929       0.60173580       0.54976418 </v>
   <v>       0.87149020       0.76917284       0.54297910 </v>
   <v>       0.91824242       0.52248395       0.54439701 </v>
   <v>       0.91367201       0.85260247       0.53139403 </v>
   <v>       0.95981462       0.60985062       0.53582388 </v>
   <v>       0.95731551       0.77511235       0.52951940 </v>
  </varray>
 </structure>
 <calculation>
  <scstep>
   <time name="dav">   11.03   11.04</time>
   <time name="total">   11.49   11.52</time>
   <energy>
    <i name="alphaZ">     91.34886789 </i>
    <i name="ewald"> 120544.17956286 </i>
    <i name="hartreedc">-129858.22381388 </i>
    <i name="XCdc">   1222.23506980 </i>
    <i name="pawpsdc">   9984.02826696 </i>
    <i name="pawaedc"> -10036.41360137 </i>
    <i name="eentropy">     -0.80549132 </i>
    <i name="bandstr">  -1773.59501528 </i>
    <i name="atom">  13537.65479391 </i>
    <i name="e_fr_energy">   3710.40863957 </i>
    <i name="e_wo_entrp">   3711.21413089 </i>
    <i name="e_0_energy">   3710.81138523 </i>
   </energy>
  </scstep>
  <scstep>
   <time name="dav">   13.13   13.14</time>
   <time name="total">   13.13   13.14</time>
   <energy>
    <i name="e_fr_energy">    185.21474798 </i>
    <i name="e_wo_entrp">    185.44589347 </i>
    <i name="e_0_energy">    185.33032073 </i>
   </energy>
  </scstep>
  <scstep>
   <time name="dav">   11.21   11.21</time>
   <time name="total">   11.21   11.22</time>
   <energy>
    <i name="e_fr_energy">   -834.99716513 </i>
    <i name="e_wo_entrp">   -834.92100584 </i>
    <i name="e_0_energy">   -834.95908548 </i>
   </energy>
  </scstep>
  <scstep>
   <time name="dav">   10.87   10.87</time>
   <time name="total">   10.87   10.87</time>
   <energy>
    <i name="e_fr_energy">   -897.00603623 </i>
    <i name="e_wo_entrp">   -896.93359317 </i>
    <i name="e_0_energy">   -896.96981470 </i>
   </energy>
  </scstep>
  <scstep>
   <time name="dav">   11.13   11.13</time>
   <time name="total">   12.61   12.61</time>
   <energy>
    <i name="e_fr_energy">   -898.55934596 </i>
    <i name="e_wo_entrp">   -898.48613615 </i>
    <i name="e_0_energy">   -898.52274105 </i>
   </energy>
  </scstep>
  <scstep>
   <time name="dav">   10.22   10.22</time>
   <time name="total">   12.02   12.02</time>
   <energy>
    <i name="e_fr_energy">   -848.58719958 </i>
    <i name="e_wo_entrp">   -848.50723077 </i>
    <i name="e_0_energy">   -848.54721517 </i>
   </energy>
  </scstep>
  <scstep>
   <time name="dav">   10.13   10.14</time>
   <time name="total">   11.92   11.93</time>
   <energy>
    <i name="e_fr_energy">   -829.97444871 </i>
    <i name="e_wo_entrp">   -829.88606886 </i>
    <i name="e_0_energy">   -829.93025879 </i>
   </energy>
  </scstep>
  <scstep>
   <time name="dav">   10.30   10.30</time>
   <time name="total">   12.09   12.10</time>
   <energy>
    <i name="e_fr_energy">   -829.68281459 </i>
    <i name="e_wo_entrp">   -829.59682736 </i>
    <i name="e_0_energy">   -829.63982098 </i>
   </energy>
  </scstep>
  <scstep>
   <time name="dav">   10.46   10.47</time>
   <time name="total">   12.26   12.27</time>
   <energy>
    <i name="e_fr_energy">   -829.57075145 </i>
    <i name="e_wo_entrp">   -829.48454327 </i>
    <i name="e_0_energy">   -829.52764736 </i>
   </energy>
  </scstep>
  <scstep>
   <time name="dav">   11.02   11.03</time>
   <time name="total">   12.83   12.84</time>
   <energy>
    <i name="e_fr_energy">   -829.53407483 </i>
    <i name="e_wo_entrp">   -829.44794413 </i>
    <i name="e_0_energy">   -829.49100948 </i>
   </energy>
  </scstep>
  <scstep>
   <time name="dav">   10.17   10.17</time>
   <time name="total">   12.00   12.00</time>
   <energy>
    <i name="e_fr_energy">   -829.50654819 </i>
    <i name="e_wo_entrp">   -829.42037486 </i>
    <i name="e_0_energy">   -829.46346153 </i>
   </energy>
  </scstep>
  <scstep>
   <time name="dav">   10.05   10.05</time>
   <time name="total">   11.87   11.88</time>
   <energy>
    <i name="e_fr_energy">   -829.50239525 </i>
    <i name="e_wo_entrp">   -829.41611265 </i>
    <i name="e_0_energy">   -829.45925395 </i>
   </energy>
  </scstep>
  <scstep>
   <time name="dav">   10.13   10.13</time>
   <time name="total">   11.96   11.96</time>
   <energy>
    <i name="e_fr_energy">   -829.51492513 </i>
    <i name="e_wo_entrp">   -829.42869091 </i>
    <i name="e_0_energy">   -829.47180802 </i>
   </energy>
  </scstep>
  <scstep>
   <time name="dav">   10.29   10.29</time>
   <time name="total">   12.12   12.13</time>
   <energy>
    <i name="e_fr_energy">   -829.53200253 </i>
    <i name="e_wo_entrp">   -829.44574378 </i>
    <i name="e_0_energy">   -829.48887315 </i>
   </energy>
  </scstep>
  <scstep>
   <time name="dav">   10.04   10.04</time>
   <time name="total">   11.88   11.89</time>
   <energy>
    <i name="e_fr_energy">   -829.55192145 </i>
    <i name="e_wo_entrp">   -829.46565353 </i>
    <i name="e_0_energy">   -829.50878749 </i>
   </energy>
  </scstep>
  <scstep>
   <time name="dav">   10.53   10.54</time>
   <time name="total">   12.40   12.41</time>
   <energy>
    <i name="e_fr_energy">   -829.56004790 </i>
    <i name="e_wo_entrp">   -829.47378734 </i>
    <i name="e_0_energy">   -829.51691762 </i>
   </energy>
  </scstep>
  <scstep>
   <time name="dav">   10.00   10.00</time>
   <time name="total">   11.86   11.87</time>
   <energy>
    <i name="e_fr_energy">   -829.56540578 </i>
    <i name="e_wo_entrp">   -829.47913606 </i>
    <i name="e_0_energy">   -829.52227092 </i>
   </energy>
  </scstep>
  <scstep>
   <time name="dav">   10.47   10.48</time>
   <time name="total">   12.35   12.36</time>
   <energy>
    <i name="e_fr_energy">   -829.56778387 </i>
    <i name="e_wo_entrp">   -829.48152094 </i>
    <i name="e_0_energy">   -829.52465241 </i>
   </energy>
  </scstep>
  <scstep>
   <time name="dav">   10.01   10.01</time>
   <time name="total">   11.90   11.90</time>
   <energy>
    <i name="e_fr_energy">   -829.56883400 </i>
    <i name="e_wo_entrp">   -829.48256885 </i>
    <i name="e_0_energy">   -829.52570143 </i>
   </energy>
  </scstep>
  <scstep>
   <time name="dav">    9.27    9.27</time>
   <time name="total">   11.17   11.18</time>
   <energy>
    <i name="e_fr_energy">   -829.56916259 </i>
    <i name="e_wo_entrp">   -829.48289854 </i>
    <i name="e_0_energy">   -829.52603056 </i>
   </energy>
  </scstep>
  <scstep>
   <time name="dav">    8.71    8.71</time>
   <time name="total">   10.63   10.64</time>
   <energy>
    <i name="e_fr_energy">   -829.56940423 </i>
    <i name="e_wo_entrp">   -829.48313969 </i>
    <i name="e_0_energy">   -829.52627196 </i>
   </energy>
  </scstep>
  <scstep>
   <time name="dav">    7.63    7.64</time>
   <time name="total">    9.56    9.57</time>
   <energy>
    <i name="e_fr_energy">   -829.56946259 </i>
    <i name="e_wo_entrp">   -829.48319762 </i>
    <i name="e_0_energy">   -829.52633011 </i>
   </energy>
  </scstep>
  <scstep>
   <time name="dav">    7.21    7.22</time>
   <time name="total">    9.16    9.16</time>
   <energy>
    <i name="e_fr_energy">   -829.56950173 </i>
    <i name="e_wo_entrp">   -829.48323703 </i>
    <i name="e_0_energy">   -829.52636938 </i>
   </energy>
  </scstep>
  <scstep>
   <time name="dav">    7.14    7.14</time>
   <time name="total">    9.09    9.10</time>
   <energy>
    <i name="e_fr_energy">   -829.56951793 </i>
    <i name="e_wo_entrp">   -829.48325324 </i>
    <i name="e_0_energy">   -829.52638559 </i>
   </energy>
  </scstep>
  <scstep>
   <time name="dav">    7.02    7.02</time>
   <time name="total">    8.99    8.99</time>
   <energy>
    <i name="e_fr_energy">   -829.56952432 </i>
    <i name="e_wo_entrp">   -829.48325968 </i>
    <i name="e_0_energy">   -829.52639200 </i>
   </energy>
  </scstep>
  <scstep>
   <time name="dav">    6.78    6.78</time>
   <time name="total">    8.77    8.78</time>
   <energy>
    <i name="e_fr_energy">   -829.56952856 </i>
    <i name="e_wo_entrp">   -829.48326395 </i>
    <i name="e_0_energy">   -829.52639625 </i>
   </energy>
  </scstep>
  <scstep>
   <time name="dav">    7.15    7.15</time>
   <time name="total">    9.16    9.16</time>
   <energy>
    <i name="e_fr_energy">   -829.56952983 </i>
    <i name="e_wo_entrp">   -829.48326520 </i>
    <i name="e_0_energy">   -829.52639752 </i>
   </energy>
  </scstep>
  <scstep>
   <time name="dav">    6.94    6.94</time>
   <time name="total">    8.96    8.96</time>
   <energy>
    <i name="e_fr_energy">   -829.56953173 </i>
    <i name="e_wo_entrp">   -829.48326706 </i>
    <i name="e_0_energy">   -829.52639940 </i>
   </energy>
  </scstep>
  <scstep>
   <time name="dav">    6.94    6.94</time>
   <time name="total">    7.31    7.31</time>
   <energy>
    <i name="alphaZ">     91.34886789 </i>
    <i name="ewald"> 120544.17956286 </i>
    <i name="hartreedc">-131629.05457053 </i>
    <i name="XCdc">   1279.76810858 </i>
    <i name="pawpsdc">  41305.12490760 </i>
    <i name="pawaedc"> -41369.26873075 </i>
    <i name="eentropy">     -0.08626466 </i>
    <i name="bandstr">  -4589.23620734 </i>
    <i name="atom">  13537.65479391 </i>
    <i name="e_fr_energy">   -829.56953244 </i>
    <i name="e_wo_entrp">   -829.48326778 </i>
    <i name="e_0_energy">   -829.52640011 </i>
   </energy>
  </scstep>
  <structure>
   <crystal>
    <varray name="basis" >
     <v>      28.05000000       0.00000000       0.00000000 </v>
     <v>       0.00000000       8.10000000       0.00000000 </v>
     <v>       0.00000000       0.00000000      33.50000000 </v>
    </varray>
    <i name="volume">   7611.36750000 </i>
    <varray name="rec_basis" >
     <v>       0.03565062       0.00000000       0.00000000 </v>
     <v>       0.00000000       0.12345679       0.00000000 </v>
     <v>       0.00000000       0.00000000       0.02985075 </v>
    </varray>
   </crystal>
   <varray name="positions" >
    <v>       0.00461458       0.10084889       0.50743881 </v>
    <v>       0.00275462       0.27850741       0.51014030 </v>
    <v>       0.04606310       0.01747506       0.49976716 </v>
    <v>       0.04749697       0.35458642       0.50393433 </v>
    <v>       0.09003886       0.10384667       0.48876716 </v>
    <v>       0.09022068       0.27239753       0.48777612 </v>
    <v>       0.13358788       0.02182728       0.48368657 </v>
    <v>       0.13486025       0.35226543       0.48555522 </v>
    <v>       0.17518859       0.10674914       0.47225075 </v>
    <v>       0.17784599       0.27273086       0.47520597 </v>
    <v>       0.21979715       0.02455938       0.46474925 </v>
    <v>       0.21944635       0.35380864       0.46337612 </v>
    <v>       0.26405989       0.10477654       0.45849552 </v>
    <v>       0.26329947       0.27674444       0.45729552 </v>
    <v>       0.30930588       0.02430679       0.45953731 </v>
    <v>       0.30772193       0.35975556       0.45628358 </v>
    <v>       0.35380998       0.10391975       0.45562388 </v>
    <v>       0.35285312       0.27959383       0.45313433 </v>
    <v>       0.39715865       0.01798469       0.46074925 </v>
    <v>       0.39715508       0.35537037       0.45704179 </v>
    <v>       0.44140107       0.10326691       0.46396119 </v>
    <v>       0.44226738       0.27542469       0.46164478 </v>
    <v>       0.48426738       0.02212012       0.47265970 </v>
    <v>       0.48363280       0.35185309       0.47171642 </v>
    <v>       0.52820677       0.10537358       0.47533134 </v>
    <v>       0.52935116       0.27593951       0.47534328 </v>
    <v>       0.57214973       0.02627235       0.48635522 </v>
    <v>       0.57196791       0.35146173       0.48605075 </v>
    <v>       0.61723708       0.10358481       0.49080597 </v>
    <v>       0.61529055       0.27306790       0.49423284 </v>
    <v>       0.65856328       0.01982605       0.50699403 </v>
    <v>       0.65659893       0.35531358       0.51003582 </v>
    <v>       0.70100178       0.09947099       0.51557313 </v>
    <v>       0.70028520       0.27127654       0.51628657 </v>
    <v>       0.74280927       0.02009160       0.52823881 </v>
    <v>       0.74244563       0.35969630       0.53239701 </v>
    <v>       0.78504813       0.10585605       0.53447463 </v>
    <v>       0.78536185       0.27164691       0.53486269 </v>
    <v>       0.82735116       0.01416556       0.54178507 </v>
    <v>       0.82718717       0.35627531       0.54272836 </v>
    <v>       0.87236007       0.10478840       0.53821791 </v>
    <v>       0.87220677       0.26946790       0.53902687 </v>
    <v>       0.91605348       0.02288370       0.52899403 </v>
    <v>       0.91525490       0.35835185       0.53779403 </v>
    <v>       0.95556506       0.10290481       0.51909254 </v>
    <v>       0.95477362       0.27540000       0.52319104 </v>
    <v>       0.01133729       0.60354815       0.52716716 </v>
    <v>       0.01074984       0.77382593       0.52408955 </v>
    <v>       0.05074403       0.51696914       0.51389851 </v>
    <v>       0.04979501       0.85725062       0.50770746 </v>
    <v>       0.09378360       0.60318395       0.50276716 </v>
    <v>       0.09311230       0.77053580       0.50309254 </v>
    <v>       0.13514225       0.52398395       0.49012239 </v>
    <v>       0.13595758       0.85348765       0.49220896 </v>
    <v>       0.17809733       0.60386667       0.48194925 </v>
    <v>       0.17894296       0.77404198       0.48582090 </v>
    <v>       0.22156970       0.52064815       0.46981493 </v>
    <v>       0.22024563       0.85342716       0.47348060 </v>
    <v>       0.26421711       0.60288148       0.47068060 </v>
    <v>       0.26460036       0.77323827       0.47461791 </v>
    <v>       0.30952050       0.52053580       0.46645672 </v>
    <v>       0.30879073       0.85870370       0.47233731 </v>
    <v>       0.35304599       0.60310741       0.47336716 </v>
    <v>       0.35318717       0.76867901       0.47275224 </v>
    <v>       0.39749733       0.51645802       0.47130746 </v>
    <v>       0.39660963       0.85397654       0.46852239 </v>
    <v>       0.43999287       0.60070988       0.47485373 </v>
    <v>       0.44100178       0.76736914       0.47526269 </v>
    <v>       0.48400713       0.52046420       0.47880597 </v>
    <v>       0.48505169       0.84791975       0.47912836 </v>
    <v>       0.52841355       0.60099753       0.49003881 </v>
    <v>       0.52636720       0.77555309       0.49133731 </v>
    <v>       0.57162923       0.51823457       0.49411045 </v>
    <v>       0.56884848       0.86163951       0.49560896 </v>
    <v>       0.61050267       0.60514691       0.51069851 </v>
    <v>       0.61090909       0.78158642       0.50922985 </v>
    <v>       0.65298396       0.51994938       0.51862090 </v>
    <v>       0.65434938       0.85652099       0.51854925 </v>
    <v>       0.69432086       0.60452593       0.53608358 </v>
    <v>       0.69467023       0.77328148       0.53627463 </v>
    <v>       0.73878788       0.52631481       0.54498507 </v>
    <v>       0.73962923       0.85618765       0.54098806 </v>
    <v>       0.78217469       0.59811358       0.55097910 </v>
    <v>       0.78294831       0.77188889       0.55257612 </v>
    <v>       0.82767914       0.52339136       0.54910149 </v>
    <v>       0.82778610       0.85029877       0.54779403 </v>
    <v>       0.87239929       0.60173580       0.54976418 </v>
    <v>       0.87149020       0.76917284       0.54297910 </v>
    <v>       0.91824242       0.52248395       0.54439701 </v>
    <v>       0.91367201       0.85260247       0.53139403 </v>
    <v>       0.95981462       0.60985062       0.53582388 </v>
    <v>       0.95731551       0.77511235       0.52951940 </v>
   </varray>
  </structure>
  <varray name="forces" >
   <v>       0.94049757       2.51712781      -0.89051424 </v>
   <v>       5.07864927      -1.86022495      -1.53311655 </v>
   <v>       1.16248421       3.22797098      -0.78464310 </v>
   <v>      -0.59644658      -0.97980990      -0.53062384 </v>
   <v>      -1.36146534      -0.89584450      -0.08004281 </v>
   <v>      -1.14916516       0.66614214       1.74458126 </v>
   <v>      -0.12657528      -0.46616538       0.16208134 </v>
   <v>      -0.51448817       1.21751389      -0.48470857 </v>
   <v>       1.67837596      -1.87505724      -0.16228849 </v>
   <v>      -1.62985680       0.74700404      -1.15092261 </v>
   <v>      -0.42417573      -1.50093960       1.09268209 </v>
   <v>       0.71461040       0.54984568       0.97191289 </v>
   <v>       0.01216263       0.30885634      -0.32581878 </v>
   <v>       0.52519210      -1.27711102      -0.72881794 </v>
   <v>      -0.59913582      -1.08504057       1.03705895 </v>
   <v>       0.94258167      -1.38229207      -0.07263034 </v>
   <v>      -0.78038074       1.14207700      -0.44314613 </v>
   <v>      -0.31010251      -2.66961701      -0.20293877 </v>
   <v>       0.30408668       1.86062749       0.13126612 </v>
   <v>       0.85578471       1.07370525       1.64924682 </v>
   <v>      -0.05916679      -0.05948357      -0.73301207 </v>
   <v>      -2.24551854      -2.27182529      -0.66606412 </v>
   <v>       0.65782224      -1.40831897       0.05359930 </v>
   <v>       2.96472477       2.10395014       0.27317933 </v>
   <v>       1.28938929      -0.07305031       0.45727179 </v>
   <v>      -1.41423058      -1.28108631      -0.31479353 </v>
   <v>      -0.56329676      -0.29211559      -0.61184973 </v>
   <v>       0.67690007       1.12330997       0.40428076 </v>
   <v>       0.02458805      -0.53987318       1.15495902 </v>
   <v>       1.30799570      -0.22137302      -0.32737788 </v>
   <v>      -1.34126616      -0.14017502      -0.40887698 </v>
   <v>      -0.41689092      -0.96273825      -0.74416116 </v>
   <v>       0.48530286       1.43452195      -0.41187762 </v>
   <v>       1.14575465       1.58728842       1.17953870 </v>
   <v>      -0.87232427      -0.87201944       0.92657901 </v>
   <v>      -2.64346527      -0.99233567      -0.66560646 </v>
   <v>       0.75971273      -2.87114490       0.00814058 </v>
   <v>      -0.53001256       2.49300304       0.37891706 </v>
   <v>       1.33199616       3.78627533      -0.76283256 </v>
   <v>       2.20663215      -1.17062879      -0.11769407 </v>
   <v>      -0.66181797      -2.38739584      -0.71531227 </v>
   <v>      -1.63964573       2.71121541       0.87005931 </v>
   <v>      -2.92533589      -1.39507974       0.57403376 </v>
   <v>       1.60619346      -2.22818492      -0.84236099 </v>
   <v>      -1.10916178       1.34505964       0.41242487 </v>
   <v>      -1.54077360      -0.61141440       0.63320324 </v>
   <v>       0.78266452       0.63922161       0.27681730 </v>
   <v>       0.80018496       0.37387940      -1.05312561 </v>
   <v>       0.85283880       1.34021102      -0.31903334 </v>
   <v>      -0.73867294      -3.17913904       1.50652680 </v>
   <v>      -1.30644386      -0.81226970       1.03438138 </v>
   <v>       0.77648846       1.55121238      -0.50513938 </v>
   <v>       0.63999424      -1.45437741      -0.11542926 </v>
   <v>      -1.08538783       0.87331303      -0.23830432 </v>
   <v>       1.11294415      -0.27232026       0.25759758 </v>
   <v>      -0.11055613      -0.89593201      -0.81296386 </v>
   <v>      -2.64998932       0.85915347       0.63461171 </v>
   <v>       1.04454574       2.22436863       0.13736135 </v>
   <v>       2.38317772       0.39301008       0.18708765 </v>
   <v>       0.44487990       0.30764651      -0.34680905 </v>
   <v>      -1.49157350       2.02624111       0.59304549 </v>
   <v>       0.42578050      -0.52298438      -1.32671682 </v>
   <v>       0.48607117      -2.54138352      -0.51025527 </v>
   <v>      -0.95177730       3.01891170       0.24233429 </v>
   <v>      -1.96624066       0.40448808      -1.50563147 </v>
   <v>       1.12909639      -1.79959920       0.79457276 </v>
   <v>       1.23852750      -0.47856088       1.10077059 </v>
   <v>      -1.19279376       1.97184062      -0.30314169 </v>
   <v>       1.31309166       0.01002798       0.21306291 </v>
   <v>      -1.99647851       2.83210260      -0.30579771 </v>
   <v>      -2.41680481       0.57081356      -0.74086059 </v>
   <v>       0.92997183      -2.26519481      -0.29686460 </v>
   <v>      -0.76457808       1.09225595       0.78492382 </v>
   <v>       1.65935343      -0.29331227       0.52155638 </v>
   <v>       0.35862352       0.70842467      -0.80321481 </v>
   <v>      -0.50825029      -2.53404869       0.57042436 </v>
   <v>       1.63940764       1.51355112       1.56385208 </v>
   <v>       0.40849694       0.23420758      -0.00564902 </v>
   <v>      -0.42951815      -1.00698199       0.05703545 </v>
   <v>      -0.12905756       1.31519915      -0.89778219 </v>
   <v>      -1.47336272      -3.38916198      -2.07773843 </v>
   <v>       0.36269701      -0.34984079       0.24858639 </v>
   <v>       1.60315855       3.24363935       1.11496318 </v>
   <v>      -0.76556429      -0.06089478      -1.16262368 </v>
   <v>      -0.57933185      -1.28836921       0.50236944 </v>
   <v>      -1.00509578      -0.74699702      -0.07052865 </v>
   <v>       1.37491768       0.70922886      -0.69423743 </v>
   <v>       0.67320726       0.13439541       0.70466081 </v>
   <v>      -1.26537612       1.54043948       0.04504513 </v>
   <v>       0.85194979      -0.02950333       0.38586602 </v>
   <v>      -1.75723261      -1.69405370       0.73358820 </v>
   <v>       0.07527828      -0.39800744       0.47782153 </v>
  </varray>
  <varray name="stress" >
   <v>       3.50195318       1.14840639      -0.39535802 </v>
   <v>       1.14840639      50.29716704       0.14393230 </v>
   <v>      -0.39535801       0.14393230      -0.85112988 </v>
  </varray>
  <energy>
   <i name="e_fr_energy">   -829.56953244 </i>
   <i name="e_wo_entrp">   -829.48326778 </i>
   <i name="e_0_energy">   -829.52640011 </i>
  </energy>
  <time name="totalsc">  333.08  333.27</time>
  <eigenvalues>
   <array>
    <dimension dim="1">band</dimension>
    <dimension dim="2">kpoint</dimension>
    <dimension dim="3">spin</dimension>
    <field>eigene</field>
    <field>occ</field>
    <set>
     <set comment="spin 1">
      <set comment="kpoint 1">
       <r>  -23.1993    1.0000 </r>
       <r>  -23.0900    1.0000 </r>
       <r>  -23.0007    1.0000 </r>
       <r>  -22.7067    1.0000 </r>
       <r>  -22.6233    1.0000 </r>
       <r>  -22.3673    1.0000 </r>
       <r>  -22.0660    1.0000 </r>
       <r>  -21.9676    1.0000 </r>
       <r>  -21.5500    1.0000 </r>
       <r>  -21.4852    1.0000 </r>
       <r>  -21.4402    1.0000 </r>
       <r>  -21.3872    1.0000 </r>
       <r>  -21.2754    1.0000 </r>
       <r>  -21.2380    1.0000 </r>
       <r>  -21.1811    1.0000 </r>
       <r>  -21.1049    1.0000 </r>
       <r>  -21.0236    1.0000 </r>
       <r>  -21.0039    1.0000 </r>
       <r>  -20.7257    1.0000 </r>
       <r>  -20.5805    1.0000 </r>
       <r>  -20.4020    1.0000 </r>
       <r>  -20.3871    1.0000 </r>
       <r>  -20.1369    1.0000 </r>
       <r>  -20.1099    1.0000 </r>
       <r>  -19.9502    1.0000 </r>
       <r>  -19.7518    1.0000 </r>
       <r>  -19.5681    1.0000 </r>
       <r>  -19.5036    1.0000 </r>
       <r>  -19.1793    1.0000 </r>
       <r>  -18.9122    1.0000 </r>
       <r>  -18.7109    1.0000 </r>
       <r>  -18.6276    1.0000 </r>
       <r>  -18.5273    1.0000 </r>
       <r>  -18.3862    1.0000 </r>
       <r>  -18.1559    1.0000 </r>
       <r>  -17.6342    1.0000 </r>
       <r>  -17.3883    1.0000 </r>
       <r>  -17.2140    1.0000 </r>
       <r>  -17.0942    1.0000 </r>
       <r>  -17.0224    1.0000 </r>
       <r>  -16.9503    1.0000 </r>
       <r>  -16.7207    1.0000 </r>
       <r>  -16.6986    1.0000 </r>
       <r>  -16.6820    1.0000 </r>
       <r>  -16.6007    1.0000 </r>
       <r>  -16.5910    1.0000 </r>
       <r>  -16.5004    1.0000 </r>
       <r>  -16.4729    1.0000 </r>
       <r>  -16.3281    1.0000 </r>
       <r>  -16.3050    1.0000 </r>
       <r>  -16.2968    1.0000 </r>
       <r>  -16.1514    1.0000 </r>
       <r>  -16.0584    1.0000 </r>
       <r>  -16.0116    1.0000 </r>
       <r>  -15.9858    1.0000 </r>
       <r>  -15.6427    1.0000 </r>
       <r>  -15.4500    1.0000 </r>
       <r>  -15.4240    1.0000 </r>
       <r>  -15.2795    1.0000 </r>
       <r>  -15.2336    1.0000 </r>
       <r>  -15.2109    1.0000 </r>
       <r>  -14.9069    1.0000 </r>
       <r>  -14.4498    1.0000 </r>
       <r>  -14.2471    1.0000 </r>
       <r>  -14.1026    1.0000 </r>
       <r>  -14.0837    1.0000 </r>
       <r>  -13.9069    1.0000 </r>
       <r>  -13.7708    1.0000 </r>
       <r>  -13.6895    1.0000 </r>
       <r>  -13.5904    1.0000 </r>
       <r>  -13.4717    1.0000 </r>
       <r>  -13.3953    1.0000 </r>
       <r>  -13.2708    1.0000 </r>
       <r>  -13.2236    1.0000 </r>
       <r>  -13.0817    1.0000 </r>
       <r>  -12.8842    1.0000 </r>
       <r>  -12.6332    1.0000 </r>
       <r>  -12.4469    1.0000 </r>
       <r>  -12.1946    1.0000 </r>
       <r>  -12.0877    1.0000 </r>
       <r>  -12.0174    1.0000 </r>
       <r>  -11.9574    1.0000 </r>
       <r>  -11.9225    1.0000 </r>
       <r>  -11.8211    1.0000 </r>
       <r>  -11.7472    1.0000 </r>
       <r>  -11.4713    1.0000 </r>
       <r>  -11.3502    1.0000 </r>
       <r>  -11.2436    1.0000 </r>
       <r>  -11.1636    1.0000 </r>
       <r>  -11.0930    1.0000 </r>
       <r>  -10.9563    1.0000 </r>
       <r>  -10.8326    1.0000 </r>
       <r>  -10.8279    1.0000 </r>
       <r>  -10.7466    1.0000 </r>
       <r>  -10.7066    1.0000 </r>
       <r>  -10.6549    1.0000 </r>
       <r>  -10.5722    1.0000 </r>
       <r>  -10.5268    1.0000 </r>
       <r>  -10.4817    1.0000 </r>
       <r>  -10.4555    1.0000 </r>
       <r>  -10.3777    1.0000 </r>
       <r>  -10.3577    1.0000 </r>
       <r>  -10.2970    1.0000 </r>
       <r>  -10.2369    1.0000 </r>
       <r>  -10.1762    1.0000 </r>
       <r>  -10.0271    1.0000 </r>
       <r>   -9.9591    1.0000 </r>
       <r>   -9.8669    1.0000 </r>
       <r>   -9.7950    1.0000 </r>
       <r>   -9.7796    1.0000 </r>
       <r>   -9.6905    1.0000 </r>
       <r>   -9.6767    1.0000 </r>
       <r>   -9.6349    1.0000 </r>
       <r>   -9.6026    1.0000 </r>
       <r>   -9.5899    1.0000 </r>
       <r>   -9.5766    1.0000 </r>
       <r>   -9.5367    1.0000 </r>
       <r>   -9.5329    1.0000 </r>
       <r>   -9.4708    1.0000 </r>
       <r>   -9.4700    1.0000 </r>
       <r>   -9.4495    1.0000 </r>
       <r>   -9.3984    1.0000 </r>
       <r>   -9.3582    1.0000 </r>
       <r>   -9.3277    1.0000 </r>
       <r>   -9.3151    1.0000 </r>
       <r>   -9.2914    1.0000 </r>
       <r>   -9.2678    1.0000 </r>
       <r>   -9.1852    1.0000 </r>
       <r>   -9.1500    1.0000 </r>
       <r>   -9.1029    1.0000 </r>
       <r>   -9.0739    1.0000 </r>
       <r>   -9.0381    1.0000 </r>
       <r>   -8.9343    1.0000 </r>
       <r>   -8.9222    1.0000 </r>
       <r>   -8.8967    1.0000 </r>
       <r>   -8.8423    1.0000 </r>
       <r>   -8.8089    1.0000 </r>
       <r>   -8.7712    1.0000 </r>
       <r>   -8.7227    1.0000 </r>
       <r>   -8.6861    1.0000 </r>
       <r>   -8.6738    1.0000 </r>
       <r>   -8.6238    1.0000 </r>
       <r>   -8.5801    1.0000 </r>
       <r>   -8.5405    1.0000 </r>
       <r>   -8.4809    1.0000 </r>
       <r>   -8.3262    1.0000 </r>
       <r>   -8.0966    1.0000 </r>
       <r>   -8.0033    1.0000 </r>
       <r>   -7.9044    1.0000 </r>
       <r>   -7.7600    1.0000 </r>
       <r>   -7.6842    1.0000 </r>
       <r>   -7.6074    1.0000 </r>
       <r>   -7.5695    1.0000 </r>
       <r>   -7.5164    1.0000 </r>
       <r>   -7.3793    1.0000 </r>
       <r>   -7.3507    1.0000 </r>
       <r>   -7.2696    1.0000 </r>
       <r>   -7.1569    1.0000 </r>
       <r>   -7.0873    1.0000 </r>
       <r>   -6.9479    1.0000 </r>
       <r>   -6.7918    1.0000 </r>
       <r>   -6.6780    1.0000 </r>
       <r>   -6.5832    1.0000 </r>
       <r>   -6.5431    1.0000 </r>
       <r>   -6.4866    1.0000 </r>
       <r>   -6.1978    1.0000 </r>
       <r>   -6.1744    1.0000 </r>
       <r>   -6.0518    1.0000 </r>
       <r>   -6.0038    1.0000 </r>
       <r>   -5.9361    1.0000 </r>
       <r>   -5.9099    1.0000 </r>
       <r>   -5.8806    1.0000 </r>
       <r>   -5.8018    1.0000 </r>
       <r>   -5.1264    1.0000 </r>
       <r>   -4.9555    1.0000 </r>
       <r>   -4.9030    1.0000 </r>
       <r>   -4.6664    1.0000 </r>
       <r>   -4.4858    1.0000 </r>
       <r>   -4.4710    1.0000 </r>
       <r>   -4.4614    1.0000 </r>
       <r>   -4.3671    1.0000 </r>
       <r>   -3.7685    1.0000 </r>
       <r>   -3.7023    1.0000 </r>
       <r>   -3.1386    0.5141 </r>
       <r>   -3.0498    0.2769 </r>
       <r>   -2.7395    0.0027 </r>
       <r>   -2.6923    0.0009 </r>
       <r>   -2.4038    0.0000 </r>
       <r>   -2.2256    0.0000 </r>
       <r>   -2.0719    0.0000 </r>
       <r>   -1.7349    0.0000 </r>
       <r>   -1.6103    0.0000 </r>
       <r>   -1.5412    0.0000 </r>
       <r>   -1.4912    0.0000 </r>
       <r>   -1.4603    0.0000 </r>
       <r>   -1.4054    0.0000 </r>
       <r>   -1.2502    0.0000 </r>
       <r>   -1.0294    0.0000 </r>
       <r>   -0.8127    0.0000 </r>
       <r>   -0.6378    0.0000 </r>
       <r>   -0.4693    0.0000 </r>
       <r>   -0.4144    0.0000 </r>
       <r>   -0.0755    0.0000 </r>
       <r>    0.0172    0.0000 </r>
       <r>    0.1251    0.0000 </r>
       <r>    0.1403    0.0000 </r>
       <r>    0.3058    0.0000 </r>
       <r>    0.6453    0.0000 </r>
       <r>    0.6610    0.0000 </r>
       <r>    0.6949    0.0000 </r>
       <r>    0.7756    0.0000 </r>
       <r>    0.8869    0.0000 </r>
       <r>    0.8991    0.0000 </r>
       <r>    0.9199    0.0000 </r>
       <r>    0.9547    0.0000 </r>
       <r>    0.9773    0.0000 </r>
       <r>    1.0488    0.0000 </r>
       <r>    1.1507    0.0000 </r>
       <r>    1.1574    0.0000 </r>
       <r>    1.2139    0.0000 </r>
       <r>    1.3208    0.0000 </r>
       <r>    1.3275    0.0000 </r>
       <r>    1.3354    0.0000 </r>
       <r>    1.4026    0.0000 </r>
       <r>    1.4542    0.0000 </r>
       <r>    1.5460    0.0000 </r>
       <r>    1.5714    0.0000 </r>
       <r>    1.6854    0.0000 </r>
       <r>    1.7204    0.0000 </r>
       <r>    1.7282    0.0000 </r>
       <r>    1.7286    0.0000 </r>
       <r>    1.7659    0.0000 </r>
      </set>
      <set comment="kpoint 2">
       <r>  -23.1112    1.0000 </r>
       <r>  -22.9949    1.0000 </r>
       <r>  -22.9010    1.0000 </r>
       <r>  -22.6175    1.0000 </r>
       <r>  -22.5546    1.0000 </r>
       <r>  -22.5090    1.0000 </r>
       <r>  -22.1980    1.0000 </r>
       <r>  -22.1058    1.0000 </r>
       <r>  -21.9642    1.0000 </r>
       <r>  -21.9110    1.0000 </r>
       <r>  -21.8416    1.0000 </r>
       <r>  -21.7107    1.0000 </r>
       <r>  -21.2707    1.0000 </r>
       <r>  -21.1057    1.0000 </r>
       <r>  -21.0802    1.0000 </r>
       <r>  -20.9855    1.0000 </r>
       <r>  -20.6592    1.0000 </r>
       <r>  -20.5492    1.0000 </r>
       <r>  -20.4931    1.0000 </r>
       <r>  -20.3454    1.0000 </r>
       <r>  -20.2186    1.0000 </r>
       <r>  -20.1520    1.0000 </r>
       <r>  -20.0426    1.0000 </r>
       <r>  -19.9314    1.0000 </r>
       <r>  -19.8369    1.0000 </r>
       <r>  -19.5496    1.0000 </r>
       <r>  -19.5214    1.0000 </r>
       <r>  -19.0949    1.0000 </r>
       <r>  -19.0727    1.0000 </r>
       <r>  -18.8836    1.0000 </r>
       <r>  -18.7093    1.0000 </r>
       <r>  -18.5533    1.0000 </r>
       <r>  -18.5236    1.0000 </r>
       <r>  -18.3154    1.0000 </r>
       <r>  -18.1978    1.0000 </r>
       <r>  -18.1289    1.0000 </r>
       <r>  -18.0613    1.0000 </r>
       <r>  -17.9572    1.0000 </r>
       <r>  -17.8572    1.0000 </r>
       <r>  -17.7705    1.0000 </r>
       <r>  -17.4704    1.0000 </r>
       <r>  -17.4115    1.0000 </r>
       <r>  -17.3121    1.0000 </r>
       <r>  -17.1320    1.0000 </r>
       <r>  -16.9992    1.0000 </r>
       <r>  -16.6054    1.0000 </r>
       <r>  -16.3937    1.0000 </r>
       <r>  -16.1860    1.0000 </r>
       <r>  -16.1029    1.0000 </r>
       <r>  -15.9031    1.0000 </r>
       <r>  -15.8228    1.0000 </r>
       <r>  -15.6413    1.0000 </r>
       <r>  -15.5983    1.0000 </r>
       <r>  -15.3701    1.0000 </r>
       <r>  -15.3327    1.0000 </r>
       <r>  -15.2543    1.0000 </r>
       <r>  -15.1916    1.0000 </r>
       <r>  -15.1206    1.0000 </r>
       <r>  -15.0431    1.0000 </r>
       <r>  -14.9892    1.0000 </r>
       <r>  -14.9156    1.0000 </r>
       <r>  -14.7561    1.0000 </r>
       <r>  -14.5601    1.0000 </r>
       <r>  -14.3777    1.0000 </r>
       <r>  -14.2829    1.0000 </r>
       <r>  -14.1642    1.0000 </r>
       <r>  -13.9646    1.0000 </r>
       <r>  -13.9106    1.0000 </r>
       <r>  -13.3734    1.0000 </r>
       <r>  -13.2721    1.0000 </r>
       <r>  -13.2095    1.0000 </r>
       <r>  -13.1504    1.0000 </r>
       <r>  -12.9099    1.0000 </r>
       <r>  -12.8608    1.0000 </r>
       <r>  -12.7803    1.0000 </r>
       <r>  -12.7256    1.0000 </r>
       <r>  -12.6405    1.0000 </r>
       <r>  -12.5633    1.0000 </r>
       <r>  -12.4066    1.0000 </r>
       <r>  -12.3513    1.0000 </r>
       <r>  -12.1438    1.0000 </r>
       <r>  -12.1245    1.0000 </r>
       <r>  -12.0768    1.0000 </r>
       <r>  -12.0067    1.0000 </r>
       <r>  -11.7881    1.0000 </r>
       <r>  -11.6447    1.0000 </r>
       <r>  -11.4799    1.0000 </r>
       <r>  -11.3487    1.0000 </r>
       <r>  -11.2800    1.0000 </r>
       <r>  -11.1632    1.0000 </r>
       <r>  -11.0968    1.0000 </r>
       <r>  -11.0514    1.0000 </r>
       <r>  -11.0273    1.0000 </r>
       <r>  -10.9749    1.0000 </r>
       <r>  -10.9083    1.0000 </r>
       <r>  -10.8972    1.0000 </r>
       <r>  -10.8507    1.0000 </r>
       <r>  -10.8317    1.0000 </r>
       <r>  -10.8135    1.0000 </r>
       <r>  -10.6591    1.0000 </r>
       <r>  -10.5807    1.0000 </r>
       <r>  -10.5195    1.0000 </r>
       <r>  -10.4574    1.0000 </r>
       <r>  -10.4035    1.0000 </r>
       <r>  -10.3927    1.0000 </r>
       <r>  -10.3452    1.0000 </r>
       <r>  -10.2818    1.0000 </r>
       <r>  -10.1023    1.0000 </r>
       <r>  -10.0919    1.0000 </r>
       <r>  -10.0546    1.0000 </r>
       <r>   -9.9468    1.0000 </r>
       <r>   -9.9256    1.0000 </r>
       <r>   -9.9133    1.0000 </r>
       <r>   -9.7957    1.0000 </r>
       <r>   -9.7435    1.0000 </r>
       <r>   -9.7230    1.0000 </r>
       <r>   -9.6646    1.0000 </r>
       <r>   -9.6029    1.0000 </r>
       <r>   -9.5718    1.0000 </r>
       <r>   -9.5317    1.0000 </r>
       <r>   -9.5099    1.0000 </r>
       <r>   -9.4611    1.0000 </r>
       <r>   -9.4053    1.0000 </r>
       <r>   -9.3341    1.0000 </r>
       <r>   -9.2865    1.0000 </r>
       <r>   -9.2367    1.0000 </r>
       <r>   -9.0812    1.0000 </r>
       <r>   -8.9467    1.0000 </r>
       <r>   -8.8680    1.0000 </r>
       <r>   -8.8537    1.0000 </r>
       <r>   -8.8008    1.0000 </r>
       <r>   -8.7422    1.0000 </r>
       <r>   -8.6644    1.0000 </r>
       <r>   -8.6397    1.0000 </r>
       <r>   -8.5778    1.0000 </r>
       <r>   -8.5645    1.0000 </r>
       <r>   -8.5321    1.0000 </r>
       <r>   -8.4728    1.0000 </r>
       <r>   -8.4118    1.0000 </r>
       <r>   -8.2934    1.0000 </r>
       <r>   -8.2611    1.0000 </r>
       <r>   -8.1802    1.0000 </r>
       <r>   -8.1402    1.0000 </r>
       <r>   -8.1217    1.0000 </r>
       <r>   -8.0314    1.0000 </r>
       <r>   -8.0037    1.0000 </r>
       <r>   -7.9346    1.0000 </r>
       <r>   -7.8380    1.0000 </r>
       <r>   -7.7828    1.0000 </r>
       <r>   -7.7303    1.0000 </r>
       <r>   -7.6532    1.0000 </r>
       <r>   -7.5728    1.0000 </r>
       <r>   -7.4493    1.0000 </r>
       <r>   -7.4150    1.0000 </r>
       <r>   -7.3362    1.0000 </r>
       <r>   -7.2721    1.0000 </r>
       <r>   -7.1581    1.0000 </r>
       <r>   -7.0244    1.0000 </r>
       <r>   -6.9432    1.0000 </r>
       <r>   -6.8633    1.0000 </r>
       <r>   -6.8199    1.0000 </r>
       <r>   -6.6926    1.0000 </r>
       <r>   -6.6209    1.0000 </r>
       <r>   -6.5238    1.0000 </r>
       <r>   -6.4749    1.0000 </r>
       <r>   -6.2636    1.0000 </r>
       <r>   -6.2190    1.0000 </r>
       <r>   -6.0922    1.0000 </r>
       <r>   -6.0471    1.0000 </r>
       <r>   -5.9436    1.0000 </r>
       <r>   -5.8881    1.0000 </r>
       <r>   -5.7749    1.0000 </r>
       <r>   -5.7139    1.0000 </r>
       <r>   -5.6674    1.0000 </r>
       <r>   -5.5538    1.0000 </r>
       <r>   -5.5039    1.0000 </r>
       <r>   -5.1665    1.0000 </r>
       <r>   -5.1276    1.0000 </r>
       <r>   -4.7233    1.0000 </r>
       <r>   -4.6484    1.0000 </r>
       <r>   -4.5369    1.0000 </r>
       <r>   -4.4476    1.0000 </r>
       <r>   -4.3942    1.0000 </r>
       <r>   -3.4415    0.9853 </r>
       <r>   -2.9643    0.1157 </r>
       <r>   -2.4409    0.0000 </r>
       <r>   -2.1569    0.0000 </r>
       <r>   -2.0590    0.0000 </r>
       <r>   -1.6394    0.0000 </r>
       <r>   -1.5123    0.0000 </r>
       <r>   -1.4601    0.0000 </r>
       <r>   -1.4096    0.0000 </r>
       <r>   -1.3079    0.0000 </r>
       <r>   -1.2960    0.0000 </r>
       <r>   -1.1140    0.0000 </r>
       <r>   -1.0157    0.0000 </r>
       <r>   -0.9814    0.0000 </r>
       <r>   -0.8863    0.0000 </r>
       <r>   -0.7480    0.0000 </r>
       <r>   -0.4413    0.0000 </r>
       <r>   -0.2377    0.0000 </r>
       <r>   -0.1409    0.0000 </r>
       <r>   -0.0368    0.0000 </r>
       <r>    0.0361    0.0000 </r>
       <r>    0.1290    0.0000 </r>
       <r>    0.2213    0.0000 </r>
       <r>    0.3151    0.0000 </r>
       <r>    0.3203    0.0000 </r>
       <r>    0.3453    0.0000 </r>
       <r>    0.7939    0.0000 </r>
       <r>    0.8197    0.0000 </r>
       <r>    0.8375    0.0000 </r>
       <r>    1.0338    0.0000 </r>
       <r>    1.0438    0.0000 </r>
       <r>    1.0660    0.0000 </r>
       <r>    1.1207    0.0000 </r>
       <r>    1.1497    0.0000 </r>
       <r>    1.2618    0.0000 </r>
       <r>    1.2931    0.0000 </r>
       <r>    1.2993    0.0000 </r>
       <r>    1.3561    0.0000 </r>
       <r>    1.3970    0.0000 </r>
       <r>    1.4332    0.0000 </r>
       <r>    1.4576    0.0000 </r>
       <r>    1.4660    0.0000 </r>
       <r>    1.4743    0.0000 </r>
       <r>    1.5279    0.0000 </r>
       <r>    1.5457    0.0000 </r>
       <r>    1.5956    0.0000 </r>
       <r>    1.6572    0.0000 </r>
       <r>    1.7032    0.0000 </r>
       <r>    1.7192    0.0000 </r>
      </set>
      <set comment="kpoint 3">
       <r>  -22.8772    1.0000 </r>
       <r>  -22.8564    1.0000 </r>
       <r>  -22.7513    1.0000 </r>
       <r>  -22.6616    1.0000 </r>
       <r>  -22.6105    1.0000 </r>
       <r>  -22.5732    1.0000 </r>
       <r>  -22.3684    1.0000 </r>
       <r>  -22.3108    1.0000 </r>
       <r>  -22.2361    1.0000 </r>
       <r>  -22.1887    1.0000 </r>
       <r>  -21.7335    1.0000 </r>
       <r>  -21.6684    1.0000 </r>
       <r>  -21.5749    1.0000 </r>
       <r>  -21.5386    1.0000 </r>
       <r>  -20.8921    1.0000 </r>
       <r>  -20.8365    1.0000 </r>
       <r>  -20.7129    1.0000 </r>
       <r>  -20.6858    1.0000 </r>
       <r>  -19.9361    1.0000 </r>
       <r>  -19.8917    1.0000 </r>
       <r>  -19.6484    1.0000 </r>
       <r>  -19.6038    1.0000 </r>
       <r>  -19.5614    1.0000 </r>
       <r>  -19.5418    1.0000 </r>
       <r>  -19.4570    1.0000 </r>
       <r>  -19.4024    1.0000 </r>
       <r>  -19.3177    1.0000 </r>
       <r>  -19.2981    1.0000 </r>
       <r>  -19.0808    1.0000 </r>
       <r>  -19.0626    1.0000 </r>
       <r>  -19.0146    1.0000 </r>
       <r>  -18.9715    1.0000 </r>
       <r>  -18.6076    1.0000 </r>
       <r>  -18.5476    1.0000 </r>
       <r>  -18.5046    1.0000 </r>
       <r>  -18.4755    1.0000 </r>
       <r>  -18.3066    1.0000 </r>
       <r>  -18.2361    1.0000 </r>
       <r>  -18.1867    1.0000 </r>
       <r>  -18.0638    1.0000 </r>
       <r>  -17.7602    1.0000 </r>
       <r>  -17.7326    1.0000 </r>
       <r>  -17.6165    1.0000 </r>
       <r>  -17.5901    1.0000 </r>
       <r>  -16.9081    1.0000 </r>
       <r>  -16.8141    1.0000 </r>
       <r>  -16.3369    1.0000 </r>
       <r>  -16.2195    1.0000 </r>
       <r>  -16.0881    1.0000 </r>
       <r>  -16.0519    1.0000 </r>
       <r>  -15.9711    1.0000 </r>
       <r>  -15.9098    1.0000 </r>
       <r>  -15.3031    1.0000 </r>
       <r>  -15.2195    1.0000 </r>
       <r>  -15.0932    1.0000 </r>
       <r>  -15.0497    1.0000 </r>
       <r>  -14.8580    1.0000 </r>
       <r>  -14.8200    1.0000 </r>
       <r>  -14.7329    1.0000 </r>
       <r>  -14.6936    1.0000 </r>
       <r>  -14.0150    1.0000 </r>
       <r>  -13.9427    1.0000 </r>
       <r>  -13.8430    1.0000 </r>
       <r>  -13.7847    1.0000 </r>
       <r>  -13.7496    1.0000 </r>
       <r>  -13.7134    1.0000 </r>
       <r>  -13.6773    1.0000 </r>
       <r>  -13.6378    1.0000 </r>
       <r>  -13.5976    1.0000 </r>
       <r>  -13.5657    1.0000 </r>
       <r>  -13.5243    1.0000 </r>
       <r>  -13.4602    1.0000 </r>
       <r>  -13.4304    1.0000 </r>
       <r>  -13.3955    1.0000 </r>
       <r>  -13.2019    1.0000 </r>
       <r>  -13.0692    1.0000 </r>
       <r>  -12.3719    1.0000 </r>
       <r>  -12.3184    1.0000 </r>
       <r>  -12.2499    1.0000 </r>
       <r>  -12.2056    1.0000 </r>
       <r>  -12.1626    1.0000 </r>
       <r>  -12.0760    1.0000 </r>
       <r>  -11.9845    1.0000 </r>
       <r>  -11.9302    1.0000 </r>
       <r>  -11.8658    1.0000 </r>
       <r>  -11.8651    1.0000 </r>
       <r>  -11.8535    1.0000 </r>
       <r>  -11.7970    1.0000 </r>
       <r>  -11.6717    1.0000 </r>
       <r>  -11.6375    1.0000 </r>
       <r>  -11.3142    1.0000 </r>
       <r>  -11.2703    1.0000 </r>
       <r>  -11.2203    1.0000 </r>
       <r>  -11.1632    1.0000 </r>
       <r>  -11.0564    1.0000 </r>
       <r>  -10.9746    1.0000 </r>
       <r>  -10.8133    1.0000 </r>
       <r>  -10.7849    1.0000 </r>
       <r>  -10.6841    1.0000 </r>
       <r>  -10.6660    1.0000 </r>
       <r>  -10.5642    1.0000 </r>
       <r>  -10.5501    1.0000 </r>
       <r>  -10.5309    1.0000 </r>
       <r>  -10.5031    1.0000 </r>
       <r>  -10.4505    1.0000 </r>
       <r>  -10.3873    1.0000 </r>
       <r>  -10.3696    1.0000 </r>
       <r>  -10.2829    1.0000 </r>
       <r>  -10.2628    1.0000 </r>
       <r>  -10.2118    1.0000 </r>
       <r>  -10.1785    1.0000 </r>
       <r>  -10.1691    1.0000 </r>
       <r>  -10.1159    1.0000 </r>
       <r>  -10.0747    1.0000 </r>
       <r>  -10.0667    1.0000 </r>
[...]
       <r>   -22.6890    15.0250     7.1269 </r>
       <r>   -22.5924    16.6869     8.7380 </r>
       <r>   -22.4959    16.3570    10.3173 </r>
       <r>   -22.3993    14.1456    11.6831 </r>
       <r>   -22.3028    12.5983    12.8994 </r>
       <r>   -22.2062    12.7705    14.1324 </r>
       <r>   -22.1097    13.5768    15.4433 </r>
       <r>   -22.0131    14.1107    16.8057 </r>
       <r>   -21.9166    14.2008    18.1768 </r>
       <r>   -21.8200    13.7291    19.5023 </r>
       <r>   -21.7235    12.9294    20.7507 </r>
       <r>   -21.6269    12.2687    21.9352 </r>
       <r>   -21.5304    11.7919    23.0738 </r>
       <r>   -21.4338    11.4719    24.1814 </r>
       <r>   -21.3373    11.8333    25.3239 </r>
       <r>   -21.2407    13.3883    26.6166 </r>
       <r>   -21.1442    15.5169    28.1147 </r>
       <r>   -21.0476    16.5396    29.7116 </r>
       <r>   -20.9511    15.3079    31.1896 </r>
       <r>   -20.8545    12.9896    32.4438 </r>
       <r>   -20.7580    12.0208    33.6044 </r>
       <r>   -20.6614    12.9303    34.8528 </r>
       <r>   -20.5649    14.0488    36.2093 </r>
       <r>   -20.4683    14.1168    37.5722 </r>
       <r>   -20.3718    13.4609    38.8719 </r>
       <r>   -20.2752    13.1164    40.1383 </r>
       <r>   -20.1787    13.6745    41.4586 </r>
       <r>   -20.0821    14.6954    42.8774 </r>
       <r>   -19.9856    15.2979    44.3545 </r>
       <r>   -19.8890    14.8904    45.7921 </r>
       <r>   -19.7925    13.7191    47.1167 </r>
       <r>   -19.6959    13.5513    48.4251 </r>
       <r>   -19.5994    15.5047    49.9221 </r>
       <r>   -19.5028    17.1720    51.5801 </r>
       <r>   -19.4063    15.7494    53.1007 </r>
       <r>   -19.3097    12.6870    54.3256 </r>
       <r>   -19.2132    11.5315    55.4390 </r>
       <r>   -19.1166    13.0880    56.7027 </r>
       <r>   -19.0201    14.7685    58.1286 </r>
       <r>   -18.9235    14.2744    59.5068 </r>
       <r>   -18.8270    12.6542    60.7286 </r>
       <r>   -18.7304    12.6384    61.9488 </r>
       <r>   -18.6339    15.0146    63.3985 </r>
       <r>   -18.5373    17.5576    65.0937 </r>
       <r>   -18.4408    17.9102    66.8229 </r>
       <r>   -18.3442    16.9129    68.4559 </r>
       <r>   -18.2477    16.8264    70.0805 </r>
       <r>   -18.1511    17.3975    71.7602 </r>
       <r>   -18.0546    16.7676    73.3792 </r>
       <r>   -17.9580    14.8689    74.8148 </r>
       <r>   -17.8615    13.3168    76.1005 </r>
       <r>   -17.7649    12.7209    77.3287 </r>
       <r>   -17.6683    12.3039    78.5167 </r>
       <r>   -17.5718    11.8310    79.6590 </r>
       <r>   -17.4752    11.8021    80.7985 </r>
       <r>   -17.3787    11.9604    81.9533 </r>
       <r>   -17.2821    11.6388    83.0770 </r>
       <r>   -17.1856    11.2604    84.1642 </r>
       <r>   -17.0890    11.4913    85.2737 </r>
       <r>   -16.9925    11.6997    86.4033 </r>
       <r>   -16.8959    11.1280    87.4777 </r>
       <r>   -16.7994    10.6240    88.5035 </r>
       <r>   -16.7028    11.4000    89.6042 </r>
       <r>   -16.6063    12.8777    90.8475 </r>
       <r>   -16.5097    13.7817    92.1781 </r>
       <r>   -16.4132    14.3293    93.5616 </r>
       <r>   -16.3166    15.3775    95.0464 </r>
       <r>   -16.2201    16.9176    96.6798 </r>
       <r>   -16.1235    18.3633    98.4528 </r>
       <r>   -16.0270    18.8022   100.2681 </r>
       <r>   -15.9304    17.4275   101.9508 </r>
       <r>   -15.8339    14.6427   103.3645 </r>
       <r>   -15.7373    12.1125   104.5340 </r>
       <r>   -15.6408    11.1338   105.6090 </r>
       <r>   -15.5442    11.6288   106.7318 </r>
       <r>   -15.4477    13.6557   108.0502 </r>
       <r>   -15.3511    17.4976   109.7396 </r>
       <r>   -15.2546    21.4946   111.8150 </r>
       <r>   -15.1580    23.1509   114.0502 </r>
       <r>   -15.0615    22.1271   116.1866 </r>
       <r>   -14.9649    19.8435   118.1025 </r>
       <r>   -14.8684    17.3207   119.7748 </r>
       <r>   -14.7718    14.7201   121.1961 </r>
       <r>   -14.6753    12.0570   122.3602 </r>
       <r>   -14.5787     9.8599   123.3122 </r>
       <r>   -14.4822     8.9454   124.1758 </r>
       <r>   -14.3856     9.4574   125.0890 </r>
       <r>   -14.2891    10.6890   126.1210 </r>
       <r>   -14.1925    11.9393   127.2737 </r>
       <r>   -14.0960    13.2441   128.5525 </r>
       <r>   -13.9994    14.9042   129.9915 </r>
       <r>   -13.9029    16.4930   131.5839 </r>
       <r>   -13.8063    17.3352   133.2576 </r>
       <r>   -13.7098    17.5857   134.9555 </r>
       <r>   -13.6132    17.7226   136.6667 </r>
       <r>   -13.5167    18.0078   138.4053 </r>
       <r>   -13.4201    18.6363   140.2047 </r>
       <r>   -13.3236    19.3637   142.0743 </r>
       <r>   -13.2270    19.2687   143.9347 </r>
       <r>   -13.1305    17.4669   145.6211 </r>
       <r>   -13.0339    14.7204   147.0424 </r>
       <r>   -12.9374    13.2876   148.3253 </r>
       <r>   -12.8408    13.8646   149.6640 </r>
       <r>   -12.7443    14.7930   151.0922 </r>
       <r>   -12.6477    14.7667   152.5180 </r>
       <r>   -12.5512    14.1939   153.8884 </r>
       <r>   -12.4546    14.3111   155.2702 </r>
       <r>   -12.3581    15.7955   156.7952 </r>
       <r>   -12.2615    18.4747   158.5790 </r>
       <r>   -12.1650    21.9298   160.6963 </r>
       <r>   -12.0684    24.8509   163.0957 </r>
       <r>   -11.9718    25.5602   165.5636 </r>
       <r>   -11.8753    24.0116   167.8819 </r>
       <r>   -11.7787    21.1726   169.9261 </r>
       <r>   -11.6822    17.7081   171.6359 </r>
       <r>   -11.5856    14.6061   173.0461 </r>
       <r>   -11.4891    13.4543   174.3451 </r>
       <r>   -11.3925    15.2185   175.8145 </r>
       <r>   -11.2960    19.1556   177.6640 </r>
       <r>   -11.1994    23.5511   179.9378 </r>
       <r>   -11.1029    27.4053   182.5838 </r>
       <r>   -11.0063    30.6459   185.5427 </r>
       <r>   -10.9098    33.0567   188.7344 </r>
       <r>   -10.8132    33.8791   192.0054 </r>
       <r>   -10.7167    33.3099   195.2215 </r>
       <r>   -10.6201    33.6015   198.4658 </r>
       <r>   -10.5236    36.0801   201.9494 </r>
       <r>   -10.4270    38.5999   205.6762 </r>
       <r>   -10.3305    38.4423   209.3879 </r>
       <r>   -10.2339    36.0948   212.8728 </r>
       <r>   -10.1374    34.3055   216.1851 </r>
       <r>   -10.0408    34.0449   219.4721 </r>
       <r>    -9.9443    33.9513   222.7502 </r>
       <r>    -9.8477    33.7421   226.0080 </r>
       <r>    -9.7512    34.9096   229.3785 </r>
       <r>    -9.6546    37.8545   233.0334 </r>
       <r>    -9.5581    41.0394   236.9958 </r>
       <r>    -9.4615    42.8800   241.1359 </r>
       <r>    -9.3650    42.4697   245.2364 </r>
       <r>    -9.2684    38.8922   248.9915 </r>
       <r>    -9.1719    32.6928   252.1480 </r>
       <r>    -9.0753    27.6121   254.8140 </r>
       <r>    -8.9788    27.2605   257.4460 </r>
       <r>    -8.8822    31.1418   260.4528 </r>
       <r>    -8.7857    35.8035   263.9096 </r>
       <r>    -8.6891    38.3835   267.6156 </r>
       <r>    -8.5926    37.9557   271.2802 </r>
       <r>    -8.4960    34.9195   274.6517 </r>
       <r>    -8.3995    31.1846   277.6626 </r>
       <r>    -8.3029    29.2383   280.4856 </r>
       <r>    -8.2064    29.0815   283.2935 </r>
       <r>    -8.1098    28.5175   286.0469 </r>
       <r>    -8.0133    26.9009   288.6442 </r>
       <r>    -7.9167    25.7776   291.1330 </r>
       <r>    -7.8202    26.2086   293.6635 </r>
       <r>    -7.7236    27.4474   296.3135 </r>
       <r>    -7.6271    28.3139   299.0473 </r>
       <r>    -7.5305    28.7268   301.8209 </r>
       <r>    -7.4340    29.2119   304.6413 </r>
       <r>    -7.3374    29.4270   307.4825 </r>
       <r>    -7.2409    28.2341   310.2085 </r>
       <r>    -7.1443    25.7253   312.6923 </r>
       <r>    -7.0478    23.6190   314.9728 </r>
       <r>    -6.9512    22.9850   317.1920 </r>
       <r>    -6.8547    23.4011   319.4514 </r>
       <r>    -6.7581    24.1772   321.7857 </r>
       <r>    -6.6616    24.9111   324.1909 </r>
       <r>    -6.5650    24.9045   326.5954 </r>
       <r>    -6.4685    23.2960   328.8447 </r>
       <r>    -6.3719    20.8314   330.8560 </r>
       <r>    -6.2753    19.5614   332.7446 </r>
       <r>    -6.1788    19.9776   334.6735 </r>
       <r>    -6.0822    21.3965   336.7393 </r>
       <r>    -5.9857    23.7221   339.0297 </r>
       <r>    -5.8891    26.0701   341.5468 </r>
       <r>    -5.7926    26.4937   344.1048 </r>
       <r>    -5.6960    24.3455   346.4554 </r>
       <r>    -5.5995    20.5410   348.4386 </r>
       <r>    -5.5029    15.9493   349.9786 </r>
       <r>    -5.4064    11.6483   351.1032 </r>
       <r>    -5.3098     9.7101   352.0407 </r>
       <r>    -5.2133    10.9503   353.0980 </r>
       <r>    -5.1167    12.7080   354.3250 </r>
       <r>    -5.0202    11.9262   355.4764 </r>
       <r>    -4.9236     9.3175   356.3760 </r>
       <r>    -4.8271     7.8590   357.1348 </r>
       <r>    -4.7305     8.9788   358.0018 </r>
       <r>    -4.6340    11.8197   359.1429 </r>
       <r>    -4.5374    14.6549   360.5579 </r>
       <r>    -4.4409    15.6213   362.0661 </r>
       <r>    -4.3443    13.3480   363.3549 </r>
       <r>    -4.2478     8.8588   364.2102 </r>
       <r>    -4.1512     4.9184   364.6851 </r>
       <r>    -4.0547     2.9364   364.9686 </r>
       <r>    -3.9581     2.5689   365.2166 </r>
       <r>    -3.8616     3.0475   365.5109 </r>
       <r>    -3.7650     3.5911   365.8576 </r>
       <r>    -3.6685     3.6656   366.2115 </r>
       <r>    -3.5719     3.4511   366.5447 </r>
       <r>    -3.4754     3.4024   366.8732 </r>
       <r>    -3.3788     3.3129   367.1931 </r>
       <r>    -3.2823     3.0108   367.4838 </r>
       <r>    -3.1857     3.2059   367.7933 </r>
       <r>    -3.0892     4.2613   368.2048 </r>
       <r>    -2.9926     5.3608   368.7224 </r>
       <r>    -2.8961     5.7550   369.2780 </r>
       <r>    -2.7995     5.7315   369.8314 </r>
       <r>    -2.7030     5.7064   370.3823 </r>
       <r>    -2.6064     5.7437   370.9369 </r>
       <r>    -2.5099     6.1941   371.5349 </r>
       <r>    -2.4133     6.9364   372.2047 </r>
       <r>    -2.3168     7.3318   372.9125 </r>
       <r>    -2.2202     7.7084   373.6568 </r>
       <r>    -2.1237     8.2404   374.4524 </r>
       <r>    -2.0271     7.7628   375.2019 </r>
       <r>    -1.9306     6.2054   375.8011 </r>
       <r>    -1.8340     5.9719   376.3777 </r>
       <r>    -1.7375     9.1395   377.2601 </r>
       <r>    -1.6409    14.7601   378.6852 </r>
       <r>    -1.5444    19.8762   380.6042 </r>
       <r>    -1.4478    22.2011   382.7478 </r>
       <r>    -1.3513    21.5325   384.8268 </r>
       <r>    -1.2547    19.6520   386.7242 </r>
       <r>    -1.1582    18.6056   388.5206 </r>
       <r>    -1.0616    18.4341   390.3004 </r>
       <r>    -0.9651    17.4468   391.9849 </r>
       <r>    -0.8685    15.0816   393.4410 </r>
       <r>    -0.7720    12.7879   394.6757 </r>
       <r>    -0.6754    11.8551   395.8203 </r>
       <r>    -0.5788    12.1400   396.9925 </r>
       <r>    -0.4823    12.6302   398.2119 </r>
       <r>    -0.3857    12.6237   399.4308 </r>
       <r>    -0.2892    12.8436   400.6708 </r>
       <r>    -0.1926    14.4200   402.0631 </r>
       <r>    -0.0961    16.8553   403.6905 </r>
       <r>     0.0005    18.6781   405.4939 </r>
       <r>     0.0970    19.5432   407.3808 </r>
       <r>     0.1936    20.4373   409.3540 </r>
       <r>     0.2901    21.5093   411.4307 </r>
       <r>     0.3867    21.0875   413.4668 </r>
       <r>     0.4832    18.9690   415.2982 </r>
       <r>     0.5798    18.3744   417.0723 </r>
       <r>     0.6763    21.5625   419.1542 </r>
       <r>     0.7729    26.4453   421.7075 </r>
       <r>     0.8694    29.9196   424.5963 </r>
       <r>     0.9660    32.1617   427.7015 </r>
       <r>     1.0625    35.3694   431.1164 </r>
       <r>     1.1591    40.1087   434.9890 </r>
       <r>     1.2556    45.4967   439.3817 </r>
       <r>     1.3522    50.3377   444.2419 </r>
       <r>     1.4487    52.4455   449.3055 </r>
       <r>     1.5453    49.4895   454.0838 </r>
       <r>     1.6418    41.3962   458.0806 </r>
       <r>     1.7384    30.2868   461.0048 </r>
       <r>     1.8349    18.5281   462.7937 </r>
       <r>     1.9315     8.7461   463.6382 </r>
       <r>     2.0280     2.9534   463.9233 </r>
       <r>     2.1246     0.6794   463.9889 </r>
       <r>     2.2211     0.1037   463.9989 </r>
       <r>     2.3177     0.0104   463.9999 </r>
       <r>     2.4142     0.0007   464.0000 </r>
       <r>     2.5108     0.0000   464.0000 </r>
       <r>     2.6073     0.0000   464.0000 </r>
       <r>     2.7039     0.0000   464.0000 </r>
       <r>     2.8004     0.0000   464.0000 </r>
       <r>     2.8970     0.0000   464.0000 </r>
       <r>     2.9935     0.0000   464.0000 </r>
       <r>     3.0901     0.0000   464.0000 </r>
       <r>     3.1866     0.0000   464.0000 </r>
       <r>     3.2832     0.0000   464.0000 </r>
       <r>     3.3797     0.0000   464.0000 </r>
       <r>     3.4763     0.0000   464.0000 </r>
       <r>     3.5728     0.0000   464.0000 </r>
       <r>     3.6694     0.0000   464.0000 </r>
       <r>     3.7659     0.0000   464.0000 </r>
      </set>
     </set>
    </array>
   </total>
  </dos>
 </calculation>
 <structure name="finalpos" >
  <crystal>
   <varray name="basis" >
    <v>      28.05000000       0.00000000       0.00000000 </v>
    <v>       0.00000000       8.10000000       0.00000000 </v>
    <v>       0.00000000       0.00000000      33.50000000 </v>
   </varray>
   <i name="volume">   7611.36750000 </i>
   <varray name="rec_basis" >
    <v>       0.03565062       0.00000000       0.00000000 </v>
    <v>       0.00000000       0.12345679       0.00000000 </v>
    <v>       0.00000000       0.00000000       0.02985075 </v>
   </varray>
  </crystal>
  <varray name="positions" >
   <v>       0.00461458       0.10084889       0.50743881 </v>
   <v>       0.00275462       0.27850741       0.51014030 </v>
   <v>       0.04606310       0.01747506       0.49976716 </v>
   <v>       0.04749697       0.35458642       0.50393433 </v>
   <v>       0.09003886       0.10384667       0.48876716 </v>
   <v>       0.09022068       0.27239753       0.48777612 </v>
   <v>       0.13358788       0.02182728       0.48368657 </v>
   <v>       0.13486025       0.35226543       0.48555522 </v>
   <v>       0.17518859       0.10674914       0.47225075 </v>
   <v>       0.17784599       0.27273086       0.47520597 </v>
   <v>       0.21979715       0.02455938       0.46474925 </v>
   <v>       0.21944635       0.35380864       0.46337612 </v>
   <v>       0.26405989       0.10477654       0.45849552 </v>
   <v>       0.26329947       0.27674444       0.45729552 </v>
   <v>       0.30930588       0.02430679       0.45953731 </v>
   <v>       0.30772193       0.35975556       0.45628358 </v>
   <v>       0.35380998       0.10391975       0.45562388 </v>
   <v>       0.35285312       0.27959383       0.45313433 </v>
   <v>       0.39715865       0.01798469       0.46074925 </v>
   <v>       0.39715508       0.35537037       0.45704179 </v>
   <v>       0.44140107       0.10326691       0.46396119 </v>
   <v>       0.44226738       0.27542469       0.46164478 </v>
   <v>       0.48426738       0.02212012       0.47265970 </v>
   <v>       0.48363280       0.35185309       0.47171642 </v>
   <v>       0.52820677       0.10537358       0.47533134 </v>
   <v>       0.52935116       0.27593951       0.47534328 </v>
   <v>       0.57214973       0.02627235       0.48635522 </v>
   <v>       0.57196791       0.35146173       0.48605075 </v>
   <v>       0.61723708       0.10358481       0.49080597 </v>
   <v>       0.61529055       0.27306790       0.49423284 </v>
   <v>       0.65856328       0.01982605       0.50699403 </v>
   <v>       0.65659893       0.35531358       0.51003582 </v>
   <v>       0.70100178       0.09947099       0.51557313 </v>
   <v>       0.70028520       0.27127654       0.51628657 </v>
   <v>       0.74280927       0.02009160       0.52823881 </v>
   <v>       0.74244563       0.35969630       0.53239701 </v>
   <v>       0.78504813       0.10585605       0.53447463 </v>
   <v>       0.78536185       0.27164691       0.53486269 </v>
   <v>       0.82735116       0.01416556       0.54178507 </v>
   <v>       0.82718717       0.35627531       0.54272836 </v>
   <v>       0.87236007       0.10478840       0.53821791 </v>
   <v>       0.87220677       0.26946790       0.53902687 </v>
   <v>       0.91605348       0.02288370       0.52899403 </v>
   <v>       0.91525490       0.35835185       0.53779403 </v>
   <v>       0.95556506       0.10290481       0.51909254 </v>
   <v>       0.95477362       0.27540000       0.52319104 </v>
   <v>       0.01133729       0.60354815       0.52716716 </v>
   <v>       0.01074984       0.77382593       0.52408955 </v>
   <v>       0.05074403       0.51696914       0.51389851 </v>
   <v>       0.04979501       0.85725062       0.50770746 </v>
   <v>       0.09378360       0.60318395       0.50276716 </v>
   <v>       0.09311230       0.77053580       0.50309254 </v>
   <v>       0.13514225       0.52398395       0.49012239 </v>
   <v>       0.13595758       0.85348765       0.49220896 </v>
   <v>       0.17809733       0.60386667       0.48194925 </v>
   <v>       0.17894296       0.77404198       0.48582090 </v>
   <v>       0.22156970       0.52064815       0.46981493 </v>
   <v>       0.22024563       0.85342716       0.47348060 </v>
   <v>       0.26421711       0.60288148       0.47068060 </v>
   <v>       0.26460036       0.77323827       0.47461791 </v>
   <v>       0.30952050       0.52053580       0.46645672 </v>
   <v>       0.30879073       0.85870370       0.47233731 </v>
   <v>       0.35304599       0.60310741       0.47336716 </v>
   <v>       0.35318717       0.76867901       0.47275224 </v>
   <v>       0.39749733       0.51645802       0.47130746 </v>
   <v>       0.39660963       0.85397654       0.46852239 </v>
   <v>       0.43999287       0.60070988       0.47485373 </v>
   <v>       0.44100178       0.76736914       0.47526269 </v>
   <v>       0.48400713       0.52046420       0.47880597 </v>
   <v>       0.48505169       0.84791975       0.47912836 </v>
   <v>       0.52841355       0.60099753       0.49003881 </v>
   <v>       0.52636720       0.77555309       0.49133731 </v>
   <v>       0.57162923       0.51823457       0.49411045 </v>
   <v>       0.56884848       0.86163951       0.49560896 </v>
   <v>       0.61050267       0.60514691       0.51069851 </v>
   <v>       0.61090909       0.78158642       0.50922985 </v>
   <v>       0.65298396       0.51994938       0.51862090 </v>
   <v>       0.65434938       0.85652099       0.51854925 </v>
   <v>       0.69432086       0.60452593       0.53608358 </v>
   <v>       0.69467023       0.77328148       0.53627463 </v>
   <v>       0.73878788       0.52631481       0.54498507 </v>
   <v>       0.73962923       0.85618765       0.54098806 </v>
   <v>       0.78217469       0.59811358       0.55097910 </v>
   <v>       0.78294831       0.77188889       0.55257612 </v>
   <v>       0.82767914       0.52339136       0.54910149 </v>
   <v>       0.82778610       0.85029877       0.54779403 </v>
   <v>       0.87239929       0.60173580       0.54976418 </v>
   <v>       0.87149020       0.76917284       0.54297910 </v>
   <v>       0.91824242       0.52248395       0.54439701 </v>
   <v>       0.91367201       0.85260247       0.53139403 </v>
   <v>       0.95981462       0.60985062       0.53582388 </v>
   <v>       0.95731551       0.77511235       0.52951940 </v>
  </varray>
 </structure>
</modeling>
