  92  92   0   0
  0.8273226E+02  0.2805000E-08  0.8100000E-09  0.3350000E-08  0.5000000E-15
   1.0000000000000000E-004
  CAR 
 unknown system                          
      3.91698410    -25.16226946  301     -3.14935860      1.00000000
    -25.162  0.0000E+00  0.0000E+00
    -25.065  0.0000E+00  0.0000E+00
    -24.968  0.0000E+00  0.0000E+00
    -24.871  0.0000E+00  0.0000E+00
    -24.775  0.0000E+00  0.0000E+00
    -24.678  0.0000E+00  0.0000E+00
    -24.581  0.0000E+00  0.0000E+00
    -24.484  0.0000E+00  0.0000E+00
    -24.387  0.0000E+00  0.0000E+00
    -24.290  0.4009E-14  0.3886E-15
    -24.193  0.8221E-12  0.8007E-13
    -24.096  0.1064E-09  0.1039E-10
    -23.999  0.8715E-08  0.8551E-09
    -23.902  0.4540E-06  0.4486E-07
    -23.805  0.1511E-04  0.1510E-05
    -23.708  0.3237E-03  0.3288E-04
    -23.611  0.4504E-02  0.4695E-03
    -23.514  0.4122E-01  0.4465E-02
    -23.418  0.2521E+00  0.2890E-01
    -23.321  0.1052E+01  0.1308E+00
    -23.224  0.3070E+01  0.4284E+00
    -23.127  0.6463E+01  0.1055E+01
    -23.030  0.1016E+02  0.2039E+01
    -22.933  0.1242E+02  0.3244E+01
    -22.836  0.1286E+02  0.4490E+01
    -22.739  0.1324E+02  0.5773E+01
    -22.642  0.1498E+02  0.7225E+01
    -22.545  0.1648E+02  0.8822E+01
    -22.448  0.1571E+02  0.1035E+02
    -22.351  0.1385E+02  0.1169E+02
    -22.254  0.1323E+02  0.1297E+02
    -22.157  0.1392E+02  0.1432E+02
    -22.060  0.1455E+02  0.1573E+02
    -21.964  0.1463E+02  0.1715E+02
    -21.867  0.1433E+02  0.1854E+02
    -21.770  0.1372E+02  0.1987E+02
    -21.673  0.1293E+02  0.2112E+02
    -21.576  0.1208E+02  0.2229E+02
    -21.479  0.1136E+02  0.2339E+02
    -21.382  0.1129E+02  0.2449E+02
    -21.285  0.1233E+02  0.2568E+02
    -21.188  0.1444E+02  0.2708E+02
    -21.091  0.1661E+02  0.2869E+02
    -20.994  0.1700E+02  0.3034E+02
    -20.897  0.1497E+02  0.3179E+02
    -20.800  0.1238E+02  0.3299E+02
    -20.703  0.1151E+02  0.3411E+02
    -20.607  0.1259E+02  0.3533E+02
    -20.510  0.1380E+02  0.3666E+02
    -20.413  0.1370E+02  0.3799E+02
    -20.316  0.1316E+02  0.3927E+02
    -20.219  0.1369E+02  0.4059E+02
    -20.122  0.1506E+02  0.4205E+02
    -20.025  0.1596E+02  0.4360E+02
    -19.928  0.1559E+02  0.4511E+02
    -19.831  0.1388E+02  0.4646E+02
    -19.734  0.1219E+02  0.4764E+02
    -19.637  0.1298E+02  0.4890E+02
    -19.540  0.1601E+02  0.5045E+02
    -19.443  0.1746E+02  0.5214E+02
    -19.346  0.1556E+02  0.5365E+02
    -19.249  0.1301E+02  0.5491E+02
    -19.153  0.1268E+02  0.5614E+02
    -19.056  0.1406E+02  0.5750E+02
    -18.959  0.1460E+02  0.5892E+02
    -18.862  0.1344E+02  0.6022E+02
    -18.765  0.1280E+02  0.6146E+02
    -18.668  0.1475E+02  0.6289E+02
    -18.571  0.1744E+02  0.6458E+02
    -18.474  0.1770E+02  0.6630E+02
    -18.377  0.1620E+02  0.6787E+02
    -18.280  0.1596E+02  0.6941E+02
    -18.183  0.1733E+02  0.7109E+02
    -18.086  0.1785E+02  0.7282E+02
    -17.989  0.1609E+02  0.7438E+02
    -17.892  0.1371E+02  0.7571E+02
    -17.796  0.1289E+02  0.7696E+02
    -17.699  0.1291E+02  0.7821E+02
    -17.602  0.1208E+02  0.7939E+02
    -17.505  0.1111E+02  0.8046E+02
    -17.408  0.1125E+02  0.8155E+02
    -17.311  0.1170E+02  0.8269E+02
    -17.214  0.1151E+02  0.8380E+02
    -17.117  0.1119E+02  0.8489E+02
    -17.020  0.1111E+02  0.8596E+02
    -16.923  0.1078E+02  0.8701E+02
    -16.826  0.1024E+02  0.8800E+02
    -16.729  0.1061E+02  0.8903E+02
    -16.632  0.1253E+02  0.9024E+02
    -16.535  0.1467E+02  0.9167E+02
    -16.438  0.1559E+02  0.9318E+02
    -16.342  0.1575E+02  0.9470E+02
    -16.245  0.1631E+02  0.9629E+02
    -16.148  0.1740E+02  0.9797E+02
    -16.051  0.1785E+02  0.9970E+02
    -15.954  0.1685E+02  0.1013E+03
    -15.857  0.1498E+02  0.1028E+03
    -15.760  0.1306E+02  0.1041E+03
    -15.663  0.1163E+02  0.1052E+03
    -15.566  0.1108E+02  0.1063E+03
    -15.469  0.1203E+02  0.1074E+03
    -15.372  0.1558E+02  0.1089E+03
    -15.275  0.2060E+02  0.1109E+03
    -15.178  0.2382E+02  0.1132E+03
    -15.081  0.2401E+02  0.1156E+03
    -14.985  0.2224E+02  0.1177E+03
    -14.888  0.1933E+02  0.1196E+03
    -14.791  0.1571E+02  0.1211E+03
    -14.694  0.1210E+02  0.1223E+03
    -14.597  0.9367E+01  0.1232E+03
    -14.500  0.8342E+01  0.1240E+03
    -14.403  0.9032E+01  0.1249E+03
    -14.306  0.1032E+02  0.1259E+03
    -14.209  0.1141E+02  0.1270E+03
    -14.112  0.1264E+02  0.1282E+03
    -14.015  0.1410E+02  0.1296E+03
    -13.918  0.1518E+02  0.1310E+03
    -13.821  0.1611E+02  0.1326E+03
    -13.724  0.1788E+02  0.1343E+03
    -13.627  0.1984E+02  0.1363E+03
    -13.531  0.2013E+02  0.1382E+03
    -13.434  0.1899E+02  0.1401E+03
    -13.337  0.1840E+02  0.1418E+03
    -13.240  0.1864E+02  0.1436E+03
    -13.143  0.1769E+02  0.1454E+03
    -13.046  0.1524E+02  0.1468E+03
    -12.949  0.1378E+02  0.1482E+03
    -12.852  0.1451E+02  0.1496E+03
    -12.755  0.1545E+02  0.1511E+03
    -12.658  0.1464E+02  0.1525E+03
    -12.561  0.1287E+02  0.1537E+03
    -12.464  0.1243E+02  0.1550E+03
    -12.367  0.1417E+02  0.1563E+03
    -12.270  0.1745E+02  0.1580E+03
    -12.174  0.2174E+02  0.1601E+03
    -12.077  0.2540E+02  0.1626E+03
    -11.980  0.2602E+02  0.1651E+03
    -11.883  0.2397E+02  0.1674E+03
    -11.786  0.2140E+02  0.1695E+03
    -11.689  0.1886E+02  0.1713E+03
    -11.592  0.1611E+02  0.1729E+03
    -11.495  0.1426E+02  0.1743E+03
    -11.398  0.1480E+02  0.1757E+03
    -11.301  0.1744E+02  0.1774E+03
    -11.204  0.2071E+02  0.1794E+03
    -11.107  0.2435E+02  0.1818E+03
    -11.010  0.2901E+02  0.1846E+03
    -10.913  0.3331E+02  0.1878E+03
    -10.817  0.3473E+02  0.1912E+03
    -10.720  0.3382E+02  0.1945E+03
    -10.623  0.3395E+02  0.1977E+03
    -10.526  0.3662E+02  0.2013E+03
    -10.429  0.3939E+02  0.2051E+03
    -10.332  0.3958E+02  0.2090E+03
    -10.235  0.3765E+02  0.2126E+03
    -10.138  0.3565E+02  0.2161E+03
    -10.041  0.3429E+02  0.2194E+03
     -9.944  0.3250E+02  0.2225E+03
     -9.847  0.3060E+02  0.2255E+03
     -9.750  0.3146E+02  0.2285E+03
     -9.653  0.3633E+02  0.2321E+03
     -9.556  0.4290E+02  0.2362E+03
     -9.459  0.4760E+02  0.2408E+03
     -9.363  0.4739E+02  0.2454E+03
     -9.266  0.4116E+02  0.2494E+03
     -9.169  0.3235E+02  0.2526E+03
     -9.072  0.2729E+02  0.2552E+03
     -8.975  0.2840E+02  0.2580E+03
     -8.878  0.3266E+02  0.2611E+03
     -8.781  0.3658E+02  0.2647E+03
     -8.684  0.3824E+02  0.2684E+03
     -8.587  0.3693E+02  0.2720E+03
     -8.490  0.3372E+02  0.2752E+03
     -8.393  0.3074E+02  0.2782E+03
     -8.296  0.2932E+02  0.2810E+03
     -8.199  0.2904E+02  0.2839E+03
     -8.102  0.2834E+02  0.2866E+03
     -8.006  0.2629E+02  0.2892E+03
     -7.909  0.2451E+02  0.2915E+03
     -7.812  0.2573E+02  0.2940E+03
     -7.715  0.2913E+02  0.2968E+03
     -7.618  0.3113E+02  0.2999E+03
     -7.521  0.3084E+02  0.3029E+03
     -7.424  0.3027E+02  0.3058E+03
     -7.327  0.2975E+02  0.3087E+03
     -7.230  0.2777E+02  0.3114E+03
     -7.133  0.2477E+02  0.3138E+03
     -7.036  0.2306E+02  0.3160E+03
     -6.939  0.2371E+02  0.3183E+03
     -6.842  0.2585E+02  0.3208E+03
     -6.745  0.2789E+02  0.3235E+03
     -6.648  0.2786E+02  0.3262E+03
     -6.552  0.2442E+02  0.3286E+03
     -6.455  0.1980E+02  0.3305E+03
     -6.358  0.1797E+02  0.3322E+03
     -6.261  0.1920E+02  0.3341E+03
     -6.164  0.2131E+02  0.3362E+03
     -6.067  0.2372E+02  0.3385E+03
     -5.970  0.2572E+02  0.3410E+03
     -5.873  0.2548E+02  0.3434E+03
     -5.776  0.2307E+02  0.3457E+03
     -5.679  0.2003E+02  0.3476E+03
     -5.582  0.1673E+02  0.3492E+03
     -5.485  0.1297E+02  0.3505E+03
     -5.388  0.1004E+02  0.3515E+03
     -5.291  0.9870E+01  0.3524E+03
     -5.195  0.1168E+02  0.3535E+03
     -5.098  0.1214E+02  0.3547E+03
     -5.001  0.1017E+02  0.3557E+03
     -4.904  0.8171E+01  0.3565E+03
     -4.807  0.8236E+01  0.3573E+03
     -4.710  0.1026E+02  0.3583E+03
     -4.613  0.1321E+02  0.3596E+03
     -4.516  0.1573E+02  0.3611E+03
     -4.419  0.1562E+02  0.3626E+03
     -4.322  0.1185E+02  0.3638E+03
     -4.225  0.6932E+01  0.3644E+03
     -4.128  0.3864E+01  0.3648E+03
     -4.031  0.2779E+01  0.3651E+03
     -3.934  0.2467E+01  0.3653E+03
     -3.837  0.2476E+01  0.3656E+03
     -3.741  0.2978E+01  0.3658E+03
     -3.644  0.3775E+01  0.3662E+03
     -3.547  0.4293E+01  0.3666E+03
     -3.450  0.4190E+01  0.3670E+03
     -3.353  0.3571E+01  0.3674E+03
     -3.256  0.3030E+01  0.3677E+03
     -3.159  0.3079E+01  0.3680E+03
     -3.062  0.3601E+01  0.3683E+03
     -2.965  0.4240E+01  0.3687E+03
     -2.868  0.4850E+01  0.3692E+03
     -2.771  0.5843E+01  0.3698E+03
     -2.674  0.7676E+01  0.3705E+03
     -2.577  0.9218E+01  0.3714E+03
     -2.480  0.8527E+01  0.3722E+03
     -2.384  0.6039E+01  0.3728E+03
     -2.287  0.4455E+01  0.3732E+03
     -2.190  0.5247E+01  0.3738E+03
     -2.093  0.7079E+01  0.3744E+03
     -1.996  0.7498E+01  0.3752E+03
     -1.899  0.6026E+01  0.3758E+03
     -1.802  0.5170E+01  0.3763E+03
     -1.705  0.7580E+01  0.3770E+03
     -1.608  0.1311E+02  0.3783E+03
     -1.511  0.1896E+02  0.3801E+03
     -1.414  0.2243E+02  0.3823E+03
     -1.317  0.2289E+02  0.3845E+03
     -1.220  0.2156E+02  0.3866E+03
     -1.123  0.2033E+02  0.3885E+03
     -1.026  0.1970E+02  0.3905E+03
     -0.930  0.1816E+02  0.3922E+03
     -0.833  0.1533E+02  0.3937E+03
     -0.736  0.1270E+02  0.3949E+03
     -0.639  0.1160E+02  0.3961E+03
     -0.542  0.1200E+02  0.3972E+03
     -0.445  0.1223E+02  0.3984E+03
     -0.348  0.1112E+02  0.3995E+03
     -0.251  0.1067E+02  0.4005E+03
     -0.154  0.1331E+02  0.4018E+03
     -0.057  0.1775E+02  0.4035E+03
      0.040  0.2091E+02  0.4056E+03
      0.137  0.2200E+02  0.4077E+03
      0.234  0.2213E+02  0.4098E+03
      0.331  0.2144E+02  0.4119E+03
      0.427  0.1970E+02  0.4138E+03
      0.524  0.1888E+02  0.4157E+03
      0.621  0.2126E+02  0.4177E+03
      0.718  0.2575E+02  0.4202E+03
      0.815  0.2897E+02  0.4230E+03
      0.912  0.3001E+02  0.4259E+03
      1.009  0.3225E+02  0.4291E+03
      1.106  0.3810E+02  0.4327E+03
      1.203  0.4510E+02  0.4371E+03
      1.300  0.4942E+02  0.4419E+03
      1.397  0.5010E+02  0.4468E+03
      1.494  0.4768E+02  0.4514E+03
      1.591  0.4235E+02  0.4555E+03
      1.688  0.3474E+02  0.4589E+03
      1.785  0.2553E+02  0.4613E+03
      1.881  0.1574E+02  0.4629E+03
      1.978  0.7691E+01  0.4636E+03
      2.075  0.2935E+01  0.4639E+03
      2.172  0.8783E+00  0.4640E+03
      2.269  0.2015E+00  0.4640E+03
      2.366  0.3349E-01  0.4640E+03
      2.463  0.3813E-02  0.4640E+03
      2.560  0.2861E-03  0.4640E+03
      2.657  0.1385E-04  0.4640E+03
      2.754  0.4274E-06  0.4640E+03
      2.851  0.8367E-08  0.4640E+03
      2.948  0.1035E-09  0.4640E+03
      3.045  0.8069E-12  0.4640E+03
      3.142  0.4009E-14  0.4640E+03
      3.238  0.0000E+00  0.4640E+03
      3.335  0.0000E+00  0.4640E+03
      3.432  0.0000E+00  0.4640E+03
      3.529  0.0000E+00  0.4640E+03
      3.626  0.0000E+00  0.4640E+03
      3.723  0.0000E+00  0.4640E+03
      3.820  0.0000E+00  0.4640E+03
      3.917  0.0000E+00  0.4640E+03
