       N       E                     dE             d eps       ncg     rms          rms(c)
DAV:   1     0.375324956427E+04    0.37532E+04   -0.11842E+05  1672   0.105E+03
DAV:   2     0.185240369048E+03   -0.35680E+04   -0.33074E+04  2128   0.241E+02
DAV:   3    -0.838149016259E+03   -0.10234E+04   -0.10009E+04  1776   0.136E+02
DAV:   4    -0.899719891087E+03   -0.61571E+02   -0.60627E+02  1728   0.431E+01
DAV:   5    -0.901207611582E+03   -0.14877E+01   -0.14664E+01  1792   0.644E+00    0.455E+01
DAV:   6    -0.851800822414E+03    0.49407E+02   -0.46785E+01  1584   0.123E+01    0.267E+01
DAV:   7    -0.833264378786E+03    0.18536E+02   -0.65305E+01  1552   0.142E+01    0.727E+00
DAV:   8    -0.832960398956E+03    0.30398E+00   -0.22263E+00  1592   0.310E+00    0.885E-01
DAV:   9    -0.832861080572E+03    0.99318E-01   -0.23045E-01  1664   0.868E-01    0.554E-01
DAV:  10    -0.832813074927E+03    0.48006E-01   -0.40888E-02  1712   0.380E-01    0.333E-01
DAV:  11    -0.832785515299E+03    0.27560E-01   -0.31817E-02  1528   0.257E-01    0.223E-01
DAV:  12    -0.832788157691E+03   -0.26424E-02   -0.15524E-02  1496   0.193E-01    0.136E-01
DAV:  13    -0.832800318009E+03   -0.12160E-01   -0.62705E-03  1512   0.117E-01    0.822E-02
DAV:  14    -0.832818745756E+03   -0.18428E-01   -0.12914E-03  1544   0.584E-02    0.530E-02
DAV:  15    -0.832837976866E+03   -0.19231E-01   -0.14604E-03  1496   0.552E-02    0.294E-02
DAV:  16    -0.832847182073E+03   -0.92052E-02   -0.64853E-04  1560   0.349E-02    0.181E-02
DAV:  17    -0.832850646521E+03   -0.34644E-02   -0.16270E-04  1576   0.177E-02    0.992E-03
DAV:  18    -0.832852704538E+03   -0.20580E-02   -0.88095E-05  1440   0.123E-02    0.539E-03
DAV:  19    -0.832853532145E+03   -0.82761E-03   -0.22549E-05  1344   0.630E-03    0.347E-03
DAV:  20    -0.832853875731E+03   -0.34359E-03   -0.51283E-06  1288   0.372E-03    0.185E-03
DAV:  21    -0.832854025906E+03   -0.15017E-03   -0.13398E-06  1136   0.189E-03    0.103E-03
DAV:  22    -0.832854079657E+03   -0.53752E-04   -0.28665E-07  1000   0.119E-03    0.523E-04
DAV:  23    -0.832854103695E+03   -0.24037E-04   -0.20268E-07   904   0.747E-04    0.444E-04
DAV:  24    -0.832854112282E+03   -0.85874E-05   -0.47751E-08   912   0.626E-04    0.179E-04
DAV:  25    -0.832854118025E+03   -0.57428E-05   -0.47400E-08   880   0.341E-04    0.206E-04
DAV:  26    -0.832854119816E+03   -0.17911E-05   -0.92363E-09   920   0.264E-04    0.804E-05
DAV:  27    -0.832854122205E+03   -0.23890E-05   -0.11948E-08   896   0.169E-04    0.896E-05
DAV:  28    -0.832854123132E+03   -0.92704E-06   -0.27409E-09   928   0.121E-04
   1 F= -.83285412E+03 E0= -.83282063E+03  d E =-.669876E-01
