 vasp.6.5.0 16Dec24 (build Feb 19 2025 19:45:31) complex                         
 executed on              LinuxNV date 2025.10.25  10:18:20
 running    2 mpi-ranks, on    1 nodes
 distrk:  each k-point on    2 cores,    1 groups
 distr:  one band on NCORE=   1 cores,    2 groups
 Offloading initialized ...    2 GPUs detected


--------------------------------------------------------------------------------------------------------


 INCAR:
   ISTART = 0            (Not Read existing wavefunction
   ISPIN = 1            (Non-Spin polarised DFT, Default\=1)
   ICHARG = 2            (The initial guess charge density is generated by superposition of atomic charge density)
   LREAL = Auto         (Projection operators: automatic)
   ENCUT = 500          (Cut-off energy for plane wave basis set, in eV)
   LWAVE = .FALSE.       (Write WAVECAR or not)
   LCHARG = .FALSE.       (Write CHGCAR or not)
   PREC = Accurate   (Precision level)
   KGAMMA = .TRUE.
   ALGO = Normal
   NSW = 0           (Default: NSW \= 0)
   IBRION = -1           (Ions are not moved)
   ISMEAR = 0
   EDIFF = 1E-06        (SCF energy convergence
   NELM = 150          (Max electronic SCF steps)

 POTCAR:    PAW_PBE C 08Apr2002                   
 POTCAR:    PAW_PBE C 08Apr2002                   
   SHA256 =  253f7b50bb8d59471dbedb8285d89021f4a42ed1a2c5d38a03a736e69125dd95 C/POTCAR              
   COPYR  = (c) Copyright 08Apr2002 Georg Kresse                                                    
   COPYR  = This file is part of the software VASP. Any use, copying, and all other rights are regul
   COPYR  = If you do not have a valid VASP license, you may not use, copy or distribute this file. 
   VRHFIN =C: s2p2                                                                                  
   LEXCH  = PE                                                                                      
   EATOM  =   147.1560 eV,   10.8157 Ry                                                             
                                                                                                    
   TITEL  = PAW_PBE C 08Apr2002                                                                     
   LULTRA =        F    use ultrasoft PP ?                                                          
   IUNSCR =        1    unscreen: 0-lin 1-nonlin 2-no                                               
   RPACOR =    1.200    partial core radius                                                         
   POMASS =   12.011; ZVAL   =    4.000    mass and valenz                                          
   RCORE  =    1.500    outmost cutoff radius                                                       
   RWIGS  =    1.630; RWIGS  =    0.863    wigner-seitz radius (au A)                               
   ENMAX  =  400.000; ENMIN  =  300.000 eV                                                          
   ICORE  =        2    local potential                                                             
   LCOR   =        T    correct aug charges                                                         
   LPAW   =        T    paw PP                                                                      
   EAUG   =  644.873                                                                                
   DEXC   =    0.000                                                                                
   RMAX   =    1.529    core radius for proj-oper                                                   
   RAUG   =    1.300    factor for augmentation sphere                                              
   RDEP   =    1.501    radius for radial grids                                                     
   RDEPT  =    1.300    core radius for aug-charge                                                  
                                                                                                    
   Atomic configuration                                                                             
    4 entries                                                                                       
     n  l   j            E        occ.                                                              
     1  0  0.50      -273.3789   2.0000                                                             
     2  0  0.50       -13.7508   2.0000                                                             
     2  1  0.50        -5.2854   2.0000                                                             
     3  2  1.50        -5.4423   0.0000                                                             
   Description                                                                                      
     l       E           TYP  RCUT    TYP  RCUT                                                     
     0    -13.7508458     23  1.200                                                                 
     0     -8.2022199     23  1.200                                                                 
     1     -5.2854383     23  1.500                                                                 
     1     34.0145650     23  1.500                                                                 
     2     -5.4423304      7  1.500                                                                 
  local pseudopotential read in
  partial core-charges read in
  partial kinetic energy density read in
  atomic valenz-charges read in
  non local Contribution for L=            0  read in
    real space projection operators read in
  non local Contribution for L=            0  read in
    real space projection operators read in
  non local Contribution for L=            1  read in
    real space projection operators read in
  non local Contribution for L=            1  read in
    real space projection operators read in
    PAW grid and wavefunctions read in
 
   number of l-projection  operators is LMAX  =            4
   number of lm-projection operators is LMMAX =            8
 
 Optimization of the real space projectors (new method)

 maximal supplied QI-value         = 25.13
 optimisation between [QCUT,QGAM] = [ 11.31, 22.87] = [ 35.82,146.48] Ry 
 Optimized for a Real-space Cutoff    1.03 Angstroem

   l    n(q)    QCUT    max X(q) W(low)/X(q) W(high)/X(q)  e(spline) 
   0      7    11.310   115.676    0.20E-03    0.90E-03    0.20E-06
   0      7    11.310    87.132    0.20E-03    0.89E-03    0.19E-06
   1      6    11.310     4.429    0.16E-03    0.28E-03    0.12E-06
   1      6    11.310     2.733    0.12E-03    0.21E-03    0.99E-07
  PAW_PBE C 08Apr2002                   :
 energy of atom  1       EATOM= -147.1560
 kinetic energy error for atom=    0.0076 (will be added to EATOM!!)
 
 
 POSCAR:  C
  positions in cartesian coordinates
  No initial velocities read in


 exchange-correlation table for PE
   RHO(1)=    0.500       N(1)  =     2000
   RHO(2)=  100.500       N(2)  =     4000
 


--------------------------------------------------------------------------------------------------------


 ion  position               nearest neighbor table
   1  0.838  0.833 -0.122-   3 1.39   2 1.42  45 1.45  46 2.05
   2  0.839  0.006 -0.127-   4 1.39   1 1.42  46 1.51  45 2.03
   3  0.879  0.753 -0.109-  50 1.36   1 1.39   5 1.43
   4  0.882  0.086 -0.120-  49 1.37   2 1.39   6 1.43
   5  0.924  0.836 -0.104-   6 1.37   7 1.42   3 1.43
   6  0.925  0.003 -0.109-   5 1.37   8 1.41   4 1.43
   7  0.964  0.756 -0.087-  54 1.39   9 1.40   5 1.42
   8  0.969  0.085 -0.100-  53 1.38   6 1.41  10 1.43
   9  0.008  0.836 -0.079-  10 1.37   7 1.40  11 1.45
  10  0.011  0.002 -0.087-   9 1.37  12 1.41   8 1.43
  11  0.048  0.755 -0.061-  58 1.38  13 1.41   9 1.45
  12  0.052  0.087 -0.075-  57 1.37  10 1.41  14 1.43
  13  0.092  0.836 -0.055-  14 1.37  11 1.41  15 1.43
  14  0.094  0.002 -0.062-  13 1.37  16 1.40  12 1.43
  15  0.134  0.753 -0.041-  62 1.38  17 1.42  13 1.43
  16  0.137  0.085 -0.053-  61 1.37  14 1.40  18 1.41
  17  0.178  0.835 -0.036-  18 1.39  15 1.42  19 1.44
  18  0.180  0.003 -0.044-  17 1.39  20 1.40  16 1.41
  19  0.223  0.752 -0.029-  66 1.37  21 1.41  17 1.44
  20  0.224  0.085 -0.040-  65 1.37  18 1.40  22 1.40
  21  0.267  0.834 -0.030-  22 1.37  19 1.41  23 1.44
  22  0.267  0.002 -0.035-  21 1.37  20 1.40  24 1.40
  23  0.313  0.752 -0.028-  70 1.37  25 1.41  21 1.44
  24  0.311  0.082 -0.037-  69 1.36  22 1.40  26 1.40
  25  0.356  0.833 -0.036-  26 1.38  27 1.41  23 1.41
  26  0.355  0.001 -0.041-  25 1.38  24 1.40  28 1.42
  27  0.400  0.751 -0.041-  74 1.37  25 1.41  29 1.43
  28  0.398  0.083 -0.051-  73 1.37  30 1.41  26 1.42
  29  0.442  0.834 -0.053-  30 1.36  27 1.43  31 1.43
  30  0.441  1.000 -0.060-  29 1.36  32 1.41  28 1.41
  31  0.487  0.752 -0.061-  78 1.37  33 1.41  29 1.43
  32  0.483  0.083 -0.072-  77 1.38  30 1.41  34 1.42
  33  0.527  0.833 -0.077-  34 1.38  31 1.41  35 1.42
  34  0.526  0.001 -0.083-  33 1.38  36 1.42  32 1.42
  35  0.572  0.754 -0.083-  82 1.37  33 1.42  37 1.43
  36  0.567  0.085 -0.096-  81 1.37  38 1.41  34 1.42
  37  0.613  0.837 -0.098-  38 1.37  39 1.41  35 1.43
  38  0.610  0.004 -0.106-  37 1.37  36 1.41  40 1.42
  39  0.656  0.754 -0.105-  86 1.37  37 1.41  41 1.42
  40  0.653  0.086 -0.117-  85 1.38  42 1.42  38 1.42
  41  0.699  0.835 -0.117-  42 1.37  43 1.41  39 1.42
  42  0.697  0.003 -0.123-  41 1.37  40 1.42  44 1.44
  43  0.743  0.755 -0.119-  90 1.37  45 1.39  41 1.41
  44  0.742  0.086 -0.130-  89 1.37  46 1.40  42 1.44
  45  0.786  0.835 -0.126-  43 1.39  46 1.40   1 1.45   2 2.03
  46  0.786  0.006 -0.132-  45 1.40  44 1.40   2 1.51   1 2.05
  47  0.838  0.335 -0.121-  48 1.39  49 1.39  91 1.48  92 2.01
  48  0.837  0.504 -0.114-  47 1.39  50 1.39  92 1.44  91 2.02
  49  0.881  0.253 -0.116-   4 1.37  47 1.39  51 1.45
  50  0.879  0.587 -0.104-   3 1.36  48 1.39  52 1.41
  51  0.924  0.337 -0.102-  52 1.36  53 1.41  49 1.45
  52  0.921  0.503 -0.095-  51 1.36  54 1.41  50 1.41
  53  0.967  0.255 -0.096-   8 1.38  51 1.41  55 1.42
  54  0.963  0.585 -0.082-   7 1.39  52 1.41  56 1.42
  55  0.008  0.337 -0.080-  56 1.38  57 1.41  53 1.42
  56  0.006  0.503 -0.072-  55 1.38  58 1.41  54 1.42
  57  0.051  0.255 -0.072-  12 1.37  55 1.41  59 1.42
  58  0.047  0.585 -0.059-  11 1.38  56 1.41  60 1.42
  59  0.092  0.336 -0.056-  60 1.38  61 1.42  57 1.42
  60  0.091  0.503 -0.049-  59 1.38  62 1.41  58 1.42
  61  0.136  0.253 -0.050-  16 1.37  63 1.42  59 1.42
  62  0.133  0.583 -0.038-  15 1.38  60 1.41  64 1.43
  63  0.179  0.335 -0.038-  64 1.36  61 1.42  65 1.42
  64  0.178  0.502 -0.032-  63 1.36  66 1.43  62 1.43
  65  0.223  0.253 -0.035-  20 1.37  67 1.41  63 1.42
  66  0.222  0.584 -0.027-  19 1.37  64 1.43  68 1.43
  67  0.267  0.333 -0.030-  68 1.38  65 1.41  69 1.42
  68  0.268  0.502 -0.025-  67 1.38  66 1.43  70 1.43
  69  0.312  0.249 -0.034-  24 1.36  67 1.42  71 1.43
  70  0.313  0.584 -0.025-  23 1.37  72 1.43  68 1.43
  71  0.356  0.333 -0.036-  72 1.38  73 1.41  69 1.43
  72  0.358  0.501 -0.030-  71 1.38  74 1.41  70 1.43
  73  0.399  0.252 -0.047-  28 1.37  71 1.41  75 1.42
  74  0.401  0.583 -0.036-  27 1.37  72 1.41  76 1.42
  75  0.443  0.335 -0.054-  76 1.37  73 1.42  77 1.42
  76  0.444  0.502 -0.047-  75 1.37  78 1.42  74 1.42
  77  0.483  0.253 -0.070-  32 1.38  79 1.41  75 1.42
  78  0.488  0.583 -0.057-  31 1.37  76 1.42  80 1.43
  79  0.527  0.334 -0.079-  80 1.38  77 1.41  81 1.42
  80  0.530  0.500 -0.070-  79 1.38  82 1.42  78 1.43
  81  0.568  0.254 -0.094-  36 1.37  83 1.42  79 1.42
  82  0.573  0.586 -0.080-  35 1.37  84 1.41  80 1.42
  83  0.612  0.336 -0.101-  84 1.38  85 1.41  81 1.42
  84  0.614  0.503 -0.093-  83 1.38  82 1.41  86 1.41
  85  0.654  0.256 -0.113-  40 1.38  83 1.41  87 1.41
  86  0.657  0.587 -0.101-  39 1.37  88 1.41  84 1.41
  87  0.698  0.336 -0.118-  88 1.38  85 1.41  89 1.43
  88  0.700  0.502 -0.109-  87 1.38  86 1.41  90 1.42
  89  0.742  0.255 -0.127-  44 1.37  91 1.39  87 1.43
  90  0.744  0.588 -0.113-  43 1.37  92 1.38  88 1.42
  91  0.786  0.336 -0.125-  92 1.38  89 1.39  47 1.48  48 2.02
  92  0.786  0.503 -0.118-  90 1.38  91 1.38  48 1.44  47 2.01
 
  LATTYP: Found a simple orthorhombic cell.
 ALAT       =     8.1000000000
 B/A-ratio  =     3.4629629630
 C/A-ratio  =     4.1358024691
  
  Lattice vectors:
  
 A1 = (   0.0000000000,  -8.1000000000,   0.0000000000)
 A2 = (  28.0500000000,   0.0000000000,   0.0000000000)
 A3 = (   0.0000000000,   0.0000000000,  33.5000000000)


Analysis of symmetry for initial positions (statically):
=====================================================================
 Subroutine PRICEL returns:
 Original cell was already a primitive cell.
 

 Routine SETGRP: Setting up the symmetry group for a 
 simple orthorhombic supercell.


 Subroutine GETGRP returns: Found  1 space group operations
 (whereof  1 operations were pure point group operations)
 out of a pool of  8 trial point group operations.


The static configuration has the point symmetry C_1 .


Analysis of symmetry for dynamics (positions and initial velocities):
=====================================================================
 Subroutine PRICEL returns:
 Original cell was already a primitive cell.
 

 Routine SETGRP: Setting up the symmetry group for a 
 simple orthorhombic supercell.


 Subroutine GETGRP returns: Found  1 space group operations
 (whereof  1 operations were pure point group operations)
 out of a pool of  8 trial point group operations.


The dynamic configuration has the point symmetry C_1 .


 Subroutine INISYM returns: Found  1 space group operations
 (whereof  1 operations are pure point group operations),
 and found     1 'primitive' translations


----------------------------------------------------------------------------------------

                                     Primitive cell                                     

  volume of cell :    7611.3675

  direct lattice vectors                    reciprocal lattice vectors
    28.050000000  0.000000000  0.000000000     0.035650624  0.000000000  0.000000000
     0.000000000  8.100000000  0.000000000     0.000000000  0.123456790  0.000000000
     0.000000000  0.000000000 33.500000000     0.000000000  0.000000000  0.029850746

  length of vectors
    28.050000000  8.100000000 33.500000000     0.035650624  0.123456790  0.029850746

  position of ions in fractional coordinates (direct lattice)
     0.837778966  0.832765432  0.878208955
     0.839247772  0.006057259  0.872537313
     0.879076649  0.753008642  0.891044776
     0.882317291  0.085711975  0.879701493
     0.923761141  0.835529630  0.896417910
     0.925422460  0.003379778  0.890746269
     0.964181818  0.756004938  0.913432836
     0.968588235  0.084815185  0.900000000
     0.007650267  0.836124691  0.920895522
     0.010849840  0.001977407  0.912835821
     0.048398930  0.754951852  0.938805970
     0.052428520  0.086521852  0.924776119
     0.092039929  0.836044444  0.945373134
     0.094109091  0.002461333  0.938208955
     0.133641711  0.752974074  0.959402985
     0.137033868  0.084556420  0.946567164
     0.178209982  0.835044444  0.963582090
     0.180134403  0.003476025  0.956119403
     0.222631729  0.752437037  0.971044776
     0.223631373  0.085249012  0.960298507
     0.267011052  0.833635802  0.970149254
     0.266905882  0.002000284  0.965074627
     0.312606774  0.751996296  0.972238806
     0.311185027  0.082333951  0.963283582
     0.356340820  0.832549383  0.964477612
     0.355032086  0.000892988  0.958805970
     0.400267380  0.750527160  0.959402985
     0.398121212  0.083495432  0.949253731
     0.442456328  0.834086420  0.946567164
     0.440841355  0.999779012  0.939701493
     0.486584670  0.751546914  0.938507463
     0.482655971  0.083204321  0.928059701
     0.527140820  0.833464198  0.923283582
     0.525718360  0.001415111  0.917313433
     0.571593583  0.754149383  0.917014925
     0.567368984  0.084691481  0.904477612
     0.612673797  0.837240741  0.901791045
     0.610142602  0.003597012  0.894328358
     0.656110517  0.754443210  0.894925373
     0.652976827  0.085946914  0.883283582
     0.698641711  0.835460494  0.882985075
     0.696894831  0.003235321  0.877313433
     0.743219251  0.755362963  0.881492537
     0.741604278  0.086470123  0.870447761
     0.786224599  0.835434568  0.874029851
     0.785860963  0.006376790  0.867761194
     0.838142602  0.335103704  0.878507463
     0.837023173  0.503725926  0.885970149
     0.881165775  0.253444444  0.884477612
     0.878581105  0.586990123  0.896417910
     0.923732620  0.336520988  0.898208955
     0.921458111  0.502537037  0.904776119
     0.967319073  0.254608642  0.904477612
     0.962713012  0.585219753  0.917910448
     0.007914403  0.336503704  0.920000000
     0.005723815  0.502913580  0.928358209
     0.051177184  0.255449383  0.928358209
     0.047368627  0.585004938  0.941194030
     0.092381818  0.335827160  0.943582090
     0.090600713  0.503109877  0.951044776
     0.136332620  0.253272840  0.950149254
     0.133219964  0.583209877  0.962089552
     0.178517647  0.334683951  0.962388060
     0.177932620  0.501704938  0.967761194
     0.223294118  0.253141975  0.965074627
     0.222475223  0.583565432  0.973134328
     0.267445633  0.333090123  0.970149254
     0.267646346  0.502062963  0.974925373
     0.311608913  0.249418519  0.965671642
     0.312971123  0.583681481  0.974925373
     0.356290909  0.332964198  0.963880597
     0.357532977  0.501416049  0.970149254
     0.399204991  0.252188889  0.953432836
     0.401443850  0.582766667  0.963582090
     0.442784314  0.335269136  0.945970149
     0.444449198  0.501711111  0.952537313
     0.483458111  0.253145679  0.930149254
     0.487882353  0.583364198  0.943283582
     0.526730838  0.333828395  0.921492537
     0.529925134  0.499714815  0.930149254
     0.567711230  0.254364198  0.905671642
     0.572584670  0.586011111  0.920298507
     0.611657754  0.336207407  0.898805970
     0.613572193  0.502851852  0.906865672
     0.653796791  0.255825926  0.886567164
     0.656873440  0.586555556  0.899402985
     0.698163993  0.336182716  0.882089552
     0.699679144  0.502483951  0.891044776
     0.742003565  0.254945679  0.872537313
     0.743590018  0.588270370  0.887164179
     0.785689840  0.336118519  0.874626866
     0.785825312  0.503453086  0.882388060

  ion indices of the primitive-cell ions
   primitive index   ion index
                 1           1
                 2           2
                 3           3
                 4           4
                 5           5
                 6           6
                 7           7
                 8           8
                 9           9
                10          10
                11          11
                12          12
                13          13
                14          14
                15          15
                16          16
                17          17
                18          18
                19          19
                20          20
                21          21
                22          22
                23          23
                24          24
                25          25
                26          26
                27          27
                28          28
                29          29
                30          30
                31          31
                32          32
                33          33
                34          34
                35          35
                36          36
                37          37
                38          38
                39          39
                40          40
                41          41
                42          42
                43          43
                44          44
                45          45
                46          46
                47          47
                48          48
                49          49
                50          50
                51          51
                52          52
                53          53
                54          54
                55          55
                56          56
                57          57
                58          58
                59          59
                60          60
                61          61
                62          62
                63          63
                64          64
                65          65
                66          66
                67          67
                68          68
                69          69
                70          70
                71          71
                72          72
                73          73
                74          74
                75          75
                76          76
                77          77
                78          78
                79          79
                80          80
                81          81
                82          82
                83          83
                84          84
                85          85
                86          86
                87          87
                88          88
                89          89
                90          90
                91          91
                92          92

----------------------------------------------------------------------------------------

 
 
 KPOINTS: K-Spacing Value to Generate K-Mesh: 0.03

Automatic generation of k-mesh.
 Grid dimensions read from file:
 generate k-points for:    1    4    1

 Generating k-lattice:

  Cartesian coordinates                     Fractional coordinates (reciprocal lattice)
     0.035650624  0.000000000  0.000000000     1.000000000  0.000000000  0.000000000
     0.000000000  0.030864198  0.000000000     0.000000000  0.250000000  0.000000000
     0.000000000  0.000000000  0.029850746     0.000000000  0.000000000  1.000000000

  Length of vectors
     0.035650624  0.030864198  0.029850746

  Shift w.r.t. Gamma in fractional coordinates (k-lattice)
     0.000000000  0.000000000  0.000000000

 
 Subroutine IBZKPT returns following result:
 ===========================================
 
 Found      3 irreducible k-points:
 
 Following reciprocal coordinates:
            Coordinates               Weight
  0.000000  0.000000  0.000000      1.000000
  0.000000  0.250000  0.000000      2.000000
  0.000000  0.500000  0.000000      1.000000
 
 Following cartesian coordinates:
            Coordinates               Weight
  0.000000  0.000000  0.000000      1.000000
  0.000000  0.030864  0.000000      2.000000
  0.000000  0.061728  0.000000      1.000000
 


--------------------------------------------------------------------------------------------------------




 Dimension of arrays:
   k-points           NKPTS =      3   k-points in BZ     NKDIM =      3   number of bands    NBANDS=    232
   number of dos      NEDOS =    301   number of ions     NIONS =     92
   non local maximal  LDIM  =      4   non local SUM 2l+1 LMDIM =      8
   total plane-waves  NPLWV = ******
   max r-space proj   IRMAX =   1967   max aug-charges    IRDMAX=   5083
   dimension x,y,z NGX =   210 NGY =   60 NGZ =  250
   dimension x,y,z NGXF=   420 NGYF=  120 NGZF=  500
   support grid    NGXF=   420 NGYF=  120 NGZF=  500
   ions per type =              92
   NGX,Y,Z   is equivalent  to a cutoff of  12.45, 12.31, 12.41 a.u.
   NGXF,Y,Z  is equivalent  to a cutoff of  24.89, 24.63, 24.81 a.u.

 SYSTEM =  unknown system                          
 POSCAR =   C                                      

 Startparameter for this run:
   NWRITE =      2    write-flag & timer
   PREC   = accura    normal or accurate (medium, high low for compatibility)
   ISTART =      0    job   : 0-new  1-cont  2-samecut
   ICHARG =      2    charge: 1-file 2-atom 10-const
   ISPIN  =      1    spin polarized calculation?
   LNONCOLLINEAR =      F non collinear calculations
   LSORBIT =      F    spin-orbit coupling
   INIWAV =      1    electr: 0-lowe 1-rand  2-diag
   LASPH  =      F    aspherical Exc in radial PAW
 Electronic Relaxation 1
   ENCUT  =  500.0 eV  36.75 Ry    6.06 a.u.  51.14 14.77 61.08*2*pi/ulx,y,z
   ENINI  =  500.0     initial cutoff
   ENAUG  =  644.9 eV  augmentation charge cutoff
   NELM   =    150;   NELMIN=  2; NELMDL= -5     # of ELM steps 
   EDIFF  = 0.1E-05   stopping-criterion for ELM
   LREAL  =      T    real-space projection
   NLSPLINE    = F    spline interpolate recip. space projectors
   LCOMPAT=      F    compatible to vasp.4.4
   GGA_COMPAT  = T    GGA compatible to vasp.4.4-vasp.4.6
   LMAXPAW     = -100 max onsite density
   LMAXMIX     =    2 max onsite mixed and CHGCAR
   VOSKOWN=      0    Vosko Wilk Nusair interpolation
   ROPT   =   -0.00025
 Ionic relaxation
   EDIFFG = 0.1E-04   stopping-criterion for IOM
   NSW    =      0    number of steps for IOM
   NBLOCK =      1;   KBLOCK =      1    inner block; outer block 
   IBRION =     -1    ionic relax: 0-MD 1-quasi-New 2-CG
   NFREE  =      0    steps in history (QN), initial steepest desc. (CG)
   ISIF   =      2    stress and relaxation
   IWAVPR =     10    prediction:  0-non 1-charg 2-wave 3-comb
   ISYM   =      2    0-nonsym 1-usesym 2-fastsym
   LCORR  =      T    Harris-Foulkes like correction to forces

   POTIM  = 0.5000    time-step for ionic-motion
   TEIN   =    0.0    initial temperature
   TEBEG  =    0.0;   TEEND  =   0.0 temperature during run
   SMASS  =  -3.00    Nose mass-parameter (am)
   estimated Nose-frequenzy (Omega)   =  0.10E-29 period in steps = 0.13E+47 mass=  -0.180E-25a.u.
   SCALEE = 1.0000    scale energy and forces
   NPACO  =    256;   APACO  = 10.0  distance and # of slots for P.C.
   PSTRESS=    0.0 pullay stress

  Mass of Ions in am
   POMASS =  12.01
  Ionic Valenz
   ZVAL   =   4.00
  Atomic Wigner-Seitz radii
   RWIGS  =  -1.00
  virtual crystal weights 
   VCA    =   1.00
   NELECT =     368.0000    total number of electrons
   NUPDOWN=      -1.0000    fix difference up-down

 DOS related values:
   EMIN   =  10.00;   EMAX   =-10.00  energy-range for DOS
   EFERMI =   0.00;   METHOD = LEGACY      
   ISMEAR =     0;   SIGMA  =   0.20  broadening in eV -4-tet -1-fermi 0-gaus
   EFERMI_NEDOS =   21; number of points for ismear=-14 and -15

 Electronic relaxation 2 (details)
   IALGO  =     38    algorithm
   LDIAG  =      T    sub-space diagonalisation (order eigenvalues)
   LSUBROT=      F    optimize rotation matrix (better conditioning)
   TURBO    =      0    0=normal 1=particle mesh
   IRESTART =      0    0=no restart 2=restart with 2 vectors
   NREBOOT  =      0    no. of reboots
   NMIN     =      0    reboot dimension
   EREF     =   0.00    reference energy to select bands
   IMIX   =      4    mixing-type and parameters
     AMIX     =   0.40;   BMIX     =  1.00
     AMIX_MAG =   1.60;   BMIX_MAG =  1.00
     AMIN     =   0.10
     WC   =   100.;   INIMIX=   1;  MIXPRE=   1;  MAXMIX= -45

 Intra band minimization:
   WEIMIN = 0.0000     energy-eigenvalue tresh-hold
   EBREAK =  0.11E-08  absolut break condition
   DEPER  =   0.30     relativ break condition  

   TIME   =   0.40     timestep for ELM

  volume/ion in A,a.u.               =      82.73       558.30
  Fermi-wavevector in a.u.,A,eV,Ry     =   0.596398  1.127030  4.839472  0.355691
  Thomas-Fermi vector in A             =   1.646729
 
 Write flags
   LWAVE        =      F    write WAVECAR
   LDOWNSAMPLE  =      F    k-point downsampling of WAVECAR
   LCHARG       =      F    write CHGCAR
   LVTOT        =      F    write LOCPOT, total local potential
   LVHAR        =      F    write LOCPOT, Hartree potential only
   WRT_POTENTIAL= false  ! write potential to hdf5 file
   LELF         =      F    write electronic localiz. function (ELF)
   LORBIT       =      0    0 simple, 1 ext, 2 COOP (PROOUT), +10 PAW based schemes


 Python interface
   PLUGINS active      =      F    recompile with -DPLUGINS to activate
 
 Dipole corrections
   LMONO      =      F    monopole corrections only (constant potential shift)
   LDIPOL     =      F    correct potential (dipole corrections)
   IDIPOL     =      0    1-x, 2-y, 3-z, 4-all directions 
   EPSILON    =  1.0000000 bulk dielectric constant
   LVACPOTAV  =      F  vacuum potentials using an averaging scheme for the charge density
   VACPOTFLAT =  0.1000000 required flatness to determine vacuum potential
 
Coulomb truncation method
  LTRUNCATE          =      F  Coulomb kernel truncation to be used
  IDIMENSIONALITY    =      3  Dimensionality of cutoff (0 molecules / 2 surfaces)
  ISURFACE           =     -1  Direction of surface normal
  LCOARSEN           =      F  Coarsen the charge grid before padding, preferred

 
 Exchange correlation treatment:
   GGA     = PE    functional components
   XC_C    = 1    coefficients multiplying the functional components
   LIBXC   =     F    Libxc                    
   VOSKOWN =     0    Vosko Wilk Nusair interpolation
   LHFCALC =     F    Hartree Fock is set to
   LHFONE  =     F    Hartree Fock one center treatment
   AEXX    =    0.0000 exact exchange contribution

 Parameters of functionals:
   PE:
     No parameter
 
 Van der Waals corrections
   IVDW    =     0    specifies the selected vdW correction

 Linear response parameters
   LEPSILON=     F    determine dielectric tensor
   LRPA    =     F    only Hartree local field effects (RPA)
   LNABLA  =     F    use nabla operator in PAW spheres
   LVEL    =     F    velocity operator in full k-point grid
   CSHIFT  =0.1000    complex shift for real part using Kramers Kronig
   OMEGAMAX=  -1.0    maximum frequency
   DEG_THRESHOLD= 0.2000000E-02 threshold for treating states as degnerate
   RTIME   =   -0.100 relaxation time in fs
  (WPLASMAI=    0.000 imaginary part of plasma frequency in eV, 0.658/RTIME)
   DFIELD  = 0.0000000 0.0000000 0.0000000 field for delta impulse in time
 
  Optional k-point grid parameters
   LKPOINTS_OPT  =     F    use optional k-point grid
   KPOINTS_OPT_MODE=     1    mode for optional k-point grid
 
 Orbital magnetization related:
   ORBITALMAG=     F  switch on orbital magnetization
   LCHIMAG   =     F  perturbation theory with respect to B field
   DQ        =  0.001000  dq finite difference perturbation B field
   LLRAUG    =     F  two centre corrections for induced B field
   LBONE     =     F  B-component reconstruction in AE one-centre
   LVGVCALC  =     T  calculate vGv susceptibility
   LVGVAPPL  =     F  apply vGv susceptibility instead of pGv for G=0

 Random number generation:
   RANDOM_GENERATOR = DEFAULT
   PCG_SEED         = not used


--------------------------------------------------------------------------------------------------------


 Static calculation
 charge density and potential will be updated during run
 non-spin polarized calculation
 Variant of blocked Davidson
 Davidson routine will perform the subspace rotation
 perform sub-space diagonalisation
    after iterative eigenvector-optimisation
 modified Broyden-mixing scheme, WC =      100.0
 initial mixing is a Kerker type mixing with AMIX =  0.4000 and BMIX =      1.0000
 Hartree-type preconditioning will be used
 using additional bands            48
 real space projection scheme for non local part
 use partial core corrections
 calculate Harris-corrections to forces 
   (improved forces if not selfconsistent)
 use gradient corrections 
 use of overlap-Matrix (Vanderbilt PP)
 Gauss-broadening in eV      SIGMA  =   0.20


--------------------------------------------------------------------------------------------------------


  energy-cutoff  :      500.00
  volume of cell :     7611.37
      direct lattice vectors                 reciprocal lattice vectors
    28.050000000  0.000000000  0.000000000     0.035650624  0.000000000  0.000000000
     0.000000000  8.100000000  0.000000000     0.000000000  0.123456790  0.000000000
     0.000000000  0.000000000 33.500000000     0.000000000  0.000000000  0.029850746

  length of vectors
    28.050000000  8.100000000 33.500000000     0.035650624  0.123456790  0.029850746


 
 k-points in units of 2pi/SCALE and weight: K-Spacing Value to Generate K-Mesh: 0.03
   0.00000000  0.00000000  0.00000000       0.250
   0.00000000  0.03086420  0.00000000       0.500
   0.00000000  0.06172840  0.00000000       0.250
 
 k-points in reciprocal lattice and weights: K-Spacing Value to Generate K-Mesh: 0.03
   0.00000000  0.00000000  0.00000000       0.250
   0.00000000  0.25000000  0.00000000       0.500
   0.00000000  0.50000000  0.00000000       0.250
 
 position of ions in fractional coordinates (direct lattice) 
   0.83777897  0.83276543 -0.12179104
   0.83924777  0.00605726 -0.12746269
   0.87907665  0.75300864 -0.10895522
   0.88231729  0.08571198 -0.12029851
   0.92376114  0.83552963 -0.10358209
   0.92542246  0.00337978 -0.10925373
   0.96418182  0.75600494 -0.08656716
   0.96858824  0.08481519 -0.10000000
   0.00765027  0.83612469 -0.07910448
   0.01084984  0.00197741 -0.08716418
   0.04839893  0.75495185 -0.06119403
   0.05242852  0.08652185 -0.07522388
   0.09203993  0.83604444 -0.05462687
   0.09410909  0.00246133 -0.06179104
   0.13364171  0.75297407 -0.04059701
   0.13703387  0.08455642 -0.05343284
   0.17820998  0.83504444 -0.03641791
   0.18013440  0.00347602 -0.04388060
   0.22263173  0.75243704 -0.02895522
   0.22363137  0.08524901 -0.03970149
   0.26701105  0.83363580 -0.02985075
   0.26690588  0.00200028 -0.03492537
   0.31260677  0.75199630 -0.02776119
   0.31118503  0.08233395 -0.03671642
   0.35634082  0.83254938 -0.03552239
   0.35503209  0.00089299 -0.04119403
   0.40026738  0.75052716 -0.04059701
   0.39812121  0.08349543 -0.05074627
   0.44245633  0.83408642 -0.05343284
   0.44084135  0.99977901 -0.06029851
   0.48658467  0.75154691 -0.06149254
   0.48265597  0.08320432 -0.07194030
   0.52714082  0.83346420 -0.07671642
   0.52571836  0.00141511 -0.08268657
   0.57159358  0.75414938 -0.08298507
   0.56736898  0.08469148 -0.09552239
   0.61267380  0.83724074 -0.09820896
   0.61014260  0.00359701 -0.10567164
   0.65611052  0.75444321 -0.10507463
   0.65297683  0.08594691 -0.11671642
   0.69864171  0.83546049 -0.11701493
   0.69689483  0.00323532 -0.12268657
   0.74321925  0.75536296 -0.11850746
   0.74160428  0.08647012 -0.12955224
   0.78622460  0.83543457 -0.12597015
   0.78586096  0.00637679 -0.13223881
   0.83814260  0.33510370 -0.12149254
   0.83702317  0.50372593 -0.11402985
   0.88116578  0.25344444 -0.11552239
   0.87858111  0.58699012 -0.10358209
   0.92373262  0.33652099 -0.10179104
   0.92145811  0.50253704 -0.09522388
   0.96731907  0.25460864 -0.09552239
   0.96271301  0.58521975 -0.08208955
   0.00791440  0.33650370 -0.08000000
   0.00572381  0.50291358 -0.07164179
   0.05117718  0.25544938 -0.07164179
   0.04736863  0.58500494 -0.05880597
   0.09238182  0.33582716 -0.05641791
   0.09060071  0.50310988 -0.04895522
   0.13633262  0.25327284 -0.04985075
   0.13321996  0.58320988 -0.03791045
   0.17851765  0.33468395 -0.03761194
   0.17793262  0.50170494 -0.03223881
   0.22329412  0.25314198 -0.03492537
   0.22247522  0.58356543 -0.02686567
   0.26744563  0.33309012 -0.02985075
   0.26764635  0.50206296 -0.02507463
   0.31160891  0.24941852 -0.03432836
   0.31297112  0.58368148 -0.02507463
   0.35629091  0.33296420 -0.03611940
   0.35753298  0.50141605 -0.02985075
   0.39920499  0.25218889 -0.04656716
   0.40144385  0.58276667 -0.03641791
   0.44278431  0.33526914 -0.05402985
   0.44444920  0.50171111 -0.04746269
   0.48345811  0.25314568 -0.06985075
   0.48788235  0.58336420 -0.05671642
   0.52673084  0.33382840 -0.07850746
   0.52992513  0.49971481 -0.06985075
   0.56771123  0.25436420 -0.09432836
   0.57258467  0.58601111 -0.07970149
   0.61165775  0.33620741 -0.10119403
   0.61357219  0.50285185 -0.09313433
   0.65379679  0.25582593 -0.11343284
   0.65687344  0.58655556 -0.10059701
   0.69816399  0.33618272 -0.11791045
   0.69967914  0.50248395 -0.10895522
   0.74200357  0.25494568 -0.12746269
   0.74359002  0.58827037 -0.11283582
   0.78568984  0.33611852 -0.12537313
   0.78582531  0.50345309 -0.11761194
 
 position of ions in cartesian coordinates  (Angst):
  23.49970000  6.74540000 -4.08000000
  23.54090000  0.04906380 -4.27000000
  24.65810000  6.09937000 -3.65000000
  24.74900000  0.69426700 -4.03000000
  25.91150000  6.76779000 -3.47000000
  25.95810000  0.02737620 -3.66000000
  27.04530000  6.12364000 -2.90000000
  27.16890000  0.68700300 -3.35000000
   0.21459000  6.77261000 -2.65000000
   0.30433800  0.01601700 -2.92000000
   1.35759000  6.11511000 -2.05000000
   1.47062000  0.70082700 -2.52000000
   2.58172000  6.77196000 -1.83000000
   2.63976000  0.01993680 -2.07000000
   3.74865000  6.09909000 -1.36000000
   3.84380000  0.68490700 -1.79000000
   4.99879000  6.76386000 -1.22000000
   5.05277000  0.02815580 -1.47000000
   6.24482000  6.09474000 -0.97000000
   6.27286000  0.69051700 -1.33000000
   7.48966000  6.75245000 -1.00000000
   7.48671000  0.01620230 -1.17000000
   8.76862000  6.09117000 -0.93000000
   8.72874000  0.66690500 -1.23000000
   9.99536000  6.74365000 -1.19000000
   9.95865000  0.00723320 -1.38000000
  11.22750000  6.07927000 -1.36000000
  11.16730000  0.67631300 -1.70000000
  12.41090000  6.75610000 -1.79000000
  12.36560000  8.09821000 -2.02000000
  13.64870000  6.08753000 -2.06000000
  13.53850000  0.67395500 -2.41000000
  14.78630000  6.75106000 -2.57000000
  14.74640000  0.01146240 -2.77000000
  16.03320000  6.10861000 -2.78000000
  15.91470000  0.68600100 -3.20000000
  17.18550000  6.78165000 -3.29000000
  17.11450000  0.02913580 -3.54000000
  18.40390000  6.11099000 -3.52000000
  18.31600000  0.69617000 -3.91000000
  19.59690000  6.76723000 -3.92000000
  19.54790000  0.02620610 -4.11000000
  20.84730000  6.11844000 -3.97000000
  20.80200000  0.70040800 -4.34000000
  22.05360000  6.76702000 -4.22000000
  22.04340000  0.05165200 -4.43000000
  23.50990000  2.71434000 -4.07000000
  23.47850000  4.08018000 -3.82000000
  24.71670000  2.05290000 -3.87000000
  24.64420000  4.75462000 -3.47000000
  25.91070000  2.72582000 -3.41000000
  25.84690000  4.07055000 -3.19000000
  27.13330000  2.06233000 -3.20000000
  27.00410000  4.74028000 -2.75000000
   0.22199900  2.72568000 -2.68000000
   0.16055300  4.07360000 -2.40000000
   1.43552000  2.06914000 -2.40000000
   1.32869000  4.73854000 -1.97000000
   2.59131000  2.72020000 -1.89000000
   2.54135000  4.07519000 -1.64000000
   3.82413000  2.05151000 -1.67000000
   3.73682000  4.72400000 -1.27000000
   5.00742000  2.71094000 -1.26000000
   4.99101000  4.06381000 -1.08000000
   6.26340000  2.05045000 -1.17000000
   6.24043000  4.72688000 -0.90000000
   7.50185000  2.69803000 -1.00000000
   7.50748000  4.06671000 -0.84000000
   8.74063000  2.02029000 -1.15000000
   8.77884000  4.72782000 -0.84000000
   9.99396000  2.69701000 -1.21000000
  10.02880000  4.06147000 -1.00000000
  11.19770000  2.04273000 -1.56000000
  11.26050000  4.72041000 -1.22000000
  12.42010000  2.71568000 -1.81000000
  12.46680000  4.06386000 -1.59000000
  13.56100000  2.05048000 -2.34000000
  13.68510000  4.72525000 -1.90000000
  14.77480000  2.70401000 -2.63000000
  14.86440000  4.04769000 -2.34000000
  15.92430000  2.06035000 -3.16000000
  16.06100000  4.74669000 -2.67000000
  17.15700000  2.72328000 -3.39000000
  17.21070000  4.07310000 -3.12000000
  18.33900000  2.07219000 -3.80000000
  18.42530000  4.75110000 -3.37000000
  19.58350000  2.72308000 -3.95000000
  19.62600000  4.07012000 -3.65000000
  20.81320000  2.06506000 -4.27000000
  20.85770000  4.76499000 -3.78000000
  22.03860000  2.72256000 -4.20000000
  22.04240000  4.07797000 -3.94000000
 


--------------------------------------------------------------------------------------------------------


 k-point     1 :   0.0000 0.0000 0.0000  plane waves:  193173
 k-point     2 :   0.0000 0.2500 0.0000  plane waves:  193166
 k-point     3 :   0.0000 0.5000 0.0000  plane waves:  193226

 maximum and minimum number of plane-waves per node :    193226   193166

 maximum number of plane-waves:    193226
 maximum index in each direction: 
   IXMAX=   51   IYMAX=   14   IZMAX=   61
   IXMIN=  -51   IYMIN=  -15   IZMIN=  -61


 serial   3D FFT for wavefunctions
 parallel 3D FFT for charge:
    minimum data exchange during FFTs selected (reduces bandwidth)


 total amount of memory used by VASP MPI-rank0  2294533. kBytes
=======================================================================

   base                                    :      30000. kBytes
   nonlr-proj                              :      15099. kBytes
   fftplans                                :     436558. kBytes
   grid                                    :     732614. kBytes
   one-center                              :        282. kBytes
   wavefun                                 :    1079980. kBytes
 
     INWAV:  cpu time      0.0000: real time      0.0000
 Broyden mixing: mesh for mixing (old mesh)
   NGX =103   NGY = 29   NGZ =123
  (NGX  =420   NGY  =120   NGZ  =500)
  gives a total of 367401 points

 initial charge density was supplied:
 charge density of overlapping atoms calculated
 number of electron     368.0000000 magnetization 
 keeping initial charge density in first step


--------------------------------------------------------------------------------------------------------


 Maximum index for non-local projection operator          1876
 Maximum index for augmentation-charges          2385 (set IRDMAX)


--------------------------------------------------------------------------------------------------------


 First call to EWALD:  gamma=   0.090
 Maximum number of real-space cells   2x   6x   2
 Maximum number of reciprocal cells   4x   1x   4

    FEWALD:  cpu time      0.1611: real time      0.1611


--------------------------------------- Ionic step        1  -------------------------------------------




--------------------------------------- Iteration      1(   1)  ---------------------------------------


    POTLOK:  cpu time      0.4223: real time      0.4534
    SETDIJ:  cpu time      0.0418: real time      0.0417
     EDDAV:  cpu time     10.8227: real time     10.8275
       DOS:  cpu time      0.0008: real time      0.0008
    --------------------------------------------
      LOOP:  cpu time     11.2876: real time     11.3234

 eigenvalue-minimisations  :  1672
 total energy-change (2. order) : 0.3753250E+04  (-0.1184156E+05)
 number of electron     368.0000000 magnetization 
 augmentation part      368.0000000 magnetization 

 Free energy of the ion-electron system (eV)
  ---------------------------------------------------
  alpha Z        PSCENC =        91.34886789
  Ewald energy   TEWEN  =    119731.50114020
  -Hartree energ DENC   =   -129054.69241388
  -exchange      EXHF   =         0.00000000
  -V(xc)+E(xc)   XCENC  =      1221.74048126
  PAW double counting   =      9984.02826696   -10036.41360137
  entropy T*S    EENTRO =        -0.83318639
  eigenvalues    EBANDS =     -1721.08478432
  atomic energy  EATOM  =     13537.65479391
  Solvation  Ediel_sol  =         0.00000000
  ---------------------------------------------------
  free energy    TOTEN  =      3753.24956427 eV

  energy without entropy =     3754.08275066  energy(sigma->0) =     3753.66615746


--------------------------------------------------------------------------------------------------------




--------------------------------------- Iteration      1(   2)  ---------------------------------------


     EDDAV:  cpu time     12.9997: real time     13.0041
       DOS:  cpu time      0.0007: real time      0.0007
    --------------------------------------------
      LOOP:  cpu time     13.0004: real time     13.0048

 eigenvalue-minimisations  :  2128
 total energy-change (2. order) :-0.3568009E+04  (-0.3307366E+04)
 number of electron     368.0000000 magnetization 
 augmentation part      368.0000000 magnetization 

 Free energy of the ion-electron system (eV)
  ---------------------------------------------------
  alpha Z        PSCENC =        91.34886789
  Ewald energy   TEWEN  =    119731.50114020
  -Hartree energ DENC   =   -129054.69241388
  -exchange      EXHF   =         0.00000000
  -V(xc)+E(xc)   XCENC  =      1221.74048126
  PAW double counting   =      9984.02826696   -10036.41360137
  entropy T*S    EENTRO =        -0.17568473
  eigenvalues    EBANDS =     -5289.75148120
  atomic energy  EATOM  =     13537.65479391
  Solvation  Ediel_sol  =         0.00000000
  ---------------------------------------------------
  free energy    TOTEN  =       185.24036905 eV

  energy without entropy =      185.41605378  energy(sigma->0) =      185.32821141


--------------------------------------------------------------------------------------------------------




--------------------------------------- Iteration      1(   3)  ---------------------------------------


     EDDAV:  cpu time     11.1928: real time     11.1965
       DOS:  cpu time      0.0007: real time      0.0007
    --------------------------------------------
      LOOP:  cpu time     11.1935: real time     11.1972

 eigenvalue-minimisations  :  1776
 total energy-change (2. order) :-0.1023389E+04  (-0.1000912E+04)
 number of electron     368.0000000 magnetization 
 augmentation part      368.0000000 magnetization 

 Free energy of the ion-electron system (eV)
  ---------------------------------------------------
  alpha Z        PSCENC =        91.34886789
  Ewald energy   TEWEN  =    119731.50114020
  -Hartree energ DENC   =   -129054.69241388
  -exchange      EXHF   =         0.00000000
  -V(xc)+E(xc)   XCENC  =      1221.74048126
  PAW double counting   =      9984.02826696   -10036.41360137
  entropy T*S    EENTRO =        -0.03651668
  eigenvalues    EBANDS =     -6313.28003456
  atomic energy  EATOM  =     13537.65479391
  Solvation  Ediel_sol  =         0.00000000
  ---------------------------------------------------
  free energy    TOTEN  =      -838.14901626 eV

  energy without entropy =     -838.11249958  energy(sigma->0) =     -838.13075792


--------------------------------------------------------------------------------------------------------




--------------------------------------- Iteration      1(   4)  ---------------------------------------


     EDDAV:  cpu time     10.9608: real time     10.9646
       DOS:  cpu time      0.0007: real time      0.0007
    --------------------------------------------
      LOOP:  cpu time     10.9614: real time     10.9653

 eigenvalue-minimisations  :  1728
 total energy-change (2. order) :-0.6157087E+02  (-0.6062748E+02)
 number of electron     368.0000000 magnetization 
 augmentation part      368.0000000 magnetization 

 Free energy of the ion-electron system (eV)
  ---------------------------------------------------
  alpha Z        PSCENC =        91.34886789
  Ewald energy   TEWEN  =    119731.50114020
  -Hartree energ DENC   =   -129054.69241388
  -exchange      EXHF   =         0.00000000
  -V(xc)+E(xc)   XCENC  =      1221.74048126
  PAW double counting   =      9984.02826696   -10036.41360137
  entropy T*S    EENTRO =        -0.05691812
  eigenvalues    EBANDS =     -6374.83050795
  atomic energy  EATOM  =     13537.65479391
  Solvation  Ediel_sol  =         0.00000000
  ---------------------------------------------------
  free energy    TOTEN  =      -899.71989109 eV

  energy without entropy =     -899.66297297  energy(sigma->0) =     -899.69143203


--------------------------------------------------------------------------------------------------------




--------------------------------------- Iteration      1(   5)  ---------------------------------------


     EDDAV:  cpu time     11.2644: real time     11.2682
       DOS:  cpu time      0.0007: real time      0.0007
    CHARGE:  cpu time      1.2063: real time      1.2090
    MIXING:  cpu time      0.2753: real time      0.2755
    --------------------------------------------
      LOOP:  cpu time     12.7467: real time     12.7534

 eigenvalue-minimisations  :  1792
 total energy-change (2. order) :-0.1487720E+01  (-0.1466417E+01)
 number of electron     367.9999996 magnetization 
 augmentation part       10.1747219 magnetization 

 Broyden mixing:
  rms(total) = 0.45483E+01    rms(broyden)= 0.45477E+01
  rms(prec ) = 0.46653E+01
  weight for this iteration     100.00

 Free energy of the ion-electron system (eV)
  ---------------------------------------------------
  alpha Z        PSCENC =        91.34886789
  Ewald energy   TEWEN  =    119731.50114020
  -Hartree energ DENC   =   -129054.69241388
  -exchange      EXHF   =         0.00000000
  -V(xc)+E(xc)   XCENC  =      1221.74048126
  PAW double counting   =      9984.02826696   -10036.41360137
  entropy T*S    EENTRO =        -0.05683158
  eigenvalues    EBANDS =     -6376.31831499
  atomic energy  EATOM  =     13537.65479391
  Solvation  Ediel_sol  =         0.00000000
  ---------------------------------------------------
  free energy    TOTEN  =      -901.20761158 eV

  energy without entropy =     -901.15078000  energy(sigma->0) =     -901.17919579


--------------------------------------------------------------------------------------------------------




--------------------------------------- Iteration      1(   6)  ---------------------------------------


    POTLOK:  cpu time      0.3222: real time      0.3222
    SETDIJ:  cpu time      0.0405: real time      0.0406
     EDDAV:  cpu time     10.2418: real time     10.2454
       DOS:  cpu time      0.0007: real time      0.0007
    CHARGE:  cpu time      1.1591: real time      1.1632
    MIXING:  cpu time      0.2764: real time      0.2765
    --------------------------------------------
      LOOP:  cpu time     12.0408: real time     12.0486

 eigenvalue-minimisations  :  1584
 total energy-change (2. order) : 0.4940679E+02  (-0.4678499E+01)
 number of electron     367.9999996 magnetization 
 augmentation part        9.7507578 magnetization 

 Broyden mixing:
  rms(total) = 0.26733E+01    rms(broyden)= 0.26733E+01
  rms(prec ) = 0.27315E+01
  weight for this iteration     100.00

 eigenvalues of (default mixing * dielectric matrix)
  average eigenvalue GAMMA=   2.1888
  2.1888

 Free energy of the ion-electron system (eV)
  ---------------------------------------------------
  alpha Z        PSCENC =        91.34886789
  Ewald energy   TEWEN  =    119731.50114020
  -Hartree energ DENC   =   -129625.22384228
  -exchange      EXHF   =         0.00000000
  -V(xc)+E(xc)   XCENC  =      1245.09572419
  PAW double counting   =     18961.06189863   -19021.07218237
  entropy T*S    EENTRO =        -0.06204061
  eigenvalues    EBANDS =     -5772.10518196
  atomic energy  EATOM  =     13537.65479391
  Solvation  Ediel_sol  =         0.00000000
  ---------------------------------------------------
  free energy    TOTEN  =      -851.80082241 eV

  energy without entropy =     -851.73878180  energy(sigma->0) =     -851.76980211


--------------------------------------------------------------------------------------------------------




--------------------------------------- Iteration      1(   7)  ---------------------------------------


    POTLOK:  cpu time      0.3212: real time      0.3212
    SETDIJ:  cpu time      0.0401: real time      0.0401
     EDDAV:  cpu time     10.0684: real time     10.0723
       DOS:  cpu time      0.0007: real time      0.0007
    CHARGE:  cpu time      1.1520: real time      1.1541
    MIXING:  cpu time      0.2786: real time      0.2788
    --------------------------------------------
      LOOP:  cpu time     11.8611: real time     11.8672

 eigenvalue-minimisations  :  1552
 total energy-change (2. order) : 0.1853644E+02  (-0.6530462E+01)
 number of electron     367.9999997 magnetization 
 augmentation part        9.1944531 magnetization 

 Broyden mixing:
  rms(total) = 0.72736E+00    rms(broyden)= 0.72709E+00
  rms(prec ) = 0.73704E+00
  weight for this iteration     100.00

 eigenvalues of (default mixing * dielectric matrix)
  average eigenvalue GAMMA=   2.2338
  2.2338  2.2338

 Free energy of the ion-electron system (eV)
  ---------------------------------------------------
  alpha Z        PSCENC =        91.34886789
  Ewald energy   TEWEN  =    119731.50114020
  -Hartree energ DENC   =   -130393.63603358
  -exchange      EXHF   =         0.00000000
  -V(xc)+E(xc)   XCENC  =      1276.36256920
  PAW double counting   =     36702.98475017   -36769.93187018
  entropy T*S    EENTRO =        -0.07010561
  eigenvalues    EBANDS =     -5009.47849078
  atomic energy  EATOM  =     13537.65479391
  Solvation  Ediel_sol  =         0.00000000
  ---------------------------------------------------
  free energy    TOTEN  =      -833.26437879 eV

  energy without entropy =     -833.19427317  energy(sigma->0) =     -833.22932598


--------------------------------------------------------------------------------------------------------




--------------------------------------- Iteration      1(   8)  ---------------------------------------


    POTLOK:  cpu time      0.3211: real time      0.3212
    SETDIJ:  cpu time      0.0404: real time      0.0404
     EDDAV:  cpu time     10.2798: real time     10.2832
       DOS:  cpu time      0.0008: real time      0.0008
    CHARGE:  cpu time      1.1544: real time      1.1565
    MIXING:  cpu time      0.2821: real time      0.2822
    --------------------------------------------
      LOOP:  cpu time     12.0785: real time     12.0842

 eigenvalue-minimisations  :  1592
 total energy-change (2. order) : 0.3039798E+00  (-0.2226339E+00)
 number of electron     367.9999997 magnetization 
 augmentation part        9.1820657 magnetization 

 Broyden mixing:
  rms(total) = 0.88514E-01    rms(broyden)= 0.88477E-01
  rms(prec ) = 0.11239E+00
  weight for this iteration     100.00

 eigenvalues of (default mixing * dielectric matrix)
  average eigenvalue GAMMA=   1.8572
  1.1878  2.4312  1.9526

 Free energy of the ion-electron system (eV)
  ---------------------------------------------------
  alpha Z        PSCENC =        91.34886789
  Ewald energy   TEWEN  =    119731.50114020
  -Hartree energ DENC   =   -130489.28558601
  -exchange      EXHF   =         0.00000000
  -V(xc)+E(xc)   XCENC  =      1276.06063778
  PAW double counting   =     41042.29461125   -41106.44935436
  entropy T*S    EENTRO =        -0.06551611
  eigenvalues    EBANDS =     -4916.01999350
  atomic energy  EATOM  =     13537.65479391
  Solvation  Ediel_sol  =         0.00000000
  ---------------------------------------------------
  free energy    TOTEN  =      -832.96039896 eV

  energy without entropy =     -832.89488284  energy(sigma->0) =     -832.92764090


--------------------------------------------------------------------------------------------------------




--------------------------------------- Iteration      1(   9)  ---------------------------------------


    POTLOK:  cpu time      0.3214: real time      0.3214
    SETDIJ:  cpu time      0.0400: real time      0.0400
     EDDAV:  cpu time     10.6405: real time     10.6442
       DOS:  cpu time      0.0008: real time      0.0008
    CHARGE:  cpu time      1.1539: real time      1.1562
    MIXING:  cpu time      0.2859: real time      0.2859
    --------------------------------------------
      LOOP:  cpu time     12.4424: real time     12.4485

 eigenvalue-minimisations  :  1664
 total energy-change (2. order) : 0.9931838E-01  (-0.2304477E-01)
 number of electron     367.9999997 magnetization 
 augmentation part        9.1563724 magnetization 

 Broyden mixing:
  rms(total) = 0.55426E-01    rms(broyden)= 0.55416E-01
  rms(prec ) = 0.77468E-01
  weight for this iteration     100.00

 eigenvalues of (default mixing * dielectric matrix)
  average eigenvalue GAMMA=   1.7522
  2.2526  2.2526  1.1578  1.3457

 Free energy of the ion-electron system (eV)
  ---------------------------------------------------
  alpha Z        PSCENC =        91.34886789
  Ewald energy   TEWEN  =    119731.50114020
  -Hartree energ DENC   =   -130554.97958385
  -exchange      EXHF   =         0.00000000
  -V(xc)+E(xc)   XCENC  =      1277.45746854
  PAW double counting   =     41444.07208335   -41508.38364394
  entropy T*S    EENTRO =        -0.06687607
  eigenvalues    EBANDS =     -4851.46533061
  atomic energy  EATOM  =     13537.65479391
  Solvation  Ediel_sol  =         0.00000000
  ---------------------------------------------------
  free energy    TOTEN  =      -832.86108057 eV

  energy without entropy =     -832.79420451  energy(sigma->0) =     -832.82764254


--------------------------------------------------------------------------------------------------------




--------------------------------------- Iteration      1(  10)  ---------------------------------------


    POTLOK:  cpu time      0.3217: real time      0.3216
    SETDIJ:  cpu time      0.0401: real time      0.0401
     EDDAV:  cpu time     10.8603: real time     10.8642
       DOS:  cpu time      0.0007: real time      0.0007
    CHARGE:  cpu time      1.1551: real time      1.1573
    MIXING:  cpu time      0.2922: real time      0.2932
    --------------------------------------------
      LOOP:  cpu time     12.6701: real time     12.6771

 eigenvalue-minimisations  :  1712
 total energy-change (2. order) : 0.4800565E-01  (-0.4088796E-02)
 number of electron     367.9999997 magnetization 
 augmentation part        9.1482584 magnetization 

 Broyden mixing:
  rms(total) = 0.33338E-01    rms(broyden)= 0.33336E-01
  rms(prec ) = 0.51981E-01
  weight for this iteration     100.00

 eigenvalues of (default mixing * dielectric matrix)
  average eigenvalue GAMMA=   1.8187
  2.6390  2.6390  1.7907  1.1633  0.8616

 Free energy of the ion-electron system (eV)
  ---------------------------------------------------
  alpha Z        PSCENC =        91.34886789
  Ewald energy   TEWEN  =    119731.50114020
  -Hartree energ DENC   =   -130617.34480040
  -exchange      EXHF   =         0.00000000
  -V(xc)+E(xc)   XCENC  =      1277.87774398
  PAW double counting   =     41142.14827762   -41206.30029076
  entropy T*S    EENTRO =        -0.06704419
  eigenvalues    EBANDS =     -4789.63176317
  atomic energy  EATOM  =     13537.65479391
  Solvation  Ediel_sol  =         0.00000000
  ---------------------------------------------------
  free energy    TOTEN  =      -832.81307493 eV

  energy without entropy =     -832.74603073  energy(sigma->0) =     -832.77955283


--------------------------------------------------------------------------------------------------------




--------------------------------------- Iteration      1(  11)  ---------------------------------------


    POTLOK:  cpu time      0.3215: real time      0.3215
    SETDIJ:  cpu time      0.0404: real time      0.0404
     EDDAV:  cpu time      9.9438: real time      9.9474
       DOS:  cpu time      0.0007: real time      0.0007
    CHARGE:  cpu time      1.1650: real time      1.1664
    MIXING:  cpu time      0.3004: real time      0.3011
    --------------------------------------------
      LOOP:  cpu time     11.7718: real time     11.7775

 eigenvalue-minimisations  :  1528
 total energy-change (2. order) : 0.2755963E-01  (-0.3181695E-02)
 number of electron     367.9999997 magnetization 
 augmentation part        9.1408526 magnetization 

 Broyden mixing:
  rms(total) = 0.22261E-01    rms(broyden)= 0.22258E-01
  rms(prec ) = 0.33679E-01
  weight for this iteration     100.00

 eigenvalues of (default mixing * dielectric matrix)
  average eigenvalue GAMMA=   1.8525
  3.2881  2.4146  1.9907  0.9178  1.2519  1.2519

 Free energy of the ion-electron system (eV)
  ---------------------------------------------------
  alpha Z        PSCENC =        91.34886789
  Ewald energy   TEWEN  =    119731.50114020
  -Hartree energ DENC   =   -130691.66398178
  -exchange      EXHF   =         0.00000000
  -V(xc)+E(xc)   XCENC  =      1278.62549306
  PAW double counting   =     41143.38891257   -41207.46125784
  entropy T*S    EENTRO =        -0.06691565
  eigenvalues    EBANDS =     -4716.11256765
  atomic energy  EATOM  =     13537.65479391
  Solvation  Ediel_sol  =         0.00000000
  ---------------------------------------------------
  free energy    TOTEN  =      -832.78551530 eV

  energy without entropy =     -832.71859965  energy(sigma->0) =     -832.75205747


--------------------------------------------------------------------------------------------------------




--------------------------------------- Iteration      1(  12)  ---------------------------------------


    POTLOK:  cpu time      0.3215: real time      0.3216
    SETDIJ:  cpu time      0.0427: real time      0.0427
     EDDAV:  cpu time      9.7762: real time      9.7797
       DOS:  cpu time      0.0007: real time      0.0007
    CHARGE:  cpu time      1.1544: real time      1.1550
    MIXING:  cpu time      0.3057: real time      0.3073
    --------------------------------------------
      LOOP:  cpu time     11.6012: real time     11.6070

 eigenvalue-minimisations  :  1496
 total energy-change (2. order) :-0.2642393E-02  (-0.1552358E-02)
 number of electron     367.9999997 magnetization 
 augmentation part        9.1345683 magnetization 

 Broyden mixing:
  rms(total) = 0.13633E-01    rms(broyden)= 0.13629E-01
  rms(prec ) = 0.20876E-01
  weight for this iteration     100.00

 eigenvalues of (default mixing * dielectric matrix)
  average eigenvalue GAMMA=   2.1243
  5.1039  2.4662  2.0609  2.0609  0.9435  1.1174  1.1174

 Free energy of the ion-electron system (eV)
  ---------------------------------------------------
  alpha Z        PSCENC =        91.34886789
  Ewald energy   TEWEN  =    119731.50114020
  -Hartree energ DENC   =   -130745.50497745
  -exchange      EXHF   =         0.00000000
  -V(xc)+E(xc)   XCENC  =      1279.09620956
  PAW double counting   =     41211.65306410   -41275.72996436
  entropy T*S    EENTRO =        -0.06704330
  eigenvalues    EBANDS =     -4662.74024824
  atomic energy  EATOM  =     13537.65479391
  Solvation  Ediel_sol  =         0.00000000
  ---------------------------------------------------
  free energy    TOTEN  =      -832.78815769 eV

  energy without entropy =     -832.72111439  energy(sigma->0) =     -832.75463604


--------------------------------------------------------------------------------------------------------




--------------------------------------- Iteration      1(  13)  ---------------------------------------


    POTLOK:  cpu time      0.3220: real time      0.3221
    SETDIJ:  cpu time      0.0405: real time      0.0405
     EDDAV:  cpu time      9.8551: real time      9.8585
       DOS:  cpu time      0.0007: real time      0.0007
    CHARGE:  cpu time      1.1555: real time      1.1564
    MIXING:  cpu time      0.3122: real time      0.3143
    --------------------------------------------
      LOOP:  cpu time     11.6860: real time     11.6925

 eigenvalue-minimisations  :  1512
 total energy-change (2. order) :-0.1216032E-01  (-0.6270472E-03)
 number of electron     367.9999997 magnetization 
 augmentation part        9.1330403 magnetization 

 Broyden mixing:
  rms(total) = 0.82163E-02    rms(broyden)= 0.82152E-02
  rms(prec ) = 0.11436E-01
  weight for this iteration     100.00

 eigenvalues of (default mixing * dielectric matrix)
  average eigenvalue GAMMA=   2.1136
  5.4662  2.5498  2.5498  1.8539  1.2516  1.2516  0.8771  1.1092

 Free energy of the ion-electron system (eV)
  ---------------------------------------------------
  alpha Z        PSCENC =        91.34886789
  Ewald energy   TEWEN  =    119731.50114020
  -Hartree energ DENC   =   -130789.25410023
  -exchange      EXHF   =         0.00000000
  -V(xc)+E(xc)   XCENC  =      1279.21673954
  PAW double counting   =     41151.79621710   -41215.86590869
  entropy T*S    EENTRO =        -0.06690859
  eigenvalues    EBANDS =     -4619.13115914
  atomic energy  EATOM  =     13537.65479391
  Solvation  Ediel_sol  =         0.00000000
  ---------------------------------------------------
  free energy    TOTEN  =      -832.80031801 eV

  energy without entropy =     -832.73340942  energy(sigma->0) =     -832.76686371


--------------------------------------------------------------------------------------------------------




--------------------------------------- Iteration      1(  14)  ---------------------------------------


    POTLOK:  cpu time      0.3224: real time      0.3223
    SETDIJ:  cpu time      0.0402: real time      0.0402
     EDDAV:  cpu time     10.0213: real time     10.0249
       DOS:  cpu time      0.0008: real time      0.0008
    CHARGE:  cpu time      1.1539: real time      1.1546
    MIXING:  cpu time      0.3226: real time      0.3226
    --------------------------------------------
      LOOP:  cpu time     11.8611: real time     11.8653

 eigenvalue-minimisations  :  1544
 total energy-change (2. order) :-0.1842775E-01  (-0.1291393E-03)
 number of electron     367.9999997 magnetization 
 augmentation part        9.1318452 magnetization 

 Broyden mixing:
  rms(total) = 0.53009E-02    rms(broyden)= 0.53004E-02
  rms(prec ) = 0.74061E-02
  weight for this iteration     100.00

 eigenvalues of (default mixing * dielectric matrix)
  average eigenvalue GAMMA=   2.2474
  6.6775  3.0875  2.4140  1.9814  1.7225  1.2138  1.2138  0.9581  0.9581

 Free energy of the ion-electron system (eV)
  ---------------------------------------------------
  alpha Z        PSCENC =        91.34886789
  Ewald energy   TEWEN  =    119731.50114020
  -Hartree energ DENC   =   -130802.84391436
  -exchange      EXHF   =         0.00000000
  -V(xc)+E(xc)   XCENC  =      1279.24887517
  PAW double counting   =     41177.16172627   -41241.24437899
  entropy T*S    EENTRO =        -0.06694922
  eigenvalues    EBANDS =     -4605.57890663
  atomic energy  EATOM  =     13537.65479391
  Solvation  Ediel_sol  =         0.00000000
  ---------------------------------------------------
  free energy    TOTEN  =      -832.81874576 eV

  energy without entropy =     -832.75179654  energy(sigma->0) =     -832.78527115


--------------------------------------------------------------------------------------------------------




--------------------------------------- Iteration      1(  15)  ---------------------------------------


    POTLOK:  cpu time      0.3221: real time      0.3221
    SETDIJ:  cpu time      0.0401: real time      0.0401
     EDDAV:  cpu time      9.7839: real time      9.7874
       DOS:  cpu time      0.0007: real time      0.0008
    CHARGE:  cpu time      1.1544: real time      1.1547
    MIXING:  cpu time      0.3275: real time      0.3295
    --------------------------------------------
      LOOP:  cpu time     11.6287: real time     11.6346

 eigenvalue-minimisations  :  1496
 total energy-change (2. order) :-0.1923111E-01  (-0.1460386E-03)
 number of electron     367.9999997 magnetization 
 augmentation part        9.1319157 magnetization 

 Broyden mixing:
  rms(total) = 0.29426E-02    rms(broyden)= 0.29424E-02
  rms(prec ) = 0.39401E-02
  weight for this iteration     100.00

 eigenvalues of (default mixing * dielectric matrix)
  average eigenvalue GAMMA=   2.3070
  7.1348  3.7598  2.3404  2.3404  1.8076  1.3208  1.3208  1.1187  0.9634  0.9634

 Free energy of the ion-electron system (eV)
  ---------------------------------------------------
  alpha Z        PSCENC =        91.34886789
  Ewald energy   TEWEN  =    119731.50114020
  -Hartree energ DENC   =   -130812.39649225
  -exchange      EXHF   =         0.00000000
  -V(xc)+E(xc)   XCENC  =      1279.20296081
  PAW double counting   =     41156.09830088   -41220.17904382
  entropy T*S    EENTRO =        -0.06701611
  eigenvalues    EBANDS =     -4596.00148837
  atomic energy  EATOM  =     13537.65479391
  Solvation  Ediel_sol  =         0.00000000
  ---------------------------------------------------
  free energy    TOTEN  =      -832.83797687 eV

  energy without entropy =     -832.77096075  energy(sigma->0) =     -832.80446881


--------------------------------------------------------------------------------------------------------




--------------------------------------- Iteration      1(  16)  ---------------------------------------


    POTLOK:  cpu time      0.3218: real time      0.3218
    SETDIJ:  cpu time      0.0405: real time      0.0404
     EDDAV:  cpu time     10.0992: real time     10.1056
       DOS:  cpu time      0.0008: real time      0.0008
    CHARGE:  cpu time      1.1648: real time      1.1679
    MIXING:  cpu time      0.3394: real time      0.3404
    --------------------------------------------
      LOOP:  cpu time     11.9665: real time     11.9769

 eigenvalue-minimisations  :  1560
 total energy-change (2. order) :-0.9205207E-02  (-0.6485340E-04)
 number of electron     367.9999997 magnetization 
 augmentation part        9.1318127 magnetization 

 Broyden mixing:
  rms(total) = 0.18129E-02    rms(broyden)= 0.18128E-02
  rms(prec ) = 0.22837E-02
  weight for this iteration     100.00

 eigenvalues of (default mixing * dielectric matrix)
  average eigenvalue GAMMA=   2.3647
  8.0498  4.1833  2.3948  2.3948  1.9312  1.5012  1.5012  1.0941  1.0941  0.9459
  0.9207

 Free energy of the ion-electron system (eV)
  ---------------------------------------------------
  alpha Z        PSCENC =        91.34886789
  Ewald energy   TEWEN  =    119731.50114020
  -Hartree energ DENC   =   -130816.14728842
  -exchange      EXHF   =         0.00000000
  -V(xc)+E(xc)   XCENC  =      1279.19143273
  PAW double counting   =     41162.69497534   -41226.77119862
  entropy T*S    EENTRO =        -0.06698275
  eigenvalues    EBANDS =     -4592.25292235
  atomic energy  EATOM  =     13537.65479391
  Solvation  Ediel_sol  =         0.00000000
  ---------------------------------------------------
  free energy    TOTEN  =      -832.84718207 eV

  energy without entropy =     -832.78019932  energy(sigma->0) =     -832.81369070


--------------------------------------------------------------------------------------------------------




--------------------------------------- Iteration      1(  17)  ---------------------------------------


    POTLOK:  cpu time      0.3219: real time      0.3219
    SETDIJ:  cpu time      0.0403: real time      0.0403
     EDDAV:  cpu time     10.1776: real time     10.1814
       DOS:  cpu time      0.0007: real time      0.0007
    CHARGE:  cpu time      1.1496: real time      1.1552
    MIXING:  cpu time      0.3496: real time      0.3515
    --------------------------------------------
      LOOP:  cpu time     12.0398: real time     12.0510

 eigenvalue-minimisations  :  1576
 total energy-change (2. order) :-0.3464448E-02  (-0.1626985E-04)
 number of electron     367.9999997 magnetization 
 augmentation part        9.1316780 magnetization 

 Broyden mixing:
  rms(total) = 0.99152E-03    rms(broyden)= 0.99143E-03
  rms(prec ) = 0.12938E-02
  weight for this iteration     100.00

 eigenvalues of (default mixing * dielectric matrix)
  average eigenvalue GAMMA=   2.4083
  8.3653  4.8942  2.6243  2.4162  1.9800  1.4634  1.4634  1.3264  1.3264  0.9551
  1.0078  1.0765

 Free energy of the ion-electron system (eV)
  ---------------------------------------------------
  alpha Z        PSCENC =        91.34886789
  Ewald energy   TEWEN  =    119731.50114020
  -Hartree energ DENC   =   -130817.91782539
  -exchange      EXHF   =         0.00000000
  -V(xc)+E(xc)   XCENC  =      1279.19341752
  PAW double counting   =     41162.26562366   -41226.34186748
  entropy T*S    EENTRO =        -0.06698447
  eigenvalues    EBANDS =     -4590.48781236
  atomic energy  EATOM  =     13537.65479391
  Solvation  Ediel_sol  =         0.00000000
  ---------------------------------------------------
  free energy    TOTEN  =      -832.85064652 eV

  energy without entropy =     -832.78366205  energy(sigma->0) =     -832.81715429


--------------------------------------------------------------------------------------------------------




--------------------------------------- Iteration      1(  18)  ---------------------------------------


    POTLOK:  cpu time      0.3218: real time      0.3218
    SETDIJ:  cpu time      0.0406: real time      0.0406
     EDDAV:  cpu time      9.5068: real time      9.5103
       DOS:  cpu time      0.0007: real time      0.0007
    CHARGE:  cpu time      1.1530: real time      1.1553
    MIXING:  cpu time      0.3608: real time      0.3607
    --------------------------------------------
      LOOP:  cpu time     11.3836: real time     11.3894

 eigenvalue-minimisations  :  1440
 total energy-change (2. order) :-0.2058017E-02  (-0.8809542E-05)
 number of electron     367.9999997 magnetization 
 augmentation part        9.1316535 magnetization 

 Broyden mixing:
  rms(total) = 0.53907E-03    rms(broyden)= 0.53904E-03
  rms(prec ) = 0.69592E-03
  weight for this iteration     100.00

 eigenvalues of (default mixing * dielectric matrix)
  average eigenvalue GAMMA=   2.4298
  8.8552  5.1813  2.9709  2.3750  2.1839  1.8696  1.5141  1.5141  1.1251  1.1251
  0.9335  0.9335  1.0062

 Free energy of the ion-electron system (eV)
  ---------------------------------------------------
  alpha Z        PSCENC =        91.34886789
  Ewald energy   TEWEN  =    119731.50114020
  -Hartree energ DENC   =   -130818.61837335
  -exchange      EXHF   =         0.00000000
  -V(xc)+E(xc)   XCENC  =      1279.19214447
  PAW double counting   =     41163.52109468   -41227.59594763
  entropy T*S    EENTRO =        -0.06698771
  eigenvalues    EBANDS =     -4589.78943700
  atomic energy  EATOM  =     13537.65479391
  Solvation  Ediel_sol  =         0.00000000
  ---------------------------------------------------
  free energy    TOTEN  =      -832.85270454 eV

  energy without entropy =     -832.78571683  energy(sigma->0) =     -832.81921068


--------------------------------------------------------------------------------------------------------




--------------------------------------- Iteration      1(  19)  ---------------------------------------


    POTLOK:  cpu time      0.3221: real time      0.3220
    SETDIJ:  cpu time      0.0402: real time      0.0402
     EDDAV:  cpu time      9.0396: real time      9.0429
       DOS:  cpu time      0.0008: real time      0.0008
    CHARGE:  cpu time      1.1533: real time      1.1556
    MIXING:  cpu time      0.3714: real time      0.3720
    --------------------------------------------
      LOOP:  cpu time     10.9273: real time     10.9334

 eigenvalue-minimisations  :  1344
 total energy-change (2. order) :-0.8276074E-03  (-0.2254858E-05)
 number of electron     367.9999997 magnetization 
 augmentation part        9.1316399 magnetization 

 Broyden mixing:
  rms(total) = 0.34680E-03    rms(broyden)= 0.34678E-03
  rms(prec ) = 0.42182E-03
  weight for this iteration     100.00

 eigenvalues of (default mixing * dielectric matrix)
  average eigenvalue GAMMA=   2.4547
  9.0646  5.6128  3.3441  2.3915  2.3915  1.9059  1.4482  1.4482  1.3454  1.3454
  0.9466  0.9768  1.0725  1.0725

 Free energy of the ion-electron system (eV)
  ---------------------------------------------------
  alpha Z        PSCENC =        91.34886789
  Ewald energy   TEWEN  =    119731.50114020
  -Hartree energ DENC   =   -130818.94925970
  -exchange      EXHF   =         0.00000000
  -V(xc)+E(xc)   XCENC  =      1279.19137159
  PAW double counting   =     41161.24877880   -41225.32365539
  entropy T*S    EENTRO =        -0.06698564
  eigenvalues    EBANDS =     -4589.45858381
  atomic energy  EATOM  =     13537.65479391
  Solvation  Ediel_sol  =         0.00000000
  ---------------------------------------------------
  free energy    TOTEN  =      -832.85353215 eV

  energy without entropy =     -832.78654651  energy(sigma->0) =     -832.82003933


--------------------------------------------------------------------------------------------------------




--------------------------------------- Iteration      1(  20)  ---------------------------------------


    POTLOK:  cpu time      0.3220: real time      0.3220
    SETDIJ:  cpu time      0.0404: real time      0.0404
     EDDAV:  cpu time      8.7702: real time      8.7732
       DOS:  cpu time      0.0007: real time      0.0007
    CHARGE:  cpu time      1.1538: real time      1.1566
    MIXING:  cpu time      0.3822: real time      0.3844
    --------------------------------------------
      LOOP:  cpu time     10.6693: real time     10.6773

 eigenvalue-minimisations  :  1288
 total energy-change (2. order) :-0.3435863E-03  (-0.5128304E-06)
 number of electron     367.9999997 magnetization 
 augmentation part        9.1316382 magnetization 

 Broyden mixing:
  rms(total) = 0.18510E-03    rms(broyden)= 0.18509E-03
  rms(prec ) = 0.22514E-03
  weight for this iteration     100.00

 eigenvalues of (default mixing * dielectric matrix)
  average eigenvalue GAMMA=   2.4743
  9.1893  6.0139  3.7633  2.5232  2.5232  2.0257  1.5300  1.5300  1.4324  1.4324
  0.9640  0.9808  0.9808  1.1126  1.1126

 Free energy of the ion-electron system (eV)
  ---------------------------------------------------
  alpha Z        PSCENC =        91.34886789
  Ewald energy   TEWEN  =    119731.50114020
  -Hartree energ DENC   =   -130819.06439713
  -exchange      EXHF   =         0.00000000
  -V(xc)+E(xc)   XCENC  =      1279.19032223
  PAW double counting   =     41160.53503363   -41224.61020218
  entropy T*S    EENTRO =        -0.06698764
  eigenvalues    EBANDS =     -4589.34244664
  atomic energy  EATOM  =     13537.65479391
  Solvation  Ediel_sol  =         0.00000000
  ---------------------------------------------------
  free energy    TOTEN  =      -832.85387573 eV

  energy without entropy =     -832.78688809  energy(sigma->0) =     -832.82038191


--------------------------------------------------------------------------------------------------------




--------------------------------------- Iteration      1(  21)  ---------------------------------------


    POTLOK:  cpu time      0.3219: real time      0.3220
    SETDIJ:  cpu time      0.0401: real time      0.0401
     EDDAV:  cpu time      8.0462: real time      8.0490
       DOS:  cpu time      0.0008: real time      0.0008
    CHARGE:  cpu time      1.1658: real time      1.1682
    MIXING:  cpu time      0.3973: real time      0.3973
    --------------------------------------------
      LOOP:  cpu time      9.9721: real time      9.9774

 eigenvalue-minimisations  :  1136
 total energy-change (2. order) :-0.1501742E-03  (-0.1339827E-06)
 number of electron     367.9999997 magnetization 
 augmentation part        9.1316373 magnetization 

 Broyden mixing:
  rms(total) = 0.10281E-03    rms(broyden)= 0.10281E-03
  rms(prec ) = 0.12451E-03
  weight for this iteration     100.00

 eigenvalues of (default mixing * dielectric matrix)
  average eigenvalue GAMMA=   2.4791
  9.2828  6.2514  4.0909  2.7610  2.3963  1.9923  1.9923  1.4666  1.4666  1.3997
  1.3997  1.1321  1.1321  0.9618  0.9618  0.9784

 Free energy of the ion-electron system (eV)
  ---------------------------------------------------
  alpha Z        PSCENC =        91.34886789
  Ewald energy   TEWEN  =    119731.50114020
  -Hartree energ DENC   =   -130819.15326707
  -exchange      EXHF   =         0.00000000
  -V(xc)+E(xc)   XCENC  =      1279.18999597
  PAW double counting   =     41160.81049381   -41224.88569383
  entropy T*S    EENTRO =        -0.06698725
  eigenvalues    EBANDS =     -4589.25336953
  atomic energy  EATOM  =     13537.65479391
  Solvation  Ediel_sol  =         0.00000000
  ---------------------------------------------------
  free energy    TOTEN  =      -832.85402591 eV

  energy without entropy =     -832.78703865  energy(sigma->0) =     -832.82053228


[...]
   0.627E+01 -.110E+01 -.356E+02   -.670E+01 0.547E+00 0.356E+02   -.339E+00 -.390E+00 0.556E-01   -.506E-05 -.100E-04 0.258E-05
   0.152E+02 -.130E+02 -.155E+03   -.157E+02 0.135E+02 0.155E+03   -.121E+00 0.779E-01 -.400E+00   -.247E-05 -.307E-05 -.142E-06
   0.236E+01 0.806E+01 -.337E+02   -.227E+01 -.805E+01 0.332E+02   -.680E-01 -.153E+00 0.904E+00   -.392E-05 -.860E-06 0.129E-05
   -.260E+01 0.139E+02 -.130E+03   0.308E+01 -.143E+02 0.130E+03   0.208E+00 0.163E+00 0.315E+00   0.472E-06 -.892E-05 0.101E-05
   0.106E+01 -.386E+01 -.819E+02   -.105E+01 0.360E+01 0.821E+02   0.374E+00 -.213E+00 -.363E+00   -.608E-07 -.977E-05 0.208E-05
   -.352E+01 -.156E+02 -.164E+03   0.309E+01 0.161E+02 0.165E+03   -.307E+00 0.808E-01 -.486E+00   -.167E-05 -.564E-05 0.190E-06
   -.472E+01 0.120E+02 -.723E+02   0.473E+01 -.126E+02 0.721E+02   0.141E+00 0.234E+00 -.698E-01   0.517E-05 0.130E-05 0.998E-06
   -.132E+02 0.845E+01 -.118E+03   0.132E+02 -.852E+01 0.118E+03   -.193E+00 0.231E+00 -.514E-01   0.123E-05 -.400E-05 0.117E-05
   -.817E+01 -.676E+01 -.560E+02   0.859E+01 0.676E+01 0.559E+02   0.135E+00 -.110E+00 -.998E-02   0.703E-05 -.338E-05 0.730E-06
   -.226E+02 -.141E+02 -.114E+03   0.230E+02 0.146E+02 0.114E+03   0.154E+00 0.399E+00 0.764E-01   0.500E-05 -.137E-05 0.892E-06
   0.127E+00 0.921E+01 -.995E+01   -.312E+00 -.946E+01 0.965E+01   -.134E+00 -.138E-01 0.461E+00   0.331E-05 0.138E-05 0.108E-05
   -.129E+02 0.136E+02 -.639E+02   0.130E+02 -.146E+02 0.640E+02   0.121E+00 -.295E+00 -.345E+00   0.530E-05 -.311E-05 0.620E-06
   0.460E+01 -.744E+01 0.169E+02   -.480E+01 0.781E+01 -.172E+02   -.639E-01 0.259E+00 0.540E+00   0.516E-05 -.340E-05 0.411E-06
   -.128E+02 -.132E+02 -.613E+02   0.124E+02 0.137E+02 0.617E+02   -.170E+00 0.152E+00 0.153E-01   0.137E-05 -.335E-05 0.122E-05
   0.875E+01 0.947E+01 0.435E+02   -.840E+01 -.967E+01 -.438E+02   0.108E+00 0.162E+00 -.275E+00   0.433E-05 0.167E-05 -.158E-05
   0.243E+01 0.107E+02 0.103E+02   -.233E+01 -.110E+02 -.107E+02   0.459E+00 0.220E+00 0.697E+00   -.173E-05 -.500E-06 0.581E-06
   0.139E+02 -.786E+01 0.635E+02   -.142E+02 0.819E+01 -.635E+02   -.324E+00 -.231E-01 0.114E+00   -.137E-05 -.160E-05 -.715E-06
   -.130E+02 -.167E+02 -.304E+02   0.132E+02 0.176E+02 0.308E+02   -.267E+00 -.162E+00 -.644E+00   -.507E-05 -.123E-05 0.233E-07
   0.224E+02 0.107E+02 0.101E+03   -.225E+02 -.108E+02 -.101E+03   -.161E+00 0.237E-01 -.262E+00   -.327E-05 0.264E-05 -.181E-05
   0.688E+01 0.868E+01 0.448E+02   -.715E+01 -.907E+01 -.449E+02   -.903E-01 -.346E+00 0.157E+00   -.688E-05 0.128E-05 -.786E-06
   0.211E+02 -.695E+01 0.131E+03   -.209E+02 0.727E+01 -.131E+03   0.257E+00 -.142E+00 0.422E+00   -.434E-05 0.583E-06 -.143E-05
   -.617E+00 -.132E+02 0.501E+02   0.677E+00 0.139E+02 -.498E+02   0.779E-01 -.909E-01 0.199E-01   -.813E-05 0.189E-05 -.585E-06
   0.218E+02 0.103E+02 0.169E+03   -.221E+02 -.104E+02 -.169E+03   0.116E+00 -.211E-01 0.466E+00   -.455E-05 0.144E-05 -.137E-05
   0.555E+01 0.109E+02 0.117E+03   -.574E+01 -.108E+02 -.117E+03   -.940E-01 0.126E+00 0.381E+00   -.994E-05 0.646E-05 -.946E-06
   0.814E+01 -.115E+02 0.168E+03   -.783E+01 0.117E+02 -.168E+03   0.464E+00 0.834E-01 -.322E+00   -.930E-05 0.183E-05 -.469E-06
   -.130E+02 -.715E+01 0.930E+02   0.132E+02 0.771E+01 -.925E+02   0.359E+00 -.246E-01 -.200E+00   -.538E-05 0.429E-05 -.406E-06
   -.230E+01 0.876E+01 0.199E+03   0.191E+01 -.932E+01 -.200E+03   0.684E+00 -.320E+00 -.266E+00   -.658E-05 -.957E-06 -.129E-06
   -.109E+02 0.596E+02 0.163E+03   0.800E+01 -.602E+02 -.164E+03   0.922E+00 0.145E+01 0.810E+00   -.982E-06 0.428E-05 -.124E-05
   -.190E+02 -.607E+02 0.234E+03   0.165E+02 0.611E+02 -.235E+03   0.118E+01 -.157E+01 0.132E+01   -.211E-05 0.167E-05 0.152E-06
   -.449E+01 0.622E+02 0.167E+03   0.753E+01 -.632E+02 -.167E+03   -.122E+01 0.156E+01 0.788E+00   0.328E-05 -.492E-05 -.177E-05
   -.462E+00 -.585E+02 0.717E+02   0.377E+01 0.596E+02 -.716E+02   -.115E+01 -.169E+01 0.116E+00   0.135E-05 -.246E-05 -.166E-05
   -.785E+01 -.692E+01 0.126E+03   0.848E+01 0.741E+01 -.126E+03   -.457E+00 0.598E+00 -.271E+00   -.190E-06 -.241E-05 -.295E-05
   0.181E+02 0.261E+01 -.850E+00   -.183E+02 -.327E+01 0.175E+01   -.657E+00 -.711E+00 -.104E+01   0.527E-06 0.153E-05 -.878E-06
   0.158E+01 0.152E+02 0.641E+02   -.222E+01 -.159E+02 -.641E+02   -.411E+00 -.137E+00 -.472E+00   0.982E-05 -.313E-05 0.150E-06
   0.112E+02 -.741E+01 -.376E+01   -.112E+02 0.765E+01 0.378E+01   -.488E-01 0.156E+00 0.317E+00   0.133E-04 -.237E-05 0.294E-05
   -.152E+02 -.978E+01 0.857E+02   0.156E+02 0.984E+01 -.860E+02   -.934E-01 0.507E-01 0.374E+00   0.680E-05 -.341E-05 -.103E-05
   0.206E+02 0.507E+01 -.635E+02   -.202E+02 -.496E+01 0.640E+02   0.287E+00 0.338E+00 -.444E+00   0.112E-04 0.363E-05 0.321E-05
   0.122E+01 0.783E+01 0.199E+02   -.144E+01 -.805E+01 -.199E+02   0.218E+00 -.213E-01 0.135E+00   0.404E-05 0.255E-05 0.122E-05
   0.232E+02 -.678E+01 -.746E+02   -.236E+02 0.702E+01 0.747E+02   -.226E+00 0.433E-02 -.400E+00   0.460E-05 0.108E-05 0.245E-05
   -.618E+01 -.130E+02 0.224E+02   0.641E+01 0.134E+02 -.227E+02   0.192E+00 -.307E+00 0.246E+00   0.279E-05 0.143E-07 0.543E-06
   0.288E+02 0.924E+01 -.110E+03   -.287E+02 -.924E+01 0.110E+03   0.612E-01 0.177E+00 0.205E+00   0.196E-05 0.290E-05 0.290E-05
   0.114E+02 0.975E+01 -.454E+02   -.114E+02 -.100E+02 0.456E+02   0.157E+00 -.267E-01 -.149E+00   0.705E-06 0.328E-05 0.202E-05
   0.291E+02 -.667E+01 -.126E+03   -.294E+02 0.665E+01 0.126E+03   -.673E-01 -.292E+00 -.304E+00   0.149E-05 0.102E-05 0.276E-05
   0.655E+01 -.137E+02 -.363E+02   -.673E+01 0.142E+02 0.360E+02   -.161E+00 0.402E-01 0.324E+00   -.182E-05 0.193E-05 0.110E-05
   0.256E+02 0.107E+02 -.165E+03   -.253E+02 -.109E+02 0.166E+03   0.100E+00 0.387E+00 -.373E+00   0.176E-05 0.411E-05 0.232E-05
   0.145E+02 0.117E+02 -.109E+03   -.144E+02 -.121E+02 0.109E+03   0.358E+00 -.156E+00 -.406E+00   -.226E-05 0.646E-05 0.146E-05
   0.194E+02 -.138E+02 -.159E+03   -.195E+02 0.143E+02 0.160E+03   -.178E+00 0.273E-01 -.318E-02   -.289E-06 0.432E-05 0.168E-05
   0.913E+01 -.144E+02 -.998E+02   -.938E+01 0.150E+02 0.997E+02   -.644E-01 -.259E+00 -.328E+00   -.584E-06 0.813E-05 0.134E-05
   0.114E+02 0.132E+02 -.172E+03   -.113E+02 -.136E+02 0.172E+03   0.114E-02 -.272E-01 0.709E-01   0.154E-05 -.368E-07 0.337E-06
   -.106E+01 0.690E+01 -.134E+03   0.132E+01 -.684E+01 0.134E+03   -.692E-01 0.577E-02 -.327E+00   0.240E-05 0.110E-04 0.119E-05
   0.836E+00 -.120E+02 -.179E+03   -.750E+00 0.122E+02 0.179E+03   -.708E-01 -.184E+00 -.220E+00   0.196E-05 0.363E-05 -.302E-07
   -.640E+01 -.180E+02 -.930E+02   0.655E+01 0.190E+02 0.928E+02   0.940E-01 0.502E+00 0.378E+00   0.421E-05 0.102E-04 0.107E-05
   -.761E+01 0.154E+02 -.190E+03   0.745E+01 -.158E+02 0.190E+03   -.246E+00 -.834E-01 -.154E+00   -.159E-05 -.175E-05 -.557E-06
   -.928E+01 0.879E+01 -.108E+03   0.906E+01 -.892E+01 0.108E+03   0.210E-01 -.521E-01 0.695E-01   0.189E-05 0.550E-05 0.169E-05
   -.176E+02 -.651E+01 -.180E+03   0.175E+02 0.643E+01 0.180E+03   -.212E+00 -.203E+00 -.421E+00   -.157E-05 -.119E-06 0.905E-06
   -.108E+02 -.112E+02 -.629E+02   0.109E+02 0.116E+02 0.627E+02   -.135E+00 -.137E+00 -.249E+00   0.203E-05 0.252E-05 0.111E-05
   -.302E+02 0.123E+02 -.168E+03   0.304E+02 -.128E+02 0.168E+03   -.569E-01 0.116E+00 -.574E+00   0.179E-05 -.733E-06 0.105E-05
   -.127E+02 0.120E+02 -.536E+02   0.129E+02 -.125E+02 0.538E+02   -.197E+00 -.292E+00 -.198E+00   0.445E-05 0.236E-05 0.531E-06
   -.261E+02 -.102E+02 -.124E+03   0.262E+02 0.106E+02 0.124E+03   0.112E+00 -.171E+00 0.131E+00   0.530E-05 0.105E-05 0.650E-06
   0.987E+01 -.127E+02 0.288E+02   -.103E+02 0.129E+02 -.291E+02   0.207E+00 -.128E+00 0.655E+00   0.299E-05 0.974E-07 -.562E-06
   -.311E+02 0.114E+02 -.122E+03   0.315E+02 -.119E+02 0.122E+03   -.206E+00 0.174E-01 -.719E+00   0.315E-05 0.193E-05 0.866E-07
   0.404E+01 0.746E+01 0.267E+02   -.377E+01 -.765E+01 -.267E+02   0.999E-01 0.404E+00 0.265E-03   0.268E-06 0.307E-05 -.252E-06
   -.210E+02 -.532E+01 -.767E+02   0.209E+02 0.571E+01 0.769E+02   -.289E+00 0.380E+00 -.142E+00   -.264E-05 0.800E-07 0.579E-06
   0.223E+02 -.154E+02 0.102E+03   -.225E+02 0.158E+02 -.103E+03   0.128E+00 -.164E+00 0.857E+00   -.249E-05 0.519E-06 -.105E-05
   -.165E+02 0.106E+02 -.674E+02   0.163E+02 -.112E+02 0.678E+02   -.179E+00 -.390E+00 -.446E+00   -.688E-05 0.326E-06 0.818E-06
   0.135E+02 0.774E+01 0.836E+02   -.136E+02 -.793E+01 -.834E+02   -.163E+00 0.190E+00 0.440E-01   -.601E-05 -.106E-05 -.821E-06
   -.567E+01 -.348E+01 -.321E+01   0.575E+01 0.363E+01 0.318E+01   0.365E+00 0.738E-01 0.112E+00   -.684E-05 -.349E-05 -.417E-06
   0.145E+02 -.112E+02 0.131E+03   -.145E+02 0.113E+02 -.132E+03   0.626E-01 -.231E+00 -.488E-01   -.752E-05 -.183E-05 -.891E-06
   -.857E+01 0.903E+01 -.591E+01   0.841E+01 -.961E+01 0.632E+01   0.104E-01 -.145E+00 -.466E+00   -.847E-05 -.151E-05 -.438E-06
   0.375E+01 0.101E+02 0.128E+03   -.341E+01 -.101E+02 -.128E+03   0.961E-01 0.361E+00 0.342E+00   -.121E-04 -.144E-05 0.553E-06
   -.869E+01 -.286E+01 0.214E+02   0.894E+01 0.270E+01 -.214E+02   0.767E-01 0.316E+00 -.511E+00   -.118E-04 -.488E-05 -.250E-06
   -.299E+01 -.840E+01 0.193E+03   0.261E+01 0.874E+01 -.194E+03   0.429E+00 0.483E+00 0.102E+01   -.804E-05 -.563E-05 0.223E-06
   -.139E+02 -.178E+00 0.229E+02   0.134E+02 -.109E+00 -.221E+02   0.419E+00 -.725E+00 -.629E+00   -.737E-05 0.279E-06 0.237E-06
   -.156E+02 0.632E+02 0.175E+03   0.126E+02 -.644E+02 -.175E+03   0.118E+01 0.146E+01 0.368E+00   -.410E-05 -.572E-05 -.909E-06
   -.910E+01 -.581E+02 0.800E+02   0.609E+01 0.594E+02 -.804E+02   0.129E+01 -.147E+01 0.346E+00   -.497E-05 0.486E-06 -.460E-06
 -----------------------------------------------------------------------------------------------
   0.104E+00 -.975E-01 -.197E+01   -.773E-13 -.568E-13 -.995E-13   -.614E-01 0.273E+00 0.190E+01   -.203E-05 0.334E-06 0.261E-04
 
 
 POSITION                                       TOTAL-FORCE (eV/Angst)
 -----------------------------------------------------------------------------------
     23.49970      6.74540     -4.08000         1.991519      1.643735      0.027959
     23.54090      0.04906     -4.27000         1.126306     -1.799503      0.048166
     24.65810      6.09937     -3.65000        -0.013474      1.504436     -0.018932
     24.74900      0.69427     -4.03000        -0.212338     -0.441602      0.036242
     25.91150      6.76779     -3.47000        -0.439982     -0.170991      0.449319
     25.95810      0.02738     -3.66000        -0.137436     -0.246816     -0.495023
     27.04530      6.12364     -2.90000        -0.241988     -0.512821     -0.325150
     27.16890      0.68700     -3.35000         0.413595      0.075676      0.190645
      0.21459      6.77261     -2.65000         0.804502     -0.607386      0.685614
      0.30434      0.01602     -2.92000        -0.625422      0.571871      0.006316
      1.35759      6.11511     -2.05000        -0.905563      0.295460     -0.921942
      1.47062      0.70083     -2.52000         0.489725     -0.569867      0.006060
      2.58172      6.77196     -1.83000         0.168989     -0.596483      0.429612
      2.63976      0.01994     -2.07000        -0.237762      0.477238     -0.325854
      3.74865      6.09909     -1.36000         0.309808      0.709983     -0.153216
      3.84380      0.68491     -1.79000         0.286446     -0.038484      0.137448
      4.99879      6.76386     -1.22000         0.496926     -0.020302     -0.282325
      5.05277      0.02816     -1.47000        -0.767185     -0.942606      0.042126
      6.24482      6.09474     -0.97000        -0.657866      0.539743     -0.101720
      6.27286      0.69052     -1.33000         0.022128     -0.148548      0.431976
      7.48966      6.75245     -1.00000         0.691645     -0.241842      0.080492
      7.48671      0.01620     -1.17000         0.388037     -0.473917     -0.178938
      8.76862      6.09117     -0.93000        -0.740708      0.635285     -0.116420
      8.72874      0.66690     -1.23000         0.151498     -0.332653     -0.214234
      9.99536      6.74365     -1.19000        -0.211031      0.159254     -0.170754
      9.95865      0.00723     -1.38000         0.551027     -0.116181     -0.142219
     11.22750      6.07927     -1.36000         0.520873      0.982200      0.137578
     11.16730      0.67631     -1.70000        -0.319168     -0.267184      0.154048
     12.41090      6.75610     -1.79000         0.278888     -1.251657     -0.265018
     12.36560      8.09821     -2.02000        -0.262468      0.635810      0.268790
     13.64870      6.08753     -2.06000        -0.548578      0.655411      0.375157
     13.53850      0.67396     -2.41000         0.458424     -0.037735     -0.555772
     14.78630      6.75106     -2.57000         0.557420     -0.095893      0.341100
     14.74640      0.01146     -2.77000        -0.609856      0.305073      0.070995
     16.03320      6.10861     -2.78000        -0.059953      0.747285     -0.313768
     15.91470      0.68600     -3.20000        -0.256337     -0.088219     -0.378698
     17.18550      6.78165     -3.29000        -0.356026     -0.742755      0.086755
     17.11450      0.02914     -3.54000         0.408483      0.172049      0.012415
     18.40390      6.11099     -3.52000         0.136972      0.541666      0.263768
     18.31600      0.69617     -3.91000        -0.210563     -0.159215      0.073517
     19.59690      6.76723     -3.92000        -0.284465      0.175953      0.166540
     19.54790      0.02621     -4.11000         0.772094      0.265924     -0.430771
     20.84730      6.11844     -3.97000         0.515809      0.540976      0.265222
     20.80200      0.70041     -4.34000         0.288486     -0.881325     -0.421602
     22.05360      6.76702     -4.22000        -1.957329      0.875307     -0.213486
     22.04340      0.05165     -4.43000        -1.289822     -1.249938      0.316628
     23.50990      2.71434     -4.07000         1.829745      0.609092      0.736846
     23.47850      4.08018     -3.82000         2.160647     -0.573191      0.299802
     24.71670      2.05290     -3.87000         0.168449      1.085679     -0.312982
     24.64420      4.75462     -3.47000        -0.899709     -1.373382     -0.143088
     25.91070      2.72582     -3.41000        -1.058662     -0.820986     -0.494405
     25.84690      4.07055     -3.19000        -0.064116      0.390688      0.339645
     27.13330      2.06233     -3.20000         0.230493      0.108911      0.098690
     27.00410      4.74028     -2.75000         0.618486      0.441463      0.020147
      0.22200      2.72568     -2.68000         0.002774     -0.239520      0.169213
      0.16055      4.07360     -2.40000        -0.659630      0.237753     -0.295088
      1.43552      2.06914     -2.40000         0.420470      0.075300     -0.016338
      1.32869      4.73854     -1.97000         0.184628      0.170379      0.436311
      2.59131      2.72020     -1.89000         0.160718     -0.270502      0.059343
      2.54135      4.07519     -1.64000        -0.310547     -0.322810     -0.159793
      3.82413      2.05151     -1.67000        -0.346060      0.523668     -0.051132
      3.73682      4.72400     -1.27000         0.409896      0.230692      0.039386
      5.00742      2.71094     -1.26000         0.432555     -0.607362     -0.152894
      4.99101      4.06381     -1.08000        -0.244877      0.572237      0.132155
      6.26340      2.05045     -1.17000        -0.317288      0.395152     -0.444143
      6.24043      4.72688     -0.90000         0.112869     -0.493507      0.300096
      7.50185      2.69803     -1.00000         0.191360      0.060503     -0.022971
      7.50748      4.06671     -0.84000         0.014822      0.077600     -0.076440
      8.74063      2.02029     -1.15000         0.244919      1.514101      0.129126
      8.77884      4.72782     -0.84000        -0.403911     -0.579182      0.083769
      9.99396      2.69701     -1.21000        -0.200161     -0.186252      0.264937
     10.02880      4.06147     -1.00000        -0.398700     -0.284168     -0.176326
     11.19770      2.04273     -1.56000        -0.093633      0.236177     -0.371720
     11.26050      4.72041     -1.22000         0.194378     -0.363572     -0.154962
     12.42010      2.71568     -1.81000        -0.032548     -0.746665     -0.052431
     12.46680      4.06386     -1.59000         0.204161      0.260290      0.214185
     13.56100      2.05048     -2.34000        -0.226489      0.064054      0.315811
     13.68510      4.72525     -1.90000         0.191592     -0.508267     -0.320511
     14.77480      2.70401     -2.63000         0.364394      0.210562      0.052038
     14.86440      4.04769     -2.34000        -0.368569      0.766868      0.019823
     15.92430      2.06035     -3.16000        -0.004979      0.148402      0.363220
     16.06100      4.74669     -2.67000        -0.379218     -1.031851     -0.059425
     17.15700      2.72328     -3.39000        -0.284082     -0.002817      0.255740
     17.21070      4.07310     -3.12000         0.444948      0.228299      0.085587
     18.33900      2.07219     -3.80000         0.006564     -0.179488     -0.366223
     18.42530      4.75110     -3.37000        -0.150806     -0.727072     -0.051919
     19.58350      2.72308     -3.95000         0.435021      0.349214      0.329512
     19.62600      4.07012     -3.65000         0.326003      0.150623     -0.453728
     20.81320      2.06506     -4.27000         0.047646      0.827269      0.331573
     20.85770      4.76499     -3.78000         0.000774     -1.014327      0.084113
     22.03860      2.72256     -4.20000        -1.723310      0.286077      0.027016
     22.04240      4.07797     -3.94000        -1.715295     -0.172541     -0.090212
 -----------------------------------------------------------------------------------
    total drift:                                0.042775      0.175486     -0.076675


--------------------------------------------------------------------------------------------------------



  FREE ENERGIE OF THE ION-ELECTRON SYSTEM (eV)
  ---------------------------------------------------
  free  energy   TOTEN  =      -832.85412313 eV

  energy  without entropy=     -832.78713549  energy(sigma->0) =     -832.82062931
 


--------------------------------------------------------------------------------------------------------


    POTLOK:  cpu time      0.4541: real time      0.4540


--------------------------------------------------------------------------------------------------------


     LOOP+:  cpu time    318.2269: real time    318.4342
    4ORBIT:  cpu time      0.0000: real time      0.0000

 total amount of memory used by VASP MPI-rank0  2294533. kBytes
=======================================================================

   base                                    :      30000. kBytes
   nonlr-proj                              :      15099. kBytes
   fftplans                                :     436558. kBytes
   grid                                    :     732614. kBytes
   one-center                              :        282. kBytes
   wavefun                                 :    1079980. kBytes
 
  
  
 General timing and accounting informations for this job:
 ========================================================
  
                  Total CPU time used (sec):      351.443
                            User time (sec):      343.389
                          System time (sec):        8.054
                         Elapsed time (sec):      351.726
  
                   Maximum memory used (kb):     3733024.
                   Average memory used (kb):          N/A
  
                          Minor page faults:      3092817
                          Major page faults:         5045
                 Voluntary context switches:         9747
