50
Lattice="12.340151 0.0 0.0 -6.170077 10.686884 0.0 0.0 0.0 50.0" Properties=species:S:1:pos:R:3:force:R:3 virial="-6.34125 0.0 0.0 0.0 -6.34125 0.0 0.0 0.0 -0.24799" energy=-465.856109 pbc="T T T"
C       -0.00000000       1.42492000      15.00085000      -0.00000000      -0.00000000       0.00000000
C        1.23402000       0.71246000      15.00085000       0.00000000       0.00000000       0.00000000
C       -1.23402000       3.56230000      15.00085000       0.00000000      -0.00000000       0.00000000
C        0.00000000       2.84984000      15.00085000      -0.00000000       0.00000000      -0.00000000
C       -2.46803000       5.69967000      15.00085000       0.00000000       0.00000000      -0.00000000
C       -1.23401000       4.98721000      15.00085000      -0.00000000      -0.00000000       0.00000000
C       -3.70205000       7.83705000      15.00085000      -0.00000000       0.00000000       0.00000000
C       -2.46803000       7.12459000      15.00085000       0.00000000      -0.00000000       0.00000000
C       -4.93606000       9.97443000      15.00085000      -0.00000000      -0.00000000      -0.00000000
C       -3.70205000       9.26197000      15.00085000       0.00000000      -0.00000000      -0.00000000
C        2.46803000       1.42492000      15.00085000      -0.00000000      -0.00000000       0.00000000
C        3.70205000       0.71246000      15.00085000       0.00000000       0.00000000       0.00000000
C        1.23401000       3.56230000      15.00085000       0.00000000      -0.00000000       0.00000000
C        2.46803000       2.84984000      15.00085000      -0.00000000       0.00000000      -0.00000000
C       -0.00000000       5.69967000      15.00085000       0.00000000       0.00000000      -0.00000000
C        1.23402000       4.98721000      15.00085000      -0.00000000      -0.00000000       0.00000000
C       -1.23402000       7.83705000      15.00085000      -0.00000000       0.00000000       0.00000000
C        0.00000000       7.12459000      15.00085000       0.00000000      -0.00000000       0.00000000
C       -2.46803000       9.97443000      15.00085000      -0.00000000      -0.00000000      -0.00000000
C       -1.23402000       9.26197000      15.00085000       0.00000000      -0.00000000      -0.00000000
C        4.93606000       1.42492000      15.00085000      -0.00000000      -0.00000000       0.00000000
C        6.17008000       0.71246000      15.00085000       0.00000000       0.00000000       0.00000000
C        3.70204000       3.56230000      15.00085000       0.00000000       0.00000000       0.00000000
C        4.93606000       2.84984000      15.00085000       0.00000000       0.00000000      -0.00000000
C        2.46803000       5.69967000      15.00085000       0.00000000       0.00000000      -0.00000000
C        3.70205000       4.98721000      15.00085000       0.00000000      -0.00000000       0.00000000
C        1.23401000       7.83705000      15.00085000      -0.00000000       0.00000000       0.00000000
C        2.46803000       7.12459000      15.00085000      -0.00000000      -0.00000000       0.00000000
C       -0.00000000       9.97443000      15.00085000      -0.00000000      -0.00000000      -0.00000000
C        1.23402000       9.26197000      15.00085000       0.00000000      -0.00000000      -0.00000000
C        7.40409000       1.42492000      15.00085000      -0.00000000      -0.00000000      -0.00000000
C        8.63811000       0.71246000      15.00085000       0.00000000       0.00000000      -0.00000000
C        6.17007000       3.56230000      15.00085000       0.00000000      -0.00000000       0.00000000
C        7.40409000       2.84984000      15.00085000       0.00000000       0.00000000      -0.00000000
C        4.93606000       5.69967000      15.00085000       0.00000000       0.00000000       0.00000000
C        6.17008000       4.98721000      15.00085000      -0.00000000      -0.00000000       0.00000000
C        3.70204000       7.83705000      15.00085000      -0.00000000       0.00000000       0.00000000
C        4.93606000       7.12459000      15.00085000      -0.00000000      -0.00000000       0.00000000
C        2.46803000       9.97443000      15.00085000      -0.00000000      -0.00000000      -0.00000000
C        3.70205000       9.26197000      15.00085000       0.00000000      -0.00000000      -0.00000000
C        9.87212000       1.42492000      15.00085000      -0.00000000      -0.00000000       0.00000000
C       11.10614000       0.71246000      15.00085000       0.00000000       0.00000000      -0.00000000
C        8.63810000       3.56230000      15.00085000       0.00000000      -0.00000000       0.00000000
C        9.87212000       2.84984000      15.00085000      -0.00000000       0.00000000      -0.00000000
C        7.40409000       5.69967000      15.00085000       0.00000000       0.00000000       0.00000000
C        8.63811000       4.98721000      15.00085000      -0.00000000      -0.00000000       0.00000000
C        6.17007000       7.83705000      15.00085000      -0.00000000       0.00000000       0.00000000
C        7.40409000       7.12459000      15.00085000       0.00000000      -0.00000000       0.00000000
C        4.93606000       9.97443000      15.00085000      -0.00000000      -0.00000000      -0.00000000
C        6.17008000       9.26197000      15.00085000       0.00000000      -0.00000000      -0.00000000
32
Lattice="9.601134 0.0 -0.0 -4.649598 8.32691 0.0 0.027068 0.529901 48.604891" Properties=species:S:1:pos:R:3:force:R:3 virial="71.24086 -11.61265 -1.33369 -11.61265 87.60913 -3.47208 -1.33369 -3.47208 -1.84009" energy=-286.128488 pbc="T T T"
C        0.09966000       1.57406000      14.58915000      -5.05518500      -4.34840800      -0.18306000
C        1.25638000       0.83204000      14.59938000      -2.94754800      -0.24991600      -0.75853100
C       -1.14089000       3.54898000      14.58483000      -6.01138000       1.50943900      -0.57069500
C       -0.03203000       2.90327000      14.54943000       8.09300300       0.06874100       1.00892200
C       -2.23930000       5.71563000      14.53837000      -2.61234300      -4.46827200       1.13044200
C       -1.08346000       4.89998000      14.59233000       0.14287700       5.84080500      -0.24377000
C       -3.47652000       7.76414000      14.51641000       8.17997700       7.32214100       0.86116200
C       -2.33130000       7.09392000      14.68334000       2.29127800      -3.65624700      -1.79027400
C        2.40080000       1.48791000      14.55706000       4.70871600       4.01685200      -0.51344400
C        3.62818000       0.84986000      14.52330000      -1.20477900      -1.97300300       0.99320600
C        1.24669000       3.62907000      14.66501000       0.43088600      -1.57424900      -2.01193000
C        2.48788000       2.93429000      14.50158000      -1.91364700       0.11672800       1.63110100
C        0.13569000       5.67915000      14.59886000      -2.27547500       1.55021200      -0.07023800
C        1.27238000       5.00621000      14.57930000       3.46654600      -0.11572500       1.27630200
C       -1.15414000       7.69747000      14.54495000       6.83063000       6.06381900       0.45909600
C        0.20650000       7.15023000      14.57567000     -12.21879900      -7.90984100      -0.08413000
C        4.82753000       1.64086000      14.69028000       0.57074900     -13.85257800      -2.13991400
C        6.06340000       0.91191000      14.48268000      -3.80509700      -2.83999600       2.91636100
C        3.71641000       3.65901000      14.56624000      -0.75549400      -3.16173700      -0.00581400
C        4.89388000       2.85225000      14.61871000      -1.14917600      14.84048900      -0.31484000
C        2.52874000       5.74183000      14.67047000      -1.69064200      -5.90625500      -0.48563800
C        3.71679000       5.02651000      14.62054000       0.92116300       2.37533300      -0.38642200
C        1.28218000       7.74454000      14.59020000      10.81093500       7.55430600      -0.43528600
C        2.55164000       7.02738000      14.66408000      -0.74304600       6.35137000      -0.52565800
C        7.19808000       1.65120000      14.70786000      -0.25632800      -9.07144100      -1.61288200
C        8.32715000       0.84571000      14.59462000       5.13069800       2.82634800       0.59738000
C        6.10825000       3.69624000      14.58199000      -5.18323600     -14.05987800       0.08155300
C        7.14543000       2.90157000      14.54023000       7.60678200       6.47149900       0.65866400
C        4.87963000       5.81283000      14.52369000       3.27766300      -3.56854500       1.31818400
C        6.11552000       4.88602000      14.55508000      -0.52178000      19.63723300      -0.87125300
C        3.74771000       7.82015000      14.59283000      -1.10581700      -0.17223100       0.67672900
C        5.03437000       7.25442000      14.62389000     -13.01212900      -9.61699300      -0.60532000
32
Lattice="10.0495 0.0 -0.0 -4.845027 8.70958 0.0 0.613445 1.164133 49.784177" Properties=species:S:1:pos:R:3:force:R:3 virial="-27.55365 -15.93153 3.33994 -15.93153 -20.00521 0.10583 3.33994 0.10583 -2.39132" energy=-289.247151 pbc="T T T"
C        0.15523000       1.76181000      15.01996000       2.85251700       5.24645100      -1.12981100
C        1.38442000       1.14661000      15.00929000       3.03808500      -4.61793400      -1.45876100
C       -0.98655000       4.06614000      14.97402000      -1.02207400      -3.65300300      -0.49824800
C        0.25638000       3.36129000      14.88765000      -0.34274100      -3.69292800       1.77831800
C       -2.12200000       6.21470000      14.94042000      -4.24952400      -2.69011200      -0.05242800
C       -0.97362000       5.43817000      14.96623000       1.28497000       3.41338400       0.07148700
C       -3.43984000       8.22655000      14.87262000      -2.07869800       5.66412400       0.86548000
C       -2.16969000       7.66429000      14.92231000      -0.84961500      -3.69491300       0.12543900
C        2.72468000       1.81531000      14.87337000      -2.30906700      -3.69435700       1.36712900
C        3.91193000       1.09036000      14.98426000       2.92954500      -3.12358400      -0.91447800
C        1.58873000       3.90374000      14.97736000      -4.09751600       4.03630800      -0.86490200
C        2.76925000       3.15436000      14.92832000      -0.28389300       4.34002800       0.29359900
C        0.32214000       6.25338000      14.96198000      -0.10804700     -10.26681900       0.03197100
C        1.52945000       5.46557000      14.94220000       2.96862900      -2.23507300      -0.73467800
C       -0.94914000       8.28443000      14.99124000       3.24398100       3.12840800      -0.26965100
C        0.38532000       7.51129000      14.95654000      -1.52914800      11.62553800      -0.29790900
C        5.23781000       1.71109000      14.89761000      -0.07133800       4.52304100      -0.25215100
C        6.51040000       1.08722000      14.87585000      -0.69960400       0.61790800      -0.20016400
C        3.92824000       3.92936000      15.02226000       6.87522000       2.99673800      -1.93455700
C        5.32984000       3.35596000      14.82934000      -7.31949200      -6.71337300       1.83940000
C        2.81333000       6.13181000      14.78082000       0.29899700       2.77023800       2.97402200
C        4.12237000       5.46498000      14.92697000      -4.28696800      -2.00921300       0.62000300
C        1.67241000       8.40980000      14.86587000      -2.48502800      -3.52878500       1.39255000
C        2.82549000       7.69235000      15.02471000       3.28533200      -2.80524600      -3.34174000
C        7.78241000       1.80637000      14.86800000      -0.47273800      -0.75297800       0.36000000
C        9.06432000       1.05962000      14.88587000      -3.81789600       0.53496100      -0.10915400
C        6.52035000       3.93849000      14.96040000       1.47367000       2.62561000      -0.50255800
C        7.70543000       3.19906000      14.95811000       4.70709800       1.87754800      -0.24102500
C        5.34591000       6.21633000      15.06007000      -0.87595800      -5.01796900      -1.85758200
C        6.53645000       5.35881000      14.93671000       2.66272400       5.11487600       1.10691100
C        4.20115000       8.36746000      14.82644000      -6.84670100       0.59147400       1.44548500
C        5.25519000       7.59390000      14.88294000       8.12527800      -0.61034800       0.38800400
32
Lattice="9.698227 0.0 -0.0 -4.689206 8.525378 0.0 -0.595839 0.521197 48.694049" Properties=species:S:1:pos:R:3:force:R:3 virial="37.7876 -13.33647 0.75208 -13.33647 19.5488 -1.30446 0.75208 -1.30446 -1.88308" energy=-291.952988 pbc="T T T"
C       -0.20392000       1.64511000      14.66602000       3.98467300      -0.93144400      -0.16470300
C        1.04653000       0.87973000      14.63893000      -0.66203100      -0.49695200      -0.21754700
C       -1.46810000       3.76803000      14.62074000       8.91390700      -2.33801300       0.24789500
C       -0.04202000       3.06160000      14.67142000      -4.89284900      -0.59544100      -1.17406500
C       -2.51485000       5.76101000      14.72768000       0.38621100       1.80038700      -1.64058100
C       -1.29083000       5.12022000      14.67850000      -3.17091200      -0.85729700      -0.11724700
C       -3.66323000       7.90423000      14.64128000       1.40952400       2.83993400      -0.69953400
C       -2.38962000       7.16596000      14.59282000      -5.70472100       2.06896700       1.29488700
C        2.27347000       1.64719000      14.53833000      -3.64374200      -1.78651700       0.26826600
C        3.36876000       0.88471000      14.48628000       5.49104100       0.26306800       1.26690600
C        1.19266000       3.71293000      14.53793000      -5.59979300       4.51839900       1.59451400
C        2.30514000       3.02613000      14.56516000       3.55315000      -0.27670800       0.30029700
C       -0.10695000       5.78941000      14.58319000       0.03744300       4.38998000       0.71617200
C        1.10111000       5.21782000      14.67680000       3.24722200      -3.76519700      -1.12697600
C       -1.31139000       8.03568000      14.65888000       2.65909200      -3.87023000      -1.65775400
C       -0.08538000       7.25779000      14.56817000      -0.30115800       0.52406200       1.52446700
C        4.69484000       1.52502000      14.56508000      -1.47625100       2.46411300      -0.47096300
C        5.88967000       0.78209000      14.61558000      -0.40659400       6.63382100      -0.67703700
C        3.50920000       3.75875000      14.68496000      -0.47025200       1.34778300      -1.04234500
C        4.70540000       3.10773000      14.58788000      -1.41261900      -6.26596000       0.51371600
C        2.32133000       5.93733000      14.66628000      -0.40624900      -0.62870100       0.50936800
C        3.52113000       5.21719000      14.66057000      -0.35833500      -2.24488300      -0.67384800
C        1.14227000       7.96566000      14.70493000      -0.34536600      -1.29916300      -0.89327800
C        2.36736000       7.33887000      14.69724000       0.48525800      -2.57084400      -0.88432200
C        7.15161000       1.68315000      14.50092000      -2.12440900      -9.10076600       1.03492700
C        8.31435000       0.92472000      14.59903000      -0.13255700      -1.55691100      -0.59696900
C        5.88639000       3.72771000      14.67289000       3.19791300      -3.81940100      -1.20547500
C        7.15641000       2.97187000      14.54140000      -4.07712400       5.63260200       1.05150500
C        4.73759000       5.84452000      14.48616000       1.69104100      -0.05714600       1.50247500
C        5.95082000       5.02661000      14.56748000      -0.28538100       7.41633400       0.76083200
C        3.60499000       7.94406000      14.53025000      -1.11233400       4.98043100       1.38028600
C        4.78717000       7.27966000      14.58367000       1.52620100      -2.41831100      -0.72386600
50
Lattice="12.340151 0.0 0.0 -6.170077 10.686884 0.0 0.0 0.0 50.0" Properties=species:S:1:pos:R:3:force:R:3 virial="-23.85875 -2.80452 -0.47705 -2.80452 -18.23149 -2.47011 -0.47705 -2.47011 -7.65554" energy=-456.808568 pbc="T T T"
C       -0.04108000       1.39175000      15.08257000       2.01119000      -1.30389000       0.45329000
C        1.18490000       0.68398000      15.23517000       1.38946400       1.41968200       0.27480800
C       -1.20935000       3.46933000      15.20687000       1.15623200       2.10686800      -0.36982000
C        0.10060000       2.81386000      15.16792000      -5.58400600      -1.58900000      -0.30473700
C       -2.41651000       5.64311000      15.43621000      -0.45748000       3.19759600      -1.68017800
C       -1.09388000       4.93987000      15.24368000      -4.21770600      -1.19912000       0.88005700
C       -3.74599000       7.90696000      15.41225000       0.89334300      -1.78880600      -1.45451700
C       -2.44929000       7.14788000      15.47521000      -1.31004100      -0.95246800       0.43544400
C       -4.93635000       9.98111000      15.42942000      -2.72390600      -0.25194600      -1.97889000
C       -3.67826000       9.37386000      15.47647000      -3.91518400      -4.61788900      -0.05007000
C        2.47309000       1.41457000      15.17920000      -0.22931200       0.54461600       0.10411000
C        3.71501000       0.75620000      15.34780000      -2.41451500      -0.22557700      -0.48178100
C        1.26970000       3.49463000      15.08499000       4.96214700       2.61642600      -2.57027500
C        2.57897000       2.81668000      14.91538000      -4.05902500      -0.08064300       0.88414700
C        0.07925000       5.68875000      15.06045000       1.17775200      -1.60950700       0.04571100
C        1.38260000       4.92977000      14.78073000      -7.05212800      -0.58006300       2.03574100
C       -1.20451000       7.86271000      15.51317000       0.95534100      -1.27385400      -0.77917300
C        0.00717000       7.08475000      15.17342000       0.42662500       1.88230100      -0.40607300
C       -2.54977000      10.04337000      15.42277000       8.03767800      -0.26444500       1.64355100
C       -1.14252000       9.26461000      15.54850000      -2.71332500       3.15402600      -2.39940300
C        4.85099000       1.52561000      15.22369000       3.93868700      -0.48129600      -2.28208900
C        6.12177000       0.80468000      14.96403000       0.35644100       0.54301500       2.57194900
C        3.73739000       3.58629000      14.64383000      -2.92456400       0.97439400       0.23084500
C        4.90334000       2.91772000      14.82805000       1.32448000      -2.35052200       0.27146200
C        2.43919000       5.70042000      14.44285000       0.95779400      -0.62174900       0.84076800
C        3.62411000       4.99557000      14.39269000       5.08058300      -0.32742000       0.17398400
C        1.19450000       7.84765000      14.81631000      -0.80057500      -1.54882600       1.51585800
C        2.41970000       7.07601000      14.63894000       0.13966300       3.33300800      -1.86179900
C        0.02134000      10.09431000      15.12286000      -1.60408600      -3.88067300       0.71608100
C        1.16329000       9.25543000      14.88093000       3.29477400       1.33825500      -1.20064800
C        7.42791000       1.43186000      15.01474000      -1.56283300       0.81197300      -2.34017100
C        8.58062000       0.60691000      14.92920000       3.68776900       2.96231700      -1.15404400
C        6.13186000       3.53404000      14.62495000       3.78358100       2.65254900       1.68245100
C        7.45177000       2.89714000      14.80002000      -1.23159200      -1.49377000       1.06170200
C        4.92528000       5.71522000      14.43275000       0.14427900      -0.92008600       0.64356400
C        6.20312000       5.02041000      14.69956000      -2.46042400      -1.66087100      -2.54554100
C        3.65967000       7.79804000      14.49575000      -0.60749200       0.74395600       2.48601500
C        4.89365000       7.13835000      14.51267000      -0.65954100      -1.44999800      -0.22729700
C        2.53767000       9.91608000      14.67129000      -4.77100700      -0.16377800       2.98723200
C        3.71585000       9.19219000      14.91249000      -1.99902000      -0.66416900      -3.05344900
C        9.88789000       1.38646000      14.88567000      -2.62767900      -1.59224300       1.31402900
C       11.10002000       0.59777000      14.96833000      -1.22145300       5.67339200       0.43169800
C        8.68073000       3.61261000      15.01142000      -2.96814300       0.31508600      -0.30636000
C        9.81529000       2.79942000      15.08753000       4.06474500       0.67240500      -0.12400100
C        7.43933000       5.71213000      14.77432000      -1.75775800       3.39254700       1.46551600
C        8.58967000       5.08625000      15.14429000       5.26173500      -4.11685100      -0.06385000
C        6.03128000       7.84466000      14.84381000       5.50993900       0.89371500       0.53688900
C        7.37827000       7.18889000      14.91849000      -0.03836800      -0.22895200       1.36953000
C        4.86728000       9.93433000      15.05297000       3.44128100      -1.84853900      -0.14308300
C        6.13529000       9.24788000      15.11601000      -0.08436000      -0.14117600       0.72081800
32
Lattice="10.073406 -0.0 -0.0 -5.240299 8.359354 -0.0 -0.451979 1.408651 50.004374" Properties=species:S:1:pos:R:3:force:R:3 virial="-4.58766 19.33426 -0.53926 19.33426 52.45766 1.97645 -0.53926 1.97645 -1.19933" energy=-287.455912 pbc="T T T"
C       -0.20246000       1.83185000      14.99384000       0.50494800      -4.03304500       0.49928100
C        1.17035000       1.08850000      15.10767000      -4.52444700       1.94955300      -2.44820400
C       -1.53799000       3.87026000      15.00565000       4.93108200       3.14255800       0.16108600
C       -0.19408000       3.15306000      15.01945000      -0.13525500       4.41835800      -0.48808200
C       -2.89804000       5.99092000      15.08465000       7.26701400      -0.00811500      -0.71268300
C       -1.53729000       5.31074000      15.01055000      -0.51219400      -1.53826600       0.25613300
C       -4.15938000       8.06042000      14.90121000       5.35288700       1.10688700       1.86901000
C       -2.81172000       7.35301000      15.04349000      -3.08564900       2.44339200      -0.82327100
C        2.26684000       1.94071000      14.96610000       4.50580200     -15.12176900       1.17403900
C        3.72425000       1.11234000      15.04125000      -2.00302600       1.10553000      -0.15657500
C        1.11677000       3.90410000      14.96382000      -6.41972400       0.72902200       0.42997600
C        2.24010000       3.15741000      15.01555000       4.37134300      12.58450300      -0.06872600
C       -0.24198000       5.95775000      14.98017000      -3.27720100      -2.87232200       0.14727700
C        0.97926000       5.30913000      14.94505000       5.60287400      -0.63891000      -0.28128000
C       -1.58220000       8.07034000      15.02610000       0.92529400      -0.74675600       0.23603800
C       -0.30268000       7.28067000      15.03081000      -0.71561700       4.65671600      -0.09311800
C        5.03942000       1.75922000      15.10085000     -11.58089600       5.59424000      -0.10198600
C        6.06705000       1.05010000      15.03309000       9.82590400      -3.32950200      -0.12562900
C        3.51053000       3.94532000      15.02911000       2.60323800      -2.74890000      -0.17557700
C        4.85796000       3.25957000      15.08966000      -2.90541600      -2.71661100      -0.48260100
C        2.35140000       6.05210000      14.90929000      -5.06863500       0.72389800       1.17145800
C        3.59595000       5.37895000      14.95099000     -12.76660100      -8.07954300      -0.53094500
C        0.90091000       7.97439000      15.02030000       0.36571100       3.74627400       0.45685200
C        2.23463000       7.50443000      15.07678000      -2.72586700      -7.88364300      -1.35239100
C        7.42468000       1.75218000      15.01458000      -8.44531400       4.87028000       0.45686900
C        8.51743000       1.13077000      14.93282000      10.38372300      -2.86802200       0.33051200
C        6.05379000       3.89115000      14.98703000       3.48866000      -0.22166100       0.72618900
C        7.38212000       3.24291000      15.07165000      -4.42696600      -4.86511600      -0.84168900
C        4.67016000       5.89545000      15.08490000      15.73753500       9.80779200      -0.54705200
C        6.09101000       5.24421000      14.98463000      -7.04789100       1.23615800       0.90400200
C        3.42035000       8.06898000      14.97919000       3.45692000       3.93768500      -0.05271300
C        4.72696000       7.43666000      14.97047000      -3.68223800      -4.38066600       0.46380000
32
Lattice="9.810357 0.0 0.0 -5.049679 8.691558 -0.0 0.242738 0.117179 50.207249" Properties=species:S:1:pos:R:3:force:R:3 virial="13.82986 11.4035 -0.46513 11.4035 -12.67537 1.08553 -0.46513 1.08553 -1.32154" energy=-291.246774 pbc="T T T"
C        0.08509000       1.47680000      15.05402000      -2.59397600       0.16590900      -0.37967400
C        1.25499000       0.70563000      15.03868000       3.64811800       1.60244400      -0.11129100
C       -1.27774000       3.65134000      15.07994000      -0.52270500       0.11995700      -0.26277600
C       -0.06171000       2.95705000      15.06531000       4.21194700      -0.91786800      -0.32716200
C       -2.42448000       5.83392000      15.10974000      -6.54708700       1.96227300      -0.69809900
C       -1.31964000       5.13586000      15.09492000       6.22662000      -3.20723100       0.34060500
C       -3.65445000       7.87188000      14.99349000      -6.08803800       6.09610400       0.60561100
C       -2.49027000       7.30332000      15.07618000       4.90109800      -2.66557800      -0.51330400
C        2.53157000       1.58766000      15.05993000      -0.53378800     -11.56424200       0.11794300
C        3.80928000       0.72228000      15.08349000      -1.33063600       8.11872700      -0.94299600
C        1.21955000       3.59885000      15.01747000      -0.06166800       2.11466700       1.11375300
C        2.52913000       2.86169000      15.08191000      -3.96360600       7.86925000      -0.67713900
C        0.02590000       5.84193000      15.12613000      -5.30396100       0.71706800      -0.44560800
C        1.19741000       5.14465000      15.10134000      -1.63011600      -4.66541200      -0.56006700
C       -1.27928000       8.12353000      14.99592000      -0.34845900      -8.52113200       1.08407800
C       -0.06487000       7.28034000      15.07064000      -0.31611600       1.61690700      -0.40182600
C        5.02474000       1.51832000      15.01935000      -3.43028200      -0.80358200       1.56649800
C        6.19536000       0.77576000      15.17493000      -1.06170600       1.52706900      -1.95136000
C        3.67879000       3.66654000      15.04505000       0.40065800      -0.18302000       0.46446100
C        4.87347000       2.93983000      15.07925000       2.69529800      -0.49535100       0.31563100
C        2.30242000       5.85739000      15.03789000       8.02759500       1.88505200       0.55953300
C        3.66040000       5.06543000      15.08402000      -3.15531900       2.47694400      -0.54964200
C        1.05533000       8.10985000      15.03714000       4.99887300      -4.10511500       1.02423500
C        2.43873000       7.35156000      15.06725000      -6.90790900      -3.29212700      -0.17432900
C        7.37645000       1.50427000      15.02400000       2.81642200      -5.19795800       0.63938800
C        8.64486000       0.82022000      15.01138000      -0.40635100      -3.12298600       0.75072400
C        6.11381000       3.61656000      15.20587000      -0.25984500       0.95786400      -2.22385300
C        7.36393000       2.80610000      15.05250000      -1.15990600       8.99731700       1.00334100
C        4.85193000       5.83774000      15.06092000      -0.43285200      -1.91166700      -0.06928900
C        6.02172000       5.07397000      15.03001000       5.11741000      -0.21903600       1.66007900
C        3.58374000       7.98855000      15.11905000       5.67268700       3.26409800      -1.03774800
C        4.90695000       7.22768000      15.05705000      -2.66240000       1.38065400       0.08028300
32
Lattice="9.677615 -0.0 0.0 -4.956775 8.495553 -0.0 -0.63227 0.597414 49.748363" Properties=species:S:1:pos:R:3:force:R:3 virial="59.94587 3.30612 1.72412 3.30612 31.04044 -0.16741 1.72412 -0.16741 -1.19742" energy=-288.351902 pbc="T T T"
C       -0.30045000       1.63229000      14.89238000       2.28090600      -2.05716200       0.17669300
C        1.06614000       0.79858000      14.85919000      -3.72084300       7.06862800       0.52598200
C       -1.40781000       3.76664000      14.89796000      -4.28443000      -1.59980500      -0.08561800
C       -0.18938000       3.03930000      14.93685000      -4.13906200      -2.04768600      -0.25683300
C       -2.70600000       5.83697000      14.98282000      -3.49139700       0.87529400      -1.84211900
C       -1.50442000       5.20162000      14.92046000      -4.50861900      -6.71466300       0.37554800
C       -3.98494000       7.95635000      14.87272000       6.36186100      -1.23505600      -0.36121200