  92  92   0   0
  0.8273226E+02  0.2805000E-08  0.8100000E-09  0.3350000E-08  0.5000000E-15
   1.0000000000000000E-004
  CAR 
 unknown system                          
      3.77502047    -25.16361387  301     -3.23990788      1.00000000
    -25.164  0.0000E+00  0.0000E+00
    -25.067  0.0000E+00  0.0000E+00
    -24.971  0.0000E+00  0.0000E+00
    -24.874  0.0000E+00  0.0000E+00
    -24.778  0.0000E+00  0.0000E+00
    -24.681  0.0000E+00  0.0000E+00
    -24.585  0.0000E+00  0.0000E+00
    -24.488  0.0000E+00  0.0000E+00
    -24.392  0.0000E+00  0.0000E+00
    -24.295  0.3165E-14  0.3053E-15
    -24.199  0.6494E-12  0.6295E-13
    -24.103  0.8410E-10  0.8176E-11
    -24.006  0.6929E-08  0.6766E-09
    -23.910  0.3644E-06  0.3583E-07
    -23.813  0.1228E-04  0.1221E-05
    -23.717  0.2670E-03  0.2698E-04
    -23.620  0.3772E-02  0.3908E-03
    -23.524  0.3498E-01  0.3765E-02
    -23.427  0.2160E+00  0.2460E-01
    -23.331  0.9059E+00  0.1120E+00
    -23.234  0.2661E+01  0.3686E+00
    -23.138  0.5706E+01  0.9190E+00
    -23.041  0.9386E+01  0.1824E+01
    -22.945  0.1235E+02  0.3015E+01
    -22.849  0.1361E+02  0.4328E+01
    -22.752  0.1400E+02  0.5679E+01
    -22.656  0.1532E+02  0.7157E+01
    -22.559  0.1692E+02  0.8789E+01
    -22.463  0.1638E+02  0.1037E+02
    -22.366  0.1367E+02  0.1169E+02
    -22.270  0.1149E+02  0.1280E+02
    -22.173  0.1169E+02  0.1392E+02
    -22.077  0.1333E+02  0.1521E+02
    -21.980  0.1434E+02  0.1659E+02
    -21.884  0.1408E+02  0.1795E+02
    -21.787  0.1326E+02  0.1923E+02
    -21.691  0.1251E+02  0.2044E+02
    -21.595  0.1210E+02  0.2160E+02
    -21.498  0.1208E+02  0.2277E+02
    -21.402  0.1227E+02  0.2395E+02
    -21.305  0.1271E+02  0.2518E+02
    -21.209  0.1351E+02  0.2648E+02
    -21.112  0.1450E+02  0.2788E+02
    -21.016  0.1536E+02  0.2936E+02
    -20.919  0.1536E+02  0.3084E+02
    -20.823  0.1379E+02  0.3217E+02
    -20.726  0.1197E+02  0.3333E+02
    -20.630  0.1201E+02  0.3449E+02
    -20.533  0.1345E+02  0.3578E+02
    -20.437  0.1419E+02  0.3715E+02
    -20.341  0.1371E+02  0.3847E+02
    -20.244  0.1333E+02  0.3976E+02
    -20.148  0.1405E+02  0.4112E+02
    -20.051  0.1522E+02  0.4258E+02
    -19.955  0.1553E+02  0.4408E+02
    -19.858  0.1483E+02  0.4551E+02
    -19.762  0.1375E+02  0.4684E+02
    -19.665  0.1321E+02  0.4811E+02
    -19.569  0.1432E+02  0.4949E+02
    -19.472  0.1632E+02  0.5107E+02
    -19.376  0.1646E+02  0.5266E+02
    -19.279  0.1441E+02  0.5405E+02
    -19.183  0.1289E+02  0.5529E+02
    -19.087  0.1328E+02  0.5657E+02
    -18.990  0.1411E+02  0.5793E+02
    -18.894  0.1405E+02  0.5929E+02
    -18.797  0.1382E+02  0.6062E+02
    -18.701  0.1493E+02  0.6206E+02
    -18.604  0.1705E+02  0.6370E+02
    -18.508  0.1781E+02  0.6542E+02
    -18.411  0.1660E+02  0.6702E+02
    -18.315  0.1569E+02  0.6854E+02
    -18.218  0.1644E+02  0.7012E+02
    -18.122  0.1747E+02  0.7181E+02
    -18.025  0.1677E+02  0.7343E+02
    -17.929  0.1421E+02  0.7480E+02
    -17.832  0.1221E+02  0.7598E+02
    -17.736  0.1245E+02  0.7718E+02
    -17.640  0.1327E+02  0.7846E+02
    -17.543  0.1303E+02  0.7971E+02
    -17.447  0.1255E+02  0.8092E+02
    -17.350  0.1243E+02  0.8212E+02
    -17.254  0.1199E+02  0.8328E+02
    -17.157  0.1117E+02  0.8436E+02
    -17.061  0.1068E+02  0.8539E+02
    -16.964  0.1057E+02  0.8641E+02
    -16.868  0.1046E+02  0.8741E+02
    -16.771  0.1037E+02  0.8841E+02
    -16.675  0.1071E+02  0.8945E+02
    -16.578  0.1185E+02  0.9059E+02
    -16.482  0.1366E+02  0.9191E+02
    -16.386  0.1530E+02  0.9338E+02
    -16.289  0.1618E+02  0.9495E+02
    -16.193  0.1653E+02  0.9654E+02
    -16.096  0.1675E+02  0.9816E+02
    -16.000  0.1671E+02  0.9977E+02
    -15.903  0.1631E+02  0.1013E+03
    -15.807  0.1558E+02  0.1028E+03
    -15.710  0.1428E+02  0.1042E+03
    -15.614  0.1267E+02  0.1054E+03
    -15.517  0.1186E+02  0.1066E+03
    -15.421  0.1318E+02  0.1079E+03
    -15.324  0.1685E+02  0.1095E+03
    -15.228  0.2088E+02  0.1115E+03
    -15.132  0.2311E+02  0.1137E+03
    -15.035  0.2330E+02  0.1160E+03
    -14.939  0.2159E+02  0.1181E+03
    -14.842  0.1825E+02  0.1198E+03
    -14.746  0.1461E+02  0.1212E+03
    -14.649  0.1165E+02  0.1224E+03
    -14.553  0.9543E+01  0.1233E+03
    -14.456  0.8758E+01  0.1241E+03
    -14.360  0.9547E+01  0.1250E+03
    -14.263  0.1096E+02  0.1261E+03
    -14.167  0.1221E+02  0.1273E+03
    -14.070  0.1356E+02  0.1286E+03
    -13.974  0.1520E+02  0.1300E+03
    -13.878  0.1672E+02  0.1317E+03
    -13.781  0.1767E+02  0.1334E+03
    -13.685  0.1787E+02  0.1351E+03
    -13.588  0.1768E+02  0.1368E+03
    -13.492  0.1748E+02  0.1385E+03
    -13.395  0.1737E+02  0.1402E+03
    -13.299  0.1742E+02  0.1418E+03
    -13.202  0.1769E+02  0.1435E+03
    -13.106  0.1766E+02  0.1452E+03
    -13.009  0.1688E+02  0.1469E+03
    -12.913  0.1602E+02  0.1484E+03
    -12.816  0.1585E+02  0.1499E+03
    -12.720  0.1576E+02  0.1515E+03
    -12.624  0.1471E+02  0.1529E+03
    -12.527  0.1311E+02  0.1542E+03
    -12.431  0.1241E+02  0.1554E+03
    -12.334  0.1381E+02  0.1567E+03
    -12.238  0.1782E+02  0.1584E+03
    -12.141  0.2316E+02  0.1606E+03
    -12.045  0.2635E+02  0.1632E+03
    -11.948  0.2504E+02  0.1656E+03
    -11.852  0.2143E+02  0.1677E+03
    -11.755  0.1923E+02  0.1695E+03
    -11.659  0.1864E+02  0.1713E+03
    -11.562  0.1770E+02  0.1730E+03
    -11.466  0.1645E+02  0.1746E+03
    -11.370  0.1648E+02  0.1762E+03
    -11.273  0.1844E+02  0.1780E+03
    -11.177  0.2184E+02  0.1801E+03
    -11.080  0.2584E+02  0.1826E+03
    -10.984  0.2967E+02  0.1854E+03
    -10.887  0.3248E+02  0.1886E+03
    -10.791  0.3364E+02  0.1918E+03
    -10.694  0.3387E+02  0.1951E+03
    -10.598  0.3489E+02  0.1984E+03
    -10.501  0.3711E+02  0.2020E+03
    -10.405  0.3875E+02  0.2058E+03
    -10.308  0.3810E+02  0.2094E+03
    -10.212  0.3573E+02  0.2129E+03
    -10.116  0.3384E+02  0.2162E+03
    -10.019  0.3376E+02  0.2194E+03
     -9.923  0.3462E+02  0.2227E+03
     -9.826  0.3519E+02  0.2261E+03
     -9.730  0.3603E+02  0.2296E+03
     -9.633  0.3802E+02  0.2333E+03
     -9.537  0.4009E+02  0.2372E+03
     -9.440  0.4082E+02  0.2411E+03
     -9.344  0.4009E+02  0.2450E+03
     -9.247  0.3766E+02  0.2486E+03
     -9.151  0.3377E+02  0.2518E+03
     -9.054  0.3100E+02  0.2548E+03
     -8.958  0.3167E+02  0.2579E+03
     -8.862  0.3450E+02  0.2612E+03
     -8.765  0.3692E+02  0.2648E+03
     -8.669  0.3816E+02  0.2685E+03
     -8.572  0.3793E+02  0.2721E+03
     -8.476  0.3547E+02  0.2755E+03
     -8.379  0.3137E+02  0.2786E+03
     -8.283  0.2773E+02  0.2812E+03
     -8.186  0.2579E+02  0.2837E+03
     -8.090  0.2502E+02  0.2861E+03
     -7.993  0.2506E+02  0.2886E+03
     -7.897  0.2641E+02  0.2911E+03
     -7.800  0.2872E+02  0.2939E+03
     -7.704  0.3047E+02  0.2968E+03
     -7.608  0.3062E+02  0.2998E+03
     -7.511  0.2960E+02  0.3026E+03
     -7.415  0.2867E+02  0.3054E+03
     -7.318  0.2778E+02  0.3081E+03
     -7.222  0.2610E+02  0.3106E+03
     -7.125  0.2436E+02  0.3129E+03
     -7.029  0.2386E+02  0.3152E+03
     -6.932  0.2444E+02  0.3176E+03
     -6.836  0.2522E+02  0.3200E+03
     -6.739  0.2572E+02  0.3225E+03
     -6.643  0.2573E+02  0.3250E+03
     -6.546  0.2491E+02  0.3274E+03
     -6.450  0.2310E+02  0.3296E+03
     -6.354  0.2109E+02  0.3317E+03
     -6.257  0.2063E+02  0.3337E+03
     -6.161  0.2244E+02  0.3358E+03
     -6.064  0.2493E+02  0.3382E+03
     -5.968  0.2600E+02  0.3407E+03
     -5.871  0.2475E+02  0.3431E+03
     -5.775  0.2171E+02  0.3452E+03
     -5.678  0.1827E+02  0.3470E+03
     -5.582  0.1557E+02  0.3485E+03
     -5.485  0.1366E+02  0.3498E+03
     -5.389  0.1205E+02  0.3510E+03
     -5.292  0.1083E+02  0.3520E+03
     -5.196  0.1053E+02  0.3530E+03
     -5.099  0.1089E+02  0.3541E+03
     -5.003  0.1082E+02  0.3551E+03
     -4.907  0.1043E+02  0.3561E+03
     -4.810  0.1112E+02  0.3572E+03
     -4.714  0.1280E+02  0.3584E+03
     -4.617  0.1423E+02  0.3598E+03
     -4.521  0.1487E+02  0.3612E+03
     -4.424  0.1412E+02  0.3626E+03
     -4.328  0.1143E+02  0.3637E+03
     -4.231  0.7618E+01  0.3644E+03
     -4.135  0.4373E+01  0.3649E+03
     -4.038  0.2612E+01  0.3651E+03
     -3.942  0.2028E+01  0.3653E+03
     -3.845  0.2022E+01  0.3655E+03
     -3.749  0.2630E+01  0.3657E+03
     -3.653  0.3868E+01  0.3661E+03
     -3.556  0.4919E+01  0.3666E+03
     -3.460  0.4993E+01  0.3671E+03
     -3.363  0.4420E+01  0.3675E+03
     -3.267  0.4041E+01  0.3679E+03
     -3.170  0.4011E+01  0.3683E+03
     -3.074  0.4138E+01  0.3687E+03
     -2.977  0.4504E+01  0.3691E+03
     -2.881  0.5278E+01  0.3696E+03
     -2.784  0.6794E+01  0.3703E+03
     -2.688  0.8669E+01  0.3711E+03
     -2.591  0.9086E+01  0.3720E+03
     -2.495  0.7327E+01  0.3727E+03
     -2.399  0.5424E+01  0.3732E+03
     -2.302  0.5281E+01  0.3737E+03
     -2.206  0.6389E+01  0.3743E+03
     -2.109  0.7102E+01  0.3750E+03
     -2.013  0.6777E+01  0.3757E+03
     -1.916  0.6364E+01  0.3763E+03
     -1.820  0.7219E+01  0.3770E+03
     -1.723  0.9986E+01  0.3780E+03
     -1.627  0.1425E+02  0.3793E+03
     -1.530  0.1856E+02  0.3811E+03
     -1.434  0.2143E+02  0.3832E+03
     -1.337  0.2235E+02  0.3853E+03
     -1.241  0.2199E+02  0.3875E+03
     -1.145  0.2137E+02  0.3895E+03
     -1.048  0.2002E+02  0.3915E+03
     -0.952  0.1697E+02  0.3931E+03
     -0.855  0.1333E+02  0.3944E+03
     -0.759  0.1142E+02  0.3955E+03
     -0.662  0.1187E+02  0.3966E+03
     -0.566  0.1292E+02  0.3979E+03
     -0.469  0.1283E+02  0.3991E+03
     -0.373  0.1236E+02  0.4003E+03
     -0.276  0.1316E+02  0.4016E+03
     -0.180  0.1492E+02  0.4030E+03
     -0.083  0.1653E+02  0.4046E+03
      0.013  0.1840E+02  0.4064E+03
      0.109  0.2123E+02  0.4084E+03
      0.206  0.2384E+02  0.4107E+03
      0.302  0.2356E+02  0.4130E+03
      0.399  0.1980E+02  0.4149E+03
      0.495  0.1620E+02  0.4165E+03
      0.592  0.1693E+02  0.4181E+03
      0.688  0.2198E+02  0.4202E+03
      0.785  0.2815E+02  0.4229E+03
      0.881  0.3255E+02  0.4261E+03
      0.978  0.3449E+02  0.4294E+03
      1.074  0.3560E+02  0.4328E+03
      1.171  0.3839E+02  0.4366E+03
      1.267  0.4361E+02  0.4408E+03
      1.363  0.4868E+02  0.4455E+03
      1.460  0.5028E+02  0.4503E+03
      1.556  0.4719E+02  0.4549E+03
      1.653  0.3957E+02  0.4587E+03
      1.749  0.2844E+02  0.4614E+03
      1.846  0.1653E+02  0.4630E+03
      1.942  0.7316E+01  0.4637E+03
      2.039  0.2342E+01  0.4639E+03
      2.135  0.5217E+00  0.4640E+03
      2.232  0.7872E-01  0.4640E+03
      2.328  0.7899E-02  0.4640E+03
      2.425  0.5207E-03  0.4640E+03
      2.521  0.2235E-04  0.4640E+03
      2.617  0.6208E-06  0.4640E+03
      2.714  0.1110E-07  0.4640E+03
      2.810  0.1274E-09  0.4640E+03
      2.907  0.9346E-12  0.4640E+03
      3.003  0.4028E-14  0.4640E+03
      3.100  0.0000E+00  0.4640E+03
      3.196  0.0000E+00  0.4640E+03
      3.293  0.0000E+00  0.4640E+03
      3.389  0.0000E+00  0.4640E+03
      3.486  0.0000E+00  0.4640E+03
      3.582  0.0000E+00  0.4640E+03
      3.679  0.0000E+00  0.4640E+03
      3.775  0.0000E+00  0.4640E+03
