       N       E                     dE             d eps       ncg     rms          rms(c)
DAV:   1     0.368006372738E+04    0.36801E+04   -0.11883E+05  1712   0.105E+03
DAV:   2     0.180272278759E+03   -0.34998E+04   -0.32452E+04  2128   0.238E+02
DAV:   3    -0.831171316543E+03   -0.10114E+04   -0.98992E+03  1784   0.135E+02
DAV:   4    -0.893929470620E+03   -0.62758E+02   -0.61641E+02  1720   0.431E+01
DAV:   5    -0.895463834127E+03   -0.15344E+01   -0.15123E+01  1776   0.663E+00    0.450E+01
DAV:   6    -0.847157493048E+03    0.48306E+02   -0.46128E+01  1584   0.125E+01    0.264E+01
DAV:   7    -0.829222868186E+03    0.17935E+02   -0.64038E+01  1568   0.143E+01    0.722E+00
DAV:   8    -0.828950986884E+03    0.27188E+00   -0.24741E+00  1592   0.337E+00    0.102E+00
DAV:   9    -0.828843002019E+03    0.10798E+00   -0.26661E-01  1648   0.102E+00    0.565E-01
DAV:  10    -0.828807658943E+03    0.35343E-01   -0.48756E-02  1768   0.432E-01    0.359E-01
DAV:  11    -0.828780885961E+03    0.26773E-01   -0.19284E-02  1560   0.233E-01    0.241E-01
DAV:  12    -0.828777365708E+03    0.35203E-02   -0.24392E-02  1568   0.228E-01    0.149E-01
DAV:  13    -0.828790047888E+03   -0.12682E-01   -0.89455E-03  1552   0.140E-01    0.835E-02
DAV:  14    -0.828807229669E+03   -0.17182E-01   -0.11485E-03  1584   0.618E-02    0.521E-02
DAV:  15    -0.828827265411E+03   -0.20036E-01   -0.17432E-03  1576   0.606E-02    0.306E-02
DAV:  16    -0.828835236985E+03   -0.79716E-02   -0.45845E-04  1600   0.336E-02    0.198E-02
DAV:  17    -0.828839555227E+03   -0.43182E-02   -0.23680E-04  1584   0.205E-02    0.104E-02
DAV:  18    -0.828841634506E+03   -0.20793E-02   -0.86322E-05  1616   0.123E-02    0.561E-03
DAV:  19    -0.828842657169E+03   -0.10227E-02   -0.38145E-05  1400   0.773E-03    0.393E-03
DAV:  20    -0.828842943934E+03   -0.28677E-03   -0.40479E-06  1408   0.306E-03    0.214E-03
DAV:  21    -0.828843165614E+03   -0.22168E-03   -0.31374E-06  1240   0.239E-03    0.925E-04
DAV:  22    -0.828843199036E+03   -0.33421E-04   -0.14768E-07  1072   0.793E-04    0.654E-04
DAV:  23    -0.828843236605E+03   -0.37570E-04   -0.29146E-07   928   0.779E-04    0.346E-04
DAV:  24    -0.828843247609E+03   -0.11003E-04   -0.89439E-08   976   0.471E-04    0.204E-04
DAV:  25    -0.828843252985E+03   -0.53766E-05   -0.32804E-08   888   0.340E-04    0.128E-04
DAV:  26    -0.828843256112E+03   -0.31264E-05   -0.22319E-08   912   0.223E-04    0.112E-04
DAV:  27    -0.828843257781E+03   -0.16697E-05   -0.70261E-09   952   0.182E-04    0.683E-05
DAV:  28    -0.828843259233E+03   -0.14519E-05   -0.56359E-09   944   0.125E-04    0.601E-05
DAV:  29    -0.828843259644E+03   -0.41033E-06   -0.19510E-09   960   0.956E-05
   1 F= -.82884326E+03 E0= -.82880330E+03  d E =-.799235E-01
