 vasp.6.5.0 16Dec24 (build Feb 19 2025 19:45:31) complex                         
 executed on              LinuxNV date 2025.10.25  14:50:13
 running    2 mpi-ranks, on    1 nodes
 distrk:  each k-point on    2 cores,    1 groups
 distr:  one band on NCORE=   1 cores,    2 groups
 Offloading initialized ...    2 GPUs detected


--------------------------------------------------------------------------------------------------------


 INCAR:
   ISTART = 0            (Not Read existing wavefunction
   ISPIN = 1            (Non-Spin polarised DFT, Default\=1)
   ICHARG = 2            (The initial guess charge density is generated by superposition of atomic charge density)
   LREAL = Auto         (Projection operators: automatic)
   ENCUT = 500          (Cut-off energy for plane wave basis set, in eV)
   LWAVE = .FALSE.       (Write WAVECAR or not)
   LCHARG = .FALSE.       (Write CHGCAR or not)
   PREC = Accurate   (Precision level)
   KGAMMA = .TRUE.
   ALGO = Normal
   NSW = 0           (Default: NSW \= 0)
   IBRION = -1           (Ions are not moved)
   ISMEAR = 0
   EDIFF = 1E-06        (SCF energy convergence
   NELM = 150          (Max electronic SCF steps)

 POTCAR:    PAW_PBE C 08Apr2002                   
 POTCAR:    PAW_PBE C 08Apr2002                   
   SHA256 =  253f7b50bb8d59471dbedb8285d89021f4a42ed1a2c5d38a03a736e69125dd95 C/POTCAR              
   COPYR  = (c) Copyright 08Apr2002 Georg Kresse                                                    
   COPYR  = This file is part of the software VASP. Any use, copying, and all other rights are regul
   COPYR  = If you do not have a valid VASP license, you may not use, copy or distribute this file. 
   VRHFIN =C: s2p2                                                                                  
   LEXCH  = PE                                                                                      
   EATOM  =   147.1560 eV,   10.8157 Ry                                                             
                                                                                                    
   TITEL  = PAW_PBE C 08Apr2002                                                                     
   LULTRA =        F    use ultrasoft PP ?                                                          
   IUNSCR =        1    unscreen: 0-lin 1-nonlin 2-no                                               
   RPACOR =    1.200    partial core radius                                                         
   POMASS =   12.011; ZVAL   =    4.000    mass and valenz                                          
   RCORE  =    1.500    outmost cutoff radius                                                       
   RWIGS  =    1.630; RWIGS  =    0.863    wigner-seitz radius (au A)                               
   ENMAX  =  400.000; ENMIN  =  300.000 eV                                                          
   ICORE  =        2    local potential                                                             
   LCOR   =        T    correct aug charges                                                         
   LPAW   =        T    paw PP                                                                      
   EAUG   =  644.873                                                                                
   DEXC   =    0.000                                                                                
   RMAX   =    1.529    core radius for proj-oper                                                   
   RAUG   =    1.300    factor for augmentation sphere                                              
   RDEP   =    1.501    radius for radial grids                                                     
   RDEPT  =    1.300    core radius for aug-charge                                                  
                                                                                                    
   Atomic configuration                                                                             
    4 entries                                                                                       
     n  l   j            E        occ.                                                              
     1  0  0.50      -273.3789   2.0000                                                             
     2  0  0.50       -13.7508   2.0000                                                             
     2  1  0.50        -5.2854   2.0000                                                             
     3  2  1.50        -5.4423   0.0000                                                             
   Description                                                                                      
     l       E           TYP  RCUT    TYP  RCUT                                                     
     0    -13.7508458     23  1.200                                                                 
     0     -8.2022199     23  1.200                                                                 
     1     -5.2854383     23  1.500                                                                 
     1     34.0145650     23  1.500                                                                 
     2     -5.4423304      7  1.500                                                                 
  local pseudopotential read in
  partial core-charges read in
  partial kinetic energy density read in
  atomic valenz-charges read in
  non local Contribution for L=            0  read in
    real space projection operators read in
  non local Contribution for L=            0  read in
    real space projection operators read in
  non local Contribution for L=            1  read in
    real space projection operators read in
  non local Contribution for L=            1  read in
    real space projection operators read in
    PAW grid and wavefunctions read in
 
   number of l-projection  operators is LMAX  =            4
   number of lm-projection operators is LMMAX =            8
 
 Optimization of the real space projectors (new method)

 maximal supplied QI-value         = 25.13
 optimisation between [QCUT,QGAM] = [ 11.31, 22.87] = [ 35.82,146.48] Ry 
 Optimized for a Real-space Cutoff    1.03 Angstroem

   l    n(q)    QCUT    max X(q) W(low)/X(q) W(high)/X(q)  e(spline) 
   0      7    11.310   115.676    0.20E-03    0.90E-03    0.20E-06
   0      7    11.310    87.132    0.20E-03    0.89E-03    0.19E-06
   1      6    11.310     4.429    0.16E-03    0.28E-03    0.12E-06
   1      6    11.310     2.733    0.12E-03    0.21E-03    0.99E-07
  PAW_PBE C 08Apr2002                   :
 energy of atom  1       EATOM= -147.1560
 kinetic energy error for atom=    0.0076 (will be added to EATOM!!)
 
 
 POSCAR:  C
  positions in cartesian coordinates
  No initial velocities read in


 exchange-correlation table for PE
   RHO(1)=    0.500       N(1)  =     2000
   RHO(2)=  100.500       N(2)  =     4000
 


--------------------------------------------------------------------------------------------------------


 ion  position               nearest neighbor table
   1  0.016  0.099  0.474-   2 1.39   3 1.42  45 1.47  46 2.04
   2  0.012  0.265  0.483-   1 1.39   4 1.41  46 1.47  45 1.99
   3  0.056  0.018  0.490-   1 1.42  50 1.44   5 1.48
   4  0.049  0.352  0.502-  49 1.36   2 1.41   6 1.43
   5  0.099  0.108  0.505-   6 1.34   7 1.41   3 1.48
   6  0.094  0.272  0.510-   5 1.34   8 1.42   4 1.43
   7  0.139  0.024  0.520-  54 1.39   5 1.41   9 1.42
   8  0.135  0.354  0.524-  53 1.33   6 1.42  10 1.43
   9  0.180  0.106  0.534-  10 1.37   7 1.42  11 1.43
  10  0.179  0.275  0.532-   9 1.37  12 1.42   8 1.43
  11  0.223  0.021  0.545-  58 1.33  13 1.42   9 1.43
  12  0.222  0.356  0.545-  57 1.39  14 1.41  10 1.42
  13  0.267  0.103  0.552-  14 1.37  15 1.42  11 1.42
  14  0.265  0.273  0.550-  13 1.37  12 1.41  16 1.45
  15  0.311  0.018  0.550-  62 1.38  13 1.42  17 1.44
  16  0.311  0.357  0.552-  61 1.37  18 1.43  14 1.45
  17  0.354  0.107  0.540-  18 1.36  19 1.40  15 1.44
  18  0.354  0.275  0.540-  17 1.36  20 1.37  16 1.43
  19  0.397  0.026  0.533-  66 1.39  17 1.40  21 1.42
  20  0.396  0.358  0.536-  65 1.35  18 1.37  22 1.44
  21  0.436  0.110  0.515-  22 1.37  23 1.40  19 1.42
  22  0.438  0.277  0.521-  21 1.37  24 1.39  20 1.44
  23  0.478  0.030  0.505-  21 1.40  25 1.41  70 1.42
  24  0.482  0.355  0.517-  22 1.39  69 1.39  26 1.43
  25  0.521  0.107  0.493-  26 1.41  27 1.41  23 1.41
  26  0.522  0.280  0.497-  25 1.41  24 1.43  28 1.45
  27  0.563  0.026  0.481-  74 1.35  25 1.41  29 1.51
  28  0.568  0.351  0.490-  73 1.40  30 1.42  26 1.45
  29  0.610  0.108  0.469-  31 1.37  30 1.38  27 1.51
  30  0.610  0.277  0.474-  29 1.38  32 1.40  28 1.42
  31  0.651  0.024  0.461-  29 1.37  78 1.40  33 1.44
  32  0.654  0.359  0.470-  77 1.34  30 1.40  34 1.45
  33  0.695  0.108  0.453-  34 1.35  31 1.44  35 1.45
  34  0.697  0.273  0.459-  33 1.35  36 1.44  32 1.45
  35  0.740  0.021  0.449-  82 1.32  37 1.42  33 1.45
  36  0.741  0.362  0.457-  81 1.36  38 1.39  34 1.44
  37  0.784  0.108  0.447-  38 1.37  35 1.42  39 1.43
  38  0.784  0.276  0.452-  37 1.37  36 1.39  40 1.43
  39  0.829  0.026  0.448-  86 1.39  41 1.42  37 1.43
  40  0.828  0.356  0.460-  85 1.36  42 1.40  38 1.43
  41  0.874  0.102  0.455-  42 1.39  39 1.42  43 1.44
  42  0.871  0.270  0.463-  41 1.39  40 1.40  44 1.47
  43  0.919  0.018  0.458-  90 1.36  45 1.44  41 1.44
  44  0.917  0.349  0.473-  89 1.37  46 1.41  42 1.47
  45  0.964  0.095  0.468-  46 1.37  43 1.44   1 1.47   2 1.99
  46  0.960  0.261  0.476-  45 1.37  44 1.41   2 1.47   1 2.04
  47  0.005  0.591  0.495-  49 1.42  91 1.42  48 1.43  92 2.04
  48  0.008  0.766  0.489-  50 1.39  47 1.43  92 1.45  91 1.98
  49  0.049  0.518  0.507-   4 1.36  47 1.42  51 1.42
  50  0.051  0.845  0.498-  48 1.39   3 1.44  52 1.45
  51  0.089  0.599  0.523-  52 1.38  49 1.42  53 1.48
  52  0.091  0.769  0.518-  51 1.38  54 1.43  50 1.45
  53  0.134  0.513  0.534-   8 1.33  55 1.43  51 1.48
  54  0.135  0.854  0.525-   7 1.39  56 1.42  52 1.43
  55  0.175  0.602  0.547-  56 1.41  53 1.43  57 1.44
  56  0.175  0.775  0.542-  55 1.41  54 1.42  58 1.43
  57  0.220  0.524  0.553-  12 1.39  59 1.43  55 1.44
  58  0.220  0.857  0.549-  11 1.33  56 1.43  60 1.44
  59  0.265  0.603  0.558-  60 1.35  57 1.43  61 1.44
  60  0.264  0.769  0.555-  59 1.35  58 1.44  62 1.45
  61  0.311  0.522  0.561-  16 1.37  59 1.44  63 1.47
  62  0.310  0.849  0.555-  15 1.38  64 1.41  60 1.45
  63  0.356  0.608  0.556-  64 1.36  65 1.46  61 1.47
  64  0.355  0.776  0.552-  63 1.36  62 1.41  66 1.45
  65  0.400  0.519  0.545-  20 1.35  63 1.46  67 1.50
  66  0.398  0.856  0.539-  19 1.39  68 1.43  64 1.45
  67  0.446  0.603  0.535-  69 1.35  68 1.36  65 1.50
  68  0.441  0.769  0.529-  67 1.36  66 1.43  70 1.45
  69  0.486  0.525  0.522-  67 1.35  24 1.39  71 1.43
  70  0.481  0.856  0.512-  72 1.41  23 1.42  68 1.45
  71  0.529  0.606  0.512-  73 1.40  72 1.42  69 1.43
  72  0.525  0.777  0.503-  74 1.40  70 1.41  71 1.42
  73  0.570  0.520  0.499-  75 1.39  28 1.40  71 1.40
  74  0.564  0.861  0.487-  27 1.35  72 1.40  76 1.44
  75  0.611  0.606  0.489-  73 1.39  76 1.40  77 1.49
  76  0.608  0.774  0.481-  75 1.40  78 1.41  74 1.44
  77  0.657  0.519  0.480-  32 1.34  79 1.45  75 1.49
  78  0.650  0.853  0.467-  31 1.40  80 1.40  76 1.41
  79  0.699  0.611  0.470-  80 1.35  81 1.38  77 1.45
  80  0.695  0.776  0.465-  79 1.35  78 1.40  82 1.44
  81  0.741  0.528  0.462-  36 1.36  79 1.38  83 1.41
  82  0.737  0.859  0.452-  35 1.32  84 1.43  80 1.44
  83  0.785  0.609  0.455-  84 1.37  81 1.41  85 1.41
  84  0.782  0.776  0.450-  83 1.37  82 1.43  86 1.47
  85  0.829  0.524  0.456-  40 1.36  83 1.41  87 1.42
  86  0.830  0.854  0.447-  39 1.39  88 1.44  84 1.47
  87  0.873  0.605  0.461-  88 1.35  89 1.41  85 1.42
  88  0.874  0.769  0.456-  87 1.35  90 1.44  86 1.44
  89  0.915  0.518  0.472-  44 1.37  91 1.39  87 1.41
  90  0.919  0.850  0.460-  43 1.36  92 1.40  88 1.44
  91  0.957  0.599  0.481-  92 1.38  89 1.39  47 1.42  48 1.98
  92  0.961  0.765  0.471-  91 1.38  90 1.40  48 1.45  47 2.04
 
  LATTYP: Found a simple orthorhombic cell.
 ALAT       =     8.1000000000
 B/A-ratio  =     3.4629629630
 C/A-ratio  =     4.1358024691
  
  Lattice vectors:
  
 A1 = (   0.0000000000,  -8.1000000000,   0.0000000000)
 A2 = (  28.0500000000,   0.0000000000,   0.0000000000)
 A3 = (   0.0000000000,   0.0000000000,  33.5000000000)


Analysis of symmetry for initial positions (statically):
=====================================================================
 Subroutine PRICEL returns:
 Original cell was already a primitive cell.
 

 Routine SETGRP: Setting up the symmetry group for a 
 simple orthorhombic supercell.


 Subroutine GETGRP returns: Found  1 space group operations
 (whereof  1 operations were pure point group operations)
 out of a pool of  8 trial point group operations.


The static configuration has the point symmetry C_1 .


Analysis of symmetry for dynamics (positions and initial velocities):
=====================================================================
 Subroutine PRICEL returns:
 Original cell was already a primitive cell.
 

 Routine SETGRP: Setting up the symmetry group for a 
 simple orthorhombic supercell.


 Subroutine GETGRP returns: Found  1 space group operations
 (whereof  1 operations were pure point group operations)
 out of a pool of  8 trial point group operations.


The dynamic configuration has the point symmetry C_1 .


 Subroutine INISYM returns: Found  1 space group operations
 (whereof  1 operations are pure point group operations),
 and found     1 'primitive' translations


----------------------------------------------------------------------------------------

                                     Primitive cell                                     

  volume of cell :    7611.3675

  direct lattice vectors                    reciprocal lattice vectors
    28.050000000  0.000000000  0.000000000     0.035650624  0.000000000  0.000000000
     0.000000000  8.100000000  0.000000000     0.000000000  0.123456790  0.000000000
     0.000000000  0.000000000 33.500000000     0.000000000  0.000000000  0.029850746

  length of vectors
    28.050000000  8.100000000 33.500000000     0.035650624  0.123456790  0.029850746

  position of ions in fractional coordinates (direct lattice)
     0.015744528  0.098794938  0.473638806
     0.011621426  0.264750617  0.483065672
     0.056263458  0.018039753  0.489686567
     0.049195009  0.351511111  0.501689552
     0.098552228  0.107650988  0.505122388
     0.093568271  0.271708642  0.509647761
     0.138817112  0.023668395  0.519704478
     0.134769340  0.354324691  0.524185075
     0.180276649  0.106018889  0.533620896
     0.179339037  0.274916049  0.532056716
     0.222696970  0.020981975  0.545420896
     0.221740107  0.355525926  0.544811940
     0.266918360  0.103228519  0.551823881
     0.265495900  0.272535802  0.549617910
     0.311200357  0.018302346  0.550486567
     0.311094118  0.356993827  0.551552239
     0.353732620  0.106796420  0.539513433
     0.354241711  0.274760494  0.540495522
     0.397069519  0.025757654  0.533053731
     0.396317291  0.357756790  0.536125373
     0.435775401  0.110449383  0.514811940
     0.438046346  0.277119753  0.520632836
     0.478327986  0.029788519  0.505483582
     0.482039216  0.354534568  0.517053731
     0.520951872  0.107210494  0.492976119
     0.521714795  0.279777778  0.497223881
     0.563073084  0.026375309  0.480868657
     0.568238859  0.351402469  0.490110448
     0.609504456  0.108353704  0.469005970
     0.609935829  0.276870370  0.474197015
     0.650666667  0.023567284  0.461134328
     0.653543672  0.359159259  0.470062687
     0.694759358  0.108134938  0.452862687
     0.696602496  0.273245679  0.458635821
     0.739696970  0.020760617  0.448555224
     0.741308378  0.361580247  0.457176119
     0.783625668  0.107733951  0.446737313
     0.783882353  0.275662963  0.452086567
     0.828809269  0.026313457  0.448367164
     0.828171123  0.356474074  0.460259701
     0.873696970  0.102230494  0.454931343
     0.871354724  0.269870370  0.463417910
     0.919012478  0.018221852  0.457647761
     0.917055258  0.349422222  0.472832836
     0.963668449  0.094678395  0.468382090
     0.960060606  0.260786420  0.475862687
     0.005154082  0.591327160  0.494534328
     0.007827522  0.766256790  0.488647761
     0.048725134  0.517924691  0.506549254
     0.050556863  0.845087654  0.498155224
     0.088867023  0.599456790  0.523256716
     0.091104100  0.768671605  0.517841791
     0.133505169  0.513343210  0.534259701
     0.134968627  0.854461728  0.525268657
     0.174893761  0.601732099  0.547098507
     0.175389661  0.774617284  0.541886567
     0.220397861  0.523586420  0.553241791
     0.219845276  0.857265432  0.548591045
     0.265467736  0.602679012  0.557752239
     0.263660250  0.768623457  0.555355224
     0.310915508  0.521549383  0.561167164
     0.309683422  0.849335802  0.554734328
     0.356371836  0.608346914  0.555952239
     0.354995009  0.775637037  0.551528358
     0.399696970  0.519160494  0.545271642
     0.398356506  0.855717284  0.538513433
     0.445636364  0.603060494  0.534570149
     0.441333333  0.768685185  0.528847761
     0.485636364  0.524664198  0.522244776
     0.481415330  0.856237037  0.511725373
     0.529376114  0.606175309  0.512397015
     0.524969697  0.777018519  0.503155224
     0.569704100  0.520479012  0.498752239
     0.564057041  0.860993827  0.486764179
     0.611065954  0.606172840  0.489229851
     0.608128342  0.774443210  0.480546269
     0.656745098  0.518618519  0.480444776
     0.650021390  0.852893827  0.467041791
     0.699222816  0.610930864  0.470385075
     0.694695187  0.775714815  0.464955224
     0.741251337  0.528128395  0.462065672
     0.737458111  0.858511111  0.452420896
     0.784770053  0.609161728  0.454725373
     0.782499109  0.776244444  0.449585075
     0.828581105  0.523597531  0.456238806
     0.829853832  0.854430864  0.446853731
     0.873112299  0.604866667  0.461265672
     0.873846702  0.769372840  0.455528358
     0.914926916  0.518196296  0.471934328
     0.919055258  0.850106173  0.460179104
     0.957215686  0.599346914  0.480934328
     0.960638146  0.764541975  0.470802985

  ion indices of the primitive-cell ions
   primitive index   ion index
                 1           1
                 2           2
                 3           3
                 4           4
                 5           5
                 6           6
                 7           7
                 8           8
                 9           9
                10          10
                11          11
                12          12
                13          13
                14          14
                15          15
                16          16
                17          17
                18          18
                19          19
                20          20
                21          21
                22          22
                23          23
                24          24
                25          25
                26          26
                27          27
                28          28
                29          29
                30          30
                31          31
                32          32
                33          33
                34          34
                35          35
                36          36
                37          37
                38          38
                39          39
                40          40
                41          41
                42          42
                43          43
                44          44
                45          45
                46          46
                47          47
                48          48
                49          49
                50          50
                51          51
                52          52
                53          53
                54          54
                55          55
                56          56
                57          57
                58          58
                59          59
                60          60
                61          61
                62          62
                63          63
                64          64
                65          65
                66          66
                67          67
                68          68
                69          69
                70          70
                71          71
                72          72
                73          73
                74          74
                75          75
                76          76
                77          77
                78          78
                79          79
                80          80
                81          81
                82          82
                83          83
                84          84
                85          85
                86          86
                87          87
                88          88
                89          89
                90          90
                91          91
                92          92

----------------------------------------------------------------------------------------

 
 
 KPOINTS: K-Spacing Value to Generate K-Mesh: 0.03

Automatic generation of k-mesh.
 Grid dimensions read from file:
 generate k-points for:    1    4    1

 Generating k-lattice:

  Cartesian coordinates                     Fractional coordinates (reciprocal lattice)
     0.035650624  0.000000000  0.000000000     1.000000000  0.000000000  0.000000000
     0.000000000  0.030864198  0.000000000     0.000000000  0.250000000  0.000000000
     0.000000000  0.000000000  0.029850746     0.000000000  0.000000000  1.000000000

  Length of vectors
     0.035650624  0.030864198  0.029850746

  Shift w.r.t. Gamma in fractional coordinates (k-lattice)
     0.000000000  0.000000000  0.000000000

 
 Subroutine IBZKPT returns following result:
 ===========================================
 
 Found      3 irreducible k-points:
 
 Following reciprocal coordinates:
            Coordinates               Weight
  0.000000  0.000000  0.000000      1.000000
  0.000000  0.250000  0.000000      2.000000
  0.000000  0.500000  0.000000      1.000000
 
 Following cartesian coordinates:
            Coordinates               Weight
  0.000000  0.000000  0.000000      1.000000
  0.000000  0.030864  0.000000      2.000000
  0.000000  0.061728  0.000000      1.000000
 


--------------------------------------------------------------------------------------------------------




 Dimension of arrays:
   k-points           NKPTS =      3   k-points in BZ     NKDIM =      3   number of bands    NBANDS=    232
   number of dos      NEDOS =    301   number of ions     NIONS =     92
   non local maximal  LDIM  =      4   non local SUM 2l+1 LMDIM =      8
   total plane-waves  NPLWV = ******
   max r-space proj   IRMAX =   1967   max aug-charges    IRDMAX=   5083
   dimension x,y,z NGX =   210 NGY =   60 NGZ =  250
   dimension x,y,z NGXF=   420 NGYF=  120 NGZF=  500
   support grid    NGXF=   420 NGYF=  120 NGZF=  500
   ions per type =              92
   NGX,Y,Z   is equivalent  to a cutoff of  12.45, 12.31, 12.41 a.u.
   NGXF,Y,Z  is equivalent  to a cutoff of  24.89, 24.63, 24.81 a.u.

 SYSTEM =  unknown system                          
 POSCAR =   C                                      

 Startparameter for this run:
   NWRITE =      2    write-flag & timer
   PREC   = accura    normal or accurate (medium, high low for compatibility)
   ISTART =      0    job   : 0-new  1-cont  2-samecut
   ICHARG =      2    charge: 1-file 2-atom 10-const
   ISPIN  =      1    spin polarized calculation?
   LNONCOLLINEAR =      F non collinear calculations
   LSORBIT =      F    spin-orbit coupling
   INIWAV =      1    electr: 0-lowe 1-rand  2-diag
   LASPH  =      F    aspherical Exc in radial PAW
 Electronic Relaxation 1
   ENCUT  =  500.0 eV  36.75 Ry    6.06 a.u.  51.14 14.77 61.08*2*pi/ulx,y,z
   ENINI  =  500.0     initial cutoff
   ENAUG  =  644.9 eV  augmentation charge cutoff
   NELM   =    150;   NELMIN=  2; NELMDL= -5     # of ELM steps 
   EDIFF  = 0.1E-05   stopping-criterion for ELM
   LREAL  =      T    real-space projection
   NLSPLINE    = F    spline interpolate recip. space projectors
   LCOMPAT=      F    compatible to vasp.4.4
   GGA_COMPAT  = T    GGA compatible to vasp.4.4-vasp.4.6
   LMAXPAW     = -100 max onsite density
   LMAXMIX     =    2 max onsite mixed and CHGCAR
   VOSKOWN=      0    Vosko Wilk Nusair interpolation
   ROPT   =   -0.00025
 Ionic relaxation
   EDIFFG = 0.1E-04   stopping-criterion for IOM
   NSW    =      0    number of steps for IOM
   NBLOCK =      1;   KBLOCK =      1    inner block; outer block 
   IBRION =     -1    ionic relax: 0-MD 1-quasi-New 2-CG
   NFREE  =      0    steps in history (QN), initial steepest desc. (CG)
   ISIF   =      2    stress and relaxation
   IWAVPR =     10    prediction:  0-non 1-charg 2-wave 3-comb
   ISYM   =      2    0-nonsym 1-usesym 2-fastsym
   LCORR  =      T    Harris-Foulkes like correction to forces

   POTIM  = 0.5000    time-step for ionic-motion
   TEIN   =    0.0    initial temperature
   TEBEG  =    0.0;   TEEND  =   0.0 temperature during run
   SMASS  =  -3.00    Nose mass-parameter (am)
   estimated Nose-frequenzy (Omega)   =  0.10E-29 period in steps = 0.13E+47 mass=  -0.180E-25a.u.
   SCALEE = 1.0000    scale energy and forces
   NPACO  =    256;   APACO  = 10.0  distance and # of slots for P.C.
   PSTRESS=    0.0 pullay stress

  Mass of Ions in am
   POMASS =  12.01
  Ionic Valenz
   ZVAL   =   4.00
  Atomic Wigner-Seitz radii
   RWIGS  =  -1.00
  virtual crystal weights 
   VCA    =   1.00
   NELECT =     368.0000    total number of electrons
   NUPDOWN=      -1.0000    fix difference up-down

 DOS related values:
   EMIN   =  10.00;   EMAX   =-10.00  energy-range for DOS
   EFERMI =   0.00;   METHOD = LEGACY      
   ISMEAR =     0;   SIGMA  =   0.20  broadening in eV -4-tet -1-fermi 0-gaus
   EFERMI_NEDOS =   21; number of points for ismear=-14 and -15

 Electronic relaxation 2 (details)
   IALGO  =     38    algorithm
   LDIAG  =      T    sub-space diagonalisation (order eigenvalues)
   LSUBROT=      F    optimize rotation matrix (better conditioning)
   TURBO    =      0    0=normal 1=particle mesh
   IRESTART =      0    0=no restart 2=restart with 2 vectors
   NREBOOT  =      0    no. of reboots
   NMIN     =      0    reboot dimension
   EREF     =   0.00    reference energy to select bands
   IMIX   =      4    mixing-type and parameters
     AMIX     =   0.40;   BMIX     =  1.00
     AMIX_MAG =   1.60;   BMIX_MAG =  1.00
     AMIN     =   0.10
     WC   =   100.;   INIMIX=   1;  MIXPRE=   1;  MAXMIX= -45

 Intra band minimization:
   WEIMIN = 0.0000     energy-eigenvalue tresh-hold
   EBREAK =  0.11E-08  absolut break condition
   DEPER  =   0.30     relativ break condition  

   TIME   =   0.40     timestep for ELM

  volume/ion in A,a.u.               =      82.73       558.30
  Fermi-wavevector in a.u.,A,eV,Ry     =   0.596398  1.127030  4.839472  0.355691
  Thomas-Fermi vector in A             =   1.646729
 
 Write flags
   LWAVE        =      F    write WAVECAR
   LDOWNSAMPLE  =      F    k-point downsampling of WAVECAR
   LCHARG       =      F    write CHGCAR
   LVTOT        =      F    write LOCPOT, total local potential
   LVHAR        =      F    write LOCPOT, Hartree potential only
   WRT_POTENTIAL= false  ! write potential to hdf5 file
   LELF         =      F    write electronic localiz. function (ELF)
   LORBIT       =      0    0 simple, 1 ext, 2 COOP (PROOUT), +10 PAW based schemes


 Python interface
   PLUGINS active      =      F    recompile with -DPLUGINS to activate
 
 Dipole corrections
   LMONO      =      F    monopole corrections only (constant potential shift)
   LDIPOL     =      F    correct potential (dipole corrections)
   IDIPOL     =      0    1-x, 2-y, 3-z, 4-all directions 
   EPSILON    =  1.0000000 bulk dielectric constant
   LVACPOTAV  =      F  vacuum potentials using an averaging scheme for the charge density
   VACPOTFLAT =  0.1000000 required flatness to determine vacuum potential
 
Coulomb truncation method
  LTRUNCATE          =      F  Coulomb kernel truncation to be used
  IDIMENSIONALITY    =      3  Dimensionality of cutoff (0 molecules / 2 surfaces)
  ISURFACE           =     -1  Direction of surface normal
  LCOARSEN           =      F  Coarsen the charge grid before padding, preferred

 
 Exchange correlation treatment:
   GGA     = PE    functional components
   XC_C    = 1    coefficients multiplying the functional components
   LIBXC   =     F    Libxc                    
   VOSKOWN =     0    Vosko Wilk Nusair interpolation
   LHFCALC =     F    Hartree Fock is set to
   LHFONE  =     F    Hartree Fock one center treatment
   AEXX    =    0.0000 exact exchange contribution

 Parameters of functionals:
   PE:
     No parameter
 
 Van der Waals corrections
   IVDW    =     0    specifies the selected vdW correction

 Linear response parameters
   LEPSILON=     F    determine dielectric tensor
   LRPA    =     F    only Hartree local field effects (RPA)
   LNABLA  =     F    use nabla operator in PAW spheres
   LVEL    =     F    velocity operator in full k-point grid
   CSHIFT  =0.1000    complex shift for real part using Kramers Kronig
   OMEGAMAX=  -1.0    maximum frequency
   DEG_THRESHOLD= 0.2000000E-02 threshold for treating states as degnerate
   RTIME   =   -0.100 relaxation time in fs
  (WPLASMAI=    0.000 imaginary part of plasma frequency in eV, 0.658/RTIME)
   DFIELD  = 0.0000000 0.0000000 0.0000000 field for delta impulse in time
 
  Optional k-point grid parameters
   LKPOINTS_OPT  =     F    use optional k-point grid
   KPOINTS_OPT_MODE=     1    mode for optional k-point grid
 
 Orbital magnetization related:
   ORBITALMAG=     F  switch on orbital magnetization
   LCHIMAG   =     F  perturbation theory with respect to B field
   DQ        =  0.001000  dq finite difference perturbation B field
   LLRAUG    =     F  two centre corrections for induced B field
   LBONE     =     F  B-component reconstruction in AE one-centre
   LVGVCALC  =     T  calculate vGv susceptibility
   LVGVAPPL  =     F  apply vGv susceptibility instead of pGv for G=0

 Random number generation:
   RANDOM_GENERATOR = DEFAULT
   PCG_SEED         = not used


--------------------------------------------------------------------------------------------------------


 Static calculation
 charge density and potential will be updated during run
 non-spin polarized calculation
 Variant of blocked Davidson
 Davidson routine will perform the subspace rotation
 perform sub-space diagonalisation
    after iterative eigenvector-optimisation
 modified Broyden-mixing scheme, WC =      100.0
 initial mixing is a Kerker type mixing with AMIX =  0.4000 and BMIX =      1.0000
 Hartree-type preconditioning will be used
 using additional bands            48
 real space projection scheme for non local part
 use partial core corrections
 calculate Harris-corrections to forces 
   (improved forces if not selfconsistent)
 use gradient corrections 
 use of overlap-Matrix (Vanderbilt PP)
 Gauss-broadening in eV      SIGMA  =   0.20


--------------------------------------------------------------------------------------------------------


  energy-cutoff  :      500.00
  volume of cell :     7611.37
      direct lattice vectors                 reciprocal lattice vectors
    28.050000000  0.000000000  0.000000000     0.035650624  0.000000000  0.000000000
     0.000000000  8.100000000  0.000000000     0.000000000  0.123456790  0.000000000
     0.000000000  0.000000000 33.500000000     0.000000000  0.000000000  0.029850746

  length of vectors
    28.050000000  8.100000000 33.500000000     0.035650624  0.123456790  0.029850746


 
 k-points in units of 2pi/SCALE and weight: K-Spacing Value to Generate K-Mesh: 0.03
   0.00000000  0.00000000  0.00000000       0.250
   0.00000000  0.03086420  0.00000000       0.500
   0.00000000  0.06172840  0.00000000       0.250
 
 k-points in reciprocal lattice and weights: K-Spacing Value to Generate K-Mesh: 0.03
   0.00000000  0.00000000  0.00000000       0.250
   0.00000000  0.25000000  0.00000000       0.500
   0.00000000  0.50000000  0.00000000       0.250
 
 position of ions in fractional coordinates (direct lattice) 
   0.01574453  0.09879494  0.47363881
   0.01162143  0.26475062  0.48306567
   0.05626346  0.01803975  0.48968657
   0.04919501  0.35151111  0.50168955
   0.09855223  0.10765099  0.50512239
   0.09356827  0.27170864  0.50964776
   0.13881711  0.02366840  0.51970448
   0.13476934  0.35432469  0.52418507
   0.18027665  0.10601889  0.53362090
   0.17933904  0.27491605  0.53205672
   0.22269697  0.02098198  0.54542090
   0.22174011  0.35552593  0.54481194
   0.26691836  0.10322852  0.55182388
   0.26549590  0.27253580  0.54961791
   0.31120036  0.01830235  0.55048657
   0.31109412  0.35699383  0.55155224
   0.35373262  0.10679642  0.53951343
   0.35424171  0.27476049  0.54049552
   0.39706952  0.02575765  0.53305373
   0.39631729  0.35775679  0.53612537
   0.43577540  0.11044938  0.51481194
   0.43804635  0.27711975  0.52063284
   0.47832799  0.02978852  0.50548358
   0.48203922  0.35453457  0.51705373
   0.52095187  0.10721049  0.49297612
   0.52171480  0.27977778  0.49722388
   0.56307308  0.02637531  0.48086866
   0.56823886  0.35140247  0.49011045
   0.60950446  0.10835370  0.46900597
   0.60993583  0.27687037  0.47419701
   0.65066667  0.02356728  0.46113433
   0.65354367  0.35915926  0.47006269
   0.69475936  0.10813494  0.45286269
   0.69660250  0.27324568  0.45863582
   0.73969697  0.02076062  0.44855522
   0.74130838  0.36158025  0.45717612
   0.78362567  0.10773395  0.44673731
   0.78388235  0.27566296  0.45208657
   0.82880927  0.02631346  0.44836716
   0.82817112  0.35647407  0.46025970
   0.87369697  0.10223049  0.45493134
   0.87135472  0.26987037  0.46341791
   0.91901248  0.01822185  0.45764776
   0.91705526  0.34942222  0.47283284
   0.96366845  0.09467840  0.46838209
   0.96006061  0.26078642  0.47586269
   0.00515408  0.59132716  0.49453433
   0.00782752  0.76625679  0.48864776
   0.04872513  0.51792469  0.50654925
   0.05055686  0.84508765  0.49815522
   0.08886702  0.59945679  0.52325672
   0.09110410  0.76867160  0.51784179
   0.13350517  0.51334321  0.53425970
   0.13496863  0.85446173  0.52526866
   0.17489376  0.60173210  0.54709851
   0.17538966  0.77461728  0.54188657
   0.22039786  0.52358642  0.55324179
   0.21984528  0.85726543  0.54859104
   0.26546774  0.60267901  0.55775224
   0.26366025  0.76862346  0.55535522
   0.31091551  0.52154938  0.56116716
   0.30968342  0.84933580  0.55473433
   0.35637184  0.60834691  0.55595224
   0.35499501  0.77563704  0.55152836
   0.39969697  0.51916049  0.54527164
   0.39835651  0.85571728  0.53851343
   0.44563636  0.60306049  0.53457015
   0.44133333  0.76868519  0.52884776
   0.48563636  0.52466420  0.52224478
   0.48141533  0.85623704  0.51172537
   0.52937611  0.60617531  0.51239701
   0.52496970  0.77701852  0.50315522
   0.56970410  0.52047901  0.49875224
   0.56405704  0.86099383  0.48676418
   0.61106595  0.60617284  0.48922985
   0.60812834  0.77444321  0.48054627
   0.65674510  0.51861852  0.48044478
   0.65002139  0.85289383  0.46704179
   0.69922282  0.61093086  0.47038507
   0.69469519  0.77571481  0.46495522
   0.74125134  0.52812840  0.46206567
   0.73745811  0.85851111  0.45242090
   0.78477005  0.60916173  0.45472537
   0.78249911  0.77624444  0.44958507
   0.82858111  0.52359753  0.45623881
   0.82985383  0.85443086  0.44685373
   0.87311230  0.60486667  0.46126567
   0.87384670  0.76937284  0.45552836
   0.91492692  0.51819630  0.47193433
   0.91905526  0.85010617  0.46017910
   0.95721569  0.59934691  0.48093433
   0.96063815  0.76454198  0.47080299
 
 position of ions in cartesian coordinates  (Angst):
   0.44163400  0.80023900 15.86690000
   0.32598100  2.14448000 16.18270000
   1.57819000  0.14612200 16.40450000
   1.37992000  2.84724000 16.80660000
   2.76439000  0.87197300 16.92160000
   2.62459000  2.20084000 17.07320000
   3.89382000  0.19171400 17.41010000
   3.78028000  2.87003000 17.56020000
   5.05676000  0.85875300 17.87630000
   5.03046000  2.22682000 17.82390000
   6.24665000  0.16995400 18.27160000
   6.21981000  2.87976000 18.25120000
   7.48706000  0.83615100 18.48610000
   7.44716000  2.20754000 18.41220000
   8.72917000  0.14824900 18.44130000
   8.72619000  2.89165000 18.47700000
   9.92220000  0.86505100 18.07370000
   9.93648000  2.22556000 18.10660000
  11.13780000  0.20863700 17.85730000
  11.11670000  2.89783000 17.96020000
  12.22350000  0.89464000 17.24620000
  12.28720000  2.24467000 17.44120000
  13.41710000  0.24128700 16.93370000
  13.52120000  2.87173000 17.32130000
  14.61270000  0.86840500 16.51470000
  14.63410000  2.26620000 16.65700000
  15.79420000  0.21364000 16.10910000
  15.93910000  2.84636000 16.41870000
  17.09660000  0.87766500 15.71170000
  17.10870000  2.24265000 15.88560000
  18.25120000  0.19089500 15.44800000
  18.33190000  2.90919000 15.74710000
  19.48800000  0.87589300 15.17090000
  19.53970000  2.21329000 15.36430000
  20.74850000  0.16816100 15.02660000
  20.79370000  2.92880000 15.31540000
  21.98070000  0.87264500 14.96570000
  21.98790000  2.23287000 15.14490000
  23.24810000  0.21313900 15.02030000
  23.23020000  2.88744000 15.41870000
  24.50720000  0.82806700 15.24020000
  24.44150000  2.18595000 15.52450000
  25.77830000  0.14759700 15.33120000
  25.72340000  2.83032000 15.83990000
  27.03090000  0.76689500 15.69080000
  26.92970000  2.11237000 15.94140000
   0.14457200  4.78975000 16.56690000
   0.21956200  6.20668000 16.36970000
   1.36674000  4.19519000 16.96940000
   1.41812000  6.84521000 16.68820000
   2.49272000  4.85560000 17.52910000
   2.55547000  6.22624000 17.34770000
   3.74482000  4.15808000 17.89770000
   3.78587000  6.92114000 17.59650000
   4.90577000  4.87403000 18.32780000
   4.91968000  6.27440000 18.15320000
   6.18216000  4.24105000 18.53360000
   6.16666000  6.94385000 18.37780000
   7.44637000  4.88170000 18.68470000
   7.39567000  6.22585000 18.60440000
   8.72118000  4.22455000 18.79910000
   8.68662000  6.87962000 18.58360000
   9.99623000  4.92761000 18.62440000
   9.95761000  6.28266000 18.47620000
  11.21150000  4.20520000 18.26660000
  11.17390000  6.93131000 18.04020000
  12.50010000  4.88479000 17.90810000
  12.37940000  6.22635000 17.71640000
  13.62210000  4.24978000 17.49520000
  13.50370000  6.93552000 17.14280000
  14.84900000  4.91002000 17.16530000
  14.72540000  6.29385000 16.85570000
  15.98020000  4.21588000 16.70820000
  15.82180000  6.97405000 16.30660000
  17.14040000  4.91000000 16.38920000
  17.05800000  6.27299000 16.09830000
  18.42170000  4.20081000 16.09490000
  18.23310000  6.90844000 15.64590000
  19.61320000  4.94854000 15.75790000
  19.48620000  6.28329000 15.57600000
  20.79210000  4.27784000 15.47920000
  20.68570000  6.95394000 15.15610000
  22.01280000  4.93421000 15.23330000
  21.94910000  6.28758000 15.06110000
  23.24170000  4.24114000 15.28400000
  23.27740000  6.92089000 14.96960000
  24.49080000  4.89942000 15.45240000
  24.51140000  6.23192000 15.26020000
  25.66370000  4.19739000 15.80980000
  25.77950000  6.88586000 15.41600000
  26.84990000  4.85471000 16.11130000
  26.94590000  6.19279000 15.77190000
 


--------------------------------------------------------------------------------------------------------


 k-point     1 :   0.0000 0.0000 0.0000  plane waves:  193173
 k-point     2 :   0.0000 0.2500 0.0000  plane waves:  193166
 k-point     3 :   0.0000 0.5000 0.0000  plane waves:  193226

 maximum and minimum number of plane-waves per node :    193226   193166

 maximum number of plane-waves:    193226
 maximum index in each direction: 
   IXMAX=   51   IYMAX=   14   IZMAX=   61
   IXMIN=  -51   IYMIN=  -15   IZMIN=  -61


 serial   3D FFT for wavefunctions
 parallel 3D FFT for charge:
    minimum data exchange during FFTs selected (reduces bandwidth)


 total amount of memory used by VASP MPI-rank0  2294496. kBytes
=======================================================================

   base                                    :      30000. kBytes
   nonlr-proj                              :      15062. kBytes
   fftplans                                :     436558. kBytes
   grid                                    :     732614. kBytes
   one-center                              :        282. kBytes
   wavefun                                 :    1079980. kBytes
 
     INWAV:  cpu time      0.0000: real time      0.0000
 Broyden mixing: mesh for mixing (old mesh)
   NGX =103   NGY = 29   NGZ =123
  (NGX  =420   NGY  =120   NGZ  =500)
  gives a total of 367401 points

 initial charge density was supplied:
 charge density of overlapping atoms calculated
 number of electron     368.0000000 magnetization 
 keeping initial charge density in first step


--------------------------------------------------------------------------------------------------------


 Maximum index for non-local projection operator          1871
 Maximum index for augmentation-charges          2384 (set IRDMAX)


--------------------------------------------------------------------------------------------------------


 First call to EWALD:  gamma=   0.090
 Maximum number of real-space cells   2x   6x   2
 Maximum number of reciprocal cells   4x   1x   4

    FEWALD:  cpu time      0.1657: real time      0.1658


--------------------------------------- Ionic step        1  -------------------------------------------




--------------------------------------- Iteration      1(   1)  ---------------------------------------


    POTLOK:  cpu time      0.4241: real time      0.4470
    SETDIJ:  cpu time      0.0414: real time      0.0413
     EDDAV:  cpu time     11.0774: real time     11.0813
       DOS:  cpu time      0.0008: real time      0.0008
    --------------------------------------------
      LOOP:  cpu time     11.5436: real time     11.5704

 eigenvalue-minimisations  :  1712
 total energy-change (2. order) : 0.3680064E+04  (-0.1188290E+05)
 number of electron     368.0000000 magnetization 
 augmentation part      368.0000000 magnetization 

 Free energy of the ion-electron system (eV)
  ---------------------------------------------------
  alpha Z        PSCENC =        91.34886789
  Ewald energy   TEWEN  =    118875.49605879
  -Hartree energ DENC   =   -128233.56727399
  -exchange      EXHF   =         0.00000000
  -V(xc)+E(xc)   XCENC  =      1219.35292036
  PAW double counting   =      9984.02826696   -10036.41360137
  entropy T*S    EENTRO =        -0.82341533
  eigenvalues    EBANDS =     -1757.01288984
  atomic energy  EATOM  =     13537.65479391
  Solvation  Ediel_sol  =         0.00000000
  ---------------------------------------------------
  free energy    TOTEN  =      3680.06372738 eV

  energy without entropy =     3680.88714271  energy(sigma->0) =     3680.47543505


--------------------------------------------------------------------------------------------------------




--------------------------------------- Iteration      1(   2)  ---------------------------------------


     EDDAV:  cpu time     13.0532: real time     13.0579
       DOS:  cpu time      0.0007: real time      0.0007
    --------------------------------------------
      LOOP:  cpu time     13.0539: real time     13.0586

 eigenvalue-minimisations  :  2128
 total energy-change (2. order) :-0.3499791E+04  (-0.3245200E+04)
 number of electron     368.0000000 magnetization 
 augmentation part      368.0000000 magnetization 

 Free energy of the ion-electron system (eV)
  ---------------------------------------------------
  alpha Z        PSCENC =        91.34886789
  Ewald energy   TEWEN  =    118875.49605879
  -Hartree energ DENC   =   -128233.56727399
  -exchange      EXHF   =         0.00000000
  -V(xc)+E(xc)   XCENC  =      1219.35292036
  PAW double counting   =      9984.02826696   -10036.41360137
  entropy T*S    EENTRO =        -0.22599375
  eigenvalues    EBANDS =     -5257.40176005
  atomic energy  EATOM  =     13537.65479391
  Solvation  Ediel_sol  =         0.00000000
  ---------------------------------------------------
  free energy    TOTEN  =       180.27227876 eV

  energy without entropy =      180.49827250  energy(sigma->0) =      180.38527563


--------------------------------------------------------------------------------------------------------




--------------------------------------- Iteration      1(   3)  ---------------------------------------


     EDDAV:  cpu time     11.2702: real time     11.2745
       DOS:  cpu time      0.0007: real time      0.0007
    --------------------------------------------
      LOOP:  cpu time     11.2709: real time     11.2751

 eigenvalue-minimisations  :  1784
 total energy-change (2. order) :-0.1011444E+04  (-0.9899193E+03)
 number of electron     368.0000000 magnetization 
 augmentation part      368.0000000 magnetization 

 Free energy of the ion-electron system (eV)
  ---------------------------------------------------
  alpha Z        PSCENC =        91.34886789
  Ewald energy   TEWEN  =    118875.49605879
  -Hartree energ DENC   =   -128233.56727399
  -exchange      EXHF   =         0.00000000
  -V(xc)+E(xc)   XCENC  =      1219.35292036
  PAW double counting   =      9984.02826696   -10036.41360137
  entropy T*S    EENTRO =        -0.06753142
  eigenvalues    EBANDS =     -6269.00381768
  atomic energy  EATOM  =     13537.65479391
  Solvation  Ediel_sol  =         0.00000000
  ---------------------------------------------------
  free energy    TOTEN  =      -831.17131654 eV

  energy without entropy =     -831.10378512  energy(sigma->0) =     -831.13755083


--------------------------------------------------------------------------------------------------------




--------------------------------------- Iteration      1(   4)  ---------------------------------------


     EDDAV:  cpu time     10.9515: real time     10.9579
       DOS:  cpu time      0.0007: real time      0.0007
    --------------------------------------------
      LOOP:  cpu time     10.9522: real time     10.9585

 eigenvalue-minimisations  :  1720
 total energy-change (2. order) :-0.6275815E+02  (-0.6164101E+02)
 number of electron     368.0000000 magnetization 
 augmentation part      368.0000000 magnetization 

 Free energy of the ion-electron system (eV)
  ---------------------------------------------------
  alpha Z        PSCENC =        91.34886789
  Ewald energy   TEWEN  =    118875.49605879
  -Hartree energ DENC   =   -128233.56727399
  -exchange      EXHF   =         0.00000000
  -V(xc)+E(xc)   XCENC  =      1219.35292036
  PAW double counting   =      9984.02826696   -10036.41360137
  entropy T*S    EENTRO =        -0.08103820
  eigenvalues    EBANDS =     -6331.74846498
  atomic energy  EATOM  =     13537.65479391
  Solvation  Ediel_sol  =         0.00000000
  ---------------------------------------------------
  free energy    TOTEN  =      -893.92947062 eV

  energy without entropy =     -893.84843242  energy(sigma->0) =     -893.88895152


--------------------------------------------------------------------------------------------------------




--------------------------------------- Iteration      1(   5)  ---------------------------------------


     EDDAV:  cpu time     11.2080: real time     11.2122
       DOS:  cpu time      0.0007: real time      0.0007
    CHARGE:  cpu time      1.2088: real time      1.2092
    MIXING:  cpu time      0.2747: real time      0.2747
    --------------------------------------------
      LOOP:  cpu time     12.6921: real time     12.6967

 eigenvalue-minimisations  :  1776
 total energy-change (2. order) :-0.1534364E+01  (-0.1512350E+01)
 number of electron     368.0000007 magnetization 
 augmentation part       10.0667366 magnetization 

 Broyden mixing:
  rms(total) = 0.44979E+01    rms(broyden)= 0.44973E+01
  rms(prec ) = 0.46139E+01
  weight for this iteration     100.00

 Free energy of the ion-electron system (eV)
  ---------------------------------------------------
  alpha Z        PSCENC =        91.34886789
  Ewald energy   TEWEN  =    118875.49605879
  -Hartree energ DENC   =   -128233.56727399
  -exchange      EXHF   =         0.00000000
  -V(xc)+E(xc)   XCENC  =      1219.35292036
  PAW double counting   =      9984.02826696   -10036.41360137
  entropy T*S    EENTRO =        -0.08143636
  eigenvalues    EBANDS =     -6333.28243032
  atomic energy  EATOM  =     13537.65479391
  Solvation  Ediel_sol  =         0.00000000
  ---------------------------------------------------
  free energy    TOTEN  =      -895.46383413 eV

  energy without entropy =     -895.38239777  energy(sigma->0) =     -895.42311595


--------------------------------------------------------------------------------------------------------




--------------------------------------- Iteration      1(   6)  ---------------------------------------


    POTLOK:  cpu time      0.3203: real time      0.3202
    SETDIJ:  cpu time      0.0402: real time      0.0402
     EDDAV:  cpu time     10.2723: real time     10.2759
       DOS:  cpu time      0.0007: real time      0.0007
    CHARGE:  cpu time      1.1578: real time      1.1609
    MIXING:  cpu time      0.2782: real time      0.2797
    --------------------------------------------
      LOOP:  cpu time     12.0695: real time     12.0777

 eigenvalue-minimisations  :  1584
 total energy-change (2. order) : 0.4830634E+02  (-0.4612798E+01)
 number of electron     368.0000007 magnetization 
 augmentation part        9.6528783 magnetization 

 Broyden mixing:
  rms(total) = 0.26414E+01    rms(broyden)= 0.26413E+01
  rms(prec ) = 0.26988E+01
  weight for this iteration     100.00

 eigenvalues of (default mixing * dielectric matrix)
  average eigenvalue GAMMA=   2.1848
  2.1848

 Free energy of the ion-electron system (eV)
  ---------------------------------------------------
  alpha Z        PSCENC =        91.34886789
  Ewald energy   TEWEN  =    118875.49605879
  -Hartree energ DENC   =   -128795.84024942
  -exchange      EXHF   =         0.00000000
  -V(xc)+E(xc)   XCENC  =      1242.40798749
  PAW double counting   =     18800.08961975   -18859.94928323
  entropy T*S    EENTRO =        -0.07630236
  eigenvalues    EBANDS =     -5738.28898587
  atomic energy  EATOM  =     13537.65479391
  Solvation  Ediel_sol  =         0.00000000
  ---------------------------------------------------
  free energy    TOTEN  =      -847.15749305 eV

  energy without entropy =     -847.08119069  energy(sigma->0) =     -847.11934187


--------------------------------------------------------------------------------------------------------




--------------------------------------- Iteration      1(   7)  ---------------------------------------


    POTLOK:  cpu time      0.3198: real time      0.3198
    SETDIJ:  cpu time      0.0401: real time      0.0401
     EDDAV:  cpu time     10.1802: real time     10.1839
       DOS:  cpu time      0.0007: real time      0.0007
    CHARGE:  cpu time      1.1529: real time      1.1553
    MIXING:  cpu time      0.2811: real time      0.2811
    --------------------------------------------
      LOOP:  cpu time     11.9748: real time     11.9808

 eigenvalue-minimisations  :  1568
 total energy-change (2. order) : 0.1793462E+02  (-0.6403822E+01)
 number of electron     368.0000007 magnetization 
 augmentation part        9.1049058 magnetization 

 Broyden mixing:
  rms(total) = 0.72176E+00    rms(broyden)= 0.72149E+00
  rms(prec ) = 0.73147E+00
  weight for this iteration     100.00

 eigenvalues of (default mixing * dielectric matrix)
  average eigenvalue GAMMA=   2.1922
  2.1922  2.1922

 Free energy of the ion-electron system (eV)
  ---------------------------------------------------
  alpha Z        PSCENC =        91.34886789
  Ewald energy   TEWEN  =    118875.49605879
  -Hartree energ DENC   =   -129548.85030094
  -exchange      EXHF   =         0.00000000
  -V(xc)+E(xc)   XCENC  =      1273.12891130
  PAW double counting   =     36088.91979236   -36155.56253103
  entropy T*S    EENTRO =        -0.08226850
  eigenvalues    EBANDS =     -4991.27619197
  atomic energy  EATOM  =     13537.65479391
  Solvation  Ediel_sol  =         0.00000000
  ---------------------------------------------------
  free energy    TOTEN  =      -829.22286819 eV

  energy without entropy =     -829.14059969  energy(sigma->0) =     -829.18173394


--------------------------------------------------------------------------------------------------------




--------------------------------------- Iteration      1(   8)  ---------------------------------------


    POTLOK:  cpu time      0.3201: real time      0.3202
    SETDIJ:  cpu time      0.0399: real time      0.0399
     EDDAV:  cpu time     10.2963: real time     10.3001
       DOS:  cpu time      0.0008: real time      0.0008
    CHARGE:  cpu time      1.1558: real time      1.1568
    MIXING:  cpu time      0.2825: real time      0.2826
    --------------------------------------------
      LOOP:  cpu time     12.0954: real time     12.1004

 eigenvalue-minimisations  :  1592
 total energy-change (2. order) : 0.2718813E+00  (-0.2474148E+00)
 number of electron     368.0000007 magnetization 
 augmentation part        9.0899395 magnetization 

 Broyden mixing:
  rms(total) = 0.10163E+00    rms(broyden)= 0.10160E+00
  rms(prec ) = 0.12330E+00
  weight for this iteration     100.00

 eigenvalues of (default mixing * dielectric matrix)
  average eigenvalue GAMMA=   1.8582
  1.2322  2.4398  1.9027

 Free energy of the ion-electron system (eV)
  ---------------------------------------------------
  alpha Z        PSCENC =        91.34886789
  Ewald energy   TEWEN  =    118875.49605879
  -Hartree energ DENC   =   -129637.65184361
  -exchange      EXHF   =         0.00000000
  -V(xc)+E(xc)   XCENC  =      1272.82480452
  PAW double counting   =     40170.79761007   -40234.80491396
  entropy T*S    EENTRO =        -0.07933100
  eigenvalues    EBANDS =     -4904.53703350
  atomic energy  EATOM  =     13537.65479391
  Solvation  Ediel_sol  =         0.00000000
  ---------------------------------------------------
  free energy    TOTEN  =      -828.95098688 eV

  energy without entropy =     -828.87165589  energy(sigma->0) =     -828.91132139


--------------------------------------------------------------------------------------------------------




--------------------------------------- Iteration      1(   9)  ---------------------------------------


    POTLOK:  cpu time      0.3195: real time      0.3195
    SETDIJ:  cpu time      0.0400: real time      0.0401
     EDDAV:  cpu time     10.5900: real time     10.5938
       DOS:  cpu time      0.0007: real time      0.0007
    CHARGE:  cpu time      1.1543: real time      1.1566
    MIXING:  cpu time      0.2869: real time      0.2871
    --------------------------------------------
      LOOP:  cpu time     12.3915: real time     12.3979

 eigenvalue-minimisations  :  1648
 total energy-change (2. order) : 0.1079849E+00  (-0.2666064E-01)
 number of electron     368.0000007 magnetization 
 augmentation part        9.0665609 magnetization 

 Broyden mixing:
  rms(total) = 0.56541E-01    rms(broyden)= 0.56532E-01
  rms(prec ) = 0.77561E-01
  weight for this iteration     100.00

 eigenvalues of (default mixing * dielectric matrix)
  average eigenvalue GAMMA=   1.6940
  2.2016  2.2016  1.0816  1.2911

 Free energy of the ion-electron system (eV)
  ---------------------------------------------------
  alpha Z        PSCENC =        91.34886789
  Ewald energy   TEWEN  =    118875.49605879
  -Hartree energ DENC   =   -129707.82828937
  -exchange      EXHF   =         0.00000000
  -V(xc)+E(xc)   XCENC  =      1274.27911908
  PAW double counting   =     40736.77122394   -40800.85318744
  entropy T*S    EENTRO =        -0.07981192
  eigenvalues    EBANDS =     -4835.63177690
  atomic energy  EATOM  =     13537.65479391
  Solvation  Ediel_sol  =         0.00000000
  ---------------------------------------------------
  free energy    TOTEN  =      -828.84300202 eV

  energy without entropy =     -828.76319010  energy(sigma->0) =     -828.80309606


--------------------------------------------------------------------------------------------------------




--------------------------------------- Iteration      1(  10)  ---------------------------------------


    POTLOK:  cpu time      0.3218: real time      0.3218
    SETDIJ:  cpu time      0.0401: real time      0.0401
     EDDAV:  cpu time     11.1810: real time     11.1882
       DOS:  cpu time      0.0007: real time      0.0007
    CHARGE:  cpu time      1.1525: real time      1.1553
    MIXING:  cpu time      0.2922: real time      0.2922
    --------------------------------------------
      LOOP:  cpu time     12.9884: real time     12.9985

 eigenvalue-minimisations  :  1768
 total energy-change (2. order) : 0.3534308E-01  (-0.4875620E-02)
 number of electron     368.0000007 magnetization 
 augmentation part        9.0565655 magnetization 

 Broyden mixing:
  rms(total) = 0.35935E-01    rms(broyden)= 0.35932E-01
  rms(prec ) = 0.55020E-01
  weight for this iteration     100.00

 eigenvalues of (default mixing * dielectric matrix)
  average eigenvalue GAMMA=   1.7182
  2.4627  2.4627  1.5919  1.2525  0.8210

 Free energy of the ion-electron system (eV)
  ---------------------------------------------------
  alpha Z        PSCENC =        91.34886789
  Ewald energy   TEWEN  =    118875.49605879
  -Hartree energ DENC   =   -129755.69508006
  -exchange      EXHF   =         0.00000000
  -V(xc)+E(xc)   XCENC  =      1274.59182429
  PAW double counting   =     40512.22090799   -40576.16514435
  entropy T*S    EENTRO =        -0.07985586
  eigenvalues    EBANDS =     -4788.18003154
  atomic energy  EATOM  =     13537.65479391
  Solvation  Ediel_sol  =         0.00000000
  ---------------------------------------------------
  free energy    TOTEN  =      -828.80765894 eV

  energy without entropy =     -828.72780308  energy(sigma->0) =     -828.76773101


--------------------------------------------------------------------------------------------------------




--------------------------------------- Iteration      1(  11)  ---------------------------------------


    POTLOK:  cpu time      0.3195: real time      0.3196
    SETDIJ:  cpu time      0.0403: real time      0.0402
     EDDAV:  cpu time     10.1337: real time     10.1373
       DOS:  cpu time      0.0007: real time      0.0007
    CHARGE:  cpu time      1.1655: real time      1.1668
    MIXING:  cpu time      0.3004: real time      0.3005
    --------------------------------------------
      LOOP:  cpu time     11.9602: real time     11.9651

 eigenvalue-minimisations  :  1560
 total energy-change (2. order) : 0.2677298E-01  (-0.1928443E-02)
 number of electron     368.0000007 magnetization 
 augmentation part        9.0521937 magnetization 

 Broyden mixing:
  rms(total) = 0.24099E-01    rms(broyden)= 0.24098E-01
  rms(prec ) = 0.37704E-01
  weight for this iteration     100.00

 eigenvalues of (default mixing * dielectric matrix)
  average eigenvalue GAMMA=   1.7833
  3.0443  2.4918  1.9246  0.9258  1.1566  1.1566

 Free energy of the ion-electron system (eV)
  ---------------------------------------------------
  alpha Z        PSCENC =        91.34886789
  Ewald energy   TEWEN  =    118875.49605879
  -Hartree energ DENC   =   -129816.65309168
  -exchange      EXHF   =         0.00000000
  -V(xc)+E(xc)   XCENC  =      1275.11875895
  PAW double counting   =     40433.29729738   -40497.13423125
  entropy T*S    EENTRO =        -0.07987781
  eigenvalues    EBANDS =     -4727.82946214
  atomic energy  EATOM  =     13537.65479391
  Solvation  Ediel_sol  =         0.00000000
  ---------------------------------------------------
  free energy    TOTEN  =      -828.78088596 eV

  energy without entropy =     -828.70100815  energy(sigma->0) =     -828.74094706


--------------------------------------------------------------------------------------------------------




--------------------------------------- Iteration      1(  12)  ---------------------------------------


    POTLOK:  cpu time      0.3195: real time      0.3196
    SETDIJ:  cpu time      0.0399: real time      0.0399
     EDDAV:  cpu time     10.1713: real time     10.1750
       DOS:  cpu time      0.0007: real time      0.0007
    CHARGE:  cpu time      1.1567: real time      1.1571
    MIXING:  cpu time      0.3074: real time      0.3076
    --------------------------------------------
      LOOP:  cpu time     11.9956: real time     12.0000

 eigenvalue-minimisations  :  1568
 total energy-change (2. order) : 0.3520253E-02  (-0.2439211E-02)
 number of electron     368.0000007 magnetization 
 augmentation part        9.0448698 magnetization 

 Broyden mixing:
  rms(total) = 0.14934E-01    rms(broyden)= 0.14931E-01
  rms(prec ) = 0.22862E-01
  weight for this iteration     100.00

 eigenvalues of (default mixing * dielectric matrix)
  average eigenvalue GAMMA=   2.0842
  4.9594  2.3168  2.2672  1.9326  0.9959  1.0588  1.0588

 Free energy of the ion-electron system (eV)
  ---------------------------------------------------
  alpha Z        PSCENC =        91.34886789
  Ewald energy   TEWEN  =    118875.49605879
  -Hartree energ DENC   =   -129880.99773236
  -exchange      EXHF   =         0.00000000
  -V(xc)+E(xc)   XCENC  =      1275.75265634
  PAW double counting   =     40495.01761377   -40558.83933660
  entropy T*S    EENTRO =        -0.07994470
  eigenvalues    EBANDS =     -4664.13034274
  atomic energy  EATOM  =     13537.65479391
  Solvation  Ediel_sol  =         0.00000000
  ---------------------------------------------------
  free energy    TOTEN  =      -828.77736571 eV

  energy without entropy =     -828.69742101  energy(sigma->0) =     -828.73739336


--------------------------------------------------------------------------------------------------------




--------------------------------------- Iteration      1(  13)  ---------------------------------------


    POTLOK:  cpu time      0.3201: real time      0.3202
    SETDIJ:  cpu time      0.0399: real time      0.0399
     EDDAV:  cpu time     10.0852: real time     10.0888
       DOS:  cpu time      0.0008: real time      0.0008
    CHARGE:  cpu time      1.1520: real time      1.1559
    MIXING:  cpu time      0.3156: real time      0.3157
    --------------------------------------------
      LOOP:  cpu time     11.9136: real time     11.9212

 eigenvalue-minimisations  :  1552
 total energy-change (2. order) :-0.1268218E-01  (-0.8945451E-03)
 number of electron     368.0000007 magnetization 
 augmentation part        9.0421014 magnetization 

 Broyden mixing:
  rms(total) = 0.83454E-02    rms(broyden)= 0.83433E-02
  rms(prec ) = 0.11671E-01
  weight for this iteration     100.00

 eigenvalues of (default mixing * dielectric matrix)
  average eigenvalue GAMMA=   2.0837
  5.4471  2.4423  2.4423  1.9419  1.2280  1.2280  0.9068  1.0333

 Free energy of the ion-electron system (eV)
  ---------------------------------------------------
  alpha Z        PSCENC =        91.34886789
  Ewald energy   TEWEN  =    118875.49605879
  -Hartree energ DENC   =   -129932.81472602
  -exchange      EXHF   =         0.00000000
  -V(xc)+E(xc)   XCENC  =      1275.96013515
  PAW double counting   =     40443.86598423   -40507.68645573
  entropy T*S    EENTRO =        -0.07990191
  eigenvalues    EBANDS =     -4612.53480419
  atomic energy  EATOM  =     13537.65479391
  Solvation  Ediel_sol  =         0.00000000
  ---------------------------------------------------
  free energy    TOTEN  =      -828.79004789 eV

  energy without entropy =     -828.71014598  energy(sigma->0) =     -828.75009693


--------------------------------------------------------------------------------------------------------




--------------------------------------- Iteration      1(  14)  ---------------------------------------


    POTLOK:  cpu time      0.3201: real time      0.3202
    SETDIJ:  cpu time      0.0398: real time      0.0399
     EDDAV:  cpu time     10.2499: real time     10.2535
       DOS:  cpu time      0.0007: real time      0.0007
    CHARGE:  cpu time      1.1567: real time      1.1568
    MIXING:  cpu time      0.3236: real time      0.3248
    --------------------------------------------
      LOOP:  cpu time     12.0909: real time     12.0958

 eigenvalue-minimisations  :  1584
 total energy-change (2. order) :-0.1718178E-01  (-0.1148476E-03)
 number of electron     368.0000007 magnetization 
 augmentation part        9.0413777 magnetization 

 Broyden mixing:
  rms(total) = 0.52085E-02    rms(broyden)= 0.52081E-02
  rms(prec ) = 0.74250E-02
  weight for this iteration     100.00

 eigenvalues of (default mixing * dielectric matrix)
  average eigenvalue GAMMA=   2.2233
  6.4958  2.9703  2.5800  1.8578  1.8578  1.1792  1.1792  0.9448  0.9448

 Free energy of the ion-electron system (eV)
  ---------------------------------------------------
  alpha Z        PSCENC =        91.34886789
  Ewald energy   TEWEN  =    118875.49605879
  -Hartree energ DENC   =   -129945.99823546
  -exchange      EXHF   =         0.00000000
  -V(xc)+E(xc)   XCENC  =      1275.96263836
  PAW double counting   =     40443.37534372   -40507.20291352
  entropy T*S    EENTRO =        -0.07990911
  eigenvalues    EBANDS =     -4599.36387424
  atomic energy  EATOM  =     13537.65479391
  Solvation  Ediel_sol  =         0.00000000
  ---------------------------------------------------
  free energy    TOTEN  =      -828.80722967 eV

  energy without entropy =     -828.72732056  energy(sigma->0) =     -828.76727511


--------------------------------------------------------------------------------------------------------




--------------------------------------- Iteration      1(  15)  ---------------------------------------


    POTLOK:  cpu time      0.3203: real time      0.3203
    SETDIJ:  cpu time      0.0401: real time      0.0401
     EDDAV:  cpu time     10.2391: real time     10.2427
       DOS:  cpu time      0.0007: real time      0.0007
    CHARGE:  cpu time      1.1543: real time      1.1572
    MIXING:  cpu time      0.3297: real time      0.3316
    --------------------------------------------
      LOOP:  cpu time     12.0843: real time     12.0926

 eigenvalue-minimisations  :  1576
 total energy-change (2. order) :-0.2003574E-01  (-0.1743205E-03)
 number of electron     368.0000007 magnetization 
 augmentation part        9.0409661 magnetization 

 Broyden mixing:
  rms(total) = 0.30581E-02    rms(broyden)= 0.30577E-02
  rms(prec ) = 0.40415E-02
  weight for this iteration     100.00

 eigenvalues of (default mixing * dielectric matrix)
  average eigenvalue GAMMA=   2.2624
  7.1012  3.5703  2.2591  2.2591  1.7725  1.3401  1.3401  1.0829  0.9492  0.9492

 Free energy of the ion-electron system (eV)
  ---------------------------------------------------
  alpha Z        PSCENC =        91.34886789
  Ewald energy   TEWEN  =    118875.49605879
  -Hartree energ DENC   =   -129956.86931023
  -exchange      EXHF   =         0.00000000
  -V(xc)+E(xc)   XCENC  =      1275.94864882
  PAW double counting   =     40453.71943596   -40517.54920187
  entropy T*S    EENTRO =        -0.07992421
  eigenvalues    EBANDS =     -4588.49663446
  atomic energy  EATOM  =     13537.65479391
  Solvation  Ediel_sol  =         0.00000000
  ---------------------------------------------------
  free energy    TOTEN  =      -828.82726541 eV

  energy without entropy =     -828.74734121  energy(sigma->0) =     -828.78730331


--------------------------------------------------------------------------------------------------------




--------------------------------------- Iteration      1(  16)  ---------------------------------------


    POTLOK:  cpu time      0.3203: real time      0.3204
    SETDIJ:  cpu time      0.0400: real time      0.0400
     EDDAV:  cpu time     10.3248: real time     10.3320
       DOS:  cpu time      0.0008: real time      0.0008
    CHARGE:  cpu time      1.1670: real time      1.1672
    MIXING:  cpu time      0.3403: real time      0.3405
    --------------------------------------------
      LOOP:  cpu time     12.1931: real time     12.2007

 eigenvalue-minimisations  :  1600
 total energy-change (2. order) :-0.7971574E-02  (-0.4584460E-04)
 number of electron     368.0000007 magnetization 
 augmentation part        9.0408658 magnetization 

 Broyden mixing:
  rms(total) = 0.19806E-02    rms(broyden)= 0.19806E-02
  rms(prec ) = 0.25020E-02
  weight for this iteration     100.00

 eigenvalues of (default mixing * dielectric matrix)
  average eigenvalue GAMMA=   2.3328
  7.9313  4.0524  2.4141  2.4141  1.8840  1.4763  1.4763  0.9655  0.9655  1.0409
  1.0409

 Free energy of the ion-electron system (eV)
  ---------------------------------------------------
  alpha Z        PSCENC =        91.34886789
  Ewald energy   TEWEN  =    118875.49605879
  -Hartree energ DENC   =   -129960.28365300
  -exchange      EXHF   =         0.00000000
  -V(xc)+E(xc)   XCENC  =      1275.93215910
  PAW double counting   =     40446.00946152   -40509.83777080
  entropy T*S    EENTRO =        -0.07992522
  eigenvalues    EBANDS =     -4585.07522916
  atomic energy  EATOM  =     13537.65479391
  Solvation  Ediel_sol  =         0.00000000
  ---------------------------------------------------
  free energy    TOTEN  =      -828.83523699 eV

  energy without entropy =     -828.75531177  energy(sigma->0) =     -828.79527438


--------------------------------------------------------------------------------------------------------




--------------------------------------- Iteration      1(  17)  ---------------------------------------


    POTLOK:  cpu time      0.3203: real time      0.3203
    SETDIJ:  cpu time      0.0400: real time      0.0400
     EDDAV:  cpu time     10.2407: real time     10.2453
       DOS:  cpu time      0.0007: real time      0.0007
    CHARGE:  cpu time      1.1529: real time      1.1565
    MIXING:  cpu time      0.3504: real time      0.3512
    --------------------------------------------
      LOOP:  cpu time     12.1049: real time     12.1141

 eigenvalue-minimisations  :  1584
 total energy-change (2. order) :-0.4318242E-02  (-0.2367995E-04)
 number of electron     368.0000007 magnetization 
 augmentation part        9.0407874 magnetization 

 Broyden mixing:
  rms(total) = 0.10388E-02    rms(broyden)= 0.10388E-02
  rms(prec ) = 0.13510E-02
  weight for this iteration     100.00

 eigenvalues of (default mixing * dielectric matrix)
  average eigenvalue GAMMA=   2.3719
  8.4038  4.5981  2.4763  2.4763  2.0583  1.5463  1.3614  1.3614  0.9718  0.9718
  1.0017  1.2358

 Free energy of the ion-electron system (eV)
  ---------------------------------------------------
  alpha Z        PSCENC =        91.34886789
  Ewald energy   TEWEN  =    118875.49605879
  -Hartree energ DENC   =   -129962.21121834
  -exchange      EXHF   =         0.00000000
  -V(xc)+E(xc)   XCENC  =      1275.93137705
  PAW double counting   =     40450.17981780   -40514.00505851
  entropy T*S    EENTRO =        -0.07992676
  eigenvalues    EBANDS =     -4583.15426706
  atomic energy  EATOM  =     13537.65479391
  Solvation  Ediel_sol  =         0.00000000
  ---------------------------------------------------
  free energy    TOTEN  =      -828.83955523 eV

  energy without entropy =     -828.75962847  energy(sigma->0) =     -828.79959185


--------------------------------------------------------------------------------------------------------




--------------------------------------- Iteration      1(  18)  ---------------------------------------


    POTLOK:  cpu time      0.3199: real time      0.3200
    SETDIJ:  cpu time      0.0402: real time      0.0402
     EDDAV:  cpu time     10.4043: real time     10.4102
       DOS:  cpu time      0.0008: real time      0.0008
    CHARGE:  cpu time      1.1528: real time      1.1544
    MIXING:  cpu time      0.3626: real time      0.3627
    --------------------------------------------
      LOOP:  cpu time     12.2806: real time     12.2883

 eigenvalue-minimisations  :  1616
 total energy-change (2. order) :-0.2079279E-02  (-0.8632191E-05)
 number of electron     368.0000007 magnetization 
 augmentation part        9.0407267 magnetization 

 Broyden mixing:
  rms(total) = 0.56117E-03    rms(broyden)= 0.56110E-03
  rms(prec ) = 0.73883E-03
  weight for this iteration     100.00

 eigenvalues of (default mixing * dielectric matrix)
  average eigenvalue GAMMA=   2.4202
  8.8585  5.0898  2.9410  2.5998  1.9495  1.9495  1.4473  1.4473  1.1428  1.1428
  0.9475  0.9475  0.9994

 Free energy of the ion-electron system (eV)
  ---------------------------------------------------
  alpha Z        PSCENC =        91.34886789
  Ewald energy   TEWEN  =    118875.49605879
  -Hartree energ DENC   =   -129963.01691209
  -exchange      EXHF   =         0.00000000
  -V(xc)+E(xc)   XCENC  =      1275.93087923
  PAW double counting   =     40449.23615467   -40513.06133201
  entropy T*S    EENTRO =        -0.07992360
  eigenvalues    EBANDS =     -4582.35022131
  atomic energy  EATOM  =     13537.65479391
  Solvation  Ediel_sol  =         0.00000000
  ---------------------------------------------------
  free energy    TOTEN  =      -828.84163451 eV

  energy without entropy =     -828.76171091  energy(sigma->0) =     -828.80167271


--------------------------------------------------------------------------------------------------------




--------------------------------------- Iteration      1(  19)  ---------------------------------------


    POTLOK:  cpu time      0.3197: real time      0.3221
    SETDIJ:  cpu time      0.0393: real time      0.0393
     EDDAV:  cpu time      9.3525: real time      9.3570
       DOS:  cpu time      0.0007: real time      0.0007
    CHARGE:  cpu time      1.1556: real time      1.1560
    MIXING:  cpu time      0.3749: real time      0.3749
    --------------------------------------------
      LOOP:  cpu time     11.2427: real time     11.2501

 eigenvalue-minimisations  :  1400
 total energy-change (2. order) :-0.1022663E-02  (-0.3814518E-05)
 number of electron     368.0000007 magnetization 
 augmentation part        9.0407591 magnetization 

 Broyden mixing:
  rms(total) = 0.39256E-03    rms(broyden)= 0.39255E-03
  rms(prec ) = 0.46214E-03
  weight for this iteration     100.00

 eigenvalues of (default mixing * dielectric matrix)
  average eigenvalue GAMMA=   2.4016
  8.9505  5.5191  3.1577  2.3705  2.3705  1.9472  1.3844  1.3844  1.3346  1.3346
  0.9641  0.9641  1.0080  0.9322

 Free energy of the ion-electron system (eV)
  ---------------------------------------------------
  alpha Z        PSCENC =        91.34886789
  Ewald energy   TEWEN  =    118875.49605879
  -Hartree energ DENC   =   -129963.29729794
  -exchange      EXHF   =         0.00000000
  -V(xc)+E(xc)   XCENC  =      1275.92770408
  PAW double counting   =     40447.56222680   -40511.38599046
  entropy T*S    EENTRO =        -0.07992188
  eigenvalues    EBANDS =     -4582.06909836
  atomic energy  EATOM  =     13537.65479391
  Solvation  Ediel_sol  =         0.00000000
  ---------------------------------------------------
  free energy    TOTEN  =      -828.84265717 eV

  energy without entropy =     -828.76273528  energy(sigma->0) =     -828.80269623


--------------------------------------------------------------------------------------------------------




--------------------------------------- Iteration      1(  20)  ---------------------------------------


    POTLOK:  cpu time      0.3201: real time      0.3202
    SETDIJ:  cpu time      0.0401: real time      0.0401
     EDDAV:  cpu time      9.4079: real time      9.4113
       DOS:  cpu time      0.0007: real time      0.0007
    CHARGE:  cpu time      1.1544: real time      1.1554
    MIXING:  cpu time      0.3867: real time      0.3867
    --------------------------------------------
      LOOP:  cpu time     11.3101: real time     11.3144

 eigenvalue-minimisations  :  1408
 total energy-change (2. order) :-0.2867655E-03  (-0.4047921E-06)
 number of electron     368.0000007 magnetization 
 augmentation part        9.0407382 magnetization 

 Broyden mixing:
  rms(total) = 0.21387E-03    rms(broyden)= 0.21386E-03
  rms(prec ) = 0.26239E-03
  weight for this iteration     100.00

 eigenvalues of (default mixing * dielectric matrix)
  average eigenvalue GAMMA=   2.4651
  9.1856  5.9580  3.7972  2.6451  2.4856  1.8848  1.6723  1.4968  1.4968  1.2273
  1.2273  0.9732  0.9732  0.9763  0.9763

 Free energy of the ion-electron system (eV)
  ---------------------------------------------------
  alpha Z        PSCENC =        91.34886789
  Ewald energy   TEWEN  =    118875.49605879
  -Hartree energ DENC   =   -129963.44058426
  -exchange      EXHF   =         0.00000000
  -V(xc)+E(xc)   XCENC  =      1275.92802997
  PAW double counting   =     40448.65177064   -40512.47593476
  entropy T*S    EENTRO =        -0.07992300
  eigenvalues    EBANDS =     -4581.92602310
  atomic energy  EATOM  =     13537.65479391
  Solvation  Ediel_sol  =         0.00000000
  ---------------------------------------------------
  free energy    TOTEN  =      -828.84294393 eV

  energy without entropy =     -828.76302094  energy(sigma->0) =     -828.80298244


--------------------------------------------------------------------------------------------------------




--------------------------------------- Iteration      1(  21)  ---------------------------------------


    POTLOK:  cpu time      0.3204: real time      0.3205
    SETDIJ:  cpu time      0.0399: real time      0.0399
     EDDAV:  cpu time      8.5548: real time      8.5579
       DOS:  cpu time      0.0007: real time      0.0007
    CHARGE:  cpu time      1.1688: real time      1.1691
    MIXING:  cpu time      0.4002: real time      0.4003
    --------------------------------------------
      LOOP:  cpu time     10.4849: real time     10.4884

 eigenvalue-minimisations  :  1240
 total energy-change (2. order) :-0.2216800E-03  (-0.3137369E-06)
 number of electron     368.0000007 magnetization 
 augmentation part        9.0407306 magnetization 

 Broyden mixing:
  rms(total) = 0.92492E-04    rms(broyden)= 0.92480E-04
  rms(prec ) = 0.11480E-03
  weight for this iteration     100.00

 eigenvalues of (default mixing * dielectric matrix)
  average eigenvalue GAMMA=   2.4097
  9.1669  6.2005  3.8632  2.5560  2.5560  2.0376  1.8443  1.4741  1.4741  1.2391
  1.2391  1.0516  0.9926  0.9926  0.9341  0.9341

 Free energy of the ion-electron system (eV)
  ---------------------------------------------------
  alpha Z        PSCENC =        91.34886789
  Ewald energy   TEWEN  =    118875.49605879
  -Hartree energ DENC   =   -129963.55471981
  -exchange      EXHF   =         0.00000000
  -V(xc)+E(xc)   XCENC  =      1275.92768988
  PAW double counting   =     40447.78155667   -40511.60630038
  entropy T*S    EENTRO =        -0.07992388
  eigenvalues    EBANDS =     -4581.81118867
  atomic energy  EATOM  =     13537.65479391
  Solvation  Ediel_sol  =         0.00000000
  ---------------------------------------------------
  free energy    TOTEN  =      -828.84316561 eV

  energy without entropy =     -828.76324173  energy(sigma->0) =     -828.80320367


[...]
   0.102E+02 -.117E+02 -.561E+02   -.119E+02 0.123E+02 0.561E+02   -.874E+00 -.104E-01 0.965E+00   0.975E-05 -.431E-06 -.355E-05
   -.182E+02 0.225E+01 -.713E+02   0.187E+02 -.266E+01 0.717E+02   -.707E+00 -.455E+00 -.198E+01   0.952E-05 0.360E-05 -.430E-05
   -.175E+02 0.430E+01 -.732E+02   0.189E+02 -.469E+01 0.730E+02   0.809E+00 -.258E+00 -.395E+00   0.726E-05 -.623E-05 -.335E-05
   0.282E+02 0.157E+02 0.819E+02   -.290E+02 -.165E+02 -.828E+02   0.112E+01 -.210E+00 0.215E+01   0.817E-05 0.110E-05 -.203E-05
   0.686E+01 -.174E+02 0.505E+01   -.789E+01 0.183E+02 -.519E+01   0.152E+00 -.150E+00 0.762E+00   0.619E-05 -.276E-05 -.146E-05
   0.139E+02 0.548E+01 0.588E+02   -.136E+02 -.669E+01 -.586E+02   0.487E+00 -.144E+01 -.637E+00   0.420E-05 0.605E-06 -.173E-05
   -.287E+02 0.129E+02 -.746E+02   0.298E+02 -.129E+02 0.755E+02   0.455E+00 0.775E+00 -.272E+01   0.456E-06 0.387E-05 0.104E-05
   0.163E+02 0.547E+01 0.896E+02   -.165E+02 -.447E+01 -.897E+02   -.323E+00 0.558E+00 -.343E+00   0.260E-06 -.464E-05 -.952E-06
   0.116E+02 -.189E+02 0.663E+02   -.116E+02 0.187E+02 -.672E+02   0.152E+01 -.133E+01 0.139E+01   0.447E-06 -.350E-05 0.314E-06
   0.144E+02 -.208E+02 0.129E+03   -.130E+02 0.223E+02 -.130E+03   0.259E+00 -.212E+00 0.244E+00   -.268E-05 -.596E-05 0.102E-05
   0.597E+01 0.159E+02 0.249E+02   -.645E+01 -.161E+02 -.242E+02   -.998E+00 0.158E+01 -.145E+00   0.523E-05 0.245E-05 -.112E-05
   0.488E+02 0.121E+02 0.146E+03   -.508E+02 -.124E+02 -.146E+03   -.187E+01 -.687E-01 0.719E+00   -.438E-06 0.341E-05 -.206E-06
   0.281E+02 -.136E+02 0.105E+03   -.285E+02 0.136E+02 -.105E+03   -.593E+00 -.254E+00 0.807E+00   0.144E-05 -.743E-06 -.860E-06
   0.156E+02 0.660E+00 0.158E+03   -.144E+02 -.121E+01 -.158E+03   -.177E+00 0.722E-01 -.342E+00   -.614E-05 -.510E-08 0.484E-06
   0.708E+01 0.111E+02 0.807E+02   -.619E+01 -.124E+02 -.814E+02   0.269E+00 -.593E+00 0.789E+00   -.823E-05 -.310E-05 0.809E-06
   0.211E+02 0.144E+02 0.190E+03   -.205E+02 -.158E+02 -.190E+03   -.148E-01 -.327E+00 0.857E+00   -.557E-05 -.233E-05 0.772E-06
   0.111E+02 -.162E+02 0.122E+03   -.109E+02 0.176E+02 -.122E+03   -.512E+00 0.870E+00 -.787E-01   -.778E-05 0.181E-05 0.173E-05
   0.830E+01 -.193E+02 0.183E+03   -.888E+01 0.216E+02 -.184E+03   -.859E+00 0.135E+01 -.258E+00   -.300E-05 -.246E-05 0.822E-06
   0.115E+02 0.129E+02 0.101E+03   -.125E+02 -.140E+02 -.101E+03   -.747E+00 -.908E+00 -.132E+00   -.205E-05 0.195E-05 0.121E-05
   -.569E+01 0.101E+02 0.193E+03   0.584E+01 -.107E+02 -.193E+03   0.533E+00 -.348E+00 0.634E+00   -.273E-05 -.380E-06 0.832E-06
   -.953E+01 -.540E+01 0.143E+03   0.102E+02 0.586E+01 -.143E+03   0.209E+00 0.495E-02 0.116E+01   -.514E-06 0.726E-06 0.907E-06
   -.145E+02 -.107E+02 0.167E+03   0.143E+02 0.102E+02 -.167E+03   0.651E+00 -.738E+00 -.585E+00   0.923E-06 0.383E-05 0.818E-06
   -.954E+01 0.166E+02 0.342E+02   0.882E+01 -.174E+02 -.334E+02   0.213E+00 -.556E+00 -.195E+01   0.989E-06 0.342E-06 0.110E-05
   -.316E+02 0.970E+01 0.139E+03   0.319E+02 -.926E+01 -.139E+03   -.165E-01 0.395E+00 0.403E+00   0.402E-05 -.591E-06 0.340E-06
   -.197E+02 -.445E+01 0.378E+02   0.212E+02 0.431E+01 -.376E+02   0.997E+00 -.236E-01 0.867E-02   0.403E-05 0.229E-05 0.105E-05
   -.407E+02 -.170E+02 0.170E+03   0.413E+02 0.177E+02 -.171E+03   0.590E+00 0.306E+00 0.173E+01   0.149E-05 -.258E-05 -.709E-06
   -.159E+02 0.149E+02 -.153E+01   0.147E+02 -.160E+02 0.179E+01   -.411E+00 -.665E+00 -.581E+00   0.450E-05 0.455E-05 0.872E-06
   -.280E+02 0.716E+02 0.122E+03   0.239E+02 -.736E+02 -.123E+03   0.127E+00 0.221E+01 -.412E+00   -.440E-06 0.361E-05 -.423E-06
   -.429E+01 -.590E+02 0.290E+02   0.165E+01 0.604E+02 -.299E+02   0.113E+01 -.471E+00 0.572E+00   0.195E-05 0.334E-05 0.428E-06
   0.156E+02 0.607E+02 -.448E+02   -.117E+02 -.610E+02 0.468E+02   0.386E-01 0.330E+01 -.636E+00   0.366E-05 -.112E-05 0.204E-05
   -.239E+01 -.649E+02 0.250E+02   0.549E+01 0.651E+02 -.233E+02   -.227E+00 -.141E+01 -.527E+00   -.765E-06 -.628E-05 0.142E-05
   0.270E+02 -.126E+02 -.476E+02   -.271E+02 0.134E+02 0.476E+02   -.225E+01 -.335E+00 0.770E+00   -.441E-05 -.660E-05 -.433E-06
   0.602E+01 -.449E+01 0.226E+02   -.512E+01 0.543E+01 -.233E+02   -.888E-01 0.989E+00 0.437E+00   -.426E-05 -.636E-05 0.617E-06
   0.421E+02 0.834E+01 -.145E+03   -.410E+02 -.826E+01 0.146E+03   0.172E+00 0.124E+00 -.146E+01   -.961E-05 -.306E-05 -.203E-05
   0.318E+02 -.214E+02 -.779E+02   -.322E+02 0.216E+02 0.781E+02   -.165E+00 0.508E-01 -.734E+00   -.456E-05 -.321E-05 0.431E-06
   0.451E+02 -.214E+02 -.152E+03   -.458E+02 0.234E+02 0.152E+03   -.104E+01 0.152E+01 -.464E+00   -.111E-04 -.454E-05 -.253E-05
   0.239E+02 0.127E+02 -.413E+02   -.239E+02 -.130E+02 0.410E+02   -.527E-02 -.138E+00 0.992E+00   -.736E-05 0.763E-06 -.151E-05
   0.457E+02 0.439E+01 -.205E+03   -.454E+02 -.392E+01 0.205E+03   0.420E+00 0.109E+00 -.935E+00   -.642E-05 -.119E-06 0.256E-07
   0.340E+02 -.625E+01 -.140E+03   -.342E+02 0.594E+01 0.140E+03   0.427E+00 -.448E+00 0.300E-02   -.466E-05 0.267E-05 -.641E-06
   0.312E+02 -.104E+02 -.202E+03   -.315E+02 0.102E+02 0.203E+03   -.132E+00 -.661E+00 -.107E+01   0.104E-05 -.495E-06 0.106E-06
   0.241E+02 0.208E+02 -.148E+03   -.243E+02 -.227E+02 0.148E+03   0.573E+00 -.118E+01 0.156E+00   -.173E-05 0.197E-05 -.113E-05
   0.814E+01 0.187E+02 -.198E+03   -.797E+01 -.197E+02 0.199E+03   -.785E+00 0.131E+00 0.894E+00   -.170E-05 0.196E-05 -.787E-06
   0.144E+02 -.194E+02 -.175E+03   -.147E+02 0.205E+02 0.176E+03   0.150E+01 0.939E+00 0.128E-01   -.180E-05 -.242E-05 -.117E-05
   -.111E+02 -.111E+02 -.269E+03   0.120E+02 0.117E+02 0.270E+03   -.747E-01 0.345E+00 -.245E+01   -.806E-06 0.571E-06 -.758E-06
   0.222E+01 0.128E+02 -.182E+03   -.313E+01 -.130E+02 0.183E+03   0.750E+00 0.132E+01 -.469E+00   0.283E-05 -.238E-05 -.158E-05
   -.293E+02 0.155E+02 -.229E+03   0.294E+02 -.166E+02 0.229E+03   -.406E-01 -.119E+01 -.163E+00   0.430E-05 0.322E-05 -.958E-06
   -.272E+02 -.181E+02 -.172E+03   0.279E+02 0.186E+02 0.172E+03   0.169E+00 -.683E+00 0.144E+00   0.506E-05 0.174E-05 -.170E-05
   -.364E+02 -.234E+02 -.185E+03   0.369E+02 0.255E+02 0.185E+03   0.105E+00 0.757E+00 -.405E+00   0.119E-04 -.391E-05 -.342E-05
   -.192E+02 0.121E+02 -.109E+03   0.192E+02 -.123E+02 0.109E+03   -.294E+00 0.105E+00 0.400E+00   0.873E-05 0.117E-05 -.248E-05
   -.178E+02 0.808E+01 -.165E+03   0.156E+02 -.851E+01 0.166E+03   -.206E+01 0.434E+00 -.398E+00   0.144E-04 0.108E-05 -.384E-05
   -.125E+02 -.178E+02 -.782E+02   0.127E+02 0.190E+02 0.782E+02   0.227E+00 0.129E+01 0.145E+00   0.104E-04 -.361E-05 -.172E-05
   -.407E+02 -.233E+01 -.105E+03   0.424E+02 0.188E+01 0.104E+03   0.305E+00 -.708E+00 0.121E+01   0.163E-05 0.839E-06 0.131E-05
   0.775E+01 0.511E+01 -.238E+01   -.859E+01 -.457E+01 0.240E+01   -.404E-01 0.250E-01 0.250E+00   0.732E-05 0.102E-05 -.187E-05
   -.360E+02 -.211E+01 -.129E+03   0.358E+02 0.277E+01 0.129E+03   -.140E+01 0.102E+00 -.181E+01   0.610E-06 0.167E-05 -.761E-06
   -.146E+01 -.955E+00 -.629E+01   0.116E+01 0.290E+00 0.665E+01   0.509E-01 -.388E+00 0.719E+00   0.491E-05 0.278E-05 -.157E-05
   -.151E+02 0.373E+01 -.637E+02   0.149E+02 -.467E+01 0.634E+02   0.435E+00 0.452E+00 0.427E+00   -.127E-05 -.151E-06 0.111E-05
   0.105E+02 0.143E+02 0.700E+02   -.996E+01 -.151E+02 -.704E+02   0.829E+00 -.104E+01 0.214E+00   -.388E-05 0.110E-05 0.996E-06
   -.308E+02 0.268E+01 -.539E+02   0.325E+02 -.285E+01 0.537E+02   0.800E+00 0.103E+00 -.668E+00   -.667E-05 -.495E-06 0.135E-05
   0.106E+02 -.614E+01 0.475E+02   -.111E+02 0.613E+01 -.471E+02   0.686E+00 -.183E+00 0.691E-01   -.679E-05 0.399E-05 0.658E-06
   -.119E+02 -.168E+02 -.675E+02   0.116E+02 0.192E+02 0.686E+02   -.115E+01 0.145E+01 -.139E+01   -.258E-05 -.529E-05 -.801E-06
   0.218E+02 0.108E+02 0.108E+03   -.224E+02 -.108E+02 -.108E+03   0.941E+00 0.724E+00 0.647E+00   -.342E-05 0.274E-05 -.303E-06
   0.119E+01 0.654E+01 -.934E+01   -.242E+01 -.753E+01 0.974E+01   -.803E+00 -.877E+00 0.472E+00   -.117E-05 0.962E-06 -.743E-07
   0.320E+01 -.175E+02 0.512E+02   -.314E+01 0.186E+02 -.508E+02   0.948E+00 -.139E+00 -.128E+01   -.275E-05 0.662E-06 -.307E-06
   -.136E+01 -.812E+01 0.423E+02   0.207E+01 0.872E+01 -.420E+02   0.196E+00 -.335E+00 -.561E+00   -.334E-05 0.120E-05 0.148E-05
   0.120E+02 0.225E+02 0.146E+03   -.124E+02 -.247E+02 -.146E+03   0.147E+01 -.680E+00 0.445E+00   -.590E-05 0.161E-05 0.130E-05
   -.101E+02 0.543E+01 0.114E+03   0.101E+02 -.533E+01 -.114E+03   -.291E+00 -.481E+00 0.234E+00   -.198E-05 -.312E-05 0.185E-05
   -.721E+01 -.190E+02 0.165E+03   0.801E+01 0.199E+02 -.165E+03   0.121E+01 -.551E+00 -.806E-01   -.540E-05 -.793E-06 0.153E-05
   -.163E+02 -.120E+02 0.118E+03   0.167E+02 0.129E+02 -.118E+03   0.116E-01 0.701E-01 0.150E+01   0.292E-05 0.101E-05 0.137E-05
   -.173E+02 0.155E+02 0.204E+03   0.164E+02 -.155E+02 -.204E+03   -.785E+00 0.417E-01 0.150E+01   0.315E-05 -.865E-06 0.105E-05
   -.172E+02 0.133E+02 0.761E+02   0.166E+02 -.141E+02 -.760E+02   -.175E+00 -.800E+00 -.323E+00   0.712E-05 -.104E-05 0.205E-05
   -.181E+02 -.213E+02 0.133E+03   0.182E+02 0.227E+02 -.132E+03   -.820E-03 0.250E+00 -.607E+00   0.832E-05 -.399E-05 0.255E-05
   -.122E+02 0.110E+01 0.212E+02   0.124E+02 -.960E+00 -.211E+02   0.106E+01 0.252E+00 0.944E+00   0.126E-05 -.106E-06 0.732E-06
   -.379E+02 0.506E+01 0.136E+03   0.376E+02 -.532E+01 -.136E+03   0.140E+00 -.755E+00 -.678E+00   0.604E-08 -.596E-06 -.177E-06
   0.155E+00 0.573E+02 -.135E+02   -.461E+01 -.583E+02 0.123E+02   0.169E+01 0.109E+01 -.995E+00   0.222E-06 -.288E-05 0.116E-05
   -.413E+02 -.603E+02 0.136E+03   0.384E+02 0.615E+02 -.138E+03   0.470E+00 -.930E+00 0.226E+01   0.596E-06 -.233E-05 0.146E-05
 -----------------------------------------------------------------------------------------------
   -.442E+00 0.135E+01 -.158E+01   -.604E-12 -.306E-12 -.853E-13   0.445E+00 -.128E+01 0.154E+01   -.775E-05 0.777E-06 -.346E-04
 
 
 POSITION                                       TOTAL-FORCE (eV/Angst)
 -----------------------------------------------------------------------------------
      0.44163      0.80024     15.86690         2.484324     -0.065043      1.777966
      0.32598      2.14448     16.18270         2.256047      1.311586      0.625820
      1.57819      0.14612     16.40450        -0.375783     -0.933597     -0.035832
      1.37992      2.84724     16.80660         0.463155     -2.465404     -0.808060
      2.76439      0.87197     16.92160        -2.257747     -2.559961     -1.323942
      2.62459      2.20084     17.07320         0.285778      1.223725     -0.077916
      3.89382      0.19171     17.41010         0.053878     -0.409400      0.322709
      3.78028      2.87003     17.56020         1.099676     -1.812261      0.400933
      5.05676      0.85875     17.87630         0.100596     -0.820983     -0.880845
      5.03046      2.22682     17.82390         0.093322      0.088911      0.559090
      6.24665      0.16995     18.27160        -0.530011      2.356562     -0.041571
      6.21981      2.87976     18.25120        -0.626142      0.386699      0.501703
      7.48706      0.83615     18.48610        -0.457731     -0.121358     -1.298543
      7.44716      2.20754     18.41220         1.424522      0.364524      0.043577
      8.72917      0.14825     18.44130        -0.449276      1.389517     -0.322101
      8.72619      2.89165     18.47700        -0.748041     -0.970979      0.130517
      9.92220      0.86505     18.07370        -0.758506     -1.772581      0.924337
      9.93648      2.22556     18.10660        -2.618297      0.547068      0.968453
     11.13780      0.20864     17.85730        -0.193866     -0.874935     -1.586941
     11.11670      2.89783     17.96020         2.225362     -0.651942     -0.584248
     12.22350      0.89464     17.24620         0.335463     -0.962712      1.246322
     12.28720      2.24467     17.44120        -0.880248      0.749675      0.623681
     13.41710      0.24129     16.93370         0.780550     -2.650261     -0.485435
     13.52120      2.87173     17.32130         1.598176      0.771457     -1.799572
     14.61270      0.86841     16.51470        -0.468307      1.554242     -0.454594
     14.63410      2.26620     16.65700         1.482566     -1.527090      0.462637
     15.79420      0.21364     16.10910         1.692069      1.292806     -0.693345
     15.93910      2.84636     16.41870        -1.481665      1.360741      0.613566
     17.09660      0.87767     15.71170        -3.862772     -0.346290      0.866673
     17.10870      2.24265     15.88560        -1.022274     -0.266657      0.324672
     18.25120      0.19090     15.44800         1.047848     -0.482271     -0.669365
     18.33190      2.90919     15.74710         1.159912     -1.858478      0.036945
     19.48800      0.87589     15.17090         0.526028     -1.699813      0.293766
     19.53970      2.21329     15.36430        -0.313354      2.273115      0.104207
     20.74850      0.16816     15.02660        -1.448196      3.729810     -0.481150
     20.79370      2.92880     15.31540        -1.716147     -2.002351      0.053684
     21.98070      0.87264     14.96570         0.688493     -0.898775      0.302062
     21.98790      2.23287     15.14490         0.839836      0.462297      0.671848
     23.24810      0.21314     15.02030         0.431096     -1.241894     -0.637617
     23.23020      2.88744     15.41870        -0.513128     -1.360286     -1.144580
     24.50720      0.82807     15.24020         0.222470      0.829453      0.379054
     24.44150      2.18595     15.52450         2.571653     -0.164466      0.180048
     25.77830      0.14760     15.33120         1.225010      0.985762      0.598651
     25.72340      2.83032     15.83990        -1.599493     -1.737627     -0.320886
     27.03090      0.76689     15.69080        -3.949177      0.195433     -1.344663
     26.92970      2.11237     15.94140        -1.516130      0.923590     -0.282457
      0.14457      4.78975     16.56690         3.920434      2.963084      1.363007
      0.21956      6.20668     16.36970         2.867641     -1.179305      1.140929
      1.36674      4.19519     16.96940        -2.406954      0.491003      0.765015
      1.41812      6.84521     16.68820         0.808324      1.931695     -0.264532
      2.49272      4.85560     17.52910         1.309911      0.204175     -0.206054
      2.55547      6.22624     17.34770        -0.613595      0.256093     -0.528929
      3.74482      4.15808     17.89770        -1.720692      3.520345     -0.099744
      3.78587      6.92114     17.59650        -0.056755     -0.467927      0.652275
      4.90577      4.87403     18.32780         0.668709      0.576236     -0.575612
      4.91968      6.27440     18.15320         0.160659     -0.755819      0.230181
      6.18216      4.24105     18.53360        -0.474073     -0.830895     -0.827833
      6.16666      6.94385     18.37780         0.330134     -3.113410      0.134475
      7.44637      4.88170     18.68470        -0.619249     -0.890631      1.013731
      7.39567      6.22585     18.60440         1.219042      2.048409      0.364783
      8.72118      4.22455     18.79910         0.800225      0.941204     -1.676448
      8.68662      6.87962     18.58360        -0.161401      1.077545     -0.435388
      9.99623      4.92761     18.62440         0.077926     -2.246928     -0.151580
      9.95761      6.28266     18.47620         0.880345     -0.185010      0.075409
     11.21150      4.20520     18.26660         0.638941      2.834436      0.071656
     11.17390      6.93131     18.04020        -0.317240     -0.136670      0.113107
     12.50010      4.88479     17.90810        -4.178302      0.006616      1.105651
     12.37940      6.22635     17.71640         0.409290      2.509476      0.076444
     13.62210      4.24978     17.49520         2.041181     -1.161056      0.199460
     13.50370      6.93552     17.14280        -0.883170      0.563016      0.275000
     14.84900      4.91002     17.16530        -1.638658      0.760817     -1.060701
     14.72540      6.29385     16.85570        -0.253061     -1.053967      1.070744
     15.98020      4.21588     16.70820         0.221845     -0.492703      0.182291
     15.82180      6.97405     16.30660         1.326563     -1.811616     -0.181819
     17.14040      4.91000     16.38920         2.491762     -0.065251     -0.839584
     17.05800      6.27299     16.09830         0.148080     -0.194248      0.488591
     18.42170      4.20081     16.09490        -1.431407      3.832333     -0.292449
     18.23310      6.90844     15.64590         0.390705      0.694165      0.229205
     19.61320      4.94854     15.75790        -2.033751     -1.869217      0.864381
     19.48620      6.28329     15.57600         1.012522      0.959442     -0.933364
     20.79210      4.27784     15.47920         0.903437      0.267617     -0.266088
     20.68570      6.95394     15.15610         1.092193     -2.902422      0.315354
     22.01280      4.93421     15.23330        -0.293866     -0.389984      0.178441
     21.94910      6.28758     15.06110         2.008595      0.377102      0.050919
     23.24170      4.24114     15.28400         0.424175      1.026008      1.076690
     23.27740      6.92089     14.96960        -1.605264      0.060230      0.791223
     24.49080      4.89942     15.45240        -0.766139     -1.648365     -0.228817
     24.51140      6.23192     15.26020         0.075537      1.645896     -0.527015
     25.66370      4.19739     15.80980         1.306462      0.392026      1.006022
     25.77950      6.88586     15.41600        -0.146977     -1.017381     -0.648276
     26.84990      4.85471     16.11130        -2.766179      0.095657     -2.141734
     26.94590      6.19279     15.77190        -2.469445      0.238622      0.311723
 -----------------------------------------------------------------------------------
    total drift:                                0.003198      0.069025     -0.041502


--------------------------------------------------------------------------------------------------------



  FREE ENERGIE OF THE ION-ELECTRON SYSTEM (eV)
  ---------------------------------------------------
  free  energy   TOTEN  =      -828.84325964 eV

  energy  without entropy=     -828.76333618  energy(sigma->0) =     -828.80329791
 


--------------------------------------------------------------------------------------------------------


    POTLOK:  cpu time      0.4546: real time      0.4544


--------------------------------------------------------------------------------------------------------


     LOOP+:  cpu time    333.6651: real time    333.8629
    4ORBIT:  cpu time      0.0000: real time      0.0000

 total amount of memory used by VASP MPI-rank0  2294496. kBytes
=======================================================================

   base                                    :      30000. kBytes
   nonlr-proj                              :      15062. kBytes
   fftplans                                :     436558. kBytes
   grid                                    :     732614. kBytes
   one-center                              :        282. kBytes
   wavefun                                 :    1079980. kBytes
 
  
  
 General timing and accounting informations for this job:
 ========================================================
  
                  Total CPU time used (sec):      366.962
                            User time (sec):      358.577
                          System time (sec):        8.386
                         Elapsed time (sec):      367.239
  
                   Maximum memory used (kb):     3728864.
                   Average memory used (kb):          N/A
  
                          Minor page faults:      3179087
                          Major page faults:         5015
                 Voluntary context switches:         9905
