  92  92   0   0
  0.8273226E+02  0.2805000E-08  0.8100000E-09  0.3350000E-08  0.5000000E-15
   1.0000000000000000E-004
  CAR 
 unknown system                          
      3.91330365    -25.24842437  301     -3.20829832      1.00000000
    -25.248  0.0000E+00  0.0000E+00
    -25.151  0.0000E+00  0.0000E+00
    -25.054  0.0000E+00  0.0000E+00
    -24.957  0.0000E+00  0.0000E+00
    -24.860  0.0000E+00  0.0000E+00
    -24.762  0.0000E+00  0.0000E+00
    -24.665  0.0000E+00  0.0000E+00
    -24.568  0.0000E+00  0.0000E+00
    -24.471  0.0000E+00  0.0000E+00
    -24.374  0.4569E-14  0.4441E-15
    -24.276  0.9571E-12  0.9348E-13
    -24.179  0.1242E-09  0.1217E-10
    -24.082  0.1019E-07  0.1003E-08
    -23.985  0.5298E-06  0.5251E-07
    -23.888  0.1755E-04  0.1758E-05
    -23.790  0.3721E-03  0.3792E-04
    -23.693  0.5087E-02  0.5324E-03
    -23.596  0.4528E-01  0.4934E-02
    -23.499  0.2659E+00  0.3078E-01
    -23.402  0.1052E+01  0.1330E+00
    -23.304  0.2901E+01  0.4151E+00
    -23.207  0.5869E+01  0.9855E+00
    -23.110  0.9232E+01  0.1883E+01
    -23.013  0.1181E+02  0.3031E+01
    -22.915  0.1279E+02  0.4274E+01
    -22.818  0.1292E+02  0.5530E+01
    -22.721  0.1392E+02  0.6884E+01
    -22.624  0.1568E+02  0.8408E+01
    -22.527  0.1611E+02  0.9974E+01
    -22.429  0.1434E+02  0.1137E+02
    -22.332  0.1225E+02  0.1256E+02
    -22.235  0.1199E+02  0.1372E+02
    -22.138  0.1330E+02  0.1502E+02
    -22.041  0.1433E+02  0.1641E+02
    -21.943  0.1420E+02  0.1779E+02
    -21.846  0.1341E+02  0.1909E+02
    -21.749  0.1269E+02  0.2033E+02
    -21.652  0.1237E+02  0.2153E+02
    -21.555  0.1214E+02  0.2271E+02
    -21.457  0.1163E+02  0.2384E+02
    -21.360  0.1142E+02  0.2495E+02
    -21.263  0.1288E+02  0.2620E+02
    -21.166  0.1572E+02  0.2773E+02
    -21.069  0.1718E+02  0.2940E+02
    -20.971  0.1570E+02  0.3093E+02
    -20.874  0.1292E+02  0.3218E+02
    -20.777  0.1147E+02  0.3330E+02
    -20.680  0.1227E+02  0.3449E+02
    -20.583  0.1399E+02  0.3585E+02
    -20.485  0.1482E+02  0.3729E+02
    -20.388  0.1421E+02  0.3867E+02
    -20.291  0.1333E+02  0.3997E+02
    -20.194  0.1356E+02  0.4129E+02
    -20.097  0.1453E+02  0.4270E+02
    -19.999  0.1496E+02  0.4415E+02
    -19.902  0.1450E+02  0.4556E+02
    -19.805  0.1356E+02  0.4688E+02
    -19.708  0.1324E+02  0.4817E+02
    -19.610  0.1477E+02  0.4960E+02
    -19.513  0.1672E+02  0.5123E+02
    -19.416  0.1617E+02  0.5280E+02
    -19.319  0.1355E+02  0.5412E+02
    -19.222  0.1216E+02  0.5530E+02
    -19.124  0.1334E+02  0.5660E+02
    -19.027  0.1504E+02  0.5806E+02
    -18.930  0.1488E+02  0.5951E+02
    -18.833  0.1335E+02  0.6080E+02
    -18.736  0.1324E+02  0.6209E+02
    -18.638  0.1556E+02  0.6360E+02
    -18.541  0.1770E+02  0.6532E+02
    -18.444  0.1736E+02  0.6701E+02
    -18.347  0.1624E+02  0.6859E+02
    -18.250  0.1676E+02  0.7022E+02
    -18.152  0.1780E+02  0.7195E+02
    -18.055  0.1696E+02  0.7360E+02
    -17.958  0.1450E+02  0.7501E+02
    -17.861  0.1285E+02  0.7626E+02
    -17.764  0.1285E+02  0.7751E+02
    -17.666  0.1267E+02  0.7874E+02
    -17.569  0.1149E+02  0.7985E+02
    -17.472  0.1101E+02  0.8092E+02
    -17.375  0.1195E+02  0.8209E+02
    -17.278  0.1252E+02  0.8330E+02
    -17.180  0.1156E+02  0.8443E+02
    -17.083  0.1035E+02  0.8543E+02
    -16.986  0.1014E+02  0.8642E+02
    -16.889  0.1052E+02  0.8744E+02
    -16.792  0.1098E+02  0.8851E+02
    -16.694  0.1168E+02  0.8964E+02
    -16.597  0.1266E+02  0.9087E+02
    -16.500  0.1395E+02  0.9223E+02
    -16.403  0.1554E+02  0.9374E+02
    -16.305  0.1664E+02  0.9536E+02
    -16.208  0.1650E+02  0.9696E+02
    -16.111  0.1584E+02  0.9850E+02
    -16.014  0.1581E+02  0.1000E+03
    -15.917  0.1608E+02  0.1016E+03
    -15.819  0.1524E+02  0.1031E+03
    -15.722  0.1329E+02  0.1044E+03
    -15.625  0.1177E+02  0.1055E+03
    -15.528  0.1161E+02  0.1066E+03
    -15.431  0.1320E+02  0.1079E+03
    -15.333  0.1673E+02  0.1096E+03
    -15.236  0.2079E+02  0.1116E+03
    -15.139  0.2318E+02  0.1138E+03
    -15.042  0.2325E+02  0.1161E+03
    -14.945  0.2155E+02  0.1182E+03
    -14.847  0.1867E+02  0.1200E+03
    -14.750  0.1494E+02  0.1215E+03
    -14.653  0.1105E+02  0.1225E+03
    -14.556  0.8393E+01  0.1233E+03
    -14.459  0.8033E+01  0.1241E+03
    -14.361  0.9533E+01  0.1250E+03
    -14.264  0.1146E+02  0.1262E+03
    -14.167  0.1298E+02  0.1274E+03
    -14.070  0.1417E+02  0.1288E+03
    -13.973  0.1525E+02  0.1303E+03
    -13.875  0.1646E+02  0.1319E+03
    -13.778  0.1754E+02  0.1336E+03
    -13.681  0.1800E+02  0.1353E+03
    -13.584  0.1806E+02  0.1371E+03
    -13.487  0.1838E+02  0.1389E+03
    -13.389  0.1892E+02  0.1407E+03
    -13.292  0.1890E+02  0.1426E+03
    -13.195  0.1777E+02  0.1443E+03
    -13.098  0.1591E+02  0.1458E+03
    -13.000  0.1441E+02  0.1472E+03
    -12.903  0.1433E+02  0.1486E+03
    -12.806  0.1508E+02  0.1501E+03
    -12.709  0.1493E+02  0.1515E+03
    -12.612  0.1362E+02  0.1529E+03
    -12.514  0.1288E+02  0.1541E+03
    -12.417  0.1402E+02  0.1555E+03
    -12.320  0.1680E+02  0.1571E+03
    -12.223  0.2031E+02  0.1591E+03
    -12.126  0.2339E+02  0.1614E+03
    -12.028  0.2460E+02  0.1638E+03
    -11.931  0.2338E+02  0.1660E+03
    -11.834  0.2099E+02  0.1681E+03
    -11.737  0.1912E+02  0.1699E+03
    -11.640  0.1790E+02  0.1717E+03
    -11.542  0.1687E+02  0.1733E+03
    -11.445  0.1642E+02  0.1749E+03
    -11.348  0.1700E+02  0.1766E+03
    -11.251  0.1908E+02  0.1784E+03
    -11.154  0.2306E+02  0.1806E+03
    -11.056  0.2810E+02  0.1834E+03
    -10.959  0.3237E+02  0.1865E+03
    -10.862  0.3442E+02  0.1899E+03
    -10.765  0.3429E+02  0.1932E+03
    -10.668  0.3394E+02  0.1965E+03
    -10.570  0.3519E+02  0.1999E+03
    -10.473  0.3736E+02  0.2036E+03
    -10.376  0.3825E+02  0.2073E+03
    -10.279  0.3713E+02  0.2109E+03
    -10.182  0.3550E+02  0.2143E+03
    -10.084  0.3489E+02  0.2177E+03
     -9.987  0.3477E+02  0.2211E+03
     -9.890  0.3388E+02  0.2244E+03
     -9.793  0.3293E+02  0.2276E+03
     -9.696  0.3395E+02  0.2309E+03
     -9.598  0.3737E+02  0.2345E+03
     -9.501  0.4126E+02  0.2385E+03
     -9.404  0.4292E+02  0.2427E+03
     -9.307  0.4088E+02  0.2467E+03
     -9.209  0.3618E+02  0.2502E+03
     -9.112  0.3171E+02  0.2533E+03
     -9.015  0.3005E+02  0.2562E+03
     -8.918  0.3142E+02  0.2593E+03
     -8.821  0.3411E+02  0.2626E+03
     -8.723  0.3660E+02  0.2661E+03
     -8.626  0.3763E+02  0.2698E+03
     -8.529  0.3611E+02  0.2733E+03
     -8.432  0.3258E+02  0.2765E+03
     -8.335  0.2905E+02  0.2793E+03
     -8.237  0.2725E+02  0.2819E+03
     -8.140  0.2729E+02  0.2846E+03
     -8.043  0.2785E+02  0.2873E+03
     -7.946  0.2775E+02  0.2900E+03
     -7.849  0.2728E+02  0.2927E+03
     -7.751  0.2732E+02  0.2953E+03
     -7.654  0.2786E+02  0.2980E+03
     -7.557  0.2838E+02  0.3008E+03
     -7.460  0.2880E+02  0.3036E+03
     -7.363  0.2901E+02  0.3064E+03
     -7.265  0.2831E+02  0.3092E+03
     -7.168  0.2670E+02  0.3117E+03
     -7.071  0.2522E+02  0.3142E+03
     -6.974  0.2460E+02  0.3166E+03
     -6.877  0.2518E+02  0.3190E+03
     -6.779  0.2701E+02  0.3217E+03
     -6.682  0.2855E+02  0.3244E+03
     -6.585  0.2754E+02  0.3271E+03
     -6.488  0.2396E+02  0.3294E+03
     -6.391  0.2054E+02  0.3314E+03
     -6.293  0.1941E+02  0.3333E+03
     -6.196  0.2042E+02  0.3353E+03
     -6.099  0.2290E+02  0.3375E+03
     -6.002  0.2570E+02  0.3400E+03
     -5.904  0.2647E+02  0.3426E+03
     -5.807  0.2407E+02  0.3450E+03
     -5.710  0.2032E+02  0.3469E+03
     -5.613  0.1705E+02  0.3486E+03
     -5.516  0.1413E+02  0.3500E+03
     -5.418  0.1141E+02  0.3511E+03
     -5.321  0.1003E+02  0.3520E+03
     -5.224  0.1057E+02  0.3531E+03
     -5.127  0.1144E+02  0.3542E+03
     -5.030  0.1072E+02  0.3552E+03
     -4.932  0.9045E+01  0.3561E+03
     -4.835  0.8605E+01  0.3569E+03
     -4.738  0.1009E+02  0.3579E+03
     -4.641  0.1252E+02  0.3591E+03
     -4.544  0.1470E+02  0.3606E+03
     -4.446  0.1519E+02  0.3620E+03
     -4.349  0.1272E+02  0.3633E+03
     -4.252  0.8431E+01  0.3641E+03
     -4.155  0.5061E+01  0.3646E+03
     -4.058  0.3617E+01  0.3649E+03
     -3.960  0.2984E+01  0.3652E+03
     -3.863  0.2372E+01  0.3655E+03
     -3.766  0.2231E+01  0.3657E+03
     -3.669  0.2972E+01  0.3660E+03
     -3.572  0.4184E+01  0.3664E+03
     -3.474  0.4978E+01  0.3669E+03
     -3.377  0.4814E+01  0.3673E+03
     -3.280  0.4163E+01  0.3677E+03
     -3.183  0.3723E+01  0.3681E+03
     -3.086  0.3607E+01  0.3684E+03
     -2.988  0.3779E+01  0.3688E+03
     -2.891  0.4222E+01  0.3692E+03
     -2.794  0.5177E+01  0.3697E+03
     -2.697  0.7114E+01  0.3704E+03
     -2.599  0.9204E+01  0.3713E+03
     -2.502  0.9443E+01  0.3722E+03
     -2.405  0.7335E+01  0.3729E+03
     -2.308  0.4821E+01  0.3734E+03
     -2.211  0.4133E+01  0.3738E+03
     -2.113  0.5443E+01  0.3743E+03
     -2.016  0.6913E+01  0.3750E+03
     -1.919  0.7146E+01  0.3757E+03
     -1.822  0.6962E+01  0.3764E+03
     -1.725  0.8270E+01  0.3772E+03
     -1.627  0.1150E+02  0.3783E+03
     -1.530  0.1518E+02  0.3798E+03
     -1.433  0.1826E+02  0.3816E+03
     -1.336  0.2062E+02  0.3836E+03
     -1.239  0.2187E+02  0.3857E+03
     -1.141  0.2201E+02  0.3878E+03
     -1.044  0.2160E+02  0.3899E+03
     -0.947  0.2024E+02  0.3919E+03
     -0.850  0.1717E+02  0.3936E+03
     -0.753  0.1314E+02  0.3948E+03
     -0.655  0.1025E+02  0.3958E+03
     -0.558  0.9649E+01  0.3968E+03
     -0.461  0.1062E+02  0.3978E+03
     -0.364  0.1196E+02  0.3990E+03
     -0.267  0.1306E+02  0.4002E+03
     -0.169  0.1428E+02  0.4016E+03
     -0.072  0.1654E+02  0.4032E+03
      0.025  0.1936E+02  0.4051E+03
      0.122  0.2121E+02  0.4072E+03
      0.219  0.2192E+02  0.4093E+03
      0.317  0.2205E+02  0.4115E+03
      0.414  0.2119E+02  0.4135E+03
      0.511  0.2005E+02  0.4155E+03
      0.608  0.2103E+02  0.4175E+03
      0.706  0.2457E+02  0.4199E+03
      0.803  0.2819E+02  0.4226E+03
      0.900  0.3041E+02  0.4256E+03
      0.997  0.3246E+02  0.4287E+03
      1.094  0.3584E+02  0.4322E+03
      1.192  0.4073E+02  0.4362E+03
      1.289  0.4635E+02  0.4407E+03
      1.386  0.5048E+02  0.4456E+03
      1.483  0.5027E+02  0.4505E+03
      1.580  0.4507E+02  0.4549E+03
      1.678  0.3691E+02  0.4585E+03
      1.775  0.2731E+02  0.4611E+03
      1.872  0.1703E+02  0.4628E+03
      1.969  0.8350E+01  0.4636E+03
      2.066  0.3163E+01  0.4639E+03
      2.164  0.9386E+00  0.4640E+03
      2.261  0.2156E+00  0.4640E+03
      2.358  0.3626E-01  0.4640E+03
      2.455  0.4194E-02  0.4640E+03
      2.552  0.3194E-03  0.4640E+03
      2.650  0.1565E-04  0.4640E+03
      2.747  0.4874E-06  0.4640E+03
      2.844  0.9600E-08  0.4640E+03
      2.941  0.1191E-09  0.4640E+03
      3.038  0.9291E-12  0.4640E+03
      3.136  0.4569E-14  0.4640E+03
      3.233  0.0000E+00  0.4640E+03
      3.330  0.0000E+00  0.4640E+03
      3.427  0.0000E+00  0.4640E+03
      3.524  0.0000E+00  0.4640E+03
      3.622  0.0000E+00  0.4640E+03
      3.719  0.0000E+00  0.4640E+03
      3.816  0.0000E+00  0.4640E+03
      3.913  0.0000E+00  0.4640E+03
