<?xml version="1.0" encoding="ISO-8859-1"?>
<modeling>
 <generator>
  <i name="program" type="string">vasp </i>
  <i name="version" type="string">6.5.0  </i>
  <i name="subversion" type="string">16Dec24 (build Feb 19 2025 19:45:31) complex                          parallel </i>
  <i name="platform" type="string">LinuxNV </i>
  <i name="date" type="string">2025 10 25 </i>
  <i name="time" type="string">10:24:16 </i>
 </generator>
 <incar>
  <i type="int" name="ISTART">     0</i>
  <i type="string" name="PREC">Accurate   (Precision level)</i>
  <i type="string" name="ALGO">Normal</i>
  <i type="int" name="ISPIN">     1</i>
  <i type="int" name="ICHARG">     2</i>
  <i type="int" name="NELM">   150</i>
  <i type="int" name="IBRION">    -1</i>
  <i name="EDIFF">      0.00000100</i>
  <i type="int" name="NSW">     0</i>
  <i name="ENCUT">    500.00000000</i>
  <i type="string" name="LREAL">Auto         (Projection operators: automatic)</i>
  <i type="int" name="ISMEAR">     0</i>
  <i type="logical" name="KGAMMA"> T  </i>
  <i type="logical" name="LWAVE"> F  </i>
  <i type="logical" name="LCHARG"> F  </i>
 </incar>
 <primitive_cell>
  <structure name="primitive_cell" >
   <crystal>
    <varray name="basis" >
     <v>      28.05000000       0.00000000       0.00000000 </v>
     <v>       0.00000000       8.10000000       0.00000000 </v>
     <v>       0.00000000       0.00000000      33.50000000 </v>
    </varray>
    <i name="volume">   7611.36750000 </i>
    <varray name="rec_basis" >
     <v>       0.03565062       0.00000000       0.00000000 </v>
     <v>       0.00000000       0.12345679       0.00000000 </v>
     <v>       0.00000000       0.00000000       0.02985075 </v>
    </varray>
   </crystal>
   <varray name="positions" >
    <v>       0.00668032       0.09887556       0.54189552 </v>
    <v>       0.00595020       0.26763704       0.53431343 </v>
    <v>       0.05109269       0.02861765       0.54450448 </v>
    <v>       0.04884100       0.35424938       0.53171343 </v>
    <v>       0.09416863       0.10512914       0.53966567 </v>
    <v>       0.09444456       0.26789383       0.53548358 </v>
    <v>       0.14016221       0.01524691       0.53808955 </v>
    <v>       0.13674902       0.35701481       0.52862388 </v>
    <v>       0.18338824       0.10268346       0.53067761 </v>
    <v>       0.18092193       0.27300247       0.52394328 </v>
    <v>       0.22759109       0.02644210       0.52870448 </v>
    <v>       0.22213619       0.35589136       0.51388657 </v>
    <v>       0.26884599       0.11559272       0.51482090 </v>
    <v>       0.26508592       0.27317160       0.50292537 </v>
    <v>       0.31229412       0.01959691       0.50365970 </v>
    <v>       0.30879572       0.35232222       0.48812239 </v>
    <v>       0.35203209       0.10045556       0.48618806 </v>
    <v>       0.35129911       0.26709136       0.47835224 </v>
    <v>       0.39561497       0.02504086       0.47781493 </v>
    <v>       0.39330125       0.35206420       0.46617910 </v>
    <v>       0.43704100       0.11130296       0.46462388 </v>
    <v>       0.43613904       0.27344568       0.45866866 </v>
    <v>       0.48152585       0.02901148       0.45544776 </v>
    <v>       0.48062032       0.35640617       0.45186269 </v>
    <v>       0.52629947       0.11039889       0.45050448 </v>
    <v>       0.52763280       0.27247778       0.45180299 </v>
    <v>       0.57211765       0.02295395       0.45234328 </v>
    <v>       0.57062389       0.35739753       0.44830149 </v>
    <v>       0.61376827       0.10348765       0.46135224 </v>
    <v>       0.61509447       0.27234568       0.45774925 </v>
    <v>       0.65675579       0.01856259       0.47322985 </v>
    <v>       0.65853832       0.35187407       0.46746269 </v>
    <v>       0.69915152       0.09791457       0.48211940 </v>
    <v>       0.69973262       0.26128025       0.47954627 </v>
    <v>       0.73946168       0.02092975       0.49817612 </v>
    <v>       0.74075223       0.35218148       0.49120000 </v>
    <v>       0.78304100       0.10106284       0.50592836 </v>
    <v>       0.78381818       0.27110617       0.49954030 </v>
    <v>       0.82459180       0.02466395       0.52196716 </v>
    <v>       0.82808913       0.35150123       0.50695522 </v>
    <v>       0.86791444       0.10410086       0.52545970 </v>
    <v>       0.87228877       0.26968148       0.51594030 </v>
    <v>       0.91173619       0.02360123       0.53547463 </v>
    <v>       0.91435294       0.35154938       0.52476716 </v>
    <v>       0.95418182       0.10016864       0.53462090 </v>
    <v>       0.95677718       0.26853580       0.52854627 </v>
    <v>       0.00728802       0.60234074       0.54356716 </v>
    <v>       0.00645340       0.77686667       0.54712836 </v>
    <v>       0.04821533       0.52273210       0.53436716 </v>
    <v>       0.05047308       0.85927407       0.54727463 </v>
    <v>       0.09486702       0.60743951       0.53357015 </v>
    <v>       0.09483886       0.76687531       0.54259403 </v>
    <v>       0.13866096       0.52374444       0.52680597 </v>
    <v>       0.13882674       0.84896173       0.53939403 </v>
    <v>       0.18114474       0.61024815       0.52279104 </v>
    <v>       0.18230481       0.77488148       0.52954925 </v>
    <v>       0.22258930       0.52787901       0.51371343 </v>
    <v>       0.22424314       0.86178642       0.52445672 </v>
    <v>       0.26592656       0.60902469       0.50392537 </v>
    <v>       0.26820856       0.77278025       0.51187463 </v>
    <v>       0.30777326       0.52015062       0.49029851 </v>
    <v>       0.31151123       0.85274691       0.50550448 </v>
    <v>       0.35107950       0.59905432       0.48174627 </v>
    <v>       0.35442460       0.76597654       0.49177612 </v>
    <v>       0.39233512       0.52182963       0.46724478 </v>
    <v>       0.39549376       0.85556049       0.48040000 </v>
    <v>       0.43516934       0.60633210       0.45905970 </v>
    <v>       0.43571123       0.77662593       0.46535522 </v>
    <v>       0.47998574       0.52363086       0.44779403 </v>
    <v>       0.47961141       0.86237778       0.45588955 </v>
    <v>       0.52727273       0.61275802       0.44894627 </v>
    <v>       0.52572906       0.77743704       0.45310149 </v>
    <v>       0.57130838       0.52576049       0.44791940 </v>
    <v>       0.57118717       0.85767160       0.45192537 </v>
    <v>       0.61504456       0.60445185       0.45519403 </v>
    <v>       0.61513369       0.77532346       0.45920597 </v>
    <v>       0.65903030       0.52068642       0.46648358 </v>
    <v>       0.65600713       0.85461852       0.47234925 </v>
    <v>       0.70088414       0.60319012       0.47934925 </v>
    <v>       0.69931907       0.77238889       0.48410149 </v>
    <v>       0.74236007       0.52053457       0.49016418 </v>
    <v>       0.73962923       0.85331235       0.49927463 </v>
    <v>       0.78404278       0.60279877       0.50606567 </v>
    <v>       0.78153298       0.76668395       0.51111045 </v>
    <v>       0.82718360       0.52305802       0.51105373 </v>
    <v>       0.82162567       0.85272346       0.52514030 </v>
    <v>       0.86778253       0.60365926       0.52722985 </v>
    <v>       0.86781462       0.77332963       0.53318806 </v>
    <v>       0.91362210       0.51872469       0.52909851 </v>
    <v>       0.91169340       0.85434198       0.53961194 </v>
    <v>       0.95591444       0.59521235       0.54290149 </v>
    <v>       0.95498039       0.76724074       0.54736119 </v>
   </varray>
  </structure>
  <varray name="primitive_index" >
   <v type="int" >        1 </v>
   <v type="int" >        2 </v>
   <v type="int" >        3 </v>
   <v type="int" >        4 </v>
   <v type="int" >        5 </v>
   <v type="int" >        6 </v>
   <v type="int" >        7 </v>
   <v type="int" >        8 </v>
   <v type="int" >        9 </v>
   <v type="int" >       10 </v>
   <v type="int" >       11 </v>
   <v type="int" >       12 </v>
   <v type="int" >       13 </v>
   <v type="int" >       14 </v>
   <v type="int" >       15 </v>
   <v type="int" >       16 </v>
   <v type="int" >       17 </v>
   <v type="int" >       18 </v>
   <v type="int" >       19 </v>
   <v type="int" >       20 </v>
   <v type="int" >       21 </v>
   <v type="int" >       22 </v>
   <v type="int" >       23 </v>
   <v type="int" >       24 </v>
   <v type="int" >       25 </v>
   <v type="int" >       26 </v>
   <v type="int" >       27 </v>
   <v type="int" >       28 </v>
   <v type="int" >       29 </v>
   <v type="int" >       30 </v>
   <v type="int" >       31 </v>
   <v type="int" >       32 </v>
   <v type="int" >       33 </v>
   <v type="int" >       34 </v>
   <v type="int" >       35 </v>
   <v type="int" >       36 </v>
   <v type="int" >       37 </v>
   <v type="int" >       38 </v>
   <v type="int" >       39 </v>
   <v type="int" >       40 </v>
   <v type="int" >       41 </v>
   <v type="int" >       42 </v>
   <v type="int" >       43 </v>
   <v type="int" >       44 </v>
   <v type="int" >       45 </v>
   <v type="int" >       46 </v>
   <v type="int" >       47 </v>
   <v type="int" >       48 </v>
   <v type="int" >       49 </v>
   <v type="int" >       50 </v>
   <v type="int" >       51 </v>
   <v type="int" >       52 </v>
   <v type="int" >       53 </v>
   <v type="int" >       54 </v>
   <v type="int" >       55 </v>
   <v type="int" >       56 </v>
   <v type="int" >       57 </v>
   <v type="int" >       58 </v>
   <v type="int" >       59 </v>
   <v type="int" >       60 </v>
   <v type="int" >       61 </v>
   <v type="int" >       62 </v>
   <v type="int" >       63 </v>
   <v type="int" >       64 </v>
   <v type="int" >       65 </v>
   <v type="int" >       66 </v>
   <v type="int" >       67 </v>
   <v type="int" >       68 </v>
   <v type="int" >       69 </v>
   <v type="int" >       70 </v>
   <v type="int" >       71 </v>
   <v type="int" >       72 </v>
   <v type="int" >       73 </v>
   <v type="int" >       74 </v>
   <v type="int" >       75 </v>
   <v type="int" >       76 </v>
   <v type="int" >       77 </v>
   <v type="int" >       78 </v>
   <v type="int" >       79 </v>
   <v type="int" >       80 </v>
   <v type="int" >       81 </v>
   <v type="int" >       82 </v>
   <v type="int" >       83 </v>
   <v type="int" >       84 </v>
   <v type="int" >       85 </v>
   <v type="int" >       86 </v>
   <v type="int" >       87 </v>
   <v type="int" >       88 </v>
   <v type="int" >       89 </v>
   <v type="int" >       90 </v>
   <v type="int" >       91 </v>
   <v type="int" >       92 </v>
  </varray>
 </primitive_cell>
 <kpoints>
  <generation param="Gamma">
   <v type="int" name="divisions">       1        4        1 </v>
   <v name="usershift">      0.00000000       0.00000000       0.00000000 </v>
   <v name="genvec1">      1.00000000       0.00000000       0.00000000 </v>
   <v name="genvec2">      0.00000000       0.25000000       0.00000000 </v>
   <v name="genvec3">      0.00000000       0.00000000       1.00000000 </v>
   <v name="shift">      0.00000000       0.00000000       0.00000000 </v>
  </generation>
  <varray name="kpointlist" >
   <v>       0.00000000       0.00000000       0.00000000 </v>
   <v>       0.00000000       0.25000000       0.00000000 </v>
   <v>       0.00000000       0.50000000       0.00000000 </v>
  </varray>
  <varray name="weights" >
   <v>       0.25000000 </v>
   <v>       0.50000000 </v>
   <v>       0.25000000 </v>
  </varray>
 </kpoints>
 <parameters>
  <separator name="general" >
   <i type="string" name="SYSTEM">unknown system</i>
   <i type="logical" name="LCOMPAT"> F  </i>
  </separator>
  <separator name="electronic" >
   <i type="string" name="PREC">accura</i>
   <i name="ENMAX">    500.00000000</i>
   <i name="ENAUG">    644.87300000</i>
   <i name="EDIFF">      0.00000100</i>
   <i type="int" name="IALGO">    38</i>
   <i type="int" name="IWAVPR">    10</i>
   <i type="int" name="NBANDS">   232</i>
   <i type="int" name="NBANDSLOW">    -1</i>
   <i type="int" name="NBANDSHIGH">    -1</i>
   <i name="NELECT">    368.00000000</i>
   <i type="int" name="TURBO">     0</i>
   <i type="int" name="IRESTART">     0</i>
   <i type="int" name="NREBOOT">     0</i>
   <i type="int" name="NMIN">     0</i>
   <i name="EREF">      0.00000000</i>
   <separator name="electronic smearing" >
    <i type="int" name="ISMEAR">     0</i>
    <i name="SIGMA">      0.20000000</i>
    <i name="KSPACING">      0.50000000</i>
    <i type="logical" name="KGAMMA"> T  </i>
    <i type="logical" name="KBLOWUP"> T  </i>
   </separator>
   <separator name="electronic projectors" >
    <i type="logical" name="LREAL"> T  </i>
    <v name="ROPT">     -0.00025000</v>
    <i type="int" name="LMAXPAW">  -100</i>
    <i type="int" name="LMAXMIX">     2</i>
    <i type="logical" name="NLSPLINE"> F  </i>
   </separator>
   <separator name="electronic startup" >
    <i type="int" name="ISTART">     0</i>
    <i type="int" name="ICHARG">     2</i>
    <i type="int" name="INIWAV">     1</i>
   </separator>
   <separator name="electronic spin" >
    <i type="int" name="ISPIN">     1</i>
    <i type="logical" name="LNONCOLLINEAR"> F  </i>
    <v name="MAGMOM">      1.00000000      1.00000000      1.00000000      1.00000000      1.00000000      1.00000000      1.00000000      1.00000000      1.00000000      1.00000000      1.00000000      1.00000000      1.00000000      1.00000000      1.00000000      1.00000000      1.00000000      1.00000000      1.00000000      1.00000000
      1.00000000      1.00000000      1.00000000      1.00000000      1.00000000      1.00000000      1.00000000      1.00000000      1.00000000      1.00000000      1.00000000      1.00000000      1.00000000      1.00000000      1.00000000      1.00000000      1.00000000      1.00000000      1.00000000      1.00000000
      1.00000000      1.00000000      1.00000000      1.00000000      1.00000000      1.00000000      1.00000000      1.00000000      1.00000000      1.00000000      1.00000000      1.00000000      1.00000000      1.00000000      1.00000000      1.00000000      1.00000000      1.00000000      1.00000000      1.00000000
      1.00000000      1.00000000      1.00000000      1.00000000      1.00000000      1.00000000      1.00000000      1.00000000      1.00000000      1.00000000      1.00000000      1.00000000      1.00000000      1.00000000      1.00000000      1.00000000      1.00000000      1.00000000      1.00000000      1.00000000
      1.00000000      1.00000000      1.00000000      1.00000000      1.00000000      1.00000000      1.00000000      1.00000000      1.00000000      1.00000000      1.00000000      1.00000000</v>
    <i name="NUPDOWN">     -1.00000000</i>
    <i type="logical" name="LSORBIT"> F  </i>
    <v name="SAXIS">      0.00000000      0.00000000      1.00000000</v>
    <i type="logical" name="LSPIRAL"> F  </i>
    <v name="QSPIRAL">      0.00000000      0.00000000      0.00000000</v>
    <i type="logical" name="LZEROZ"> F  </i>
   </separator>
   <separator name="electronic exchange-correlation" >
    <i type="logical" name="LASPH"> F  </i>
   </separator>
   <separator name="electronic convergence" >
    <i type="int" name="NELM">   150</i>
    <i type="int" name="NELMDL">    -5</i>
    <i type="int" name="NELMIN">     2</i>
    <i name="ENINI">    500.00000000</i>
    <separator name="electronic convergence detail" >
     <i type="logical" name="LDIAG"> T  </i>
     <i type="logical" name="LSUBROT"> F  </i>
     <i name="WEIMIN">      0.00000000</i>
     <i name="EBREAK">      0.00000000</i>
     <i name="DEPER">      0.30000000</i>
     <i type="int" name="NRMM">     4</i>
     <i name="TIME">      0.40000000</i>
    </separator>
   </separator>
   <separator name="electronic mixer" >
    <i name="AMIX">      0.40000000</i>
    <i name="BMIX">      1.00000000</i>
    <i name="AMIN">      0.10000000</i>
    <i name="AMIX_MAG">      1.60000000</i>
    <i name="BMIX_MAG">      1.00000000</i>
    <separator name="electronic mixer details" >
     <i type="int" name="IMIX">     4</i>
     <i type="logical" name="MIXFIRST"> F  </i>
     <i type="int" name="MAXMIX">   -45</i>
     <i name="WC">    100.00000000</i>
     <i type="int" name="INIMIX">     1</i>
     <i type="int" name="MIXPRE">     1</i>
     <i type="int" name="MREMOVE">     5</i>
    </separator>
   </separator>
   <separator name="electronic dipolcorrection" >
    <i type="logical" name="LDIPOL"> F  </i>
    <i type="logical" name="LMONO"> F  </i>
    <i type="int" name="IDIPOL">     0</i>
    <i name="EPSILON">      1.00000000</i>
    <v name="DIPOL">   -100.00000000   -100.00000000   -100.00000000</v>
    <i name="EFIELD">      0.00000000</i>
    <i type="logical" name="LVACPOTAV"> F  </i>
   </separator>
  </separator>
  <separator name="grids" >
   <i type="int" name="NGX">   210</i>
   <i type="int" name="NGY">    60</i>
   <i type="int" name="NGZ">   250</i>
   <i type="int" name="NGXF">   420</i>
   <i type="int" name="NGYF">   120</i>
   <i type="int" name="NGZF">   500</i>
   <i type="logical" name="ADDGRID"> F  </i>
  </separator>
  <separator name="ionic" >
   <i type="int" name="NSW">     0</i>
   <i type="int" name="IBRION">    -1</i>
   <i type="int" name="MDALGO">     0</i>
   <i type="int" name="ISIF">     2</i>
   <i name="PSTRESS">      0.00000000</i>
   <i name="EDIFFG">      0.00001000</i>
   <i type="int" name="NFREE">     0</i>
   <i name="POTIM">      0.50000000</i>
   <i name="SMASS">     -3.00000000</i>
   <i name="SCALEE">      1.00000000</i>
  </separator>
  <separator name="ionic md" >
   <i name="TEBEG">      0.00010000</i>
   <i name="TEEND">      0.00010000</i>
   <i type="int" name="NBLOCK">     1</i>
   <i type="int" name="KBLOCK">     1</i>
   <i type="int" name="NPACO">   256</i>
   <i name="APACO">     10.00000000</i>
  </separator>
  <separator name="symmetry" >
   <i type="int" name="ISYM">     2</i>
   <i name="SYMPREC">      0.00001000</i>
  </separator>
  <separator name="dos" >
   <i type="int" name="LORBIT">     0</i>
   <v name="RWIGS">     -1.00000000</v>
   <i type="int" name="NEDOS">   301</i>
   <i name="EMIN">     10.00000000</i>
   <i name="EMAX">    -10.00000000</i>
   <i name="EFERMI">      0.00000000</i>
  </separator>
  <separator name="writing" >
   <i type="int" name="NWRITE">     2</i>
   <i type="logical" name="LWAVE"> F  </i>
   <i type="logical" name="LDOWNSAMPLE"> F  </i>
   <i type="logical" name="LCHARG"> F  </i>
   <i type="logical" name="LPARD"> F  </i>
   <i type="logical" name="LVTOT"> F  </i>
   <i type="logical" name="LVHAR"> F  </i>
   <i type="logical" name="LELF"> F  </i>
   <i type="logical" name="LOPTICS"> F  </i>
   <v name="STM">      0.00000000      0.00000000      0.00000000      0.00000000      0.00000000      0.00000000      0.00000000</v>
  </separator>
  <separator name="performance" >
   <i type="int" name="NPAR">     2</i>
   <i type="int" name="NSIM">     4</i>
   <i type="int" name="NBLK">    -1</i>
   <i type="logical" name="LPLANE"> T  </i>
   <i type="logical" name="LSCALAPACK"> T  </i>
   <i type="logical" name="LSCAAWARE"> F  </i>
   <i type="logical" name="LSCALU"> F  </i>
   <i type="logical" name="LASYNC"> F  </i>
   <i type="logical" name="LORBITALREAL"> F  </i>
  </separator>
  <separator name="miscellaneous" >
   <i type="int" name="IDIOT">     3</i>
   <i type="int" name="PHON_NSTRUCT">    -1</i>
   <i type="logical" name="LMUSIC"> F  </i>
   <v name="POMASS">     12.01100000</v>
   <v name="DARWINR">      0.00000000</v>
   <v name="DARWINV">      1.00000000</v>
   <i type="logical" name="LCORR"> T  </i>
  </separator>
  <i type="logical" name="GGA_COMPAT"> T  </i>
  <i type="logical" name="LBERRY"> F  </i>
  <i type="int" name="ICORELEVEL">     0</i>
  <i type="logical" name="LDAU"> F  </i>
  <i type="int" name="I_CONSTRAINED_M">     0</i>
  <separator name="electronic exchange-correlation" >
   <i type="string" name="GGA    ">PE</i>
   <i type="string" name="XC_C">1</i>
   <i type="int" name="VOSKOWN">     0</i>
   <i type="logical" name="LHFCALC"> F  </i>
   <i type="string" name="PRECFOCK"></i>
   <i type="logical" name="LSYMGRAD"> F  </i>
   <i type="logical" name="LHFONE"> F  </i>
   <i type="logical" name="LRHFCALC"> F  </i>
   <i type="logical" name="LTHOMAS"> F  </i>
   <i type="logical" name="LMODELHF"> F  </i>
   <i type="logical" name="LFOCKACE"> F  </i>
   <i name="ENCUT4O">     -1.00000000</i>
   <i type="int" name="EXXOEP">     0</i>
   <i type="int" name="FOURORBIT">     0</i>
   <i name="AEXX">      0.00000000</i>
   <i name="HFALPHA">      0.00000000</i>
   <i name="MCALPHA">      0.00000000</i>
   <i name="ALDAX">      1.00000000</i>
   <i name="AGGAX">      1.00000000</i>
   <i name="AMGGAX">      1.00000000</i>
   <i name="ALDAC">      1.00000000</i>
   <i name="AGGAC">      1.00000000</i>
   <i name="AMGGAC">      1.00000000</i>
   <i type="int" name="NKREDX">     1</i>
   <i type="int" name="NKREDY">     1</i>
   <i type="int" name="NKREDZ">     1</i>
   <i type="logical" name="SHIFTRED"> F  </i>
   <i type="logical" name="ODDONLY"> F  </i>
   <i type="logical" name="EVENONLY"> F  </i>
   <i type="int" name="LMAXFOCK">     0</i>
   <i type="int" name="NMAXFOCKAE">     0</i>
   <i type="logical" name="LFOCKAEDFT"> F  </i>
   <i name="HFSCREEN">      0.00000000</i>
   <i name="HFSCREENC">      0.00000000</i>
   <i type="int" name="NBANDSGWLOW">     0</i>
  </separator>
  <separator name="vdW DFT" >
   <i type="logical" name="LUSE_VDW"> F  </i>
   <i type="int" name="IVDW_NL">    -1</i>
   <i type="logical" name="LSPIN_VDW"> F  </i>
   <i name="ZAB_VDW">     -0.84910000</i>
   <i name="GAMMA_VDW">      1.39626340</i>
   <i name="ALPHA_VDW">      0.00000000</i>
   <i name="PARAM1">      0.12340000</i>
   <i name="PARAM2">      1.00000000</i>
   <i name="BPARAM">      6.30000000</i>
   <i name="CPARAM">      0.00930000</i>
  </separator>
  <separator name="model GW" >
   <i type="int" name="MODEL_GW">     0</i>
   <i name="MODEL_EPS0">     49.63935326</i>
   <i name="MODEL_ALPHA">      1.00000000</i>
  </separator>
  <separator name="linear response parameters" >
   <i type="logical" name="LEPSILON"> F  </i>
   <i type="logical" name="LRPA"> F  </i>
   <i type="logical" name="LNABLA"> F  </i>
   <i type="logical" name="LVEL"> F  </i>
   <i name="CSHIFT">      0.10000000</i>
   <i name="OMEGAMAX">     -1.00000000</i>
   <i name="DEG_THRESHOLD">      0.00200000</i>
   <i name="RTIME">     -0.10000000</i>
   <i name="WPLASMAI">      0.00000000</i>
   <v name="DFIELD">      0.00000000      0.00000000      0.00000000</v>
   <v name="WPLASMA">      0.00000000      0.00000000      0.00000000      0.00000000      0.00000000      0.00000000      0.00000000      0.00000000      0.00000000</v>
  </separator>
  <separator name="orbital magnetization" >
   <i type="logical" name="NUCIND"> F  </i>
   <v name="MAGPOS">      0.00000000      0.00000000      0.00000000</v>
   <i type="logical" name="LNICSALL"> T  </i>
   <i type="logical" name="ORBITALMAG"> F  </i>
   <i type="logical" name="LMAGBLOCH"> F  </i>
   <i type="logical" name="LCHIMAG"> F  </i>
   <i type="logical" name="LGAUGE"> T  </i>
   <i type="int" name="MAGATOM">     0</i>
   <v name="MAGDIPOL">      0.00000000      0.00000000      0.00000000</v>
   <v name="AVECCONST">      0.00000000      0.00000000      0.00000000</v>
  </separator>
  <separator name="response functions" >
   <i type="logical" name="LALL_IN_ONE"> F  </i>
   <i type="int" name="IALL_IN_ONE">    -1</i>
   <i type="int" name="NBANDS_WAVE">    -1</i>
   <i type="logical" name="LFINITE_TEMPERATURE"> F  </i>
   <i type="logical" name="LADDER"> F  </i>
   <i type="logical" name="LRPAFORCE"> F  </i>
   <i type="logical" name="LFXC"> F  </i>
   <i type="logical" name="LHARTREE"> T  </i>
   <i type="int" name="IBSE">     2</i>
   <v type="int" name="KPOINT">    -1     0     0     0</v>
   <i type="logical" name="LTCTC"> F  </i>
   <i type="logical" name="LTCTE"> F  </i>
   <i type="logical" name="LTETE"> F  </i>
   <i type="logical" name="LTRIPLET"> F  </i>
   <i type="logical" name="LFXCEPS"> F  </i>
   <i type="logical" name="LFXHEG"> F  </i>
   <i type="int" name="NATURALO">     2</i>
   <i type="logical" name="LHOLEGF"> F  </i>
   <i type="logical" name="L2ORDER"> F  </i>
   <i type="logical" name="LDMP1"> F  </i>
   <i type="logical" name="LMP2LT"> F  </i>
   <i type="logical" name="LSMP2LT"> F  </i>
   <i type="logical" name="LGWLF"> F  </i>
   <i name="ENCUTGW">     -1.60000002</i>
   <i name="ENCUTGWSOFT">     -1.60000002</i>
   <i name="ENCUTLF">     -1.00000000</i>
   <i type="logical" name="ESF_SPLINES"> F  </i>
   <i name="ESF_CONV">      0.01000000</i>
   <i type="int" name="ESF_NINTER">    15</i>
   <i type="int" name="LMAXMP2">    -1</i>
   <i name="SCISSOR">      0.00000000</i>
   <i type="int" name="NOMEGA">     0</i>
   <i type="int" name="NOMEGAR">     0</i>
   <i type="int" name="NBANDSGW">    -1</i>
   <i type="int" name="NBANDSO">    -1</i>
   <i type="int" name="NBANDSV">    -1</i>
   <i type="int" name="NELMGW">     1</i>
   <i type="int" name="NELMHF">     1</i>
   <i type="int" name="DIM">     3</i>
   <i type="int" name="IESPILON">     4</i>
   <i type="int" name="ANTIRES">     0</i>
   <i name="OMEGAMAX">    -30.00000000</i>
   <i name="OMEGAMIN">    -30.00000000</i>
   <i name="OMEGATL">   -200.00000000</i>
   <i type="int" name="OMEGAGRID">     0</i>
   <i name="CSHIFT">     -0.10000000</i>
   <i type="logical" name="LSELFENERGY"> F  </i>
   <i type="logical" name="LSPECTRAL"> F  </i>
   <i type="logical" name="LSPECTRALGW"> F  </i>
   <i type="logical" name="LSINGLES"> F  </i>
   <i type="logical" name="LFERMIGW"> F  </i>
   <i type="logical" name="ODDONLYGW"> F  </i>
   <i type="logical" name="EVENONLYGW"> F  </i>
   <i type="int" name="NKREDLFX">     1</i>
   <i type="int" name="NKREDLFY">     1</i>
   <i type="int" name="NKREDLFZ">     1</i>
   <i type="int" name="MAXMEM">  2800</i>
   <i type="int" name="TELESCOPE">     0</i>
   <i type="int" name="NTAUPAR">    -1</i>
   <i type="int" name="NOMEGAPAR">    -1</i>
   <i name="DAMP_NEWTON">      0.80000001</i>
   <i name="LAMBDA">      1.00000000</i>
  </separator>
  <separator name="External order field" >
   <i name="OFIELD_KAPPA">      0.00000000</i>
   <v name="OFIELD_K">      0.00000000      0.00000000      0.00000000</v>
   <i name="OFIELD_Q6_NEAR">      0.00000000</i>
   <i name="OFIELD_Q6_FAR">      0.00000000</i>
   <i name="OFIELD_A">      0.00000000</i>
  </separator>
  <separator name="optional k-points parameters" >
   <i type="int" name="KPOINTS_OPT_MODE">     1</i>
   <i type="logical" name="LKPOINTS_OPT"> F  </i>
  </separator>
 </parameters>
 <atominfo>
  <atoms>      92 </atoms>
  <types>       1 </types>
  <array name="atoms" >
   <dimension dim="1">ion</dimension>
   <field type="string">element</field>
   <field type="int">atomtype</field>
   <set>
    <rc><c>C </c><c>   1</c></rc>
    <rc><c>C </c><c>   1</c></rc>
    <rc><c>C </c><c>   1</c></rc>
    <rc><c>C </c><c>   1</c></rc>
    <rc><c>C </c><c>   1</c></rc>
    <rc><c>C </c><c>   1</c></rc>
    <rc><c>C </c><c>   1</c></rc>
    <rc><c>C </c><c>   1</c></rc>
    <rc><c>C </c><c>   1</c></rc>
    <rc><c>C </c><c>   1</c></rc>
    <rc><c>C </c><c>   1</c></rc>
    <rc><c>C </c><c>   1</c></rc>
    <rc><c>C </c><c>   1</c></rc>
    <rc><c>C </c><c>   1</c></rc>
    <rc><c>C </c><c>   1</c></rc>
    <rc><c>C </c><c>   1</c></rc>
    <rc><c>C </c><c>   1</c></rc>
    <rc><c>C </c><c>   1</c></rc>
    <rc><c>C </c><c>   1</c></rc>
    <rc><c>C </c><c>   1</c></rc>
    <rc><c>C </c><c>   1</c></rc>
    <rc><c>C </c><c>   1</c></rc>
    <rc><c>C </c><c>   1</c></rc>
    <rc><c>C </c><c>   1</c></rc>
    <rc><c>C </c><c>   1</c></rc>
    <rc><c>C </c><c>   1</c></rc>
    <rc><c>C </c><c>   1</c></rc>
    <rc><c>C </c><c>   1</c></rc>
    <rc><c>C </c><c>   1</c></rc>
    <rc><c>C </c><c>   1</c></rc>
    <rc><c>C </c><c>   1</c></rc>
    <rc><c>C </c><c>   1</c></rc>
    <rc><c>C </c><c>   1</c></rc>
    <rc><c>C </c><c>   1</c></rc>
    <rc><c>C </c><c>   1</c></rc>
    <rc><c>C </c><c>   1</c></rc>
    <rc><c>C </c><c>   1</c></rc>
    <rc><c>C </c><c>   1</c></rc>
    <rc><c>C </c><c>   1</c></rc>
    <rc><c>C </c><c>   1</c></rc>
    <rc><c>C </c><c>   1</c></rc>
    <rc><c>C </c><c>   1</c></rc>
    <rc><c>C </c><c>   1</c></rc>
    <rc><c>C </c><c>   1</c></rc>
    <rc><c>C </c><c>   1</c></rc>
    <rc><c>C </c><c>   1</c></rc>
    <rc><c>C </c><c>   1</c></rc>
    <rc><c>C </c><c>   1</c></rc>
    <rc><c>C </c><c>   1</c></rc>
    <rc><c>C </c><c>   1</c></rc>
    <rc><c>C </c><c>   1</c></rc>
    <rc><c>C </c><c>   1</c></rc>
    <rc><c>C </c><c>   1</c></rc>
    <rc><c>C </c><c>   1</c></rc>
    <rc><c>C </c><c>   1</c></rc>
    <rc><c>C </c><c>   1</c></rc>
    <rc><c>C </c><c>   1</c></rc>
    <rc><c>C </c><c>   1</c></rc>
    <rc><c>C </c><c>   1</c></rc>
    <rc><c>C </c><c>   1</c></rc>
    <rc><c>C </c><c>   1</c></rc>
    <rc><c>C </c><c>   1</c></rc>
    <rc><c>C </c><c>   1</c></rc>
    <rc><c>C </c><c>   1</c></rc>
    <rc><c>C </c><c>   1</c></rc>
    <rc><c>C </c><c>   1</c></rc>
    <rc><c>C </c><c>   1</c></rc>
    <rc><c>C </c><c>   1</c></rc>
    <rc><c>C </c><c>   1</c></rc>
    <rc><c>C </c><c>   1</c></rc>
    <rc><c>C </c><c>   1</c></rc>
    <rc><c>C </c><c>   1</c></rc>
    <rc><c>C </c><c>   1</c></rc>
    <rc><c>C </c><c>   1</c></rc>
    <rc><c>C </c><c>   1</c></rc>
    <rc><c>C </c><c>   1</c></rc>
    <rc><c>C </c><c>   1</c></rc>
    <rc><c>C </c><c>   1</c></rc>
    <rc><c>C </c><c>   1</c></rc>
    <rc><c>C </c><c>   1</c></rc>
    <rc><c>C </c><c>   1</c></rc>
    <rc><c>C </c><c>   1</c></rc>
    <rc><c>C </c><c>   1</c></rc>
    <rc><c>C </c><c>   1</c></rc>
    <rc><c>C </c><c>   1</c></rc>
    <rc><c>C </c><c>   1</c></rc>
    <rc><c>C </c><c>   1</c></rc>
    <rc><c>C </c><c>   1</c></rc>
    <rc><c>C </c><c>   1</c></rc>
    <rc><c>C </c><c>   1</c></rc>
    <rc><c>C </c><c>   1</c></rc>
    <rc><c>C </c><c>   1</c></rc>
   </set>
  </array>
  <array name="atomtypes" >
   <dimension dim="1">type</dimension>
   <field type="int">atomspertype</field>
   <field type="string">element</field>
   <field>mass</field>
   <field>valence</field>
   <field type="string">pseudopotential</field>
   <set>
    <rc><c>  92</c><c>C </c><c>     12.01100000</c><c>      4.00000000</c><c>  PAW_PBE C 08Apr2002                   </c></rc>
   </set>
  </array>
 </atominfo>
 <structure name="initialpos" >
  <crystal>
   <varray name="basis" >
    <v>      28.05000000       0.00000000       0.00000000 </v>
    <v>       0.00000000       8.10000000       0.00000000 </v>
    <v>       0.00000000       0.00000000      33.50000000 </v>
   </varray>
   <i name="volume">   7611.36750000 </i>
   <varray name="rec_basis" >
    <v>       0.03565062       0.00000000       0.00000000 </v>
    <v>       0.00000000       0.12345679       0.00000000 </v>
    <v>       0.00000000       0.00000000       0.02985075 </v>
   </varray>
  </crystal>
  <varray name="positions" >
   <v>       0.00668032       0.09887556       0.54189552 </v>
   <v>       0.00595020       0.26763704       0.53431343 </v>
   <v>       0.05109269       0.02861765       0.54450448 </v>
   <v>       0.04884100       0.35424938       0.53171343 </v>
   <v>       0.09416863       0.10512914       0.53966567 </v>
   <v>       0.09444456       0.26789383       0.53548358 </v>
   <v>       0.14016221       0.01524691       0.53808955 </v>
   <v>       0.13674902       0.35701481       0.52862388 </v>
   <v>       0.18338824       0.10268346       0.53067761 </v>
   <v>       0.18092193       0.27300247       0.52394328 </v>
   <v>       0.22759109       0.02644210       0.52870448 </v>
   <v>       0.22213619       0.35589136       0.51388657 </v>
   <v>       0.26884599       0.11559272       0.51482090 </v>
   <v>       0.26508592       0.27317160       0.50292537 </v>
   <v>       0.31229412       0.01959691       0.50365970 </v>
   <v>       0.30879572       0.35232222       0.48812239 </v>
   <v>       0.35203209       0.10045556       0.48618806 </v>
   <v>       0.35129911       0.26709136       0.47835224 </v>
   <v>       0.39561497       0.02504086       0.47781493 </v>
   <v>       0.39330125       0.35206420       0.46617910 </v>
   <v>       0.43704100       0.11130296       0.46462388 </v>
   <v>       0.43613904       0.27344568       0.45866866 </v>
   <v>       0.48152585       0.02901148       0.45544776 </v>
   <v>       0.48062032       0.35640617       0.45186269 </v>
   <v>       0.52629947       0.11039889       0.45050448 </v>
   <v>       0.52763280       0.27247778       0.45180299 </v>
   <v>       0.57211765       0.02295395       0.45234328 </v>
   <v>       0.57062389       0.35739753       0.44830149 </v>
   <v>       0.61376827       0.10348765       0.46135224 </v>
   <v>       0.61509447       0.27234568       0.45774925 </v>
   <v>       0.65675579       0.01856259       0.47322985 </v>
   <v>       0.65853832       0.35187407       0.46746269 </v>
   <v>       0.69915152       0.09791457       0.48211940 </v>
   <v>       0.69973262       0.26128025       0.47954627 </v>
   <v>       0.73946168       0.02092975       0.49817612 </v>
   <v>       0.74075223       0.35218148       0.49120000 </v>
   <v>       0.78304100       0.10106284       0.50592836 </v>
   <v>       0.78381818       0.27110617       0.49954030 </v>
   <v>       0.82459180       0.02466395       0.52196716 </v>
   <v>       0.82808913       0.35150123       0.50695522 </v>
   <v>       0.86791444       0.10410086       0.52545970 </v>
   <v>       0.87228877       0.26968148       0.51594030 </v>
   <v>       0.91173619       0.02360123       0.53547463 </v>
   <v>       0.91435294       0.35154938       0.52476716 </v>
   <v>       0.95418182       0.10016864       0.53462090 </v>
   <v>       0.95677718       0.26853580       0.52854627 </v>
   <v>       0.00728802       0.60234074       0.54356716 </v>
   <v>       0.00645340       0.77686667       0.54712836 </v>
   <v>       0.04821533       0.52273210       0.53436716 </v>
   <v>       0.05047308       0.85927407       0.54727463 </v>
   <v>       0.09486702       0.60743951       0.53357015 </v>
   <v>       0.09483886       0.76687531       0.54259403 </v>
   <v>       0.13866096       0.52374444       0.52680597 </v>
   <v>       0.13882674       0.84896173       0.53939403 </v>
   <v>       0.18114474       0.61024815       0.52279104 </v>
   <v>       0.18230481       0.77488148       0.52954925 </v>
   <v>       0.22258930       0.52787901       0.51371343 </v>
   <v>       0.22424314       0.86178642       0.52445672 </v>
   <v>       0.26592656       0.60902469       0.50392537 </v>
   <v>       0.26820856       0.77278025       0.51187463 </v>
   <v>       0.30777326       0.52015062       0.49029851 </v>
   <v>       0.31151123       0.85274691       0.50550448 </v>
   <v>       0.35107950       0.59905432       0.48174627 </v>
   <v>       0.35442460       0.76597654       0.49177612 </v>
   <v>       0.39233512       0.52182963       0.46724478 </v>
   <v>       0.39549376       0.85556049       0.48040000 </v>
   <v>       0.43516934       0.60633210       0.45905970 </v>
   <v>       0.43571123       0.77662593       0.46535522 </v>
   <v>       0.47998574       0.52363086       0.44779403 </v>
   <v>       0.47961141       0.86237778       0.45588955 </v>
   <v>       0.52727273       0.61275802       0.44894627 </v>
   <v>       0.52572906       0.77743704       0.45310149 </v>
   <v>       0.57130838       0.52576049       0.44791940 </v>
   <v>       0.57118717       0.85767160       0.45192537 </v>
   <v>       0.61504456       0.60445185       0.45519403 </v>
   <v>       0.61513369       0.77532346       0.45920597 </v>
   <v>       0.65903030       0.52068642       0.46648358 </v>
   <v>       0.65600713       0.85461852       0.47234925 </v>
   <v>       0.70088414       0.60319012       0.47934925 </v>
   <v>       0.69931907       0.77238889       0.48410149 </v>
   <v>       0.74236007       0.52053457       0.49016418 </v>
   <v>       0.73962923       0.85331235       0.49927463 </v>
   <v>       0.78404278       0.60279877       0.50606567 </v>
   <v>       0.78153298       0.76668395       0.51111045 </v>
   <v>       0.82718360       0.52305802       0.51105373 </v>
   <v>       0.82162567       0.85272346       0.52514030 </v>
   <v>       0.86778253       0.60365926       0.52722985 </v>
   <v>       0.86781462       0.77332963       0.53318806 </v>
   <v>       0.91362210       0.51872469       0.52909851 </v>
   <v>       0.91169340       0.85434198       0.53961194 </v>
   <v>       0.95591444       0.59521235       0.54290149 </v>
   <v>       0.95498039       0.76724074       0.54736119 </v>
  </varray>
 </structure>
 <calculation>
  <scstep>
   <time name="dav">   11.08   11.09</time>
   <time name="total">   11.54   11.56</time>
   <energy>
    <i name="alphaZ">     91.34886789 </i>
    <i name="ewald"> 120039.71414734 </i>
    <i name="hartreedc">-129347.01299061 </i>
    <i name="XCdc">   1222.42262948 </i>
    <i name="pawpsdc">   9984.02826696 </i>
    <i name="pawaedc"> -10036.41360137 </i>
    <i name="eentropy">     -0.83485900 </i>
    <i name="bandstr">  -1772.63192361 </i>
    <i name="atom">  13537.65479391 </i>
    <i name="e_fr_energy">   3718.27533099 </i>
    <i name="e_wo_entrp">   3719.11018998 </i>
    <i name="e_0_energy">   3718.69276049 </i>
   </energy>
  </scstep>
  <scstep>
   <time name="dav">   13.04   13.05</time>
   <time name="total">   13.04   13.05</time>
   <energy>
    <i name="e_fr_energy">    193.98769724 </i>
    <i name="e_wo_entrp">    194.21109662 </i>
    <i name="e_0_energy">    194.09939693 </i>
   </energy>
  </scstep>
  <scstep>
   <time name="dav">   11.27   11.28</time>
   <time name="total">   11.27   11.28</time>
   <energy>
    <i name="e_fr_energy">   -834.30926425 </i>
    <i name="e_wo_entrp">   -834.25332460 </i>
    <i name="e_0_energy">   -834.28129442 </i>
   </energy>
  </scstep>
  <scstep>
   <time name="dav">   10.81   10.81</time>
   <time name="total">   10.81   10.81</time>
   <energy>
    <i name="e_fr_energy">   -897.25204347 </i>
    <i name="e_wo_entrp">   -897.17844434 </i>
    <i name="e_0_energy">   -897.21524391 </i>
   </energy>
  </scstep>
  <scstep>
   <time name="dav">   11.23   11.24</time>
   <time name="total">   12.72   12.72</time>
   <energy>
    <i name="e_fr_energy">   -898.79753823 </i>
    <i name="e_wo_entrp">   -898.72294441 </i>
    <i name="e_0_energy">   -898.76024132 </i>
   </energy>
  </scstep>
  <scstep>
   <time name="dav">   10.25   10.25</time>
   <time name="total">   12.05   12.06</time>
   <energy>
    <i name="e_fr_energy">   -848.20637099 </i>
    <i name="e_wo_entrp">   -848.13377386 </i>
    <i name="e_0_energy">   -848.17007243 </i>
   </energy>
  </scstep>
  <scstep>
   <time name="dav">   10.12   10.12</time>
   <time name="total">   11.91   11.92</time>
   <energy>
    <i name="e_fr_energy">   -829.41838272 </i>
    <i name="e_wo_entrp">   -829.34370511 </i>
    <i name="e_0_energy">   -829.38104392 </i>
   </energy>
  </scstep>
  <scstep>
   <time name="dav">   10.28   10.28</time>
   <time name="total">   12.08   12.08</time>
   <energy>
    <i name="e_fr_energy">   -829.11970437 </i>
    <i name="e_wo_entrp">   -829.04718893 </i>
    <i name="e_0_energy">   -829.08344665 </i>
   </energy>
  </scstep>
  <scstep>
   <time name="dav">   10.44   10.45</time>
   <time name="total">   12.24   12.25</time>
   <energy>
    <i name="e_fr_energy">   -829.00385249 </i>
    <i name="e_wo_entrp">   -828.93090065 </i>
    <i name="e_0_energy">   -828.96737657 </i>
   </energy>
  </scstep>
  <scstep>
   <time name="dav">   10.95   10.96</time>
   <time name="total">   12.76   12.77</time>
   <energy>
    <i name="e_fr_energy">   -828.96556041 </i>
    <i name="e_wo_entrp">   -828.89246226 </i>
    <i name="e_0_energy">   -828.92901133 </i>
   </energy>
  </scstep>
  <scstep>
   <time name="dav">   10.23   10.23</time>
   <time name="total">   12.05   12.06</time>
   <energy>
    <i name="e_fr_energy">   -828.93608048 </i>
    <i name="e_wo_entrp">   -828.86295781 </i>
    <i name="e_0_energy">   -828.89951914 </i>
   </energy>
  </scstep>
  <scstep>
   <time name="dav">   10.02   10.02</time>
   <time name="total">   11.84   11.85</time>
   <energy>
    <i name="e_fr_energy">   -828.93024126 </i>
    <i name="e_wo_entrp">   -828.85708489 </i>
    <i name="e_0_energy">   -828.89366308 </i>
   </energy>
  </scstep>
  <scstep>
   <time name="dav">   10.10   10.10</time>
   <time name="total">   11.93   11.94</time>
   <energy>
    <i name="e_fr_energy">   -828.94135804 </i>
    <i name="e_wo_entrp">   -828.86826688 </i>
    <i name="e_0_energy">   -828.90481246 </i>
   </energy>
  </scstep>
  <scstep>
   <time name="dav">   10.11   10.11</time>
   <time name="total">   11.95   11.95</time>
   <energy>
    <i name="e_fr_energy">   -828.95952616 </i>
    <i name="e_wo_entrp">   -828.88641041 </i>
    <i name="e_0_energy">   -828.92296828 </i>
   </energy>
  </scstep>
  <scstep>
   <time name="dav">   10.06   10.07</time>
   <time name="total">   11.91   11.92</time>
   <energy>
    <i name="e_fr_energy">   -828.97829313 </i>
    <i name="e_wo_entrp">   -828.90515467 </i>
    <i name="e_0_energy">   -828.94172390 </i>
   </energy>
  </scstep>
  <scstep>
   <time name="dav">   10.35   10.35</time>
   <time name="total">   12.21   12.22</time>
   <energy>
    <i name="e_fr_energy">   -828.98827267 </i>
    <i name="e_wo_entrp">   -828.91513381 </i>
    <i name="e_0_energy">   -828.95170324 </i>
   </energy>
  </scstep>
  <scstep>
   <time name="dav">   10.06   10.06</time>
   <time name="total">   11.92   11.93</time>
   <energy>
    <i name="e_fr_energy">   -828.99364484 </i>
    <i name="e_wo_entrp">   -828.92050515 </i>
    <i name="e_0_energy">   -828.95707500 </i>
   </energy>
  </scstep>
  <scstep>
   <time name="dav">   10.38   10.39</time>
   <time name="total">   12.26   12.27</time>
   <energy>
    <i name="e_fr_energy">   -828.99595851 </i>
    <i name="e_wo_entrp">   -828.92281995 </i>
    <i name="e_0_energy">   -828.95938923 </i>
   </energy>
  </scstep>
  <scstep>
   <time name="dav">   10.06   10.06</time>
   <time name="total">   11.95   11.95</time>
   <energy>
    <i name="e_fr_energy">   -828.99718762 </i>
    <i name="e_wo_entrp">   -828.92404930 </i>
    <i name="e_0_energy">   -828.96061846 </i>
   </energy>
  </scstep>
  <scstep>
   <time name="dav">    9.30    9.31</time>
   <time name="total">   11.21   11.21</time>
   <energy>
    <i name="e_fr_energy">   -828.99747554 </i>
    <i name="e_wo_entrp">   -828.92433752 </i>
    <i name="e_0_energy">   -828.96090653 </i>
   </energy>
  </scstep>
  <scstep>
   <time name="dav">    8.56    8.56</time>
   <time name="total">   10.48   10.49</time>
   <energy>
    <i name="e_fr_energy">   -828.99775078 </i>
    <i name="e_wo_entrp">   -828.92461145 </i>
    <i name="e_0_energy">   -828.96118111 </i>
   </energy>
  </scstep>
  <scstep>
   <time name="dav">    7.70    7.71</time>
   <time name="total">    9.63    9.64</time>
   <energy>
    <i name="e_fr_energy">   -828.99780165 </i>
    <i name="e_wo_entrp">   -828.92466231 </i>
    <i name="e_0_energy">   -828.96123198 </i>
   </energy>
  </scstep>
  <scstep>
   <time name="dav">    7.03    7.04</time>
   <time name="total">    8.97    8.98</time>
   <energy>
    <i name="e_fr_energy">   -828.99784116 </i>
    <i name="e_wo_entrp">   -828.92470203 </i>
    <i name="e_0_energy">   -828.96127160 </i>
   </energy>
  </scstep>
  <scstep>
   <time name="dav">    7.20    7.20</time>
   <time name="total">    9.16    9.16</time>
   <energy>
    <i name="e_fr_energy">   -828.99785793 </i>
    <i name="e_wo_entrp">   -828.92471888 </i>
    <i name="e_0_energy">   -828.96128840 </i>
   </energy>
  </scstep>
  <scstep>
   <time name="dav">    7.09    7.09</time>
   <time name="total">    9.06    9.06</time>
   <energy>
    <i name="e_fr_energy">   -828.99786324 </i>
    <i name="e_wo_entrp">   -828.92472413 </i>
    <i name="e_0_energy">   -828.96129368 </i>
   </energy>
  </scstep>
  <scstep>
   <time name="dav">    6.93    6.93</time>
   <time name="total">    8.93    8.93</time>
   <energy>
    <i name="e_fr_energy">   -828.99786750 </i>
    <i name="e_wo_entrp">   -828.92472848 </i>
    <i name="e_0_energy">   -828.96129799 </i>
   </energy>
  </scstep>
  <scstep>
   <time name="dav">    7.15    7.15</time>
   <time name="total">    9.15    9.15</time>
   <energy>
    <i name="e_fr_energy">   -828.99786890 </i>
    <i name="e_wo_entrp">   -828.92472992 </i>
    <i name="e_0_energy">   -828.96129941 </i>
   </energy>
  </scstep>
  <scstep>
   <time name="dav">    6.98    6.98</time>
   <time name="total">    9.00    9.00</time>
   <energy>
    <i name="e_fr_energy">   -828.99787073 </i>
    <i name="e_wo_entrp">   -828.92473169 </i>
    <i name="e_0_energy">   -828.96130121 </i>
   </energy>
  </scstep>
  <scstep>
   <time name="dav">    7.14    7.15</time>
   <time name="total">    7.50    7.51</time>
   <energy>
    <i name="alphaZ">     91.34886789 </i>
    <i name="ewald"> 120039.71414734 </i>
    <i name="hartreedc">-131125.85560707 </i>
    <i name="XCdc">   1280.24303289 </i>
    <i name="pawpsdc">  41464.60742884 </i>
    <i name="pawaedc"> -41528.81959828 </i>
    <i name="eentropy">     -0.07313905 </i>
    <i name="bandstr">  -4587.81779782 </i>
    <i name="atom">  13537.65479391 </i>
    <i name="e_fr_energy">   -828.99787136 </i>
    <i name="e_wo_entrp">   -828.92473231 </i>
    <i name="e_0_energy">   -828.96130184 </i>
   </energy>
  </scstep>
  <structure>
   <crystal>
    <varray name="basis" >
     <v>      28.05000000       0.00000000       0.00000000 </v>
     <v>       0.00000000       8.10000000       0.00000000 </v>
     <v>       0.00000000       0.00000000      33.50000000 </v>
    </varray>
    <i name="volume">   7611.36750000 </i>
    <varray name="rec_basis" >
     <v>       0.03565062       0.00000000       0.00000000 </v>
     <v>       0.00000000       0.12345679       0.00000000 </v>
     <v>       0.00000000       0.00000000       0.02985075 </v>
    </varray>
   </crystal>
   <varray name="positions" >
    <v>       0.00668032       0.09887556       0.54189552 </v>
    <v>       0.00595020       0.26763704       0.53431343 </v>
    <v>       0.05109269       0.02861765       0.54450448 </v>
    <v>       0.04884100       0.35424938       0.53171343 </v>
    <v>       0.09416863       0.10512914       0.53966567 </v>
    <v>       0.09444456       0.26789383       0.53548358 </v>
    <v>       0.14016221       0.01524691       0.53808955 </v>
    <v>       0.13674902       0.35701481       0.52862388 </v>
    <v>       0.18338824       0.10268346       0.53067761 </v>
    <v>       0.18092193       0.27300247       0.52394328 </v>
    <v>       0.22759109       0.02644210       0.52870448 </v>
    <v>       0.22213619       0.35589136       0.51388657 </v>
    <v>       0.26884599       0.11559272       0.51482090 </v>
    <v>       0.26508592       0.27317160       0.50292537 </v>
    <v>       0.31229412       0.01959691       0.50365970 </v>
    <v>       0.30879572       0.35232222       0.48812239 </v>
    <v>       0.35203209       0.10045556       0.48618806 </v>
    <v>       0.35129911       0.26709136       0.47835224 </v>
    <v>       0.39561497       0.02504086       0.47781493 </v>
    <v>       0.39330125       0.35206420       0.46617910 </v>
    <v>       0.43704100       0.11130296       0.46462388 </v>
    <v>       0.43613904       0.27344568       0.45866866 </v>
    <v>       0.48152585       0.02901148       0.45544776 </v>
    <v>       0.48062032       0.35640617       0.45186269 </v>
    <v>       0.52629947       0.11039889       0.45050448 </v>
    <v>       0.52763280       0.27247778       0.45180299 </v>
    <v>       0.57211765       0.02295395       0.45234328 </v>
    <v>       0.57062389       0.35739753       0.44830149 </v>
    <v>       0.61376827       0.10348765       0.46135224 </v>
    <v>       0.61509447       0.27234568       0.45774925 </v>
    <v>       0.65675579       0.01856259       0.47322985 </v>
    <v>       0.65853832       0.35187407       0.46746269 </v>
    <v>       0.69915152       0.09791457       0.48211940 </v>
    <v>       0.69973262       0.26128025       0.47954627 </v>
    <v>       0.73946168       0.02092975       0.49817612 </v>
    <v>       0.74075223       0.35218148       0.49120000 </v>
    <v>       0.78304100       0.10106284       0.50592836 </v>
    <v>       0.78381818       0.27110617       0.49954030 </v>
    <v>       0.82459180       0.02466395       0.52196716 </v>
    <v>       0.82808913       0.35150123       0.50695522 </v>
    <v>       0.86791444       0.10410086       0.52545970 </v>
    <v>       0.87228877       0.26968148       0.51594030 </v>
    <v>       0.91173619       0.02360123       0.53547463 </v>
    <v>       0.91435294       0.35154938       0.52476716 </v>
    <v>       0.95418182       0.10016864       0.53462090 </v>
    <v>       0.95677718       0.26853580       0.52854627 </v>
    <v>       0.00728802       0.60234074       0.54356716 </v>
    <v>       0.00645340       0.77686667       0.54712836 </v>
    <v>       0.04821533       0.52273210       0.53436716 </v>
    <v>       0.05047308       0.85927407       0.54727463 </v>
    <v>       0.09486702       0.60743951       0.53357015 </v>
    <v>       0.09483886       0.76687531       0.54259403 </v>
    <v>       0.13866096       0.52374444       0.52680597 </v>
    <v>       0.13882674       0.84896173       0.53939403 </v>
    <v>       0.18114474       0.61024815       0.52279104 </v>
    <v>       0.18230481       0.77488148       0.52954925 </v>
    <v>       0.22258930       0.52787901       0.51371343 </v>
    <v>       0.22424314       0.86178642       0.52445672 </v>
    <v>       0.26592656       0.60902469       0.50392537 </v>
    <v>       0.26820856       0.77278025       0.51187463 </v>
    <v>       0.30777326       0.52015062       0.49029851 </v>
    <v>       0.31151123       0.85274691       0.50550448 </v>
    <v>       0.35107950       0.59905432       0.48174627 </v>
    <v>       0.35442460       0.76597654       0.49177612 </v>
    <v>       0.39233512       0.52182963       0.46724478 </v>
    <v>       0.39549376       0.85556049       0.48040000 </v>
    <v>       0.43516934       0.60633210       0.45905970 </v>
    <v>       0.43571123       0.77662593       0.46535522 </v>
    <v>       0.47998574       0.52363086       0.44779403 </v>
    <v>       0.47961141       0.86237778       0.45588955 </v>
    <v>       0.52727273       0.61275802       0.44894627 </v>
    <v>       0.52572906       0.77743704       0.45310149 </v>
    <v>       0.57130838       0.52576049       0.44791940 </v>
    <v>       0.57118717       0.85767160       0.45192537 </v>
    <v>       0.61504456       0.60445185       0.45519403 </v>
    <v>       0.61513369       0.77532346       0.45920597 </v>
    <v>       0.65903030       0.52068642       0.46648358 </v>
    <v>       0.65600713       0.85461852       0.47234925 </v>
    <v>       0.70088414       0.60319012       0.47934925 </v>
    <v>       0.69931907       0.77238889       0.48410149 </v>
    <v>       0.74236007       0.52053457       0.49016418 </v>
    <v>       0.73962923       0.85331235       0.49927463 </v>
    <v>       0.78404278       0.60279877       0.50606567 </v>
    <v>       0.78153298       0.76668395       0.51111045 </v>
    <v>       0.82718360       0.52305802       0.51105373 </v>
    <v>       0.82162567       0.85272346       0.52514030 </v>
    <v>       0.86778253       0.60365926       0.52722985 </v>
    <v>       0.86781462       0.77332963       0.53318806 </v>
    <v>       0.91362210       0.51872469       0.52909851 </v>
    <v>       0.91169340       0.85434198       0.53961194 </v>
    <v>       0.95591444       0.59521235       0.54290149 </v>
    <v>       0.95498039       0.76724074       0.54736119 </v>
   </varray>
  </structure>
  <varray name="forces" >
   <v>       1.13599353       1.85820355      -0.55617052 </v>
   <v>       4.16251637       0.26940870       0.28508762 </v>
   <v>      -1.71001141      -2.02323476       0.51932008 </v>
   <v>       0.17518989      -1.93920963       0.59835582 </v>
   <v>       2.93331644      -1.66548373       0.30931361 </v>
   <v>      -1.63709588       3.74559483      -1.23145842 </v>
   <v>      -1.46237457       3.12315592       0.23407969 </v>
   <v>       1.46975778      -1.86868234      -0.28273780 </v>
   <v>      -1.59646230       0.89320409       0.62417024 </v>
   <v>      -1.05442116      -0.69490253       0.73603591 </v>
   <v>       0.34183251       1.73361065      -0.99476993 </v>
   <v>       1.35200534       1.00022333      -1.10330774 </v>
   <v>       1.39556905      -4.06028840      -0.64049244 </v>
   <v>       1.32799447       1.34260664       0.30903452 </v>
   <v>      -1.24029036       3.04741403       0.42993287 </v>
   <v>      -2.10680985      -0.91734203       0.43950625 </v>
   <v>       0.20861734       0.41341438       0.37002644 </v>
   <v>      -0.82433738       0.97300301       0.29863884 </v>
   <v>       0.29807550      -0.10900153       0.06521298 </v>
   <v>      -1.41670440       0.20134753      -0.02353757 </v>
   <v>       0.85950964      -3.25598064      -0.36621518 </v>
   <v>       1.25150447       1.90872402      -0.00475429 </v>
   <v>      -0.80591078       0.72937645       0.62022941 </v>
   <v>       0.92963372      -0.69491054      -0.46614400 </v>
   <v>       0.87233941      -3.74700161       0.65112005 </v>
   <v>      -2.66037967       3.49776932      -1.10603046 </v>
   <v>      -2.70115697       1.56948829       0.09915736 </v>
   <v>       1.81860374      -1.15919846       1.16661850 </v>
   <v>       1.96071657       0.45087609      -0.01419516 </v>
   <v>      -0.82170507       0.80964837      -0.22775826 </v>
   <v>      -1.69327690       2.14079577      -0.74933498 </v>
   <v>      -0.35867913      -0.93107018      -0.40598586 </v>
   <v>       0.11497458      -0.90683491       0.86909008 </v>
   <v>      -0.20462316       4.34814753      -0.04752630 </v>
   <v>       1.08413568      -0.04285069      -0.18689939 </v>
   <v>       0.77415990      -1.04914346      -1.05137824 </v>
   <v>      -0.00668524       1.11011546       0.43171460 </v>
   <v>       1.31537599      -0.68673781       0.73869666 </v>
   <v>      -2.07059099      -1.18719833      -0.94699578 </v>
   <v>       0.36486424       0.55063222      -0.04226646 </v>
   <v>       1.93251645       0.35578096      -0.18285162 </v>
   <v>      -2.70268786      -0.46740672       0.31001130 </v>
   <v>      -1.14356053      -1.01766256      -0.06260056 </v>
   <v>       0.78552481       0.15324969      -1.30099511 </v>
   <v>       0.37995764       0.85558385       0.08784732 </v>
   <v>      -3.27650103      -0.58973187      -0.15566834 </v>
   <v>       1.55822027       1.40373261      -0.42373030 </v>
   <v>       2.88631914      -1.31702484       0.66035523 </v>
   <v>       2.29205349       0.71342009      -0.13092031 </v>
   <v>      -0.40445792      -2.32617938      -0.04523210 </v>
   <v>      -1.96099417      -2.59828494       0.12978747 </v>
   <v>      -1.06696818       2.72140414       0.14544425 </v>
   <v>      -1.98269013       1.17658386       0.26147720 </v>
   <v>       0.46498031       0.22917188       0.05399400 </v>
   <v>       0.16352915      -1.25940925       0.05202163 </v>
   <v>      -0.86768784       0.56755799       0.24346010 </v>
   <v>       1.31575890      -1.17374746      -1.05900798 </v>
   <v>       3.53862350      -2.96886067      -0.33662898 </v>
   <v>       0.33428150      -1.89696040       0.19425698 </v>
   <v>      -1.54329257       1.39748251       0.71667840 </v>
   <v>      -0.41589348       1.13038716      -0.10793443 </v>
   <v>       1.76564532      -1.41816767      -0.64594392 </v>
   <v>       0.08382304       1.88252237       0.72551376 </v>
   <v>      -1.44673684       0.92950468      -0.32270443 </v>
   <v>       0.44020292      -0.07816390      -0.21265985 </v>
   <v>       0.16724264      -0.70600563      -0.07925872 </v>
   <v>       1.37764819       0.24832407      -0.42492073 </v>
   <v>       2.00177818      -0.74431350      -0.79608394 </v>
   <v>       0.62199524       2.00428729       1.60773805 </v>
   <v>       1.17043147      -2.13294073       0.63425444 </v>
   <v>      -2.50945393      -2.87392562      -0.57461651 </v>
   <v>      -0.48914642       1.43788971      -0.93841891 </v>
   <v>      -0.33718266       0.75071861       0.13592797 </v>
   <v>      -0.38599747      -1.39095380       0.90047559 </v>
   <v>       1.60613712       0.26231055       0.93624617 </v>
   <v>      -1.23655994      -1.45872098      -0.59733038 </v>
   <v>      -0.84623305       0.83308801      -0.52994183 </v>
   <v>       1.54310055      -2.12693792       0.41188150 </v>
   <v>      -0.84453996       0.52296333      -0.05865348 </v>
   <v>      -0.94587981      -0.26535925      -0.45018472 </v>
   <v>       0.58305466       0.49744244       0.86032503 </v>
   <v>      -0.16530908      -1.36590204       0.16748236 </v>
   <v>      -1.53126590      -1.82536914      -1.50266019 </v>
   <v>      -0.33495018       2.60659093       0.61535857 </v>
   <v>       0.77223835      -0.85647692       1.05190733 </v>
   <v>       2.72405292       0.27185968       0.32464509 </v>
   <v>       1.91170795      -0.42656158      -0.68761651 </v>
   <v>      -1.84398931      -0.76757341      -0.24071846 </v>
   <v>      -0.03667809       1.81281689       1.24425447 </v>
   <v>       0.68684808      -1.09686124       1.14027297 </v>
   <v>      -3.20368151       1.20067215      -0.50460319 </v>
   <v>      -3.36050487       0.40646736      -0.58711446 </v>
  </varray>
  <varray name="stress" >
   <v>      -1.33503030       1.18741310       0.40500193 </v>
   <v>       1.18741309      57.47020380       0.18243525 </v>
   <v>       0.40500193       0.18243525      -0.82438302 </v>
  </varray>
  <energy>
   <i name="e_fr_energy">   -828.99787136 </i>
   <i name="e_wo_entrp">   -828.92473231 </i>
   <i name="e_0_energy">   -828.96130184 </i>
  </energy>
  <time name="totalsc">  333.02  333.23</time>
  <eigenvalues>
   <array>
    <dimension dim="1">band</dimension>
    <dimension dim="2">kpoint</dimension>
    <dimension dim="3">spin</dimension>
    <field>eigene</field>
    <field>occ</field>
    <set>
     <set comment="spin 1">
      <set comment="kpoint 1">
       <r>  -23.2484    1.0000 </r>
       <r>  -23.0764    1.0000 </r>
       <r>  -23.0292    1.0000 </r>
       <r>  -22.7503    1.0000 </r>
       <r>  -22.5995    1.0000 </r>
       <r>  -22.4262    1.0000 </r>
       <r>  -22.0430    1.0000 </r>
       <r>  -21.9991    1.0000 </r>
       <r>  -21.5064    1.0000 </r>
       <r>  -21.4764    1.0000 </r>
       <r>  -21.4549    1.0000 </r>
       <r>  -21.4286    1.0000 </r>
       <r>  -21.2428    1.0000 </r>
       <r>  -21.2330    1.0000 </r>
       <r>  -21.1652    1.0000 </r>
       <r>  -21.1323    1.0000 </r>
       <r>  -21.0164    1.0000 </r>
       <r>  -20.9288    1.0000 </r>
       <r>  -20.7213    1.0000 </r>
       <r>  -20.5361    1.0000 </r>
       <r>  -20.4523    1.0000 </r>
       <r>  -20.3962    1.0000 </r>
       <r>  -20.1337    1.0000 </r>
       <r>  -20.1204    1.0000 </r>
       <r>  -19.9543    1.0000 </r>
       <r>  -19.6987    1.0000 </r>
       <r>  -19.5688    1.0000 </r>
       <r>  -19.5176    1.0000 </r>
       <r>  -19.1922    1.0000 </r>
       <r>  -18.9522    1.0000 </r>
       <r>  -18.7092    1.0000 </r>
       <r>  -18.6611    1.0000 </r>
       <r>  -18.5493    1.0000 </r>
       <r>  -18.4117    1.0000 </r>
       <r>  -18.2425    1.0000 </r>
       <r>  -17.6800    1.0000 </r>
       <r>  -17.3559    1.0000 </r>
       <r>  -17.2762    1.0000 </r>
       <r>  -16.9978    1.0000 </r>
       <r>  -16.9371    1.0000 </r>
       <r>  -16.8108    1.0000 </r>
       <r>  -16.7654    1.0000 </r>
       <r>  -16.7441    1.0000 </r>
       <r>  -16.6490    1.0000 </r>
       <r>  -16.6358    1.0000 </r>
       <r>  -16.5771    1.0000 </r>
       <r>  -16.4612    1.0000 </r>
       <r>  -16.4264    1.0000 </r>
       <r>  -16.3888    1.0000 </r>
       <r>  -16.3683    1.0000 </r>
       <r>  -16.3441    1.0000 </r>
       <r>  -16.2292    1.0000 </r>
       <r>  -16.1835    1.0000 </r>
       <r>  -16.0383    1.0000 </r>
       <r>  -15.8138    1.0000 </r>
       <r>  -15.5948    1.0000 </r>
       <r>  -15.4445    1.0000 </r>
       <r>  -15.2920    1.0000 </r>
       <r>  -15.2720    1.0000 </r>
       <r>  -15.1891    1.0000 </r>
       <r>  -15.0283    1.0000 </r>
       <r>  -15.0038    1.0000 </r>
       <r>  -14.2966    1.0000 </r>
       <r>  -14.1300    1.0000 </r>
       <r>  -14.1256    1.0000 </r>
       <r>  -14.0661    1.0000 </r>
       <r>  -13.9064    1.0000 </r>
       <r>  -13.7772    1.0000 </r>
       <r>  -13.7349    1.0000 </r>
       <r>  -13.5920    1.0000 </r>
       <r>  -13.4858    1.0000 </r>
       <r>  -13.4275    1.0000 </r>
       <r>  -13.3431    1.0000 </r>
       <r>  -13.1180    1.0000 </r>
       <r>  -13.0101    1.0000 </r>
       <r>  -12.8566    1.0000 </r>
       <r>  -12.6967    1.0000 </r>
       <r>  -12.4584    1.0000 </r>
       <r>  -12.1996    1.0000 </r>
       <r>  -12.1400    1.0000 </r>
       <r>  -12.0457    1.0000 </r>
       <r>  -11.9681    1.0000 </r>
       <r>  -11.9265    1.0000 </r>
       <r>  -11.7299    1.0000 </r>
       <r>  -11.6890    1.0000 </r>
       <r>  -11.4651    1.0000 </r>
       <r>  -11.4328    1.0000 </r>
       <r>  -11.2146    1.0000 </r>
       <r>  -11.1163    1.0000 </r>
       <r>  -11.0555    1.0000 </r>
       <r>  -11.0054    1.0000 </r>
       <r>  -10.9275    1.0000 </r>
       <r>  -10.8269    1.0000 </r>
       <r>  -10.7696    1.0000 </r>
       <r>  -10.7257    1.0000 </r>
       <r>  -10.6447    1.0000 </r>
       <r>  -10.6254    1.0000 </r>
       <r>  -10.5139    1.0000 </r>
       <r>  -10.4478    1.0000 </r>
       <r>  -10.3779    1.0000 </r>
       <r>  -10.3696    1.0000 </r>
       <r>  -10.3066    1.0000 </r>
       <r>  -10.2681    1.0000 </r>
       <r>  -10.2359    1.0000 </r>
       <r>  -10.1508    1.0000 </r>
       <r>  -10.0773    1.0000 </r>
       <r>   -9.9329    1.0000 </r>
       <r>   -9.8511    1.0000 </r>
       <r>   -9.8305    1.0000 </r>
       <r>   -9.7703    1.0000 </r>
       <r>   -9.6821    1.0000 </r>
       <r>   -9.6334    1.0000 </r>
       <r>   -9.5867    1.0000 </r>
       <r>   -9.5726    1.0000 </r>
       <r>   -9.5320    1.0000 </r>
       <r>   -9.4930    1.0000 </r>
       <r>   -9.4732    1.0000 </r>
       <r>   -9.4512    1.0000 </r>
       <r>   -9.4406    1.0000 </r>
       <r>   -9.4162    1.0000 </r>
       <r>   -9.3683    1.0000 </r>
       <r>   -9.3424    1.0000 </r>
       <r>   -9.3275    1.0000 </r>
       <r>   -9.3028    1.0000 </r>
       <r>   -9.2701    1.0000 </r>
       <r>   -9.2234    1.0000 </r>
       <r>   -9.1991    1.0000 </r>
       <r>   -9.1453    1.0000 </r>
       <r>   -9.1070    1.0000 </r>
       <r>   -9.0643    1.0000 </r>
       <r>   -9.0374    1.0000 </r>
       <r>   -9.0213    1.0000 </r>
       <r>   -8.9598    1.0000 </r>
       <r>   -8.9282    1.0000 </r>
       <r>   -8.9042    1.0000 </r>
       <r>   -8.8647    1.0000 </r>
       <r>   -8.7858    1.0000 </r>
       <r>   -8.7815    1.0000 </r>
       <r>   -8.7338    1.0000 </r>
       <r>   -8.7110    1.0000 </r>
       <r>   -8.6875    1.0000 </r>
       <r>   -8.5968    1.0000 </r>
       <r>   -8.5609    1.0000 </r>
       <r>   -8.5248    1.0000 </r>
       <r>   -8.4622    1.0000 </r>
       <r>   -8.3615    1.0000 </r>
       <r>   -8.0257    1.0000 </r>
       <r>   -8.0038    1.0000 </r>
       <r>   -7.9322    1.0000 </r>
       <r>   -7.7878    1.0000 </r>
       <r>   -7.6941    1.0000 </r>
       <r>   -7.6760    1.0000 </r>
       <r>   -7.6018    1.0000 </r>
       <r>   -7.5250    1.0000 </r>
       <r>   -7.3886    1.0000 </r>
       <r>   -7.3639    1.0000 </r>
       <r>   -7.2944    1.0000 </r>
       <r>   -7.1235    1.0000 </r>
       <r>   -7.0461    1.0000 </r>
       <r>   -6.9498    1.0000 </r>
       <r>   -6.7827    1.0000 </r>
       <r>   -6.7378    1.0000 </r>
       <r>   -6.6686    1.0000 </r>
       <r>   -6.5912    1.0000 </r>
       <r>   -6.4662    1.0000 </r>
       <r>   -6.3086    1.0000 </r>
       <r>   -6.2104    1.0000 </r>
       <r>   -6.1400    1.0000 </r>
       <r>   -6.0409    1.0000 </r>
       <r>   -6.0030    1.0000 </r>
       <r>   -5.9757    1.0000 </r>
       <r>   -5.9332    1.0000 </r>
       <r>   -5.9170    1.0000 </r>
       <r>   -5.0278    1.0000 </r>
       <r>   -4.9069    1.0000 </r>
       <r>   -4.8087    1.0000 </r>
       <r>   -4.6388    1.0000 </r>
       <r>   -4.5205    1.0000 </r>
       <r>   -4.5094    1.0000 </r>
       <r>   -4.4384    1.0000 </r>
       <r>   -4.3102    1.0000 </r>
       <r>   -3.6986    0.9997 </r>
       <r>   -3.5443    0.9912 </r>
       <r>   -3.2621    0.6483 </r>
       <r>   -3.1593    0.3644 </r>
       <r>   -2.6689    0.0001 </r>
       <r>   -2.5496    0.0000 </r>
       <r>   -2.4975    0.0000 </r>
       <r>   -2.4318    0.0000 </r>
       <r>   -2.0982    0.0000 </r>
       <r>   -1.8580    0.0000 </r>
       <r>   -1.6792    0.0000 </r>
       <r>   -1.6252    0.0000 </r>
       <r>   -1.4263    0.0000 </r>
       <r>   -1.3718    0.0000 </r>
       <r>   -1.2916    0.0000 </r>
       <r>   -1.1356    0.0000 </r>
       <r>   -0.9475    0.0000 </r>
       <r>   -0.7524    0.0000 </r>
       <r>   -0.6308    0.0000 </r>
       <r>   -0.5033    0.0000 </r>
       <r>   -0.2838    0.0000 </r>
       <r>   -0.0356    0.0000 </r>
       <r>    0.0728    0.0000 </r>
       <r>    0.1238    0.0000 </r>
       <r>    0.2814    0.0000 </r>
       <r>    0.3805    0.0000 </r>
       <r>    0.6148    0.0000 </r>
       <r>    0.6685    0.0000 </r>
       <r>    0.7052    0.0000 </r>
       <r>    0.7147    0.0000 </r>
       <r>    0.8932    0.0000 </r>
       <r>    0.9053    0.0000 </r>
       <r>    0.9349    0.0000 </r>
       <r>    0.9741    0.0000 </r>
       <r>    0.9931    0.0000 </r>
       <r>    1.1085    0.0000 </r>
       <r>    1.1478    0.0000 </r>
       <r>    1.1582    0.0000 </r>
       <r>    1.2166    0.0000 </r>
       <r>    1.3086    0.0000 </r>
       <r>    1.3297    0.0000 </r>
       <r>    1.3371    0.0000 </r>
       <r>    1.4028    0.0000 </r>
       <r>    1.4613    0.0000 </r>
       <r>    1.5592    0.0000 </r>
       <r>    1.5699    0.0000 </r>
       <r>    1.7248    0.0000 </r>
       <r>    1.7267    0.0000 </r>
       <r>    1.7300    0.0000 </r>
       <r>    1.7326    0.0000 </r>
       <r>    1.9133    0.0000 </r>
      </set>
      <set comment="kpoint 2">
       <r>  -23.1712    1.0000 </r>
       <r>  -22.9810    1.0000 </r>
       <r>  -22.9355    1.0000 </r>
       <r>  -22.6809    1.0000 </r>
       <r>  -22.5489    1.0000 </r>
       <r>  -22.5026    1.0000 </r>
       <r>  -22.1640    1.0000 </r>
       <r>  -22.1340    1.0000 </r>
       <r>  -21.9749    1.0000 </r>
       <r>  -21.9102    1.0000 </r>
       <r>  -21.8234    1.0000 </r>
       <r>  -21.6986    1.0000 </r>
       <r>  -21.2209    1.0000 </r>
       <r>  -21.1258    1.0000 </r>
       <r>  -21.1068    1.0000 </r>
       <r>  -20.9970    1.0000 </r>
       <r>  -20.6323    1.0000 </r>
       <r>  -20.5486    1.0000 </r>
       <r>  -20.4856    1.0000 </r>
       <r>  -20.3429    1.0000 </r>
       <r>  -20.2272    1.0000 </r>
       <r>  -20.1259    1.0000 </r>
       <r>  -20.0803    1.0000 </r>
       <r>  -19.8876    1.0000 </r>
       <r>  -19.8568    1.0000 </r>
       <r>  -19.5561    1.0000 </r>
       <r>  -19.4641    1.0000 </r>
       <r>  -19.1212    1.0000 </r>
       <r>  -19.0793    1.0000 </r>
       <r>  -18.9255    1.0000 </r>
       <r>  -18.7238    1.0000 </r>
       <r>  -18.5766    1.0000 </r>
       <r>  -18.5329    1.0000 </r>
       <r>  -18.2875    1.0000 </r>
       <r>  -18.2152    1.0000 </r>
       <r>  -18.1213    1.0000 </r>
       <r>  -18.0461    1.0000 </r>
       <r>  -18.0215    1.0000 </r>
       <r>  -17.8329    1.0000 </r>
       <r>  -17.7675    1.0000 </r>
       <r>  -17.4821    1.0000 </r>
       <r>  -17.3790    1.0000 </r>
       <r>  -17.3222    1.0000 </r>
       <r>  -17.2123    1.0000 </r>
       <r>  -17.0397    1.0000 </r>
       <r>  -16.5750    1.0000 </r>
       <r>  -16.3706    1.0000 </r>
       <r>  -16.2081    1.0000 </r>
       <r>  -16.0257    1.0000 </r>
       <r>  -15.8793    1.0000 </r>
       <r>  -15.8186    1.0000 </r>
       <r>  -15.6386    1.0000 </r>
       <r>  -15.5721    1.0000 </r>
       <r>  -15.3679    1.0000 </r>
       <r>  -15.3142    1.0000 </r>
       <r>  -15.2300    1.0000 </r>
       <r>  -15.1362    1.0000 </r>
       <r>  -15.1246    1.0000 </r>
       <r>  -15.0062    1.0000 </r>
       <r>  -14.9433    1.0000 </r>
       <r>  -14.8886    1.0000 </r>
       <r>  -14.7914    1.0000 </r>
       <r>  -14.5270    1.0000 </r>
       <r>  -14.3480    1.0000 </r>
       <r>  -14.3292    1.0000 </r>
       <r>  -14.1552    1.0000 </r>
       <r>  -13.9344    1.0000 </r>
       <r>  -13.8499    1.0000 </r>
       <r>  -13.3326    1.0000 </r>
       <r>  -13.3029    1.0000 </r>
       <r>  -13.2054    1.0000 </r>
       <r>  -13.1672    1.0000 </r>
       <r>  -12.9037    1.0000 </r>
       <r>  -12.8590    1.0000 </r>
       <r>  -12.7788    1.0000 </r>
       <r>  -12.7312    1.0000 </r>
       <r>  -12.6248    1.0000 </r>
       <r>  -12.4898    1.0000 </r>
       <r>  -12.3958    1.0000 </r>
       <r>  -12.3010    1.0000 </r>
       <r>  -12.1861    1.0000 </r>
       <r>  -12.1407    1.0000 </r>
       <r>  -12.0569    1.0000 </r>
       <r>  -11.9618    1.0000 </r>
       <r>  -11.7317    1.0000 </r>
       <r>  -11.6286    1.0000 </r>
       <r>  -11.4602    1.0000 </r>
       <r>  -11.3971    1.0000 </r>
       <r>  -11.2409    1.0000 </r>
       <r>  -11.1522    1.0000 </r>
       <r>  -11.0798    1.0000 </r>
       <r>  -11.0471    1.0000 </r>
       <r>  -10.9656    1.0000 </r>
       <r>  -10.9294    1.0000 </r>
       <r>  -10.9177    1.0000 </r>
       <r>  -10.8870    1.0000 </r>
       <r>  -10.8552    1.0000 </r>
       <r>  -10.7878    1.0000 </r>
       <r>  -10.7556    1.0000 </r>
       <r>  -10.5963    1.0000 </r>
       <r>  -10.5745    1.0000 </r>
       <r>  -10.5244    1.0000 </r>
       <r>  -10.4567    1.0000 </r>
       <r>  -10.4213    1.0000 </r>
       <r>  -10.3757    1.0000 </r>
       <r>  -10.2912    1.0000 </r>
       <r>  -10.2369    1.0000 </r>
       <r>  -10.1375    1.0000 </r>
       <r>  -10.0765    1.0000 </r>
       <r>  -10.0185    1.0000 </r>
       <r>   -9.9764    1.0000 </r>
       <r>   -9.9202    1.0000 </r>
       <r>   -9.8897    1.0000 </r>
       <r>   -9.8283    1.0000 </r>
       <r>   -9.7156    1.0000 </r>
       <r>   -9.6968    1.0000 </r>
       <r>   -9.6515    1.0000 </r>
       <r>   -9.6033    1.0000 </r>
       <r>   -9.5743    1.0000 </r>
       <r>   -9.5385    1.0000 </r>
       <r>   -9.4801    1.0000 </r>
       <r>   -9.4503    1.0000 </r>
       <r>   -9.4317    1.0000 </r>
       <r>   -9.3798    1.0000 </r>
       <r>   -9.2406    1.0000 </r>
       <r>   -9.2205    1.0000 </r>
       <r>   -9.0616    1.0000 </r>
       <r>   -8.9421    1.0000 </r>
       <r>   -8.9005    1.0000 </r>
       <r>   -8.8298    1.0000 </r>
       <r>   -8.7540    1.0000 </r>
       <r>   -8.7123    1.0000 </r>
       <r>   -8.6766    1.0000 </r>
       <r>   -8.6388    1.0000 </r>
       <r>   -8.6056    1.0000 </r>
       <r>   -8.5475    1.0000 </r>
       <r>   -8.4973    1.0000 </r>
       <r>   -8.4467    1.0000 </r>
       <r>   -8.3805    1.0000 </r>
       <r>   -8.2935    1.0000 </r>
       <r>   -8.2036    1.0000 </r>
       <r>   -8.1507    1.0000 </r>
       <r>   -8.1044    1.0000 </r>
       <r>   -8.0822    1.0000 </r>
       <r>   -8.0236    1.0000 </r>
       <r>   -7.9572    1.0000 </r>
       <r>   -7.9387    1.0000 </r>
       <r>   -7.8468    1.0000 </r>
       <r>   -7.7687    1.0000 </r>
       <r>   -7.7296    1.0000 </r>
       <r>   -7.6085    1.0000 </r>
       <r>   -7.5745    1.0000 </r>
       <r>   -7.4832    1.0000 </r>
       <r>   -7.4140    1.0000 </r>
       <r>   -7.3253    1.0000 </r>
       <r>   -7.2989    1.0000 </r>
       <r>   -7.1489    1.0000 </r>
       <r>   -7.0113    1.0000 </r>
       <r>   -6.9629    1.0000 </r>
       <r>   -6.8788    1.0000 </r>
       <r>   -6.8076    1.0000 </r>
       <r>   -6.6929    1.0000 </r>
       <r>   -6.6494    1.0000 </r>
       <r>   -6.5802    1.0000 </r>
       <r>   -6.5347    1.0000 </r>
       <r>   -6.3824    1.0000 </r>
       <r>   -6.2204    1.0000 </r>
       <r>   -6.1249    1.0000 </r>
       <r>   -6.0926    1.0000 </r>
       <r>   -6.0001    1.0000 </r>
       <r>   -5.9645    1.0000 </r>
       <r>   -5.8489    1.0000 </r>
       <r>   -5.7545    1.0000 </r>
       <r>   -5.6616    1.0000 </r>
       <r>   -5.5589    1.0000 </r>
       <r>   -5.4609    1.0000 </r>
       <r>   -5.1682    1.0000 </r>
       <r>   -5.0903    1.0000 </r>
       <r>   -4.7510    1.0000 </r>
       <r>   -4.6727    1.0000 </r>
       <r>   -4.5325    1.0000 </r>
       <r>   -4.4507    1.0000 </r>
       <r>   -4.4127    1.0000 </r>
       <r>   -3.4750    0.9704 </r>
       <r>   -2.9372    0.0276 </r>
       <r>   -2.5754    0.0000 </r>
       <r>   -2.0967    0.0000 </r>
       <r>   -1.9668    0.0000 </r>
       <r>   -1.6241    0.0000 </r>
       <r>   -1.5120    0.0000 </r>
       <r>   -1.3456    0.0000 </r>
       <r>   -1.3170    0.0000 </r>
       <r>   -1.2689    0.0000 </r>
       <r>   -1.1873    0.0000 </r>
       <r>   -1.0915    0.0000 </r>
       <r>   -1.0483    0.0000 </r>
       <r>   -0.9280    0.0000 </r>
       <r>   -0.8956    0.0000 </r>
       <r>   -0.8377    0.0000 </r>
       <r>   -0.3545    0.0000 </r>
       <r>   -0.1578    0.0000 </r>
       <r>   -0.0620    0.0000 </r>
       <r>    0.0245    0.0000 </r>
       <r>    0.0859    0.0000 </r>
       <r>    0.1307    0.0000 </r>
       <r>    0.2217    0.0000 </r>
       <r>    0.2911    0.0000 </r>
       <r>    0.3533    0.0000 </r>
       <r>    0.3739    0.0000 </r>
       <r>    0.7680    0.0000 </r>
       <r>    0.8116    0.0000 </r>
       <r>    0.8489    0.0000 </r>
       <r>    0.9820    0.0000 </r>
       <r>    1.0539    0.0000 </r>
       <r>    1.0559    0.0000 </r>
       <r>    1.1234    0.0000 </r>
       <r>    1.1932    0.0000 </r>
       <r>    1.2889    0.0000 </r>
       <r>    1.2922    0.0000 </r>
       <r>    1.2985    0.0000 </r>
       <r>    1.3594    0.0000 </r>
       <r>    1.4088    0.0000 </r>
       <r>    1.4286    0.0000 </r>
       <r>    1.4525    0.0000 </r>
       <r>    1.4566    0.0000 </r>
       <r>    1.4736    0.0000 </r>
       <r>    1.5453    0.0000 </r>
       <r>    1.6015    0.0000 </r>
       <r>    1.6810    0.0000 </r>
       <r>    1.6971    0.0000 </r>
       <r>    1.7132    0.0000 </r>
       <r>    1.7575    0.0000 </r>
      </set>
      <set comment="kpoint 3">
       <r>  -23.0298    1.0000 </r>
       <r>  -22.8270    1.0000 </r>
       <r>  -22.7635    1.0000 </r>
       <r>  -22.6461    1.0000 </r>
       <r>  -22.6181    1.0000 </r>
       <r>  -22.5740    1.0000 </r>
       <r>  -22.3815    1.0000 </r>
       <r>  -22.3068    1.0000 </r>
       <r>  -22.2291    1.0000 </r>
       <r>  -22.1604    1.0000 </r>
       <r>  -21.7171    1.0000 </r>
       <r>  -21.6568    1.0000 </r>
       <r>  -21.5991    1.0000 </r>
       <r>  -21.5199    1.0000 </r>
       <r>  -20.9462    1.0000 </r>
       <r>  -20.7906    1.0000 </r>
       <r>  -20.7533    1.0000 </r>
       <r>  -20.6731    1.0000 </r>
       <r>  -19.9685    1.0000 </r>
       <r>  -19.8619    1.0000 </r>
       <r>  -19.6985    1.0000 </r>
       <r>  -19.5934    1.0000 </r>
       <r>  -19.5358    1.0000 </r>
       <r>  -19.5294    1.0000 </r>
       <r>  -19.4557    1.0000 </r>
       <r>  -19.4207    1.0000 </r>
       <r>  -19.3010    1.0000 </r>
       <r>  -19.2661    1.0000 </r>
       <r>  -19.0617    1.0000 </r>
       <r>  -19.0345    1.0000 </r>
       <r>  -18.9758    1.0000 </r>
       <r>  -18.9280    1.0000 </r>
       <r>  -18.6101    1.0000 </r>
       <r>  -18.5573    1.0000 </r>
       <r>  -18.5436    1.0000 </r>
       <r>  -18.4997    1.0000 </r>
       <r>  -18.3255    1.0000 </r>
       <r>  -18.2287    1.0000 </r>
       <r>  -18.1648    1.0000 </r>
       <r>  -18.1217    1.0000 </r>
       <r>  -17.8011    1.0000 </r>
       <r>  -17.7084    1.0000 </r>
       <r>  -17.6785    1.0000 </r>
       <r>  -17.6387    1.0000 </r>
       <r>  -16.9682    1.0000 </r>
       <r>  -16.8179    1.0000 </r>
       <r>  -16.3096    1.0000 </r>
       <r>  -16.1783    1.0000 </r>
       <r>  -16.0272    1.0000 </r>
       <r>  -15.9677    1.0000 </r>
       <r>  -15.9331    1.0000 </r>
       <r>  -15.8812    1.0000 </r>
       <r>  -15.3167    1.0000 </r>
       <r>  -15.1976    1.0000 </r>
       <r>  -15.1189    1.0000 </r>
       <r>  -15.0480    1.0000 </r>
       <r>  -14.8797    1.0000 </r>
       <r>  -14.7839    1.0000 </r>
       <r>  -14.7246    1.0000 </r>
       <r>  -14.7076    1.0000 </r>
       <r>  -14.0650    1.0000 </r>
       <r>  -14.0067    1.0000 </r>
       <r>  -13.8459    1.0000 </r>
       <r>  -13.7691    1.0000 </r>
       <r>  -13.7277    1.0000 </r>
       <r>  -13.7127    1.0000 </r>
       <r>  -13.6632    1.0000 </r>
       <r>  -13.6101    1.0000 </r>
       <r>  -13.5886    1.0000 </r>
       <r>  -13.5562    1.0000 </r>
       <r>  -13.5055    1.0000 </r>
       <r>  -13.4572    1.0000 </r>
       <r>  -13.4247    1.0000 </r>
       <r>  -13.3640    1.0000 </r>
       <r>  -13.1007    1.0000 </r>
       <r>  -13.0643    1.0000 </r>
       <r>  -12.3494    1.0000 </r>
       <r>  -12.2868    1.0000 </r>
       <r>  -12.2278    1.0000 </r>
       <r>  -12.1298    1.0000 </r>
       <r>  -12.0706    1.0000 </r>
       <r>  -12.0357    1.0000 </r>
       <r>  -11.9762    1.0000 </r>
       <r>  -11.9088    1.0000 </r>
       <r>  -11.8737    1.0000 </r>
       <r>  -11.8427    1.0000 </r>
       <r>  -11.7559    1.0000 </r>
       <r>  -11.7359    1.0000 </r>
       <r>  -11.6229    1.0000 </r>
       <r>  -11.5485    1.0000 </r>
       <r>  -11.3315    1.0000 </r>
       <r>  -11.2826    1.0000 </r>
       <r>  -11.1507    1.0000 </r>
       <r>  -11.1444    1.0000 </r>
       <r>  -11.0206    1.0000 </r>
       <r>  -10.9330    1.0000 </r>
       <r>  -10.7999    1.0000 </r>
       <r>  -10.7418    1.0000 </r>
       <r>  -10.6894    1.0000 </r>
       <r>  -10.6347    1.0000 </r>
       <r>  -10.6001    1.0000 </r>
       <r>  -10.5738    1.0000 </r>
       <r>  -10.5339    1.0000 </r>
       <r>  -10.4560    1.0000 </r>
       <r>  -10.4512    1.0000 </r>
       <r>  -10.4326    1.0000 </r>
       <r>  -10.3815    1.0000 </r>
       <r>  -10.3473    1.0000 </r>
       <r>  -10.2682    1.0000 </r>
       <r>  -10.2237    1.0000 </r>
       <r>  -10.1865    1.0000 </r>
       <r>  -10.1251    1.0000 </r>
       <r>  -10.0839    1.0000 </r>
       <r>  -10.0705    1.0000 </r>
       <r>  -10.0275    1.0000 </r>
[...]
       <r>   -22.7211    13.9243     6.8836 </r>
       <r>   -22.6239    15.6796     8.4077 </r>
       <r>   -22.5267    16.1120     9.9739 </r>
       <r>   -22.4295    14.3446    11.3683 </r>
       <r>   -22.3323    12.2457    12.5586 </r>
       <r>   -22.2350    11.9908    13.7242 </r>
       <r>   -22.1378    13.3024    15.0173 </r>
       <r>   -22.0406    14.3266    16.4099 </r>
       <r>   -21.9434    14.2033    17.7905 </r>
       <r>   -21.8462    13.4052    19.0936 </r>
       <r>   -21.7490    12.6920    20.3273 </r>
       <r>   -21.6518    12.3738    21.5301 </r>
       <r>   -21.5546    12.1380    22.7100 </r>
       <r>   -21.4574    11.6350    23.8410 </r>
       <r>   -21.3602    11.4198    24.9511 </r>
       <r>   -21.2630    12.8811    26.2032 </r>
       <r>   -21.1658    15.7163    27.7309 </r>
       <r>   -21.0686    17.1784    29.4007 </r>
       <r>   -20.9714    15.7018    30.9270 </r>
       <r>   -20.8742    12.9160    32.1825 </r>
       <r>   -20.7770    11.4742    33.2979 </r>
       <r>   -20.6798    12.2717    34.4908 </r>
       <r>   -20.5825    13.9901    35.8507 </r>
       <r>   -20.4853    14.8210    37.2914 </r>
       <r>   -20.3881    14.2130    38.6730 </r>
       <r>   -20.2909    13.3340    39.9691 </r>
       <r>   -20.1937    13.5593    41.2872 </r>
       <r>   -20.0965    14.5286    42.6994 </r>
       <r>   -19.9993    14.9570    44.1533 </r>
       <r>   -19.9021    14.5038    45.5632 </r>
       <r>   -19.8049    13.5576    46.8811 </r>
       <r>   -19.7077    13.2416    48.1682 </r>
       <r>   -19.6105    14.7741    49.6044 </r>
       <r>   -19.5133    16.7152    51.2292 </r>
       <r>   -19.4161    16.1693    52.8009 </r>
       <r>   -19.3189    13.5506    54.1181 </r>
       <r>   -19.2217    12.1625    55.3004 </r>
       <r>   -19.1245    13.3437    56.5975 </r>
       <r>   -19.0273    15.0434    58.0598 </r>
       <r>   -18.9300    14.8805    59.5062 </r>
       <r>   -18.8328    13.3474    60.8037 </r>
       <r>   -18.7356    13.2417    62.0908 </r>
       <r>   -18.6384    15.5640    63.6038 </r>
       <r>   -18.5412    17.6998    65.3243 </r>
       <r>   -18.4440    17.3617    67.0119 </r>
       <r>   -18.3468    16.2391    68.5905 </r>
       <r>   -18.2496    16.7554    70.2192 </r>
       <r>   -18.1524    17.7981    71.9493 </r>
       <r>   -18.0552    16.9584    73.5977 </r>
       <r>   -17.9580    14.4981    75.0070 </r>
       <r>   -17.8608    12.8548    76.2566 </r>
       <r>   -17.7636    12.8539    77.5061 </r>
       <r>   -17.6664    12.6652    78.7372 </r>
       <r>   -17.5692    11.4905    79.8541 </r>
       <r>   -17.4720    11.0113    80.9245 </r>
       <r>   -17.3748    11.9469    82.0858 </r>
       <r>   -17.2776    12.5192    83.3027 </r>
       <r>   -17.1803    11.5592    84.4264 </r>
       <r>   -17.0831    10.3499    85.4324 </r>
       <r>   -16.9859    10.1429    86.4184 </r>
       <r>   -16.8887    10.5155    87.4405 </r>
       <r>   -16.7915    10.9837    88.5082 </r>
       <r>   -16.6943    11.6849    89.6441 </r>
       <r>   -16.5971    12.6595    90.8746 </r>
       <r>   -16.4999    13.9491    92.2306 </r>
       <r>   -16.4027    15.5353    93.7407 </r>
       <r>   -16.3055    16.6352    95.3577 </r>
       <r>   -16.2083    16.5006    96.9617 </r>
       <r>   -16.1111    15.8386    98.5013 </r>
       <r>   -16.0139    15.8140   100.0385 </r>
       <r>   -15.9167    16.0772   101.6013 </r>
       <r>   -15.8195    15.2375   103.0825 </r>
       <r>   -15.7223    13.2881   104.3742 </r>
       <r>   -15.6251    11.7654   105.5178 </r>
       <r>   -15.5278    11.6108   106.6465 </r>
       <r>   -15.4306    13.1974   107.9293 </r>
       <r>   -15.3334    16.7319   109.5558 </r>
       <r>   -15.2362    20.7864   111.5763 </r>
       <r>   -15.1390    23.1844   113.8300 </r>
       <r>   -15.0418    23.2486   116.0899 </r>
       <r>   -14.9446    21.5535   118.1850 </r>
       <r>   -14.8474    18.6733   120.0002 </r>
       <r>   -14.7502    14.9408   121.4525 </r>
       <r>   -14.6530    11.0500   122.5266 </r>
       <r>   -14.5558     8.3927   123.3424 </r>
       <r>   -14.4586     8.0332   124.1233 </r>
       <r>   -14.3614     9.5328   125.0499 </r>
       <r>   -14.2642    11.4633   126.1642 </r>
       <r>   -14.1670    12.9840   127.4264 </r>
       <r>   -14.0698    14.1666   128.8034 </r>
       <r>   -13.9726    15.2527   130.2861 </r>
       <r>   -13.8754    16.4574   131.8858 </r>
       <r>   -13.7781    17.5410   133.5909 </r>
       <r>   -13.6809    18.0029   135.3409 </r>
       <r>   -13.5837    18.0632   137.0968 </r>
       <r>   -13.4865    18.3760   138.8830 </r>
       <r>   -13.3893    18.9195   140.7221 </r>
       <r>   -13.2921    18.9002   142.5593 </r>
       <r>   -13.1949    17.7734   144.2870 </r>
       <r>   -13.0977    15.9073   145.8333 </r>
       <r>   -13.0005    14.4127   147.2343 </r>
       <r>   -12.9033    14.3253   148.6268 </r>
       <r>   -12.8061    15.0770   150.0923 </r>
       <r>   -12.7089    14.9280   151.5434 </r>
       <r>   -12.6117    13.6249   152.8678 </r>
       <r>   -12.5145    12.8752   154.1194 </r>
       <r>   -12.4173    14.0177   155.4820 </r>
       <r>   -12.3201    16.7996   157.1150 </r>
       <r>   -12.2229    20.3080   159.0891 </r>
       <r>   -12.1256    23.3872   161.3624 </r>
       <r>   -12.0284    24.5964   163.7533 </r>
       <r>   -11.9312    23.3769   166.0257 </r>
       <r>   -11.8340    20.9889   168.0660 </r>
       <r>   -11.7368    19.1219   169.9247 </r>
       <r>   -11.6396    17.9048   171.6652 </r>
       <r>   -11.5424    16.8709   173.3051 </r>
       <r>   -11.4452    16.4177   174.9010 </r>
       <r>   -11.3480    17.0014   176.5537 </r>
       <r>   -11.2508    19.0777   178.4081 </r>
       <r>   -11.1536    23.0610   180.6498 </r>
       <r>   -11.0564    28.0987   183.3811 </r>
       <r>   -10.9592    32.3677   186.5275 </r>
       <r>   -10.8620    34.4153   189.8728 </r>
       <r>   -10.7648    34.2902   193.2060 </r>
       <r>   -10.6676    33.9387   196.5051 </r>
       <r>   -10.5704    35.1919   199.9259 </r>
       <r>   -10.4731    37.3611   203.5576 </r>
       <r>   -10.3759    38.2545   207.2762 </r>
       <r>   -10.2787    37.1297   210.8854 </r>
       <r>   -10.1815    35.5001   214.3362 </r>
       <r>   -10.0843    34.8920   217.7279 </r>
       <r>    -9.9871    34.7671   221.1075 </r>
       <r>    -9.8899    33.8802   224.4008 </r>
       <r>    -9.7927    32.9318   227.6020 </r>
       <r>    -9.6955    33.9455   230.9017 </r>
       <r>    -9.5983    37.3650   234.5338 </r>
       <r>    -9.5011    41.2647   238.5450 </r>
       <r>    -9.4039    42.9235   242.7174 </r>
       <r>    -9.3067    40.8810   246.6912 </r>
       <r>    -9.2095    36.1838   250.2085 </r>
       <r>    -9.1123    31.7063   253.2905 </r>
       <r>    -9.0151    30.0526   256.2118 </r>
       <r>    -8.9179    31.4234   259.2664 </r>
       <r>    -8.8207    34.1117   262.5822 </r>
       <r>    -8.7234    36.6016   266.1401 </r>
       <r>    -8.6262    37.6292   269.7979 </r>
       <r>    -8.5290    36.1149   273.3084 </r>
       <r>    -8.4318    32.5788   276.4753 </r>
       <r>    -8.3346    29.0506   279.2992 </r>
       <r>    -8.2374    27.2454   281.9476 </r>
       <r>    -8.1402    27.2902   284.6004 </r>
       <r>    -8.0430    27.8501   287.3075 </r>
       <r>    -7.9458    27.7523   290.0052 </r>
       <r>    -7.8486    27.2845   292.6574 </r>
       <r>    -7.7514    27.3176   295.3129 </r>
       <r>    -7.6542    27.8578   298.0208 </r>
       <r>    -7.5570    28.3813   300.7796 </r>
       <r>    -7.4598    28.8036   303.5795 </r>
       <r>    -7.3626    29.0103   306.3995 </r>
       <r>    -7.2654    28.3111   309.1515 </r>
       <r>    -7.1682    26.6986   311.7467 </r>
       <r>    -7.0709    25.2245   314.1987 </r>
       <r>    -6.9737    24.6010   316.5901 </r>
       <r>    -6.8765    25.1839   319.0381 </r>
       <r>    -6.7793    27.0055   321.6632 </r>
       <r>    -6.6821    28.5494   324.4383 </r>
       <r>    -6.5849    27.5419   327.1156 </r>
       <r>    -6.4877    23.9619   329.4448 </r>
       <r>    -6.3905    20.5443   331.4418 </r>
       <r>    -6.2933    19.4065   333.3283 </r>
       <r>    -6.1961    20.4214   335.3133 </r>
       <r>    -6.0989    22.9030   337.5396 </r>
       <r>    -6.0017    25.7009   340.0379 </r>
       <r>    -5.9045    26.4722   342.6112 </r>
       <r>    -5.8073    24.0729   344.9512 </r>
       <r>    -5.7101    20.3202   346.9264 </r>
       <r>    -5.6129    17.0545   348.5842 </r>
       <r>    -5.5157    14.1280   349.9575 </r>
       <r>    -5.4184    11.4116   351.0668 </r>
       <r>    -5.3212    10.0300   352.0418 </r>
       <r>    -5.2240    10.5710   353.0694 </r>
       <r>    -5.1268    11.4380   354.1812 </r>
       <r>    -5.0296    10.7166   355.2229 </r>
       <r>    -4.9324     9.0454   356.1022 </r>
       <r>    -4.8352     8.6049   356.9386 </r>
       <r>    -4.7380    10.0934   357.9198 </r>
       <r>    -4.6408    12.5189   359.1367 </r>
       <r>    -4.5436    14.6994   360.5655 </r>
       <r>    -4.4464    15.1862   362.0417 </r>
       <r>    -4.3492    12.7217   363.2783 </r>
       <r>    -4.2520     8.4313   364.0979 </r>
       <r>    -4.1548     5.0606   364.5898 </r>
       <r>    -4.0576     3.6175   364.9415 </r>
       <r>    -3.9604     2.9842   365.2315 </r>
       <r>    -3.8632     2.3717   365.4621 </r>
       <r>    -3.7660     2.2310   365.6789 </r>
       <r>    -3.6687     2.9718   365.9678 </r>
       <r>    -3.5715     4.1838   366.3745 </r>
       <r>    -3.4743     4.9784   366.8584 </r>
       <r>    -3.3771     4.8142   367.3264 </r>
       <r>    -3.2799     4.1632   367.7311 </r>
       <r>    -3.1827     3.7231   368.0930 </r>
       <r>    -3.0855     3.6065   368.4436 </r>
       <r>    -2.9883     3.7788   368.8109 </r>
       <r>    -2.8911     4.2217   369.2213 </r>
       <r>    -2.7939     5.1772   369.7245 </r>
       <r>    -2.6967     7.1140   370.4160 </r>
       <r>    -2.5995     9.2040   371.3107 </r>
       <r>    -2.5023     9.4432   372.2287 </r>
       <r>    -2.4051     7.3351   372.9417 </r>
       <r>    -2.3079     4.8212   373.4103 </r>
       <r>    -2.2107     4.1332   373.8121 </r>
       <r>    -2.1135     5.4426   374.3411 </r>
       <r>    -2.0162     6.9128   375.0131 </r>
       <r>    -1.9190     7.1456   375.7077 </r>
       <r>    -1.8218     6.9617   376.3844 </r>
       <r>    -1.7246     8.2704   377.1884 </r>
       <r>    -1.6274    11.4977   378.3060 </r>
       <r>    -1.5302    15.1783   379.7814 </r>
       <r>    -1.4330    18.2624   381.5566 </r>
       <r>    -1.3358    20.6249   383.5615 </r>
       <r>    -1.2386    21.8653   385.6869 </r>
       <r>    -1.1414    22.0074   387.8262 </r>
       <r>    -1.0442    21.5967   389.9255 </r>
       <r>    -0.9470    20.2401   391.8930 </r>
       <r>    -0.8498    17.1737   393.5623 </r>
       <r>    -0.7526    13.1426   394.8399 </r>
       <r>    -0.6554    10.2484   395.8361 </r>
       <r>    -0.5582     9.6491   396.7740 </r>
       <r>    -0.4610    10.6197   397.8063 </r>
       <r>    -0.3637    11.9634   398.9692 </r>
       <r>    -0.2665    13.0580   400.2386 </r>
       <r>    -0.1693    14.2807   401.6267 </r>
       <r>    -0.0721    16.5385   403.2344 </r>
       <r>     0.0251    19.3594   405.1162 </r>
       <r>     0.1223    21.2072   407.1777 </r>
       <r>     0.2195    21.9157   409.3080 </r>
       <r>     0.3167    22.0472   411.4511 </r>
       <r>     0.4139    21.1943   413.5113 </r>
       <r>     0.5111    20.0452   415.4598 </r>
       <r>     0.6083    21.0327   417.5043 </r>
       <r>     0.7055    24.5671   419.8924 </r>
       <r>     0.8027    28.1868   422.6323 </r>
       <r>     0.8999    30.4079   425.5881 </r>
       <r>     0.9971    32.4630   428.7437 </r>
       <r>     1.0943    35.8397   432.2276 </r>
       <r>     1.1915    40.7291   436.1867 </r>
       <r>     1.2887    46.3484   440.6920 </r>
       <r>     1.3860    50.4831   445.5992 </r>
       <r>     1.4832    50.2712   450.4859 </r>
       <r>     1.5804    45.0694   454.8669 </r>
       <r>     1.6776    36.9052   458.4543 </r>
       <r>     1.7748    27.3098   461.1090 </r>
       <r>     1.8720    17.0336   462.7647 </r>
       <r>     1.9692     8.3502   463.5764 </r>
       <r>     2.0664     3.1625   463.8838 </r>
       <r>     2.1636     0.9386   463.9751 </r>
       <r>     2.2608     0.2156   463.9960 </r>
       <r>     2.3580     0.0363   463.9996 </r>
       <r>     2.4552     0.0042   464.0000 </r>
       <r>     2.5524     0.0003   464.0000 </r>
       <r>     2.6496     0.0000   464.0000 </r>
       <r>     2.7468     0.0000   464.0000 </r>
       <r>     2.8440     0.0000   464.0000 </r>
       <r>     2.9412     0.0000   464.0000 </r>
       <r>     3.0385     0.0000   464.0000 </r>
       <r>     3.1357     0.0000   464.0000 </r>
       <r>     3.2329     0.0000   464.0000 </r>
       <r>     3.3301     0.0000   464.0000 </r>
       <r>     3.4273     0.0000   464.0000 </r>
       <r>     3.5245     0.0000   464.0000 </r>
       <r>     3.6217     0.0000   464.0000 </r>
       <r>     3.7189     0.0000   464.0000 </r>
       <r>     3.8161     0.0000   464.0000 </r>
       <r>     3.9133     0.0000   464.0000 </r>
      </set>
     </set>
    </array>
   </total>
  </dos>
 </calculation>
 <structure name="finalpos" >
  <crystal>
   <varray name="basis" >
    <v>      28.05000000       0.00000000       0.00000000 </v>
    <v>       0.00000000       8.10000000       0.00000000 </v>
    <v>       0.00000000       0.00000000      33.50000000 </v>
   </varray>
   <i name="volume">   7611.36750000 </i>
   <varray name="rec_basis" >
    <v>       0.03565062       0.00000000       0.00000000 </v>
    <v>       0.00000000       0.12345679       0.00000000 </v>
    <v>       0.00000000       0.00000000       0.02985075 </v>
   </varray>
  </crystal>
  <varray name="positions" >
   <v>       0.00668032       0.09887556       0.54189552 </v>
   <v>       0.00595020       0.26763704       0.53431343 </v>
   <v>       0.05109269       0.02861765       0.54450448 </v>
   <v>       0.04884100       0.35424938       0.53171343 </v>
   <v>       0.09416863       0.10512914       0.53966567 </v>
   <v>       0.09444456       0.26789383       0.53548358 </v>
   <v>       0.14016221       0.01524691       0.53808955 </v>
   <v>       0.13674902       0.35701481       0.52862388 </v>
   <v>       0.18338824       0.10268346       0.53067761 </v>
   <v>       0.18092193       0.27300247       0.52394328 </v>
   <v>       0.22759109       0.02644210       0.52870448 </v>
   <v>       0.22213619       0.35589136       0.51388657 </v>
   <v>       0.26884599       0.11559272       0.51482090 </v>
   <v>       0.26508592       0.27317160       0.50292537 </v>
   <v>       0.31229412       0.01959691       0.50365970 </v>
   <v>       0.30879572       0.35232222       0.48812239 </v>
   <v>       0.35203209       0.10045556       0.48618806 </v>
   <v>       0.35129911       0.26709136       0.47835224 </v>
   <v>       0.39561497       0.02504086       0.47781493 </v>
   <v>       0.39330125       0.35206420       0.46617910 </v>
   <v>       0.43704100       0.11130296       0.46462388 </v>
   <v>       0.43613904       0.27344568       0.45866866 </v>
   <v>       0.48152585       0.02901148       0.45544776 </v>
   <v>       0.48062032       0.35640617       0.45186269 </v>
   <v>       0.52629947       0.11039889       0.45050448 </v>
   <v>       0.52763280       0.27247778       0.45180299 </v>
   <v>       0.57211765       0.02295395       0.45234328 </v>
   <v>       0.57062389       0.35739753       0.44830149 </v>
   <v>       0.61376827       0.10348765       0.46135224 </v>
   <v>       0.61509447       0.27234568       0.45774925 </v>
   <v>       0.65675579       0.01856259       0.47322985 </v>
   <v>       0.65853832       0.35187407       0.46746269 </v>
   <v>       0.69915152       0.09791457       0.48211940 </v>
   <v>       0.69973262       0.26128025       0.47954627 </v>
   <v>       0.73946168       0.02092975       0.49817612 </v>
   <v>       0.74075223       0.35218148       0.49120000 </v>
   <v>       0.78304100       0.10106284       0.50592836 </v>
   <v>       0.78381818       0.27110617       0.49954030 </v>
   <v>       0.82459180       0.02466395       0.52196716 </v>
   <v>       0.82808913       0.35150123       0.50695522 </v>
   <v>       0.86791444       0.10410086       0.52545970 </v>
   <v>       0.87228877       0.26968148       0.51594030 </v>
   <v>       0.91173619       0.02360123       0.53547463 </v>
   <v>       0.91435294       0.35154938       0.52476716 </v>
   <v>       0.95418182       0.10016864       0.53462090 </v>
   <v>       0.95677718       0.26853580       0.52854627 </v>
   <v>       0.00728802       0.60234074       0.54356716 </v>
   <v>       0.00645340       0.77686667       0.54712836 </v>
   <v>       0.04821533       0.52273210       0.53436716 </v>
   <v>       0.05047308       0.85927407       0.54727463 </v>
   <v>       0.09486702       0.60743951       0.53357015 </v>
   <v>       0.09483886       0.76687531       0.54259403 </v>
   <v>       0.13866096       0.52374444       0.52680597 </v>
   <v>       0.13882674       0.84896173       0.53939403 </v>
   <v>       0.18114474       0.61024815       0.52279104 </v>
   <v>       0.18230481       0.77488148       0.52954925 </v>
   <v>       0.22258930       0.52787901       0.51371343 </v>
   <v>       0.22424314       0.86178642       0.52445672 </v>
   <v>       0.26592656       0.60902469       0.50392537 </v>
   <v>       0.26820856       0.77278025       0.51187463 </v>
   <v>       0.30777326       0.52015062       0.49029851 </v>
   <v>       0.31151123       0.85274691       0.50550448 </v>
   <v>       0.35107950       0.59905432       0.48174627 </v>
   <v>       0.35442460       0.76597654       0.49177612 </v>
   <v>       0.39233512       0.52182963       0.46724478 </v>
   <v>       0.39549376       0.85556049       0.48040000 </v>
   <v>       0.43516934       0.60633210       0.45905970 </v>
   <v>       0.43571123       0.77662593       0.46535522 </v>
   <v>       0.47998574       0.52363086       0.44779403 </v>
   <v>       0.47961141       0.86237778       0.45588955 </v>
   <v>       0.52727273       0.61275802       0.44894627 </v>
   <v>       0.52572906       0.77743704       0.45310149 </v>
   <v>       0.57130838       0.52576049       0.44791940 </v>
   <v>       0.57118717       0.85767160       0.45192537 </v>
   <v>       0.61504456       0.60445185       0.45519403 </v>
   <v>       0.61513369       0.77532346       0.45920597 </v>
   <v>       0.65903030       0.52068642       0.46648358 </v>
   <v>       0.65600713       0.85461852       0.47234925 </v>
   <v>       0.70088414       0.60319012       0.47934925 </v>
   <v>       0.69931907       0.77238889       0.48410149 </v>
   <v>       0.74236007       0.52053457       0.49016418 </v>
   <v>       0.73962923       0.85331235       0.49927463 </v>
   <v>       0.78404278       0.60279877       0.50606567 </v>
   <v>       0.78153298       0.76668395       0.51111045 </v>
   <v>       0.82718360       0.52305802       0.51105373 </v>
   <v>       0.82162567       0.85272346       0.52514030 </v>
   <v>       0.86778253       0.60365926       0.52722985 </v>
   <v>       0.86781462       0.77332963       0.53318806 </v>
   <v>       0.91362210       0.51872469       0.52909851 </v>
   <v>       0.91169340       0.85434198       0.53961194 </v>
   <v>       0.95591444       0.59521235       0.54290149 </v>
   <v>       0.95498039       0.76724074       0.54736119 </v>
  </varray>
 </structure>
</modeling>
