unknown system                          
            1
    28.050000    0.000000    0.000000
     0.000000    8.100000    0.000000
     0.000000    0.000000   33.500000
   C 
    92
Direct configuration=     1
   0.00668032  0.09887556  0.54189552
   0.00595020  0.26763704  0.53431343
   0.05109269  0.02861765  0.54450448
   0.04884100  0.35424938  0.53171343
   0.09416863  0.10512914  0.53966567
   0.09444456  0.26789383  0.53548358
   0.14016221  0.01524691  0.53808955
   0.13674902  0.35701481  0.52862388
   0.18338824  0.10268346  0.53067761
   0.18092193  0.27300247  0.52394328
   0.22759109  0.02644210  0.52870448
   0.22213619  0.35589136  0.51388657
   0.26884599  0.11559272  0.51482090
   0.26508592  0.27317160  0.50292537
   0.31229412  0.01959691  0.50365970
   0.30879572  0.35232222  0.48812239
   0.35203209  0.10045556  0.48618806
   0.35129911  0.26709136  0.47835224
   0.39561497  0.02504086  0.47781493
   0.39330125  0.35206420  0.46617910
   0.43704100  0.11130296  0.46462388
   0.43613904  0.27344568  0.45866866
   0.48152585  0.02901148  0.45544776
   0.48062032  0.35640617  0.45186269
   0.52629947  0.11039889  0.45050448
   0.52763280  0.27247778  0.45180299
   0.57211765  0.02295395  0.45234328
   0.57062389  0.35739753  0.44830149
   0.61376827  0.10348765  0.46135224
   0.61509447  0.27234568  0.45774925
   0.65675579  0.01856259  0.47322985
   0.65853832  0.35187407  0.46746269
   0.69915152  0.09791457  0.48211940
   0.69973262  0.26128025  0.47954627
   0.73946168  0.02092975  0.49817612
   0.74075223  0.35218148  0.49120000
   0.78304100  0.10106284  0.50592836
   0.78381818  0.27110617  0.49954030
   0.82459180  0.02466395  0.52196716
   0.82808913  0.35150123  0.50695522
   0.86791444  0.10410086  0.52545970
   0.87228877  0.26968148  0.51594030
   0.91173619  0.02360123  0.53547463
   0.91435294  0.35154938  0.52476716
   0.95418182  0.10016864  0.53462090
   0.95677718  0.26853580  0.52854627
   0.00728802  0.60234074  0.54356716
   0.00645340  0.77686667  0.54712836
   0.04821533  0.52273210  0.53436716
   0.05047308  0.85927407  0.54727463
   0.09486702  0.60743951  0.53357015
   0.09483886  0.76687531  0.54259403
   0.13866096  0.52374444  0.52680597
   0.13882674  0.84896173  0.53939403
   0.18114474  0.61024815  0.52279104
   0.18230481  0.77488148  0.52954925
   0.22258930  0.52787901  0.51371343
   0.22424314  0.86178642  0.52445672
   0.26592656  0.60902469  0.50392537
   0.26820856  0.77278025  0.51187463
   0.30777326  0.52015062  0.49029851
   0.31151123  0.85274691  0.50550448
   0.35107950  0.59905432  0.48174627
   0.35442460  0.76597654  0.49177612
   0.39233512  0.52182963  0.46724478
   0.39549376  0.85556049  0.48040000
   0.43516934  0.60633210  0.45905970
   0.43571123  0.77662593  0.46535522
   0.47998574  0.52363086  0.44779403
   0.47961141  0.86237778  0.45588955
   0.52727273  0.61275802  0.44894627
   0.52572906  0.77743704  0.45310149
   0.57130838  0.52576049  0.44791940
   0.57118717  0.85767160  0.45192537
   0.61504456  0.60445185  0.45519403
   0.61513369  0.77532346  0.45920597
   0.65903030  0.52068642  0.46648358
   0.65600713  0.85461852  0.47234925
   0.70088414  0.60319012  0.47934925
   0.69931907  0.77238889  0.48410149
   0.74236007  0.52053457  0.49016418
   0.73962923  0.85331235  0.49927463
   0.78404278  0.60279877  0.50606567
   0.78153298  0.76668395  0.51111045
   0.82718360  0.52305802  0.51105373
   0.82162567  0.85272346  0.52514030
   0.86778253  0.60365926  0.52722985
   0.86781462  0.77332963  0.53318806
   0.91362210  0.51872469  0.52909851
   0.91169340  0.85434198  0.53961194
   0.95591444  0.59521235  0.54290149
   0.95498039  0.76724074  0.54736119
