<?xml version="1.0" encoding="ISO-8859-1"?>
<modeling>
 <generator>
  <i name="program" type="string">vasp </i>
  <i name="version" type="string">6.5.0  </i>
  <i name="subversion" type="string">16Dec24 (build Feb 19 2025 19:45:31) complex                          parallel </i>
  <i name="platform" type="string">LinuxNV </i>
  <i name="date" type="string">2025 10 25 </i>
  <i name="time" type="string">12:28:15 </i>
 </generator>
 <incar>
  <i type="int" name="ISTART">     0</i>
  <i type="string" name="PREC">Accurate   (Precision level)</i>
  <i type="string" name="ALGO">Normal</i>
  <i type="int" name="ISPIN">     1</i>
  <i type="int" name="ICHARG">     2</i>
  <i type="int" name="NELM">   150</i>
  <i type="int" name="IBRION">    -1</i>
  <i name="EDIFF">      0.00000100</i>
  <i type="int" name="NSW">     0</i>
  <i name="ENCUT">    500.00000000</i>
  <i type="string" name="LREAL">Auto         (Projection operators: automatic)</i>
  <i type="int" name="ISMEAR">     0</i>
  <i type="logical" name="KGAMMA"> T  </i>
  <i type="logical" name="LWAVE"> F  </i>
  <i type="logical" name="LCHARG"> F  </i>
 </incar>
 <primitive_cell>
  <structure name="primitive_cell" >
   <crystal>
    <varray name="basis" >
     <v>      28.05000000       0.00000000       0.00000000 </v>
     <v>       0.00000000       8.10000000       0.00000000 </v>
     <v>       0.00000000       0.00000000      33.50000000 </v>
    </varray>
    <i name="volume">   7611.36750000 </i>
    <varray name="rec_basis" >
     <v>       0.03565062       0.00000000       0.00000000 </v>
     <v>       0.00000000       0.12345679       0.00000000 </v>
     <v>       0.00000000       0.00000000       0.02985075 </v>
    </varray>
   </crystal>
   <varray name="positions" >
    <v>       0.00750396       0.10071358       0.44646567 </v>
    <v>       0.00809458       0.27344198       0.45153134 </v>
    <v>       0.05388520       0.03142765       0.45059403 </v>
    <v>       0.04937576       0.35219753       0.46043284 </v>
    <v>       0.09216720       0.10960346       0.46573433 </v>
    <v>       0.09195401       0.27346543       0.46919701 </v>
    <v>       0.13535508       0.02733519       0.47533731 </v>
    <v>       0.13394260       0.35543704       0.48042388 </v>
    <v>       0.17609840       0.10086864       0.49280000 </v>
    <v>       0.17282888       0.27512593       0.49668955 </v>
    <v>       0.22015437       0.02413086       0.50235821 </v>
    <v>       0.21702995       0.35121358       0.50470149 </v>
    <v>       0.26300071       0.10326654       0.51514627 </v>
    <v>       0.25928948       0.26852346       0.51752537 </v>
    <v>       0.30715508       0.01398827       0.52257015 </v>
    <v>       0.30367273       0.34680988       0.52684776 </v>
    <v>       0.34989091       0.09456358       0.53423284 </v>
    <v>       0.34861925       0.26061481       0.53502687 </v>
    <v>       0.39317647       0.01350630       0.54098209 </v>
    <v>       0.39351159       0.34449383       0.54090448 </v>
    <v>       0.43708378       0.09850494       0.54762090 </v>
    <v>       0.43779323       0.26535185       0.54715522 </v>
    <v>       0.48273084       0.01619728       0.54458209 </v>
    <v>       0.48360071       0.34896049       0.55137015 </v>
    <v>       0.52679144       0.09671346       0.54605373 </v>
    <v>       0.52996791       0.26398519       0.55081493 </v>
    <v>       0.57095544       0.02069247       0.53263881 </v>
    <v>       0.57353654       0.35674074       0.54536119 </v>
    <v>       0.61313012       0.10823765       0.52693731 </v>
    <v>       0.61805348       0.26707531       0.53925075 </v>
    <v>       0.65690196       0.03056099       0.51454030 </v>
    <v>       0.66049911       0.35579753       0.52808060 </v>
    <v>       0.70048128       0.10905840       0.50704179 </v>
    <v>       0.70362923       0.27222963       0.51596418 </v>
    <v>       0.74343316       0.02746481       0.49323582 </v>
    <v>       0.74663102       0.35377901       0.50644179 </v>
    <v>       0.78568271       0.11105321       0.48444478 </v>
    <v>       0.78891979       0.27606914       0.49480896 </v>
    <v>       0.82694831       0.02480741       0.47167463 </v>
    <v>       0.83207487       0.35803086       0.48637612 </v>
    <v>       0.87117291       0.10486741       0.46554030 </v>
    <v>       0.87360071       0.27323827       0.47545075 </v>
    <v>       0.91254545       0.03045679       0.45349851 </v>
    <v>       0.91611408       0.35998765       0.46320000 </v>
    <v>       0.95765775       0.10475741       0.45155224 </v>
    <v>       0.95885205       0.27620247       0.45468358 </v>
    <v>       0.00732289       0.60428148       0.44761194 </v>
    <v>       0.00724752       0.78034938       0.44337612 </v>
    <v>       0.04896506       0.51941605       0.45607463 </v>
    <v>       0.05123743       0.85788148       0.44817015 </v>
    <v>       0.09495472       0.60716173       0.46079701 </v>
    <v>       0.09528877       0.77461975       0.45857910 </v>
    <v>       0.13660642       0.52676543       0.47520299 </v>
    <v>       0.13698503       0.85710741       0.47158806 </v>
    <v>       0.17818004       0.60581358       0.48673433 </v>
    <v>       0.18025419       0.77721605       0.48450746 </v>
    <v>       0.21949305       0.52210370       0.49928060 </v>
    <v>       0.22207986       0.85715432       0.49914925 </v>
    <v>       0.26395865       0.60065926       0.50726866 </v>
    <v>       0.26450196       0.77000741       0.50805970 </v>
    <v>       0.30708021       0.51107284       0.52042090 </v>
    <v>       0.30793369       0.84751852       0.51838507 </v>
    <v>       0.35241319       0.59018519       0.52270149 </v>
    <v>       0.35083529       0.76055679       0.52533731 </v>
    <v>       0.39405348       0.50822840       0.53320000 </v>
    <v>       0.39408913       0.84506543       0.53586269 </v>
    <v>       0.43914795       0.59340741       0.54114030 </v>
    <v>       0.43710873       0.76233704       0.54154328 </v>
    <v>       0.48524064       0.51652716       0.54686269 </v>
    <v>       0.48188592       0.84413827       0.54348358 </v>
    <v>       0.52782531       0.60338519       0.54251045 </v>
    <v>       0.52625668       0.77351235       0.54158507 </v>
    <v>       0.57270232       0.52813210       0.54057015 </v>
    <v>       0.56873797       0.85489012       0.53183582 </v>
    <v>       0.61757576       0.61100494       0.53100299 </v>
    <v>       0.61301604       0.77936296       0.52336119 </v>
    <v>       0.66049911       0.52811728       0.52657910 </v>
    <v>       0.65478788       0.85848519       0.51139403 </v>
    <v>       0.70237790       0.61387778       0.51195224 </v>
    <v>       0.69841355       0.77410247       0.50342687 </v>
    <v>       0.74455615       0.52435432       0.50391045 </v>
    <v>       0.73939394       0.85897407       0.49094030 </v>
    <v>       0.78437433       0.61024815       0.48690746 </v>
    <v>       0.78291979       0.77763457       0.47880000 </v>
    <v>       0.82827451       0.53118025       0.48155224 </v>
    <v>       0.82526916       0.85580123       0.46633433 </v>
    <v>       0.86995722       0.61143580       0.46528060 </v>
    <v>       0.86960428       0.77889753       0.45816716 </v>
    <v>       0.91407487       0.52687654       0.45829552 </v>
    <v>       0.91187879       0.85872346       0.44824776 </v>
    <v>       0.95603565       0.60739506       0.44835522 </v>
    <v>       0.95678788       0.78347654       0.44582687 </v>
   </varray>
  </structure>
  <varray name="primitive_index" >
   <v type="int" >        1 </v>
   <v type="int" >        2 </v>
   <v type="int" >        3 </v>
   <v type="int" >        4 </v>
   <v type="int" >        5 </v>
   <v type="int" >        6 </v>
   <v type="int" >        7 </v>
   <v type="int" >        8 </v>
   <v type="int" >        9 </v>
   <v type="int" >       10 </v>
   <v type="int" >       11 </v>
   <v type="int" >       12 </v>
   <v type="int" >       13 </v>
   <v type="int" >       14 </v>
   <v type="int" >       15 </v>
   <v type="int" >       16 </v>
   <v type="int" >       17 </v>
   <v type="int" >       18 </v>
   <v type="int" >       19 </v>
   <v type="int" >       20 </v>
   <v type="int" >       21 </v>
   <v type="int" >       22 </v>
   <v type="int" >       23 </v>
   <v type="int" >       24 </v>
   <v type="int" >       25 </v>
   <v type="int" >       26 </v>
   <v type="int" >       27 </v>
   <v type="int" >       28 </v>
   <v type="int" >       29 </v>
   <v type="int" >       30 </v>
   <v type="int" >       31 </v>
   <v type="int" >       32 </v>
   <v type="int" >       33 </v>
   <v type="int" >       34 </v>
   <v type="int" >       35 </v>
   <v type="int" >       36 </v>
   <v type="int" >       37 </v>
   <v type="int" >       38 </v>
   <v type="int" >       39 </v>
   <v type="int" >       40 </v>
   <v type="int" >       41 </v>
   <v type="int" >       42 </v>
   <v type="int" >       43 </v>
   <v type="int" >       44 </v>
   <v type="int" >       45 </v>
   <v type="int" >       46 </v>
   <v type="int" >       47 </v>
   <v type="int" >       48 </v>
   <v type="int" >       49 </v>
   <v type="int" >       50 </v>
   <v type="int" >       51 </v>
   <v type="int" >       52 </v>
   <v type="int" >       53 </v>
   <v type="int" >       54 </v>
   <v type="int" >       55 </v>
   <v type="int" >       56 </v>
   <v type="int" >       57 </v>
   <v type="int" >       58 </v>
   <v type="int" >       59 </v>
   <v type="int" >       60 </v>
   <v type="int" >       61 </v>
   <v type="int" >       62 </v>
   <v type="int" >       63 </v>
   <v type="int" >       64 </v>
   <v type="int" >       65 </v>
   <v type="int" >       66 </v>
   <v type="int" >       67 </v>
   <v type="int" >       68 </v>
   <v type="int" >       69 </v>
   <v type="int" >       70 </v>
   <v type="int" >       71 </v>
   <v type="int" >       72 </v>
   <v type="int" >       73 </v>
   <v type="int" >       74 </v>
   <v type="int" >       75 </v>
   <v type="int" >       76 </v>
   <v type="int" >       77 </v>
   <v type="int" >       78 </v>
   <v type="int" >       79 </v>
   <v type="int" >       80 </v>
   <v type="int" >       81 </v>
   <v type="int" >       82 </v>
   <v type="int" >       83 </v>
   <v type="int" >       84 </v>
   <v type="int" >       85 </v>
   <v type="int" >       86 </v>
   <v type="int" >       87 </v>
   <v type="int" >       88 </v>
   <v type="int" >       89 </v>
   <v type="int" >       90 </v>
   <v type="int" >       91 </v>
   <v type="int" >       92 </v>
  </varray>
 </primitive_cell>
 <kpoints>
  <generation param="Gamma">
   <v type="int" name="divisions">       1        4        1 </v>
   <v name="usershift">      0.00000000       0.00000000       0.00000000 </v>
   <v name="genvec1">      1.00000000       0.00000000       0.00000000 </v>
   <v name="genvec2">      0.00000000       0.25000000       0.00000000 </v>
   <v name="genvec3">      0.00000000       0.00000000       1.00000000 </v>
   <v name="shift">      0.00000000       0.00000000       0.00000000 </v>
  </generation>
  <varray name="kpointlist" >
   <v>       0.00000000       0.00000000       0.00000000 </v>
   <v>       0.00000000       0.25000000       0.00000000 </v>
   <v>       0.00000000       0.50000000       0.00000000 </v>
  </varray>
  <varray name="weights" >
   <v>       0.25000000 </v>
   <v>       0.50000000 </v>
   <v>       0.25000000 </v>
  </varray>
 </kpoints>
 <parameters>
  <separator name="general" >
   <i type="string" name="SYSTEM">unknown system</i>
   <i type="logical" name="LCOMPAT"> F  </i>
  </separator>
  <separator name="electronic" >
   <i type="string" name="PREC">accura</i>
   <i name="ENMAX">    500.00000000</i>
   <i name="ENAUG">    644.87300000</i>
   <i name="EDIFF">      0.00000100</i>
   <i type="int" name="IALGO">    38</i>
   <i type="int" name="IWAVPR">    10</i>
   <i type="int" name="NBANDS">   232</i>
   <i type="int" name="NBANDSLOW">    -1</i>
   <i type="int" name="NBANDSHIGH">    -1</i>
   <i name="NELECT">    368.00000000</i>
   <i type="int" name="TURBO">     0</i>
   <i type="int" name="IRESTART">     0</i>
   <i type="int" name="NREBOOT">     0</i>
   <i type="int" name="NMIN">     0</i>
   <i name="EREF">      0.00000000</i>
   <separator name="electronic smearing" >
    <i type="int" name="ISMEAR">     0</i>
    <i name="SIGMA">      0.20000000</i>
    <i name="KSPACING">      0.50000000</i>
    <i type="logical" name="KGAMMA"> T  </i>
    <i type="logical" name="KBLOWUP"> T  </i>
   </separator>
   <separator name="electronic projectors" >
    <i type="logical" name="LREAL"> T  </i>
    <v name="ROPT">     -0.00025000</v>
    <i type="int" name="LMAXPAW">  -100</i>
    <i type="int" name="LMAXMIX">     2</i>
    <i type="logical" name="NLSPLINE"> F  </i>
   </separator>
   <separator name="electronic startup" >
    <i type="int" name="ISTART">     0</i>
    <i type="int" name="ICHARG">     2</i>
    <i type="int" name="INIWAV">     1</i>
   </separator>
   <separator name="electronic spin" >
    <i type="int" name="ISPIN">     1</i>
    <i type="logical" name="LNONCOLLINEAR"> F  </i>
    <v name="MAGMOM">      1.00000000      1.00000000      1.00000000      1.00000000      1.00000000      1.00000000      1.00000000      1.00000000      1.00000000      1.00000000      1.00000000      1.00000000      1.00000000      1.00000000      1.00000000      1.00000000      1.00000000      1.00000000      1.00000000      1.00000000
      1.00000000      1.00000000      1.00000000      1.00000000      1.00000000      1.00000000      1.00000000      1.00000000      1.00000000      1.00000000      1.00000000      1.00000000      1.00000000      1.00000000      1.00000000      1.00000000      1.00000000      1.00000000      1.00000000      1.00000000
      1.00000000      1.00000000      1.00000000      1.00000000      1.00000000      1.00000000      1.00000000      1.00000000      1.00000000      1.00000000      1.00000000      1.00000000      1.00000000      1.00000000      1.00000000      1.00000000      1.00000000      1.00000000      1.00000000      1.00000000
      1.00000000      1.00000000      1.00000000      1.00000000      1.00000000      1.00000000      1.00000000      1.00000000      1.00000000      1.00000000      1.00000000      1.00000000      1.00000000      1.00000000      1.00000000      1.00000000      1.00000000      1.00000000      1.00000000      1.00000000
      1.00000000      1.00000000      1.00000000      1.00000000      1.00000000      1.00000000      1.00000000      1.00000000      1.00000000      1.00000000      1.00000000      1.00000000</v>
    <i name="NUPDOWN">     -1.00000000</i>
    <i type="logical" name="LSORBIT"> F  </i>
    <v name="SAXIS">      0.00000000      0.00000000      1.00000000</v>
    <i type="logical" name="LSPIRAL"> F  </i>
    <v name="QSPIRAL">      0.00000000      0.00000000      0.00000000</v>
    <i type="logical" name="LZEROZ"> F  </i>
   </separator>
   <separator name="electronic exchange-correlation" >
    <i type="logical" name="LASPH"> F  </i>
   </separator>
   <separator name="electronic convergence" >
    <i type="int" name="NELM">   150</i>
    <i type="int" name="NELMDL">    -5</i>
    <i type="int" name="NELMIN">     2</i>
    <i name="ENINI">    500.00000000</i>
    <separator name="electronic convergence detail" >
     <i type="logical" name="LDIAG"> T  </i>
     <i type="logical" name="LSUBROT"> F  </i>
     <i name="WEIMIN">      0.00000000</i>
     <i name="EBREAK">      0.00000000</i>
     <i name="DEPER">      0.30000000</i>
     <i type="int" name="NRMM">     4</i>
     <i name="TIME">      0.40000000</i>
    </separator>
   </separator>
   <separator name="electronic mixer" >
    <i name="AMIX">      0.40000000</i>
    <i name="BMIX">      1.00000000</i>
    <i name="AMIN">      0.10000000</i>
    <i name="AMIX_MAG">      1.60000000</i>
    <i name="BMIX_MAG">      1.00000000</i>
    <separator name="electronic mixer details" >
     <i type="int" name="IMIX">     4</i>
     <i type="logical" name="MIXFIRST"> F  </i>
     <i type="int" name="MAXMIX">   -45</i>
     <i name="WC">    100.00000000</i>
     <i type="int" name="INIMIX">     1</i>
     <i type="int" name="MIXPRE">     1</i>
     <i type="int" name="MREMOVE">     5</i>
    </separator>
   </separator>
   <separator name="electronic dipolcorrection" >
    <i type="logical" name="LDIPOL"> F  </i>
    <i type="logical" name="LMONO"> F  </i>
    <i type="int" name="IDIPOL">     0</i>
    <i name="EPSILON">      1.00000000</i>
    <v name="DIPOL">   -100.00000000   -100.00000000   -100.00000000</v>
    <i name="EFIELD">      0.00000000</i>
    <i type="logical" name="LVACPOTAV"> F  </i>
   </separator>
  </separator>
  <separator name="grids" >
   <i type="int" name="NGX">   210</i>
   <i type="int" name="NGY">    60</i>
   <i type="int" name="NGZ">   250</i>
   <i type="int" name="NGXF">   420</i>
   <i type="int" name="NGYF">   120</i>
   <i type="int" name="NGZF">   500</i>
   <i type="logical" name="ADDGRID"> F  </i>
  </separator>
  <separator name="ionic" >
   <i type="int" name="NSW">     0</i>
   <i type="int" name="IBRION">    -1</i>
   <i type="int" name="MDALGO">     0</i>
   <i type="int" name="ISIF">     2</i>
   <i name="PSTRESS">      0.00000000</i>
   <i name="EDIFFG">      0.00001000</i>
   <i type="int" name="NFREE">     0</i>
   <i name="POTIM">      0.50000000</i>
   <i name="SMASS">     -3.00000000</i>
   <i name="SCALEE">      1.00000000</i>
  </separator>
  <separator name="ionic md" >
   <i name="TEBEG">      0.00010000</i>
   <i name="TEEND">      0.00010000</i>
   <i type="int" name="NBLOCK">     1</i>
   <i type="int" name="KBLOCK">     1</i>
   <i type="int" name="NPACO">   256</i>
   <i name="APACO">     10.00000000</i>
  </separator>
  <separator name="symmetry" >
   <i type="int" name="ISYM">     2</i>
   <i name="SYMPREC">      0.00001000</i>
  </separator>
  <separator name="dos" >
   <i type="int" name="LORBIT">     0</i>
   <v name="RWIGS">     -1.00000000</v>
   <i type="int" name="NEDOS">   301</i>
   <i name="EMIN">     10.00000000</i>
   <i name="EMAX">    -10.00000000</i>
   <i name="EFERMI">      0.00000000</i>
  </separator>
  <separator name="writing" >
   <i type="int" name="NWRITE">     2</i>
   <i type="logical" name="LWAVE"> F  </i>
   <i type="logical" name="LDOWNSAMPLE"> F  </i>
   <i type="logical" name="LCHARG"> F  </i>
   <i type="logical" name="LPARD"> F  </i>
   <i type="logical" name="LVTOT"> F  </i>
   <i type="logical" name="LVHAR"> F  </i>
   <i type="logical" name="LELF"> F  </i>
   <i type="logical" name="LOPTICS"> F  </i>
   <v name="STM">      0.00000000      0.00000000      0.00000000      0.00000000      0.00000000      0.00000000      0.00000000</v>
  </separator>
  <separator name="performance" >
   <i type="int" name="NPAR">     2</i>
   <i type="int" name="NSIM">     4</i>
   <i type="int" name="NBLK">    -1</i>
   <i type="logical" name="LPLANE"> T  </i>
   <i type="logical" name="LSCALAPACK"> T  </i>
   <i type="logical" name="LSCAAWARE"> F  </i>
   <i type="logical" name="LSCALU"> F  </i>
   <i type="logical" name="LASYNC"> F  </i>
   <i type="logical" name="LORBITALREAL"> F  </i>
  </separator>
  <separator name="miscellaneous" >
   <i type="int" name="IDIOT">     3</i>
   <i type="int" name="PHON_NSTRUCT">    -1</i>
   <i type="logical" name="LMUSIC"> F  </i>
   <v name="POMASS">     12.01100000</v>
   <v name="DARWINR">      0.00000000</v>
   <v name="DARWINV">      1.00000000</v>
   <i type="logical" name="LCORR"> T  </i>
  </separator>
  <i type="logical" name="GGA_COMPAT"> T  </i>
  <i type="logical" name="LBERRY"> F  </i>
  <i type="int" name="ICORELEVEL">     0</i>
  <i type="logical" name="LDAU"> F  </i>
  <i type="int" name="I_CONSTRAINED_M">     0</i>
  <separator name="electronic exchange-correlation" >
   <i type="string" name="GGA    ">PE</i>
   <i type="string" name="XC_C">1</i>
   <i type="int" name="VOSKOWN">     0</i>
   <i type="logical" name="LHFCALC"> F  </i>
   <i type="string" name="PRECFOCK"></i>
   <i type="logical" name="LSYMGRAD"> F  </i>
   <i type="logical" name="LHFONE"> F  </i>
   <i type="logical" name="LRHFCALC"> F  </i>
   <i type="logical" name="LTHOMAS"> F  </i>
   <i type="logical" name="LMODELHF"> F  </i>
   <i type="logical" name="LFOCKACE"> F  </i>
   <i name="ENCUT4O">     -1.00000000</i>
   <i type="int" name="EXXOEP">     0</i>
   <i type="int" name="FOURORBIT">     0</i>
   <i name="AEXX">      0.00000000</i>
   <i name="HFALPHA">      0.00000000</i>
   <i name="MCALPHA">      0.00000000</i>
   <i name="ALDAX">      1.00000000</i>
   <i name="AGGAX">      1.00000000</i>
   <i name="AMGGAX">      1.00000000</i>
   <i name="ALDAC">      1.00000000</i>
   <i name="AGGAC">      1.00000000</i>
   <i name="AMGGAC">      1.00000000</i>
   <i type="int" name="NKREDX">     1</i>
   <i type="int" name="NKREDY">     1</i>
   <i type="int" name="NKREDZ">     1</i>
   <i type="logical" name="SHIFTRED"> F  </i>
   <i type="logical" name="ODDONLY"> F  </i>
   <i type="logical" name="EVENONLY"> F  </i>
   <i type="int" name="LMAXFOCK">     0</i>
   <i type="int" name="NMAXFOCKAE">     0</i>
   <i type="logical" name="LFOCKAEDFT"> F  </i>
   <i name="HFSCREEN">      0.00000000</i>
   <i name="HFSCREENC">      0.00000000</i>
   <i type="int" name="NBANDSGWLOW">     0</i>
  </separator>
  <separator name="vdW DFT" >
   <i type="logical" name="LUSE_VDW"> F  </i>
   <i type="int" name="IVDW_NL">    -1</i>
   <i type="logical" name="LSPIN_VDW"> F  </i>
   <i name="ZAB_VDW">     -0.84910000</i>
   <i name="GAMMA_VDW">      1.39626340</i>
   <i name="ALPHA_VDW">      0.00000000</i>
   <i name="PARAM1">      0.12340000</i>
   <i name="PARAM2">      1.00000000</i>
   <i name="BPARAM">      6.30000000</i>
   <i name="CPARAM">      0.00930000</i>
  </separator>
  <separator name="model GW" >
   <i type="int" name="MODEL_GW">     0</i>
   <i name="MODEL_EPS0">     49.63935326</i>
   <i name="MODEL_ALPHA">      1.00000000</i>
  </separator>
  <separator name="linear response parameters" >
   <i type="logical" name="LEPSILON"> F  </i>
   <i type="logical" name="LRPA"> F  </i>
   <i type="logical" name="LNABLA"> F  </i>
   <i type="logical" name="LVEL"> F  </i>
   <i name="CSHIFT">      0.10000000</i>
   <i name="OMEGAMAX">     -1.00000000</i>
   <i name="DEG_THRESHOLD">      0.00200000</i>
   <i name="RTIME">     -0.10000000</i>
   <i name="WPLASMAI">      0.00000000</i>
   <v name="DFIELD">      0.00000000      0.00000000      0.00000000</v>
   <v name="WPLASMA">      0.00000000      0.00000000      0.00000000      0.00000000      0.00000000      0.00000000      0.00000000      0.00000000      0.00000000</v>
  </separator>
  <separator name="orbital magnetization" >
   <i type="logical" name="NUCIND"> F  </i>
   <v name="MAGPOS">      0.00000000      0.00000000      0.00000000</v>
   <i type="logical" name="LNICSALL"> T  </i>
   <i type="logical" name="ORBITALMAG"> F  </i>
   <i type="logical" name="LMAGBLOCH"> F  </i>
   <i type="logical" name="LCHIMAG"> F  </i>
   <i type="logical" name="LGAUGE"> T  </i>
   <i type="int" name="MAGATOM">     0</i>
   <v name="MAGDIPOL">      0.00000000      0.00000000      0.00000000</v>
   <v name="AVECCONST">      0.00000000      0.00000000      0.00000000</v>
  </separator>
  <separator name="response functions" >
   <i type="logical" name="LALL_IN_ONE"> F  </i>
   <i type="int" name="IALL_IN_ONE">    -1</i>
   <i type="int" name="NBANDS_WAVE">    -1</i>
   <i type="logical" name="LFINITE_TEMPERATURE"> F  </i>
   <i type="logical" name="LADDER"> F  </i>
   <i type="logical" name="LRPAFORCE"> F  </i>
   <i type="logical" name="LFXC"> F  </i>
   <i type="logical" name="LHARTREE"> T  </i>
   <i type="int" name="IBSE">     2</i>
   <v type="int" name="KPOINT">    -1     0     0     0</v>
   <i type="logical" name="LTCTC"> F  </i>
   <i type="logical" name="LTCTE"> F  </i>
   <i type="logical" name="LTETE"> F  </i>
   <i type="logical" name="LTRIPLET"> F  </i>
   <i type="logical" name="LFXCEPS"> F  </i>
   <i type="logical" name="LFXHEG"> F  </i>
   <i type="int" name="NATURALO">     2</i>
   <i type="logical" name="LHOLEGF"> F  </i>
   <i type="logical" name="L2ORDER"> F  </i>
   <i type="logical" name="LDMP1"> F  </i>
   <i type="logical" name="LMP2LT"> F  </i>
   <i type="logical" name="LSMP2LT"> F  </i>
   <i type="logical" name="LGWLF"> F  </i>
   <i name="ENCUTGW">     -1.60000002</i>
   <i name="ENCUTGWSOFT">     -1.60000002</i>
   <i name="ENCUTLF">     -1.00000000</i>
   <i type="logical" name="ESF_SPLINES"> F  </i>
   <i name="ESF_CONV">      0.01000000</i>
   <i type="int" name="ESF_NINTER">    15</i>
   <i type="int" name="LMAXMP2">    -1</i>
   <i name="SCISSOR">      0.00000000</i>
   <i type="int" name="NOMEGA">     0</i>
   <i type="int" name="NOMEGAR">     0</i>
   <i type="int" name="NBANDSGW">    -1</i>
   <i type="int" name="NBANDSO">    -1</i>
   <i type="int" name="NBANDSV">    -1</i>
   <i type="int" name="NELMGW">     1</i>
   <i type="int" name="NELMHF">     1</i>
   <i type="int" name="DIM">     3</i>
   <i type="int" name="IESPILON">     4</i>
   <i type="int" name="ANTIRES">     0</i>
   <i name="OMEGAMAX">    -30.00000000</i>
   <i name="OMEGAMIN">    -30.00000000</i>
   <i name="OMEGATL">   -200.00000000</i>
   <i type="int" name="OMEGAGRID">     0</i>
   <i name="CSHIFT">     -0.10000000</i>
   <i type="logical" name="LSELFENERGY"> F  </i>
   <i type="logical" name="LSPECTRAL"> F  </i>
   <i type="logical" name="LSPECTRALGW"> F  </i>
   <i type="logical" name="LSINGLES"> F  </i>
   <i type="logical" name="LFERMIGW"> F  </i>
   <i type="logical" name="ODDONLYGW"> F  </i>
   <i type="logical" name="EVENONLYGW"> F  </i>
   <i type="int" name="NKREDLFX">     1</i>
   <i type="int" name="NKREDLFY">     1</i>
   <i type="int" name="NKREDLFZ">     1</i>
   <i type="int" name="MAXMEM">  2800</i>
   <i type="int" name="TELESCOPE">     0</i>
   <i type="int" name="NTAUPAR">    -1</i>
   <i type="int" name="NOMEGAPAR">    -1</i>
   <i name="DAMP_NEWTON">      0.80000001</i>
   <i name="LAMBDA">      1.00000000</i>
  </separator>
  <separator name="External order field" >
   <i name="OFIELD_KAPPA">      0.00000000</i>
   <v name="OFIELD_K">      0.00000000      0.00000000      0.00000000</v>
   <i name="OFIELD_Q6_NEAR">      0.00000000</i>
   <i name="OFIELD_Q6_FAR">      0.00000000</i>
   <i name="OFIELD_A">      0.00000000</i>
  </separator>
  <separator name="optional k-points parameters" >
   <i type="int" name="KPOINTS_OPT_MODE">     1</i>
   <i type="logical" name="LKPOINTS_OPT"> F  </i>
  </separator>
 </parameters>
 <atominfo>
  <atoms>      92 </atoms>
  <types>       1 </types>
  <array name="atoms" >
   <dimension dim="1">ion</dimension>
   <field type="string">element</field>
   <field type="int">atomtype</field>
   <set>
    <rc><c>C </c><c>   1</c></rc>
    <rc><c>C </c><c>   1</c></rc>
    <rc><c>C </c><c>   1</c></rc>
    <rc><c>C </c><c>   1</c></rc>
    <rc><c>C </c><c>   1</c></rc>
    <rc><c>C </c><c>   1</c></rc>
    <rc><c>C </c><c>   1</c></rc>
    <rc><c>C </c><c>   1</c></rc>
    <rc><c>C </c><c>   1</c></rc>
    <rc><c>C </c><c>   1</c></rc>
    <rc><c>C </c><c>   1</c></rc>
    <rc><c>C </c><c>   1</c></rc>
    <rc><c>C </c><c>   1</c></rc>
    <rc><c>C </c><c>   1</c></rc>
    <rc><c>C </c><c>   1</c></rc>
    <rc><c>C </c><c>   1</c></rc>
    <rc><c>C </c><c>   1</c></rc>
    <rc><c>C </c><c>   1</c></rc>
    <rc><c>C </c><c>   1</c></rc>
    <rc><c>C </c><c>   1</c></rc>
    <rc><c>C </c><c>   1</c></rc>
    <rc><c>C </c><c>   1</c></rc>
    <rc><c>C </c><c>   1</c></rc>
    <rc><c>C </c><c>   1</c></rc>
    <rc><c>C </c><c>   1</c></rc>
    <rc><c>C </c><c>   1</c></rc>
    <rc><c>C </c><c>   1</c></rc>
    <rc><c>C </c><c>   1</c></rc>
    <rc><c>C </c><c>   1</c></rc>
    <rc><c>C </c><c>   1</c></rc>
    <rc><c>C </c><c>   1</c></rc>
    <rc><c>C </c><c>   1</c></rc>
    <rc><c>C </c><c>   1</c></rc>
    <rc><c>C </c><c>   1</c></rc>
    <rc><c>C </c><c>   1</c></rc>
    <rc><c>C </c><c>   1</c></rc>
    <rc><c>C </c><c>   1</c></rc>
    <rc><c>C </c><c>   1</c></rc>
    <rc><c>C </c><c>   1</c></rc>
    <rc><c>C </c><c>   1</c></rc>
    <rc><c>C </c><c>   1</c></rc>
    <rc><c>C </c><c>   1</c></rc>
    <rc><c>C </c><c>   1</c></rc>
    <rc><c>C </c><c>   1</c></rc>
    <rc><c>C </c><c>   1</c></rc>
    <rc><c>C </c><c>   1</c></rc>
    <rc><c>C </c><c>   1</c></rc>
    <rc><c>C </c><c>   1</c></rc>
    <rc><c>C </c><c>   1</c></rc>
    <rc><c>C </c><c>   1</c></rc>
    <rc><c>C </c><c>   1</c></rc>
    <rc><c>C </c><c>   1</c></rc>
    <rc><c>C </c><c>   1</c></rc>
    <rc><c>C </c><c>   1</c></rc>
    <rc><c>C </c><c>   1</c></rc>
    <rc><c>C </c><c>   1</c></rc>
    <rc><c>C </c><c>   1</c></rc>
    <rc><c>C </c><c>   1</c></rc>
    <rc><c>C </c><c>   1</c></rc>
    <rc><c>C </c><c>   1</c></rc>
    <rc><c>C </c><c>   1</c></rc>
    <rc><c>C </c><c>   1</c></rc>
    <rc><c>C </c><c>   1</c></rc>
    <rc><c>C </c><c>   1</c></rc>
    <rc><c>C </c><c>   1</c></rc>
    <rc><c>C </c><c>   1</c></rc>
    <rc><c>C </c><c>   1</c></rc>
    <rc><c>C </c><c>   1</c></rc>
    <rc><c>C </c><c>   1</c></rc>
    <rc><c>C </c><c>   1</c></rc>
    <rc><c>C </c><c>   1</c></rc>
    <rc><c>C </c><c>   1</c></rc>
    <rc><c>C </c><c>   1</c></rc>
    <rc><c>C </c><c>   1</c></rc>
    <rc><c>C </c><c>   1</c></rc>
    <rc><c>C </c><c>   1</c></rc>
    <rc><c>C </c><c>   1</c></rc>
    <rc><c>C </c><c>   1</c></rc>
    <rc><c>C </c><c>   1</c></rc>
    <rc><c>C </c><c>   1</c></rc>
    <rc><c>C </c><c>   1</c></rc>
    <rc><c>C </c><c>   1</c></rc>
    <rc><c>C </c><c>   1</c></rc>
    <rc><c>C </c><c>   1</c></rc>
    <rc><c>C </c><c>   1</c></rc>
    <rc><c>C </c><c>   1</c></rc>
    <rc><c>C </c><c>   1</c></rc>
    <rc><c>C </c><c>   1</c></rc>
    <rc><c>C </c><c>   1</c></rc>
    <rc><c>C </c><c>   1</c></rc>
    <rc><c>C </c><c>   1</c></rc>
    <rc><c>C </c><c>   1</c></rc>
   </set>
  </array>
  <array name="atomtypes" >
   <dimension dim="1">type</dimension>
   <field type="int">atomspertype</field>
   <field type="string">element</field>
   <field>mass</field>
   <field>valence</field>
   <field type="string">pseudopotential</field>
   <set>
    <rc><c>  92</c><c>C </c><c>     12.01100000</c><c>      4.00000000</c><c>  PAW_PBE C 08Apr2002                   </c></rc>
   </set>
  </array>
 </atominfo>
 <structure name="initialpos" >
  <crystal>
   <varray name="basis" >
    <v>      28.05000000       0.00000000       0.00000000 </v>
    <v>       0.00000000       8.10000000       0.00000000 </v>
    <v>       0.00000000       0.00000000      33.50000000 </v>
   </varray>
   <i name="volume">   7611.36750000 </i>
   <varray name="rec_basis" >
    <v>       0.03565062       0.00000000       0.00000000 </v>
    <v>       0.00000000       0.12345679       0.00000000 </v>
    <v>       0.00000000       0.00000000       0.02985075 </v>
   </varray>
  </crystal>
  <varray name="positions" >
   <v>       0.00750396       0.10071358       0.44646567 </v>
   <v>       0.00809458       0.27344198       0.45153134 </v>
   <v>       0.05388520       0.03142765       0.45059403 </v>
   <v>       0.04937576       0.35219753       0.46043284 </v>
   <v>       0.09216720       0.10960346       0.46573433 </v>
   <v>       0.09195401       0.27346543       0.46919701 </v>
   <v>       0.13535508       0.02733519       0.47533731 </v>
   <v>       0.13394260       0.35543704       0.48042388 </v>
   <v>       0.17609840       0.10086864       0.49280000 </v>
   <v>       0.17282888       0.27512593       0.49668955 </v>
   <v>       0.22015437       0.02413086       0.50235821 </v>
   <v>       0.21702995       0.35121358       0.50470149 </v>
   <v>       0.26300071       0.10326654       0.51514627 </v>
   <v>       0.25928948       0.26852346       0.51752537 </v>
   <v>       0.30715508       0.01398827       0.52257015 </v>
   <v>       0.30367273       0.34680988       0.52684776 </v>
   <v>       0.34989091       0.09456358       0.53423284 </v>
   <v>       0.34861925       0.26061481       0.53502687 </v>
   <v>       0.39317647       0.01350630       0.54098209 </v>
   <v>       0.39351159       0.34449383       0.54090448 </v>
   <v>       0.43708378       0.09850494       0.54762090 </v>
   <v>       0.43779323       0.26535185       0.54715522 </v>
   <v>       0.48273084       0.01619728       0.54458209 </v>
   <v>       0.48360071       0.34896049       0.55137015 </v>
   <v>       0.52679144       0.09671346       0.54605373 </v>
   <v>       0.52996791       0.26398519       0.55081493 </v>
   <v>       0.57095544       0.02069247       0.53263881 </v>
   <v>       0.57353654       0.35674074       0.54536119 </v>
   <v>       0.61313012       0.10823765       0.52693731 </v>
   <v>       0.61805348       0.26707531       0.53925075 </v>
   <v>       0.65690196       0.03056099       0.51454030 </v>
   <v>       0.66049911       0.35579753       0.52808060 </v>
   <v>       0.70048128       0.10905840       0.50704179 </v>
   <v>       0.70362923       0.27222963       0.51596418 </v>
   <v>       0.74343316       0.02746481       0.49323582 </v>
   <v>       0.74663102       0.35377901       0.50644179 </v>
   <v>       0.78568271       0.11105321       0.48444478 </v>
   <v>       0.78891979       0.27606914       0.49480896 </v>
   <v>       0.82694831       0.02480741       0.47167463 </v>
   <v>       0.83207487       0.35803086       0.48637612 </v>
   <v>       0.87117291       0.10486741       0.46554030 </v>
   <v>       0.87360071       0.27323827       0.47545075 </v>
   <v>       0.91254545       0.03045679       0.45349851 </v>
   <v>       0.91611408       0.35998765       0.46320000 </v>
   <v>       0.95765775       0.10475741       0.45155224 </v>
   <v>       0.95885205       0.27620247       0.45468358 </v>
   <v>       0.00732289       0.60428148       0.44761194 </v>
   <v>       0.00724752       0.78034938       0.44337612 </v>
   <v>       0.04896506       0.51941605       0.45607463 </v>
   <v>       0.05123743       0.85788148       0.44817015 </v>
   <v>       0.09495472       0.60716173       0.46079701 </v>
   <v>       0.09528877       0.77461975       0.45857910 </v>
   <v>       0.13660642       0.52676543       0.47520299 </v>
   <v>       0.13698503       0.85710741       0.47158806 </v>
   <v>       0.17818004       0.60581358       0.48673433 </v>
   <v>       0.18025419       0.77721605       0.48450746 </v>
   <v>       0.21949305       0.52210370       0.49928060 </v>
   <v>       0.22207986       0.85715432       0.49914925 </v>
   <v>       0.26395865       0.60065926       0.50726866 </v>
   <v>       0.26450196       0.77000741       0.50805970 </v>
   <v>       0.30708021       0.51107284       0.52042090 </v>
   <v>       0.30793369       0.84751852       0.51838507 </v>
   <v>       0.35241319       0.59018519       0.52270149 </v>
   <v>       0.35083529       0.76055679       0.52533731 </v>
   <v>       0.39405348       0.50822840       0.53320000 </v>
   <v>       0.39408913       0.84506543       0.53586269 </v>
   <v>       0.43914795       0.59340741       0.54114030 </v>
   <v>       0.43710873       0.76233704       0.54154328 </v>
   <v>       0.48524064       0.51652716       0.54686269 </v>
   <v>       0.48188592       0.84413827       0.54348358 </v>
   <v>       0.52782531       0.60338519       0.54251045 </v>
   <v>       0.52625668       0.77351235       0.54158507 </v>
   <v>       0.57270232       0.52813210       0.54057015 </v>
   <v>       0.56873797       0.85489012       0.53183582 </v>
   <v>       0.61757576       0.61100494       0.53100299 </v>
   <v>       0.61301604       0.77936296       0.52336119 </v>
   <v>       0.66049911       0.52811728       0.52657910 </v>
   <v>       0.65478788       0.85848519       0.51139403 </v>
   <v>       0.70237790       0.61387778       0.51195224 </v>
   <v>       0.69841355       0.77410247       0.50342687 </v>
   <v>       0.74455615       0.52435432       0.50391045 </v>
   <v>       0.73939394       0.85897407       0.49094030 </v>
   <v>       0.78437433       0.61024815       0.48690746 </v>
   <v>       0.78291979       0.77763457       0.47880000 </v>
   <v>       0.82827451       0.53118025       0.48155224 </v>
   <v>       0.82526916       0.85580123       0.46633433 </v>
   <v>       0.86995722       0.61143580       0.46528060 </v>
   <v>       0.86960428       0.77889753       0.45816716 </v>
   <v>       0.91407487       0.52687654       0.45829552 </v>
   <v>       0.91187879       0.85872346       0.44824776 </v>
   <v>       0.95603565       0.60739506       0.44835522 </v>
   <v>       0.95678788       0.78347654       0.44582687 </v>
  </varray>
 </structure>
 <calculation>
  <scstep>
   <time name="dav">   10.91   10.91</time>
   <time name="total">   11.37   11.40</time>
   <energy>
    <i name="alphaZ">     91.34886789 </i>
    <i name="ewald"> 119633.42330548 </i>
    <i name="hartreedc">-128961.51994919 </i>
    <i name="XCdc">   1221.39512364 </i>
    <i name="pawpsdc">   9984.02826696 </i>
    <i name="pawaedc"> -10036.41360137 </i>
    <i name="eentropy">     -0.84970201 </i>
    <i name="bandstr">  -1726.16113724 </i>
    <i name="atom">  13537.65479391 </i>
    <i name="e_fr_energy">   3742.90596808 </i>
    <i name="e_wo_entrp">   3743.75567009 </i>
    <i name="e_0_energy">   3743.33081908 </i>
   </energy>
  </scstep>
  <scstep>
   <time name="dav">   13.09   13.10</time>
   <time name="total">   13.09   13.10</time>
   <energy>
    <i name="e_fr_energy">    189.96808609 </i>
    <i name="e_wo_entrp">    190.14772396 </i>
    <i name="e_0_energy">    190.05790503 </i>
   </energy>
  </scstep>
  <scstep>
   <time name="dav">   11.26   11.27</time>
   <time name="total">   11.26   11.27</time>
   <energy>
    <i name="e_fr_energy">   -834.21571798 </i>
    <i name="e_wo_entrp">   -834.17085839 </i>
    <i name="e_0_energy">   -834.19328819 </i>
   </energy>
  </scstep>
  <scstep>
   <time name="dav">   10.83   10.84</time>
   <time name="total">   10.83   10.84</time>
   <energy>
    <i name="e_fr_energy">   -895.76522320 </i>
    <i name="e_wo_entrp">   -895.67976478 </i>
    <i name="e_0_energy">   -895.72249399 </i>
   </energy>
  </scstep>
  <scstep>
   <time name="dav">   11.15   11.15</time>
   <time name="total">   12.62   12.63</time>
   <energy>
    <i name="e_fr_energy">   -897.25391807 </i>
    <i name="e_wo_entrp">   -897.16785339 </i>
    <i name="e_0_energy">   -897.21088573 </i>
   </energy>
  </scstep>
  <scstep>
   <time name="dav">   10.18   10.18</time>
   <time name="total">   11.97   11.98</time>
   <energy>
    <i name="e_fr_energy">   -847.86222792 </i>
    <i name="e_wo_entrp">   -847.76413144 </i>
    <i name="e_0_energy">   -847.81317968 </i>
   </energy>
  </scstep>
  <scstep>
   <time name="dav">   10.05   10.06</time>
   <time name="total">   11.84   11.85</time>
   <energy>
    <i name="e_fr_energy">   -829.45012105 </i>
    <i name="e_wo_entrp">   -829.33909876 </i>
    <i name="e_0_energy">   -829.39460991 </i>
   </energy>
  </scstep>
  <scstep>
   <time name="dav">   10.37   10.38</time>
   <time name="total">   12.17   12.17</time>
   <energy>
    <i name="e_fr_energy">   -829.15778004 </i>
    <i name="e_wo_entrp">   -829.05014673 </i>
    <i name="e_0_energy">   -829.10396339 </i>
   </energy>
  </scstep>
  <scstep>
   <time name="dav">   10.55   10.55</time>
   <time name="total">   12.35   12.35</time>
   <energy>
    <i name="e_fr_energy">   -829.05292226 </i>
    <i name="e_wo_entrp">   -828.94586381 </i>
    <i name="e_0_energy">   -828.99939303 </i>
   </energy>
  </scstep>
  <scstep>
   <time name="dav">   10.80   10.80</time>
   <time name="total">   12.61   12.61</time>
   <energy>
    <i name="e_fr_energy">   -829.01616254 </i>
    <i name="e_wo_entrp">   -828.90849730 </i>
    <i name="e_0_energy">   -828.96232992 </i>
   </energy>
  </scstep>
  <scstep>
   <time name="dav">   10.10   10.10</time>
   <time name="total">   11.92   11.93</time>
   <energy>
    <i name="e_fr_energy">   -828.98141974 </i>
    <i name="e_wo_entrp">   -828.87357813 </i>
    <i name="e_0_energy">   -828.92749893 </i>
   </energy>
  </scstep>
  <scstep>
   <time name="dav">   10.05   10.06</time>
   <time name="total">   11.87   11.88</time>
   <energy>
    <i name="e_fr_energy">   -828.97330412 </i>
    <i name="e_wo_entrp">   -828.86548538 </i>
    <i name="e_0_energy">   -828.91939475 </i>
   </energy>
  </scstep>
  <scstep>
   <time name="dav">   10.05   10.06</time>
   <time name="total">   11.89   11.89</time>
   <energy>
    <i name="e_fr_energy">   -828.98503718 </i>
    <i name="e_wo_entrp">   -828.87704337 </i>
    <i name="e_0_energy">   -828.93104028 </i>
   </energy>
  </scstep>
  <scstep>
   <time name="dav">   10.23   10.24</time>
   <time name="total">   12.08   12.08</time>
   <energy>
    <i name="e_fr_energy">   -829.00023383 </i>
    <i name="e_wo_entrp">   -828.89236553 </i>
    <i name="e_0_energy">   -828.94629968 </i>
   </energy>
  </scstep>
  <scstep>
   <time name="dav">   10.18   10.19</time>
   <time name="total">   12.03   12.03</time>
   <energy>
    <i name="e_fr_energy">   -829.01968701 </i>
    <i name="e_wo_entrp">   -828.91176546 </i>
    <i name="e_0_energy">   -828.96572624 </i>
   </energy>
  </scstep>
  <scstep>
   <time name="dav">   10.27   10.28</time>
   <time name="total">   12.14   12.15</time>
   <energy>
    <i name="e_fr_energy">   -829.03048329 </i>
    <i name="e_wo_entrp">   -828.92253625 </i>
    <i name="e_0_energy">   -828.97650977 </i>
   </energy>
  </scstep>
  <scstep>
   <time name="dav">    9.94    9.94</time>
   <time name="total">   11.81   11.82</time>
   <energy>
    <i name="e_fr_energy">   -829.03642160 </i>
    <i name="e_wo_entrp">   -828.92847668 </i>
    <i name="e_0_energy">   -828.98244914 </i>
   </energy>
  </scstep>
  <scstep>
   <time name="dav">   10.10   10.10</time>
   <time name="total">   11.98   11.99</time>
   <energy>
    <i name="e_fr_energy">   -829.03910635 </i>
    <i name="e_wo_entrp">   -828.93115340 </i>
    <i name="e_0_energy">   -828.98512987 </i>
   </energy>
  </scstep>
  <scstep>
   <time name="dav">    9.05    9.05</time>
   <time name="total">   10.94   10.95</time>
   <energy>
    <i name="e_fr_energy">   -829.04040718 </i>
    <i name="e_wo_entrp">   -828.93246183 </i>
    <i name="e_0_energy">   -828.98643451 </i>
   </energy>
  </scstep>
  <scstep>
   <time name="dav">    9.18    9.18</time>
   <time name="total">   11.08   11.09</time>
   <energy>
    <i name="e_fr_energy">   -829.04082187 </i>
    <i name="e_wo_entrp">   -828.93287381 </i>
    <i name="e_0_energy">   -828.98684784 </i>
   </energy>
  </scstep>
  <scstep>
   <time name="dav">    8.73    8.73</time>
   <time name="total">   10.65   10.66</time>
   <energy>
    <i name="e_fr_energy">   -829.04106298 </i>
    <i name="e_wo_entrp">   -828.93311422 </i>
    <i name="e_0_energy">   -828.98708860 </i>
   </energy>
  </scstep>
  <scstep>
   <time name="dav">    7.54    7.55</time>
   <time name="total">    9.47    9.48</time>
   <energy>
    <i name="e_fr_energy">   -829.04112114 </i>
    <i name="e_wo_entrp">   -828.93317184 </i>
    <i name="e_0_energy">   -828.98714649 </i>
   </energy>
  </scstep>
  <scstep>
   <time name="dav">    7.04    7.04</time>
   <time name="total">    8.98    8.99</time>
   <energy>
    <i name="e_fr_energy">   -829.04115204 </i>
    <i name="e_wo_entrp">   -828.93320256 </i>
    <i name="e_0_energy">   -828.98717730 </i>
   </energy>
  </scstep>
  <scstep>
   <time name="dav">    7.04    7.04</time>
   <time name="total">    9.00    9.01</time>
   <energy>
    <i name="e_fr_energy">   -829.04116604 </i>
    <i name="e_wo_entrp">   -828.93321730 </i>
    <i name="e_0_energy">   -828.98719167 </i>
   </energy>
  </scstep>
  <scstep>
   <time name="dav">    7.34    7.35</time>
   <time name="total">    9.32    9.32</time>
   <energy>
    <i name="e_fr_energy">   -829.04116949 </i>
    <i name="e_wo_entrp">   -828.93322061 </i>
    <i name="e_0_energy">   -828.98719505 </i>
   </energy>
  </scstep>
  <scstep>
   <time name="dav">    7.08    7.09</time>
   <time name="total">    9.08    9.09</time>
   <energy>
    <i name="e_fr_energy">   -829.04117367 </i>
    <i name="e_wo_entrp">   -828.93322462 </i>
    <i name="e_0_energy">   -828.98719915 </i>
   </energy>
  </scstep>
  <scstep>
   <time name="dav">    7.26    7.27</time>
   <time name="total">    9.27    9.27</time>
   <energy>
    <i name="e_fr_energy">   -829.04117501 </i>
    <i name="e_wo_entrp">   -828.93322596 </i>
    <i name="e_0_energy">   -828.98720048 </i>
   </energy>
  </scstep>
  <scstep>
   <time name="dav">    7.01    7.01</time>
   <time name="total">    9.03    9.04</time>
   <energy>
    <i name="e_fr_energy">   -829.04117643 </i>
    <i name="e_wo_entrp">   -828.93322739 </i>
    <i name="e_0_energy">   -828.98720191 </i>
   </energy>
  </scstep>
  <scstep>
   <time name="dav">    7.14    7.14</time>
   <time name="total">    7.50    7.50</time>
   <energy>
    <i name="alphaZ">     91.34886789 </i>
    <i name="ewald"> 119633.42330548 </i>
    <i name="hartreedc">-130720.49868686 </i>
    <i name="XCdc">   1278.63596438 </i>
    <i name="pawpsdc">  41022.85789468 </i>
    <i name="pawaedc"> -41086.90233926 </i>
    <i name="eentropy">     -0.10794903 </i>
    <i name="bandstr">  -4585.45302812 </i>
    <i name="atom">  13537.65479391 </i>
    <i name="e_fr_energy">   -829.04117694 </i>
    <i name="e_wo_entrp">   -828.93322791 </i>
    <i name="e_0_energy">   -828.98720243 </i>
   </energy>
  </scstep>
  <structure>
   <crystal>
    <varray name="basis" >
     <v>      28.05000000       0.00000000       0.00000000 </v>
     <v>       0.00000000       8.10000000       0.00000000 </v>
     <v>       0.00000000       0.00000000      33.50000000 </v>
    </varray>
    <i name="volume">   7611.36750000 </i>
    <varray name="rec_basis" >
     <v>       0.03565062       0.00000000       0.00000000 </v>
     <v>       0.00000000       0.12345679       0.00000000 </v>
     <v>       0.00000000       0.00000000       0.02985075 </v>
    </varray>
   </crystal>
   <varray name="positions" >
    <v>       0.00750396       0.10071358       0.44646567 </v>
    <v>       0.00809458       0.27344198       0.45153134 </v>
    <v>       0.05388520       0.03142765       0.45059403 </v>
    <v>       0.04937576       0.35219753       0.46043284 </v>
    <v>       0.09216720       0.10960346       0.46573433 </v>
    <v>       0.09195401       0.27346543       0.46919701 </v>
    <v>       0.13535508       0.02733519       0.47533731 </v>
    <v>       0.13394260       0.35543704       0.48042388 </v>
    <v>       0.17609840       0.10086864       0.49280000 </v>
    <v>       0.17282888       0.27512593       0.49668955 </v>
    <v>       0.22015437       0.02413086       0.50235821 </v>
    <v>       0.21702995       0.35121358       0.50470149 </v>
    <v>       0.26300071       0.10326654       0.51514627 </v>
    <v>       0.25928948       0.26852346       0.51752537 </v>
    <v>       0.30715508       0.01398827       0.52257015 </v>
    <v>       0.30367273       0.34680988       0.52684776 </v>
    <v>       0.34989091       0.09456358       0.53423284 </v>
    <v>       0.34861925       0.26061481       0.53502687 </v>
    <v>       0.39317647       0.01350630       0.54098209 </v>
    <v>       0.39351159       0.34449383       0.54090448 </v>
    <v>       0.43708378       0.09850494       0.54762090 </v>
    <v>       0.43779323       0.26535185       0.54715522 </v>
    <v>       0.48273084       0.01619728       0.54458209 </v>
    <v>       0.48360071       0.34896049       0.55137015 </v>
    <v>       0.52679144       0.09671346       0.54605373 </v>
    <v>       0.52996791       0.26398519       0.55081493 </v>
    <v>       0.57095544       0.02069247       0.53263881 </v>
    <v>       0.57353654       0.35674074       0.54536119 </v>
    <v>       0.61313012       0.10823765       0.52693731 </v>
    <v>       0.61805348       0.26707531       0.53925075 </v>
    <v>       0.65690196       0.03056099       0.51454030 </v>
    <v>       0.66049911       0.35579753       0.52808060 </v>
    <v>       0.70048128       0.10905840       0.50704179 </v>
    <v>       0.70362923       0.27222963       0.51596418 </v>
    <v>       0.74343316       0.02746481       0.49323582 </v>
    <v>       0.74663102       0.35377901       0.50644179 </v>
    <v>       0.78568271       0.11105321       0.48444478 </v>
    <v>       0.78891979       0.27606914       0.49480896 </v>
    <v>       0.82694831       0.02480741       0.47167463 </v>
    <v>       0.83207487       0.35803086       0.48637612 </v>
    <v>       0.87117291       0.10486741       0.46554030 </v>
    <v>       0.87360071       0.27323827       0.47545075 </v>
    <v>       0.91254545       0.03045679       0.45349851 </v>
    <v>       0.91611408       0.35998765       0.46320000 </v>
    <v>       0.95765775       0.10475741       0.45155224 </v>
    <v>       0.95885205       0.27620247       0.45468358 </v>
    <v>       0.00732289       0.60428148       0.44761194 </v>
    <v>       0.00724752       0.78034938       0.44337612 </v>
    <v>       0.04896506       0.51941605       0.45607463 </v>
    <v>       0.05123743       0.85788148       0.44817015 </v>
    <v>       0.09495472       0.60716173       0.46079701 </v>
    <v>       0.09528877       0.77461975       0.45857910 </v>
    <v>       0.13660642       0.52676543       0.47520299 </v>
    <v>       0.13698503       0.85710741       0.47158806 </v>
    <v>       0.17818004       0.60581358       0.48673433 </v>
    <v>       0.18025419       0.77721605       0.48450746 </v>
    <v>       0.21949305       0.52210370       0.49928060 </v>
    <v>       0.22207986       0.85715432       0.49914925 </v>
    <v>       0.26395865       0.60065926       0.50726866 </v>
    <v>       0.26450196       0.77000741       0.50805970 </v>
    <v>       0.30708021       0.51107284       0.52042090 </v>
    <v>       0.30793369       0.84751852       0.51838507 </v>
    <v>       0.35241319       0.59018519       0.52270149 </v>
    <v>       0.35083529       0.76055679       0.52533731 </v>
    <v>       0.39405348       0.50822840       0.53320000 </v>
    <v>       0.39408913       0.84506543       0.53586269 </v>
    <v>       0.43914795       0.59340741       0.54114030 </v>
    <v>       0.43710873       0.76233704       0.54154328 </v>
    <v>       0.48524064       0.51652716       0.54686269 </v>
    <v>       0.48188592       0.84413827       0.54348358 </v>
    <v>       0.52782531       0.60338519       0.54251045 </v>
    <v>       0.52625668       0.77351235       0.54158507 </v>
    <v>       0.57270232       0.52813210       0.54057015 </v>
    <v>       0.56873797       0.85489012       0.53183582 </v>
    <v>       0.61757576       0.61100494       0.53100299 </v>
    <v>       0.61301604       0.77936296       0.52336119 </v>
    <v>       0.66049911       0.52811728       0.52657910 </v>
    <v>       0.65478788       0.85848519       0.51139403 </v>
    <v>       0.70237790       0.61387778       0.51195224 </v>
    <v>       0.69841355       0.77410247       0.50342687 </v>
    <v>       0.74455615       0.52435432       0.50391045 </v>
    <v>       0.73939394       0.85897407       0.49094030 </v>
    <v>       0.78437433       0.61024815       0.48690746 </v>
    <v>       0.78291979       0.77763457       0.47880000 </v>
    <v>       0.82827451       0.53118025       0.48155224 </v>
    <v>       0.82526916       0.85580123       0.46633433 </v>
    <v>       0.86995722       0.61143580       0.46528060 </v>
    <v>       0.86960428       0.77889753       0.45816716 </v>
    <v>       0.91407487       0.52687654       0.45829552 </v>
    <v>       0.91187879       0.85872346       0.44824776 </v>
    <v>       0.95603565       0.60739506       0.44835522 </v>
    <v>       0.95678788       0.78347654       0.44582687 </v>
   </varray>
  </structure>
  <varray name="forces" >
   <v>       5.15439552       2.05358657       0.36262484 </v>
   <v>       3.11999836      -1.75569300      -0.24957150 </v>
   <v>      -5.02398272      -3.15977878      -0.93858159 </v>
   <v>      -0.29372976       0.74602617      -0.35133701 </v>
   <v>       2.86620035      -0.98255997       0.30820098 </v>
   <v>       0.23658684       1.61471553       0.35470255 </v>
   <v>       0.69371497      -1.17070181       0.60462723 </v>
   <v>      -0.41234067       1.31694059       0.21657562 </v>
   <v>      -0.64718602       1.85106206       0.11705799 </v>
   <v>       1.97343336      -1.97231893      -0.65079912 </v>
   <v>       0.12144478       0.15140017       0.15597907 </v>
   <v>       0.22257860       1.18104344       0.62367884 </v>
   <v>      -0.53641724      -2.14943126      -0.01716050 </v>
   <v>       1.21601613       1.35692845       0.31398198 </v>
   <v>      -0.77901067       1.71624198       0.29827622 </v>
   <v>       0.98695152      -0.94052720      -0.25725291 </v>
   <v>      -0.97223487      -0.89488817      -0.07859507 </v>
   <v>      -0.26563260       2.29705564       0.32178339 </v>
   <v>       0.73913198       0.07937513      -0.14241721 </v>
   <v>      -1.06206396      -1.01631207      -0.60502833 </v>
   <v>       0.96016326      -1.79133981      -0.58876383 </v>
   <v>       0.83605448       1.32899329       0.92437511 </v>
   <v>      -1.65573285      -0.23554718       1.08257895 </v>
   <v>       0.80053343      -1.44886577      -0.56369090 </v>
   <v>       1.99913938       0.13646916      -1.18977625 </v>
   <v>      -1.90628319       2.44959811      -0.13431369 </v>
   <v>      -2.36297087       1.50334060       1.16253322 </v>
   <v>       0.38530785      -1.18659701       0.45030013 </v>
   <v>       2.31417267      -1.17485969       0.39672456 </v>
   <v>      -1.09717998       3.23780061      -1.36138671 </v>
   <v>      -1.16383744      -1.33697864      -0.65824406 </v>
   <v>       0.81936966      -0.37903140       0.77243486 </v>
   <v>       0.90384564      -0.68972924       0.28772865 </v>
   <v>      -0.95645883       1.29981647       0.02190626 </v>
   <v>      -2.62537598       0.35921574       0.14142662 </v>
   <v>      -0.45514827       1.28418873       0.53176526 </v>
   <v>       0.80750528      -0.78795761       0.79816160 </v>
   <v>       0.12403723      -0.54992890      -0.56874138 </v>
   <v>      -0.14718110       0.58865024      -0.66160206 </v>
   <v>      -0.74319038       1.16713864       0.09549078 </v>
   <v>      -1.08158916       2.20883449       1.37251689 </v>
   <v>       0.76865448       0.12779742      -1.36725435 </v>
   <v>       2.18509549      -1.84412385      -0.84319196 </v>
   <v>       0.45994651      -1.81369711       0.61576552 </v>
   <v>      -4.57287901       0.84280166      -0.01282332 </v>
   <v>      -5.24452414      -0.10588604       0.79397598 </v>
   <v>       2.44377927       1.20517534      -0.15516905 </v>
   <v>       4.02548169      -1.54526892       0.32398798 </v>
   <v>       1.04885178       2.76799804       0.07071023 </v>
   <v>       0.98980201       0.57197732       0.36322022 </v>
   <v>      -1.16498944      -1.45273293       0.34750583 </v>
   <v>      -0.83361439       0.23515035      -0.53184653 </v>
   <v>      -1.37501389      -1.22193719      -0.02486718 </v>
   <v>       0.94091322       0.28766708       0.01384610 </v>
   <v>       0.95717755       0.95207565      -0.43551804 </v>
   <v>      -0.90664158      -0.38173909       0.00156267 </v>
   <v>       0.93085407      -0.91818721       0.60978560 </v>
   <v>      -0.79891889      -1.32017817      -0.98615235 </v>
   <v>       0.49592684      -1.12404489       0.76367950 </v>
   <v>       0.23950177      -0.11886284      -0.36237636 </v>
   <v>      -0.97360920       1.94558601      -1.33019896 </v>
   <v>      -0.38311604      -0.86631646      -0.05273186 </v>
   <v>      -1.52056732       0.64070364       0.79110121 </v>
   <v>       1.12372731       0.84298722      -0.19025693 </v>
   <v>       2.32780577       1.56661699       0.99608887 </v>
   <v>      -1.20287690      -0.41133243      -0.11296781 </v>
   <v>      -0.72830703      -0.48172037      -0.50276592 </v>
   <v>       1.41566680      -0.28599808      -0.36686433 </v>
   <v>      -2.39261526       0.20825540      -0.29524467 </v>
   <v>      -0.84249483       2.30359641       0.00392503 </v>
   <v>       0.72464442       0.17462885       0.50854943 </v>
   <v>       0.47674908      -1.73583655      -0.92964677 </v>
   <v>       1.32115027      -1.35194132       0.21938761 </v>
   <v>       1.33344802      -0.61253258      -0.52824546 </v>
   <v>      -2.66956766      -0.19651527       0.33687637 </v>
   <v>       0.17290058      -1.88885146       0.26237827 </v>
   <v>       0.83633090      -0.20018446      -0.49596034 </v>
   <v>       0.69854973       1.06933634       0.05461104 </v>
   <v>      -0.98288781      -3.81021603       0.66185907 </v>
   <v>      -0.53130571       2.27063488      -0.12977562 </v>
   <v>       0.73238944       1.35694203      -0.42796881 </v>
   <v>       2.33239887      -0.03363430      -1.24779685 </v>
   <v>       0.19646601      -0.86402557       0.45885701 </v>
   <v>      -1.12247558      -0.64396209       0.57861398 </v>
   <v>       1.84911179      -0.89252206      -0.78272418 </v>
   <v>      -0.16608194       1.03065981       0.32301834 </v>
   <v>       0.12484469      -0.81432247       0.11550396 </v>
   <v>      -1.26397755      -1.50840985      -0.05251258 </v>
   <v>       0.01539599       1.07048192       0.36980487 </v>
   <v>       1.60861555       1.39015030       0.31314391 </v>
   <v>      -2.30563978       1.83212557       0.24496364 </v>
   <v>      -3.88711070      -2.55374397      -0.67603153 </v>
  </varray>
  <varray name="stress" >
   <v>      -2.79131754      -0.33826768      -0.43349629 </v>
   <v>      -0.33826768      52.79698710       1.01663326 </v>
   <v>      -0.43349628       1.01663326      -0.79076608 </v>
  </varray>
  <energy>
   <i name="e_fr_energy">   -829.04117694 </i>
   <i name="e_wo_entrp">   -828.93322791 </i>
   <i name="e_0_energy">   -828.98720243 </i>
  </energy>
  <time name="totalsc">  331.67  331.87</time>
  <eigenvalues>
   <array>
    <dimension dim="1">band</dimension>
    <dimension dim="2">kpoint</dimension>
    <dimension dim="3">spin</dimension>
    <field>eigene</field>
    <field>occ</field>
    <set>
     <set comment="spin 1">
      <set comment="kpoint 1">
       <r>  -23.3114    1.0000 </r>
       <r>  -23.0620    1.0000 </r>
       <r>  -22.9676    1.0000 </r>
       <r>  -22.7063    1.0000 </r>
       <r>  -22.6107    1.0000 </r>
       <r>  -22.4497    1.0000 </r>
       <r>  -22.0623    1.0000 </r>
       <r>  -21.9810    1.0000 </r>
       <r>  -21.4846    1.0000 </r>
       <r>  -21.4313    1.0000 </r>
       <r>  -21.3985    1.0000 </r>
       <r>  -21.3227    1.0000 </r>
       <r>  -21.2405    1.0000 </r>
       <r>  -21.2055    1.0000 </r>
       <r>  -21.1776    1.0000 </r>
       <r>  -21.0463    1.0000 </r>
       <r>  -20.9846    1.0000 </r>
       <r>  -20.9546    1.0000 </r>
       <r>  -20.7244    1.0000 </r>
       <r>  -20.5865    1.0000 </r>
       <r>  -20.3837    1.0000 </r>
       <r>  -20.3466    1.0000 </r>
       <r>  -20.1921    1.0000 </r>
       <r>  -20.0724    1.0000 </r>
       <r>  -19.9567    1.0000 </r>
       <r>  -19.7494    1.0000 </r>
       <r>  -19.5038    1.0000 </r>
       <r>  -19.4599    1.0000 </r>
       <r>  -19.1731    1.0000 </r>
       <r>  -18.9382    1.0000 </r>
       <r>  -18.7443    1.0000 </r>
       <r>  -18.6489    1.0000 </r>
       <r>  -18.5052    1.0000 </r>
       <r>  -18.4386    1.0000 </r>
       <r>  -18.1738    1.0000 </r>
       <r>  -17.6551    1.0000 </r>
       <r>  -17.2982    1.0000 </r>
       <r>  -17.2492    1.0000 </r>
       <r>  -16.9994    1.0000 </r>
       <r>  -16.8715    1.0000 </r>
       <r>  -16.8250    1.0000 </r>
       <r>  -16.7239    1.0000 </r>
       <r>  -16.6737    1.0000 </r>
       <r>  -16.6161    1.0000 </r>
       <r>  -16.5933    1.0000 </r>
       <r>  -16.5055    1.0000 </r>
       <r>  -16.4991    1.0000 </r>
       <r>  -16.4429    1.0000 </r>
       <r>  -16.4039    1.0000 </r>
       <r>  -16.3755    1.0000 </r>
       <r>  -16.2530    1.0000 </r>
       <r>  -16.2182    1.0000 </r>
       <r>  -16.0975    1.0000 </r>
       <r>  -16.0228    1.0000 </r>
       <r>  -15.8948    1.0000 </r>
       <r>  -15.6602    1.0000 </r>
       <r>  -15.4415    1.0000 </r>
       <r>  -15.2811    1.0000 </r>
       <r>  -15.2439    1.0000 </r>
       <r>  -15.1411    1.0000 </r>
       <r>  -15.1207    1.0000 </r>
       <r>  -15.0194    1.0000 </r>
       <r>  -14.3296    1.0000 </r>
       <r>  -14.2020    1.0000 </r>
       <r>  -14.1153    1.0000 </r>
       <r>  -14.0715    1.0000 </r>
       <r>  -13.9094    1.0000 </r>
       <r>  -13.8368    1.0000 </r>
       <r>  -13.7307    1.0000 </r>
       <r>  -13.6239    1.0000 </r>
       <r>  -13.5045    1.0000 </r>
       <r>  -13.4239    1.0000 </r>
       <r>  -13.2454    1.0000 </r>
       <r>  -13.1516    1.0000 </r>
       <r>  -13.1017    1.0000 </r>
       <r>  -12.9764    1.0000 </r>
       <r>  -12.6842    1.0000 </r>
       <r>  -12.4886    1.0000 </r>
       <r>  -12.1858    1.0000 </r>
       <r>  -12.1198    1.0000 </r>
       <r>  -12.0673    1.0000 </r>
       <r>  -11.9854    1.0000 </r>
       <r>  -11.9106    1.0000 </r>
       <r>  -11.8490    1.0000 </r>
       <r>  -11.8084    1.0000 </r>
       <r>  -11.5961    1.0000 </r>
       <r>  -11.4028    1.0000 </r>
       <r>  -11.1981    1.0000 </r>
       <r>  -11.0879    1.0000 </r>
       <r>  -11.0680    1.0000 </r>
       <r>  -10.9994    1.0000 </r>
       <r>  -10.8993    1.0000 </r>
       <r>  -10.8490    1.0000 </r>
       <r>  -10.7431    1.0000 </r>
       <r>  -10.6922    1.0000 </r>
       <r>  -10.6557    1.0000 </r>
       <r>  -10.5974    1.0000 </r>
       <r>  -10.5317    1.0000 </r>
       <r>  -10.4881    1.0000 </r>
       <r>  -10.4737    1.0000 </r>
       <r>  -10.4313    1.0000 </r>
       <r>  -10.3678    1.0000 </r>
       <r>  -10.2076    1.0000 </r>
       <r>  -10.1371    1.0000 </r>
       <r>  -10.0555    1.0000 </r>
       <r>  -10.0177    1.0000 </r>
       <r>   -9.8858    1.0000 </r>
       <r>   -9.8636    1.0000 </r>
       <r>   -9.8058    1.0000 </r>
       <r>   -9.7016    1.0000 </r>
       <r>   -9.6641    1.0000 </r>
       <r>   -9.6368    1.0000 </r>
       <r>   -9.6033    1.0000 </r>
       <r>   -9.5949    1.0000 </r>
       <r>   -9.5398    1.0000 </r>
       <r>   -9.5192    1.0000 </r>
       <r>   -9.4545    1.0000 </r>
       <r>   -9.4406    1.0000 </r>
       <r>   -9.4175    1.0000 </r>
       <r>   -9.3970    1.0000 </r>
       <r>   -9.3806    1.0000 </r>
       <r>   -9.3568    1.0000 </r>
       <r>   -9.3458    1.0000 </r>
       <r>   -9.2784    1.0000 </r>
       <r>   -9.2505    1.0000 </r>
       <r>   -9.2208    1.0000 </r>
       <r>   -9.1563    1.0000 </r>
       <r>   -9.1127    1.0000 </r>
       <r>   -9.1011    1.0000 </r>
       <r>   -9.0828    1.0000 </r>
       <r>   -9.0634    1.0000 </r>
       <r>   -9.0186    1.0000 </r>
       <r>   -9.0149    1.0000 </r>
       <r>   -8.9798    1.0000 </r>
       <r>   -8.9386    1.0000 </r>
       <r>   -8.9093    1.0000 </r>
       <r>   -8.8700    1.0000 </r>
       <r>   -8.8052    1.0000 </r>
       <r>   -8.7621    1.0000 </r>
       <r>   -8.6784    1.0000 </r>
       <r>   -8.6579    1.0000 </r>
       <r>   -8.5962    1.0000 </r>
       <r>   -8.5734    1.0000 </r>
       <r>   -8.5598    1.0000 </r>
       <r>   -8.5045    1.0000 </r>
       <r>   -8.3700    1.0000 </r>
       <r>   -8.0927    1.0000 </r>
       <r>   -7.9615    1.0000 </r>
       <r>   -7.8937    1.0000 </r>
       <r>   -7.7850    1.0000 </r>
       <r>   -7.6980    1.0000 </r>
       <r>   -7.6516    1.0000 </r>
       <r>   -7.5898    1.0000 </r>
       <r>   -7.4799    1.0000 </r>
       <r>   -7.4081    1.0000 </r>
       <r>   -7.3856    1.0000 </r>
       <r>   -7.2237    1.0000 </r>
       <r>   -7.0633    1.0000 </r>
       <r>   -7.0176    1.0000 </r>
       <r>   -6.9107    1.0000 </r>
       <r>   -6.8006    1.0000 </r>
       <r>   -6.7678    1.0000 </r>
       <r>   -6.6709    1.0000 </r>
       <r>   -6.5285    1.0000 </r>
       <r>   -6.3949    1.0000 </r>
       <r>   -6.3003    1.0000 </r>
       <r>   -6.1866    1.0000 </r>
       <r>   -6.0970    1.0000 </r>
       <r>   -6.0252    1.0000 </r>
       <r>   -5.9909    1.0000 </r>
       <r>   -5.9805    1.0000 </r>
       <r>   -5.8900    1.0000 </r>
       <r>   -5.6338    1.0000 </r>
       <r>   -5.0583    1.0000 </r>
       <r>   -4.9094    1.0000 </r>
       <r>   -4.8708    1.0000 </r>
       <r>   -4.5487    1.0000 </r>
       <r>   -4.4802    1.0000 </r>
       <r>   -4.4485    1.0000 </r>
       <r>   -4.4286    1.0000 </r>
       <r>   -4.3318    1.0000 </r>
       <r>   -3.7497    1.0000 </r>
       <r>   -3.6670    0.9997 </r>
       <r>   -3.1753    0.4910 </r>
       <r>   -3.1164    0.3303 </r>
       <r>   -2.7969    0.0035 </r>
       <r>   -2.7166    0.0005 </r>
       <r>   -2.6032    0.0000 </r>
       <r>   -2.2808    0.0000 </r>
       <r>   -2.0781    0.0000 </r>
       <r>   -1.7290    0.0000 </r>
       <r>   -1.6534    0.0000 </r>
       <r>   -1.5374    0.0000 </r>
       <r>   -1.4798    0.0000 </r>
       <r>   -1.4570    0.0000 </r>
       <r>   -1.3396    0.0000 </r>
       <r>   -1.2952    0.0000 </r>
       <r>   -0.9158    0.0000 </r>
       <r>   -0.7882    0.0000 </r>
       <r>   -0.6922    0.0000 </r>
       <r>   -0.5294    0.0000 </r>
       <r>   -0.4329    0.0000 </r>
       <r>   -0.0360    0.0000 </r>
       <r>    0.0977    0.0000 </r>
       <r>    0.1202    0.0000 </r>
       <r>    0.1815    0.0000 </r>
       <r>    0.2232    0.0000 </r>
       <r>    0.6232    0.0000 </r>
       <r>    0.6291    0.0000 </r>
       <r>    0.6921    0.0000 </r>
       <r>    0.7043    0.0000 </r>
       <r>    0.8187    0.0000 </r>
       <r>    0.9025    0.0000 </r>
       <r>    0.9232    0.0000 </r>
       <r>    0.9468    0.0000 </r>
       <r>    0.9881    0.0000 </r>
       <r>    1.1168    0.0000 </r>
       <r>    1.1505    0.0000 </r>
       <r>    1.1606    0.0000 </r>
       <r>    1.2233    0.0000 </r>
       <r>    1.3012    0.0000 </r>
       <r>    1.3162    0.0000 </r>
       <r>    1.3285    0.0000 </r>
       <r>    1.4090    0.0000 </r>
       <r>    1.4626    0.0000 </r>
       <r>    1.5535    0.0000 </r>
       <r>    1.5789    0.0000 </r>
       <r>    1.7205    0.0000 </r>
       <r>    1.7316    0.0000 </r>
       <r>    1.7336    0.0000 </r>
       <r>    1.7446    0.0000 </r>
       <r>    1.9225    0.0000 </r>
      </set>
      <set comment="kpoint 2">
       <r>  -23.2504    1.0000 </r>
       <r>  -22.9664    1.0000 </r>
       <r>  -22.8680    1.0000 </r>
       <r>  -22.6590    1.0000 </r>
       <r>  -22.5486    1.0000 </r>
       <r>  -22.4956    1.0000 </r>
       <r>  -22.1418    1.0000 </r>
       <r>  -22.0581    1.0000 </r>
       <r>  -21.9920    1.0000 </r>
       <r>  -21.8744    1.0000 </r>
       <r>  -21.8052    1.0000 </r>
       <r>  -21.6727    1.0000 </r>
       <r>  -21.2817    1.0000 </r>
       <r>  -21.1431    1.0000 </r>
       <r>  -21.0646    1.0000 </r>
       <r>  -20.9437    1.0000 </r>
       <r>  -20.5803    1.0000 </r>
       <r>  -20.5154    1.0000 </r>
       <r>  -20.4619    1.0000 </r>
       <r>  -20.3189    1.0000 </r>
       <r>  -20.1826    1.0000 </r>
       <r>  -20.1141    1.0000 </r>
       <r>  -20.0495    1.0000 </r>
       <r>  -19.9172    1.0000 </r>
       <r>  -19.8464    1.0000 </r>
       <r>  -19.5168    1.0000 </r>
       <r>  -19.4839    1.0000 </r>
       <r>  -19.1029    1.0000 </r>
       <r>  -19.0645    1.0000 </r>
       <r>  -18.8901    1.0000 </r>
       <r>  -18.6549    1.0000 </r>
       <r>  -18.5851    1.0000 </r>
       <r>  -18.5254    1.0000 </r>
       <r>  -18.2470    1.0000 </r>
       <r>  -18.1379    1.0000 </r>
       <r>  -18.0946    1.0000 </r>
       <r>  -18.0575    1.0000 </r>
       <r>  -18.0128    1.0000 </r>
       <r>  -17.8043    1.0000 </r>
       <r>  -17.7205    1.0000 </r>
       <r>  -17.4755    1.0000 </r>
       <r>  -17.3241    1.0000 </r>
       <r>  -17.2890    1.0000 </r>
       <r>  -17.1856    1.0000 </r>
       <r>  -17.0527    1.0000 </r>
       <r>  -16.6267    1.0000 </r>
       <r>  -16.3145    1.0000 </r>
       <r>  -16.2161    1.0000 </r>
       <r>  -16.0483    1.0000 </r>
       <r>  -15.8603    1.0000 </r>
       <r>  -15.8449    1.0000 </r>
       <r>  -15.7383    1.0000 </r>
       <r>  -15.5866    1.0000 </r>
       <r>  -15.3202    1.0000 </r>
       <r>  -15.2763    1.0000 </r>
       <r>  -15.2074    1.0000 </r>
       <r>  -15.1294    1.0000 </r>
       <r>  -15.0879    1.0000 </r>
       <r>  -14.9961    1.0000 </r>
       <r>  -14.9603    1.0000 </r>
       <r>  -14.9258    1.0000 </r>
       <r>  -14.7471    1.0000 </r>
       <r>  -14.5564    1.0000 </r>
       <r>  -14.3917    1.0000 </r>
       <r>  -14.2837    1.0000 </r>
       <r>  -14.1975    1.0000 </r>
       <r>  -13.9412    1.0000 </r>
       <r>  -13.8940    1.0000 </r>
       <r>  -13.3592    1.0000 </r>
       <r>  -13.2583    1.0000 </r>
       <r>  -13.2001    1.0000 </r>
       <r>  -13.1363    1.0000 </r>
       <r>  -12.9616    1.0000 </r>
       <r>  -12.8530    1.0000 </r>
       <r>  -12.8072    1.0000 </r>
       <r>  -12.7672    1.0000 </r>
       <r>  -12.7006    1.0000 </r>
       <r>  -12.5498    1.0000 </r>
       <r>  -12.4622    1.0000 </r>
       <r>  -12.2830    1.0000 </r>
       <r>  -12.1954    1.0000 </r>
       <r>  -12.0971    1.0000 </r>
       <r>  -12.0080    1.0000 </r>
       <r>  -11.9434    1.0000 </r>
       <r>  -11.6329    1.0000 </r>
       <r>  -11.6198    1.0000 </r>
       <r>  -11.5301    1.0000 </r>
       <r>  -11.3950    1.0000 </r>
       <r>  -11.2631    1.0000 </r>
       <r>  -11.1722    1.0000 </r>
       <r>  -11.1080    1.0000 </r>
       <r>  -11.0479    1.0000 </r>
       <r>  -11.0183    1.0000 </r>
       <r>  -10.9701    1.0000 </r>
       <r>  -10.9401    1.0000 </r>
       <r>  -10.8874    1.0000 </r>
       <r>  -10.8535    1.0000 </r>
       <r>  -10.8029    1.0000 </r>
       <r>  -10.7263    1.0000 </r>
       <r>  -10.6293    1.0000 </r>
       <r>  -10.5719    1.0000 </r>
       <r>  -10.5249    1.0000 </r>
       <r>  -10.4831    1.0000 </r>
       <r>  -10.4259    1.0000 </r>
       <r>  -10.3895    1.0000 </r>
       <r>  -10.3526    1.0000 </r>
       <r>  -10.2254    1.0000 </r>
       <r>  -10.0966    1.0000 </r>
       <r>  -10.0434    1.0000 </r>
       <r>  -10.0150    1.0000 </r>
       <r>   -9.9656    1.0000 </r>
       <r>   -9.9214    1.0000 </r>
       <r>   -9.8770    1.0000 </r>
       <r>   -9.8430    1.0000 </r>
       <r>   -9.7720    1.0000 </r>
       <r>   -9.7352    1.0000 </r>
       <r>   -9.6784    1.0000 </r>
       <r>   -9.6389    1.0000 </r>
       <r>   -9.6101    1.0000 </r>
       <r>   -9.5699    1.0000 </r>
       <r>   -9.5119    1.0000 </r>
       <r>   -9.4751    1.0000 </r>
       <r>   -9.4317    1.0000 </r>
       <r>   -9.3645    1.0000 </r>
       <r>   -9.2929    1.0000 </r>
       <r>   -9.2191    1.0000 </r>
       <r>   -8.9802    1.0000 </r>
       <r>   -8.9078    1.0000 </r>
       <r>   -8.8455    1.0000 </r>
       <r>   -8.8292    1.0000 </r>
       <r>   -8.7563    1.0000 </r>
       <r>   -8.7140    1.0000 </r>
       <r>   -8.6783    1.0000 </r>
       <r>   -8.6113    1.0000 </r>
       <r>   -8.5933    1.0000 </r>
       <r>   -8.5528    1.0000 </r>
       <r>   -8.5106    1.0000 </r>
       <r>   -8.4430    1.0000 </r>
       <r>   -8.3716    1.0000 </r>
       <r>   -8.3089    1.0000 </r>
       <r>   -8.2660    1.0000 </r>
       <r>   -8.1777    1.0000 </r>
       <r>   -8.1436    1.0000 </r>
       <r>   -8.1082    1.0000 </r>
       <r>   -8.0139    1.0000 </r>
       <r>   -7.9974    1.0000 </r>
       <r>   -7.9230    1.0000 </r>
       <r>   -7.8558    1.0000 </r>
       <r>   -7.7821    1.0000 </r>
       <r>   -7.7160    1.0000 </r>
       <r>   -7.6142    1.0000 </r>
       <r>   -7.5285    1.0000 </r>
       <r>   -7.4660    1.0000 </r>
       <r>   -7.3712    1.0000 </r>
       <r>   -7.3377    1.0000 </r>
       <r>   -7.3000    1.0000 </r>
       <r>   -7.0955    1.0000 </r>
       <r>   -6.9932    1.0000 </r>
       <r>   -6.9274    1.0000 </r>
       <r>   -6.8600    1.0000 </r>
       <r>   -6.8475    1.0000 </r>
       <r>   -6.6249    1.0000 </r>
       <r>   -6.5791    1.0000 </r>
       <r>   -6.5396    1.0000 </r>
       <r>   -6.4956    1.0000 </r>
       <r>   -6.2855    1.0000 </r>
       <r>   -6.1709    1.0000 </r>
       <r>   -6.1047    1.0000 </r>
       <r>   -6.0383    1.0000 </r>
       <r>   -5.9580    1.0000 </r>
       <r>   -5.8351    1.0000 </r>
       <r>   -5.8079    1.0000 </r>
       <r>   -5.7720    1.0000 </r>
       <r>   -5.6359    1.0000 </r>
       <r>   -5.5269    1.0000 </r>
       <r>   -5.4911    1.0000 </r>
       <r>   -5.1645    1.0000 </r>
       <r>   -5.1209    1.0000 </r>
       <r>   -4.7456    1.0000 </r>
       <r>   -4.6699    1.0000 </r>
       <r>   -4.5246    1.0000 </r>
       <r>   -4.4711    1.0000 </r>
       <r>   -4.2430    1.0000 </r>
       <r>   -3.3956    0.9376 </r>
       <r>   -3.0224    0.1349 </r>
       <r>   -2.7510    0.0013 </r>
       <r>   -2.1127    0.0000 </r>
       <r>   -2.0516    0.0000 </r>
       <r>   -1.5840    0.0000 </r>
       <r>   -1.5151    0.0000 </r>
       <r>   -1.4529    0.0000 </r>
       <r>   -1.3896    0.0000 </r>
       <r>   -1.3288    0.0000 </r>
       <r>   -1.2440    0.0000 </r>
       <r>   -1.0977    0.0000 </r>
       <r>   -1.0378    0.0000 </r>
       <r>   -0.9696    0.0000 </r>
       <r>   -0.9158    0.0000 </r>
       <r>   -0.7952    0.0000 </r>
       <r>   -0.3729    0.0000 </r>
       <r>   -0.2066    0.0000 </r>
       <r>   -0.1678    0.0000 </r>
       <r>   -0.0441    0.0000 </r>
       <r>    0.0247    0.0000 </r>
       <r>    0.0952    0.0000 </r>
       <r>    0.2292    0.0000 </r>
       <r>    0.2539    0.0000 </r>
       <r>    0.2989    0.0000 </r>
       <r>    0.3337    0.0000 </r>
       <r>    0.7863    0.0000 </r>
       <r>    0.7976    0.0000 </r>
       <r>    0.8465    0.0000 </r>
       <r>    1.0473    0.0000 </r>
       <r>    1.0523    0.0000 </r>
       <r>    1.0719    0.0000 </r>
       <r>    1.0960    0.0000 </r>
       <r>    1.1307    0.0000 </r>
       <r>    1.2884    0.0000 </r>
       <r>    1.2926    0.0000 </r>
       <r>    1.3058    0.0000 </r>
       <r>    1.3646    0.0000 </r>
       <r>    1.3710    0.0000 </r>
       <r>    1.4070    0.0000 </r>
       <r>    1.4343    0.0000 </r>
       <r>    1.4484    0.0000 </r>
       <r>    1.4711    0.0000 </r>
       <r>    1.5517    0.0000 </r>
       <r>    1.5985    0.0000 </r>
       <r>    1.6093    0.0000 </r>
       <r>    1.6540    0.0000 </r>
       <r>    1.6914    0.0000 </r>
       <r>    1.7212    0.0000 </r>
      </set>
      <set comment="kpoint 3">
       <r>  -23.1615    1.0000 </r>
       <r>  -22.7831    1.0000 </r>
       <r>  -22.7211    1.0000 </r>
       <r>  -22.6054    1.0000 </r>
       <r>  -22.5786    1.0000 </r>
       <r>  -22.5199    1.0000 </r>
       <r>  -22.3340    1.0000 </r>
       <r>  -22.2919    1.0000 </r>
       <r>  -22.2340    1.0000 </r>
       <r>  -22.1082    1.0000 </r>
       <r>  -21.7533    1.0000 </r>
       <r>  -21.6692    1.0000 </r>
       <r>  -21.6038    1.0000 </r>
       <r>  -21.4807    1.0000 </r>
       <r>  -20.9640    1.0000 </r>
       <r>  -20.8251    1.0000 </r>
       <r>  -20.6990    1.0000 </r>
       <r>  -20.6285    1.0000 </r>
       <r>  -19.9538    1.0000 </r>
       <r>  -19.8857    1.0000 </r>
       <r>  -19.6188    1.0000 </r>
       <r>  -19.5790    1.0000 </r>
       <r>  -19.5008    1.0000 </r>
       <r>  -19.4662    1.0000 </r>
       <r>  -19.3914    1.0000 </r>
       <r>  -19.3834    1.0000 </r>
       <r>  -19.2979    1.0000 </r>
       <r>  -19.2264    1.0000 </r>
       <r>  -19.0562    1.0000 </r>
       <r>  -19.0175    1.0000 </r>
       <r>  -18.9391    1.0000 </r>
       <r>  -18.8949    1.0000 </r>
       <r>  -18.6396    1.0000 </r>
       <r>  -18.5611    1.0000 </r>
       <r>  -18.4684    1.0000 </r>
       <r>  -18.4219    1.0000 </r>
       <r>  -18.3356    1.0000 </r>
       <r>  -18.2257    1.0000 </r>
       <r>  -18.1526    1.0000 </r>
       <r>  -18.1061    1.0000 </r>
       <r>  -17.7416    1.0000 </r>
       <r>  -17.7103    1.0000 </r>
       <r>  -17.6837    1.0000 </r>
       <r>  -17.6463    1.0000 </r>
       <r>  -16.8464    1.0000 </r>
       <r>  -16.8066    1.0000 </r>
       <r>  -16.3266    1.0000 </r>
       <r>  -16.2206    1.0000 </r>
       <r>  -16.0834    1.0000 </r>
       <r>  -16.0089    1.0000 </r>
       <r>  -15.9771    1.0000 </r>
       <r>  -15.9209    1.0000 </r>
       <r>  -15.3160    1.0000 </r>
       <r>  -15.2521    1.0000 </r>
       <r>  -15.0447    1.0000 </r>
       <r>  -15.0272    1.0000 </r>
       <r>  -14.9690    1.0000 </r>
       <r>  -14.8116    1.0000 </r>
       <r>  -14.8007    1.0000 </r>
       <r>  -14.7407    1.0000 </r>
       <r>  -14.0400    1.0000 </r>
       <r>  -13.9452    1.0000 </r>
       <r>  -13.7889    1.0000 </r>
       <r>  -13.7543    1.0000 </r>
       <r>  -13.7198    1.0000 </r>
       <r>  -13.6402    1.0000 </r>
       <r>  -13.6266    1.0000 </r>
       <r>  -13.6155    1.0000 </r>
       <r>  -13.5421    1.0000 </r>
       <r>  -13.5218    1.0000 </r>
       <r>  -13.4987    1.0000 </r>
       <r>  -13.4711    1.0000 </r>
       <r>  -13.4450    1.0000 </r>
       <r>  -13.4328    1.0000 </r>
       <r>  -13.0586    1.0000 </r>
       <r>  -12.9678    1.0000 </r>
       <r>  -12.3555    1.0000 </r>
       <r>  -12.3091    1.0000 </r>
       <r>  -12.1929    1.0000 </r>
       <r>  -12.1626    1.0000 </r>
       <r>  -12.0682    1.0000 </r>
       <r>  -12.0489    1.0000 </r>
       <r>  -11.9899    1.0000 </r>
       <r>  -11.9378    1.0000 </r>
       <r>  -11.8938    1.0000 </r>
       <r>  -11.8691    1.0000 </r>
       <r>  -11.7911    1.0000 </r>
       <r>  -11.7275    1.0000 </r>
       <r>  -11.7150    1.0000 </r>
       <r>  -11.5717    1.0000 </r>
       <r>  -11.3317    1.0000 </r>
       <r>  -11.2860    1.0000 </r>
       <r>  -11.2037    1.0000 </r>
       <r>  -11.1248    1.0000 </r>
       <r>  -11.0611    1.0000 </r>
       <r>  -10.9146    1.0000 </r>
       <r>  -10.8202    1.0000 </r>
       <r>  -10.7562    1.0000 </r>
       <r>  -10.6849    1.0000 </r>
       <r>  -10.6683    1.0000 </r>
       <r>  -10.5757    1.0000 </r>
       <r>  -10.5253    1.0000 </r>
       <r>  -10.5139    1.0000 </r>
       <r>  -10.4921    1.0000 </r>
       <r>  -10.4587    1.0000 </r>
       <r>  -10.4382    1.0000 </r>
       <r>  -10.3724    1.0000 </r>
       <r>  -10.3447    1.0000 </r>
       <r>  -10.3162    1.0000 </r>
       <r>  -10.2676    1.0000 </r>
       <r>  -10.2366    1.0000 </r>
       <r>  -10.1879    1.0000 </r>
       <r>  -10.1300    1.0000 </r>
       <r>  -10.0824    1.0000 </r>
       <r>  -10.0467    1.0000 </r>
[...]
       <r>   -22.7778    12.5270     5.6251 </r>
       <r>   -22.6804    14.9209     7.0790 </r>
       <r>   -22.5829    16.9630     8.7320 </r>
       <r>   -22.4855    16.5659    10.3463 </r>
       <r>   -22.3880    13.7968    11.6908 </r>
       <r>   -22.2906    11.4365    12.8052 </r>
       <r>   -22.1931    11.6196    13.9375 </r>
       <r>   -22.0957    13.5851    15.2613 </r>
       <r>   -21.9982    14.9830    16.7213 </r>
       <r>   -21.9008    14.7046    18.1542 </r>
       <r>   -21.8034    13.6415    19.4836 </r>
       <r>   -21.7059    12.6488    20.7161 </r>
       <r>   -21.6085    11.6969    21.8560 </r>
       <r>   -21.5110    11.0634    22.9341 </r>
       <r>   -21.4136    11.4169    24.0466 </r>
       <r>   -21.3161    12.8136    25.2952 </r>
       <r>   -21.2187    14.6137    26.7193 </r>
       <r>   -21.1212    16.0007    28.2785 </r>
       <r>   -21.0238    16.2431    29.8613 </r>
       <r>   -20.9263    14.8265    31.3061 </r>
       <r>   -20.8289    12.4012    32.5146 </r>
       <r>   -20.7314    11.0872    33.5950 </r>
       <r>   -20.6340    12.0424    34.7685 </r>
       <r>   -20.5366    13.8347    36.1166 </r>
       <r>   -20.4391    14.5336    37.5329 </r>
       <r>   -20.3417    14.1097    38.9078 </r>
       <r>   -20.2442    13.9181    40.2641 </r>
       <r>   -20.1468    14.7133    41.6978 </r>
       <r>   -20.0493    15.8193    43.2394 </r>
       <r>   -19.9519    15.9968    44.7982 </r>
       <r>   -19.8544    14.5439    46.2155 </r>
       <r>   -19.7570    12.2354    47.4078 </r>
       <r>   -19.6595    11.5807    48.5363 </r>
       <r>   -19.5621    13.9118    49.8919 </r>
       <r>   -19.4646    16.5306    51.5028 </r>
       <r>   -19.3672    16.0959    53.0712 </r>
       <r>   -19.2697    13.7074    54.4070 </r>
       <r>   -19.1723    12.8278    55.6570 </r>
       <r>   -19.0749    14.0316    57.0243 </r>
       <r>   -18.9774    14.9986    58.4859 </r>
       <r>   -18.8800    14.3016    59.8795 </r>
       <r>   -18.7825    13.3111    61.1767 </r>
       <r>   -18.6851    14.2362    62.5639 </r>
       <r>   -18.5876    16.5893    64.1805 </r>
       <r>   -18.4902    17.5099    65.8868 </r>
       <r>   -18.3927    16.2324    67.4685 </r>
       <r>   -18.2953    15.4058    68.9698 </r>
       <r>   -18.1978    16.8754    70.6142 </r>
       <r>   -18.1004    18.4356    72.4107 </r>
       <r>   -18.0029    17.0070    74.0680 </r>
       <r>   -17.9055    13.7561    75.4085 </r>
       <r>   -17.8081    12.3968    76.6165 </r>
       <r>   -17.7106    13.0604    77.8892 </r>
       <r>   -17.6132    12.7021    79.1270 </r>
       <r>   -17.5157    10.9413    80.1931 </r>
       <r>   -17.4183    10.3596    81.2027 </r>
       <r>   -17.3208    11.6940    82.3422 </r>
       <r>   -17.2234    12.7249    83.5822 </r>
       <r>   -17.1259    11.8916    84.7410 </r>
       <r>   -17.0285    10.3117    85.7458 </r>
       <r>   -16.9310     9.6872    86.6898 </r>
       <r>   -16.8336    10.3968    87.7029 </r>
       <r>   -16.7361    11.8037    88.8532 </r>
       <r>   -16.6387    13.1465    90.1342 </r>
       <r>   -16.5412    14.0215    91.5006 </r>
       <r>   -16.4438    14.7436    92.9373 </r>
       <r>   -16.3464    15.8857    94.4853 </r>
       <r>   -16.2489    17.0836    96.1500 </r>
       <r>   -16.1515    17.6425    97.8692 </r>
       <r>   -16.0540    17.7877    99.6026 </r>
       <r>   -15.9566    17.7391   101.3312 </r>
       <r>   -15.8591    16.8324   102.9715 </r>
       <r>   -15.7617    14.6059   104.3947 </r>
       <r>   -15.6642    11.7329   105.5381 </r>
       <r>   -15.5668     9.5299   106.4667 </r>
       <r>   -15.4693     9.4460   107.3872 </r>
       <r>   -15.3719    12.6227   108.6172 </r>
       <r>   -15.2744    18.1558   110.3865 </r>
       <r>   -15.1770    23.1235   112.6398 </r>
       <r>   -15.0796    25.4807   115.1228 </r>
       <r>   -14.9821    24.7465   117.5342 </r>
       <r>   -14.8847    21.1905   119.5992 </r>
       <r>   -14.7872    16.3101   121.1885 </r>
       <r>   -14.6898    11.9031   122.3484 </r>
       <r>   -14.5923     8.9118   123.2169 </r>
       <r>   -14.4949     7.8901   123.9857 </r>
       <r>   -14.3974     8.8762   124.8507 </r>
       <r>   -14.3000    10.8790   125.9108 </r>
       <r>   -14.2025    12.4725   127.1262 </r>
       <r>   -14.1051    13.2876   128.4210 </r>
       <r>   -14.0076    14.2244   129.8072 </r>
       <r>   -13.9102    15.5977   131.3271 </r>
       <r>   -13.8127    16.5780   132.9426 </r>
       <r>   -13.7153    17.0599   134.6050 </r>
       <r>   -13.6179    17.8395   136.3434 </r>
       <r>   -13.5204    18.8169   138.1770 </r>
       <r>   -13.4230    19.0063   140.0291 </r>
       <r>   -13.3255    18.3405   141.8163 </r>
       <r>   -13.2281    17.8063   143.5515 </r>
       <r>   -13.1306    17.5285   145.2596 </r>
       <r>   -13.0332    16.9417   146.9105 </r>
       <r>   -12.9357    16.3676   148.5055 </r>
       <r>   -12.8383    16.1898   150.0831 </r>
       <r>   -12.7408    15.6872   151.6118 </r>
       <r>   -12.6434    14.2633   153.0017 </r>
       <r>   -12.5459    12.7739   154.2464 </r>
       <r>   -12.4485    12.4035   155.4551 </r>
       <r>   -12.3511    13.6749   156.7877 </r>
       <r>   -12.2536    16.8065   158.4254 </r>
       <r>   -12.1562    21.1055   160.4821 </r>
       <r>   -12.0587    24.6743   162.8865 </r>
       <r>   -11.9613    25.6705   165.3880 </r>
       <r>   -11.8638    23.7400   167.7014 </r>
       <r>   -11.7664    20.6175   169.7105 </r>
       <r>   -11.6689    18.4765   171.5109 </r>
       <r>   -11.5715    17.3572   173.2023 </r>
       <r>   -11.4740    16.2657   174.7874 </r>
       <r>   -11.3766    15.9769   176.3443 </r>
       <r>   -11.2791    18.0122   178.0995 </r>
       <r>   -11.1817    22.3705   180.2794 </r>
       <r>   -11.0842    27.5042   182.9596 </r>
       <r>   -10.9868    31.3754   186.0170 </r>
       <r>   -10.8894    32.9028   189.2233 </r>
       <r>   -10.7919    32.8896   192.4283 </r>
       <r>   -10.6945    33.4594   195.6887 </r>
       <r>   -10.5970    36.0892   199.2055 </r>
       <r>   -10.4996    39.3261   203.0377 </r>
       <r>   -10.4021    39.5916   206.8958 </r>
       <r>   -10.3047    35.9407   210.3980 </r>
       <r>   -10.2072    32.1569   213.5316 </r>
       <r>   -10.1098    32.0269   216.6525 </r>
       <r>   -10.0123    34.5970   220.0239 </r>
       <r>    -9.9149    36.2561   223.5569 </r>
       <r>    -9.8174    35.9704   227.0621 </r>
       <r>    -9.7200    35.8348   230.5541 </r>
       <r>    -9.6226    37.1974   234.1788 </r>
       <r>    -9.5251    39.1613   237.9950 </r>
       <r>    -9.4277    40.3372   241.9257 </r>
       <r>    -9.3302    39.3594   245.7611 </r>
       <r>    -9.2328    35.8194   249.2516 </r>
       <r>    -9.1353    32.1654   252.3860 </r>
       <r>    -9.0379    31.4418   255.4499 </r>
       <r>    -8.9404    33.3881   258.7034 </r>
       <r>    -8.8430    35.4189   262.1549 </r>
       <r>    -8.7455    36.2734   265.6896 </r>
       <r>    -8.6481    36.2610   269.2231 </r>
       <r>    -8.5506    35.2148   272.6546 </r>
       <r>    -8.4532    32.9880   275.8692 </r>
       <r>    -8.3557    30.7976   278.8703 </r>
       <r>    -8.2583    29.6260   281.7573 </r>
       <r>    -8.1609    28.9055   284.5740 </r>
       <r>    -8.0634    27.7568   287.2788 </r>
       <r>    -7.9660    26.1897   289.8309 </r>
       <r>    -7.8685    25.1218   292.2789 </r>
       <r>    -7.7711    25.2996   294.7443 </r>
       <r>    -7.6736    26.4525   297.3220 </r>
       <r>    -7.5762    27.8449   300.0354 </r>
       <r>    -7.4787    28.8365   302.8454 </r>
       <r>    -7.3813    28.7149   305.6435 </r>
       <r>    -7.2838    26.9944   308.2741 </r>
       <r>    -7.1864    24.7181   310.6827 </r>
       <r>    -7.0889    24.1179   313.0330 </r>
       <r>    -6.9915    25.4142   315.5095 </r>
       <r>    -6.8941    26.2968   318.0720 </r>
       <r>    -6.7966    25.4534   320.5523 </r>
       <r>    -6.6992    24.2871   322.9190 </r>
       <r>    -6.6017    24.2142   325.2786 </r>
       <r>    -6.5043    24.0428   327.6215 </r>
       <r>    -6.4068    22.5927   329.8231 </r>
       <r>    -6.3094    21.2221   331.8911 </r>
       <r>    -6.2119    21.2818   333.9649 </r>
       <r>    -6.1145    22.5514   336.1625 </r>
       <r>    -6.0170    24.3408   338.5344 </r>
       <r>    -5.9196    25.7576   341.0444 </r>
       <r>    -5.8221    25.7323   343.5519 </r>
       <r>    -5.7247    23.8923   345.8801 </r>
       <r>    -5.6272    20.8670   347.9135 </r>
       <r>    -5.5298    17.1478   349.5845 </r>
       <r>    -5.4324    13.2312   350.8739 </r>
       <r>    -5.3349    10.9057   351.9366 </r>
       <r>    -5.2375    11.2397   353.0319 </r>
       <r>    -5.1400    12.1023   354.2112 </r>
       <r>    -5.0426    11.0257   355.2856 </r>
       <r>    -4.9451     8.8245   356.1455 </r>
       <r>    -4.8477     7.7918   356.9048 </r>
       <r>    -4.7502     8.5842   357.7413 </r>
       <r>    -4.6528    10.5409   358.7685 </r>
       <r>    -4.5553    12.8290   360.0186 </r>
       <r>    -4.4579    14.0131   361.3841 </r>
       <r>    -4.3604    12.6861   362.6204 </r>
       <r>    -4.2630     9.4122   363.5375 </r>
       <r>    -4.1656     5.9905   364.1213 </r>
       <r>    -4.0681     3.7065   364.4825 </r>
       <r>    -3.9707     3.1176   364.7863 </r>
       <r>    -3.8732     3.7863   365.1552 </r>
       <r>    -3.7758     4.4896   365.5927 </r>
       <r>    -3.6783     4.3841   366.0200 </r>
       <r>    -3.5809     3.7160   366.3821 </r>
       <r>    -3.4834     3.3726   366.7107 </r>
       <r>    -3.3860     3.6466   367.0661 </r>
       <r>    -3.2885     4.1145   367.4670 </r>
       <r>    -3.1911     4.7825   367.9330 </r>
       <r>    -3.0936     5.8044   368.4986 </r>
       <r>    -2.9962     6.7639   369.1578 </r>
       <r>    -2.8987     7.5861   369.8970 </r>
       <r>    -2.8013     8.5758   370.7327 </r>
       <r>    -2.7039     8.9141   371.6013 </r>
       <r>    -2.6064     7.3824   372.3207 </r>
       <r>    -2.5090     4.6688   372.7757 </r>
       <r>    -2.4115     2.7773   373.0463 </r>
       <r>    -2.3141     2.8336   373.3225 </r>
       <r>    -2.2166     4.5958   373.7703 </r>
       <r>    -2.1192     6.7654   374.4296 </r>
       <r>    -2.0217     7.4156   375.1522 </r>
       <r>    -1.9243     6.1498   375.7515 </r>
       <r>    -1.8268     5.5273   376.2901 </r>
       <r>    -1.7294     8.3094   377.0998 </r>
       <r>    -1.6319    14.1936   378.4829 </r>
       <r>    -1.5345    20.0437   380.4361 </r>
       <r>    -1.4371    22.7870   382.6566 </r>
       <r>    -1.3396    22.0409   384.8044 </r>
       <r>    -1.2422    19.9584   386.7493 </r>
       <r>    -1.1447    18.7998   388.5813 </r>
       <r>    -1.0473    18.7180   390.4053 </r>
       <r>    -0.9498    18.0907   392.1682 </r>
       <r>    -0.8524    16.1160   393.7386 </r>
       <r>    -0.7549    13.7909   395.0825 </r>
       <r>    -0.6575    12.2623   396.2774 </r>
       <r>    -0.5600    11.5631   397.4042 </r>
       <r>    -0.4626    11.1893   398.4945 </r>
       <r>    -0.3651    11.3055   399.5962 </r>
       <r>    -0.2677    12.6693   400.8308 </r>
       <r>    -0.1702    15.2394   402.3158 </r>
       <r>    -0.0728    17.8211   404.0524 </r>
       <r>     0.0246    19.5853   405.9609 </r>
       <r>     0.1221    20.8735   407.9950 </r>
       <r>     0.2195    21.8945   410.1285 </r>
       <r>     0.3170    21.5668   412.2301 </r>
       <r>     0.4144    19.3622   414.1169 </r>
       <r>     0.5119    17.5989   415.8319 </r>
       <r>     0.6093    19.2282   417.7056 </r>
       <r>     0.7068    23.9760   420.0419 </r>
       <r>     0.8042    28.5896   422.8279 </r>
       <r>     0.9017    31.1854   425.8668 </r>
       <r>     0.9991    33.4945   429.1307 </r>
       <r>     1.0966    37.3036   432.7658 </r>
       <r>     1.1940    42.1723   436.8754 </r>
       <r>     1.2914    47.0986   441.4649 </r>
       <r>     1.3889    50.2636   446.3630 </r>
       <r>     1.4863    49.5190   451.1884 </r>
       <r>     1.5838    44.5544   455.5301 </r>
       <r>     1.6812    36.2084   459.0584 </r>
       <r>     1.7787    25.5034   461.5437 </r>
       <r>     1.8761    14.7361   462.9796 </r>
       <r>     1.9736     6.8196   463.6442 </r>
       <r>     2.0710     2.5871   463.8963 </r>
       <r>     2.1685     0.8183   463.9760 </r>
       <r>     2.2659     0.2044   463.9959 </r>
       <r>     2.3634     0.0368   463.9995 </r>
       <r>     2.4608     0.0044   464.0000 </r>
       <r>     2.5583     0.0003   464.0000 </r>
       <r>     2.6557     0.0000   464.0000 </r>
       <r>     2.7531     0.0000   464.0000 </r>
       <r>     2.8506     0.0000   464.0000 </r>
       <r>     2.9480     0.0000   464.0000 </r>
       <r>     3.0455     0.0000   464.0000 </r>
       <r>     3.1429     0.0000   464.0000 </r>
       <r>     3.2404     0.0000   464.0000 </r>
       <r>     3.3378     0.0000   464.0000 </r>
       <r>     3.4353     0.0000   464.0000 </r>
       <r>     3.5327     0.0000   464.0000 </r>
       <r>     3.6302     0.0000   464.0000 </r>
       <r>     3.7276     0.0000   464.0000 </r>
       <r>     3.8251     0.0000   464.0000 </r>
       <r>     3.9225     0.0000   464.0000 </r>
      </set>
     </set>
    </array>
   </total>
  </dos>
 </calculation>
 <structure name="finalpos" >
  <crystal>
   <varray name="basis" >
    <v>      28.05000000       0.00000000       0.00000000 </v>
    <v>       0.00000000       8.10000000       0.00000000 </v>
    <v>       0.00000000       0.00000000      33.50000000 </v>
   </varray>
   <i name="volume">   7611.36750000 </i>
   <varray name="rec_basis" >
    <v>       0.03565062       0.00000000       0.00000000 </v>
    <v>       0.00000000       0.12345679       0.00000000 </v>
    <v>       0.00000000       0.00000000       0.02985075 </v>
   </varray>
  </crystal>
  <varray name="positions" >
   <v>       0.00750396       0.10071358       0.44646567 </v>
   <v>       0.00809458       0.27344198       0.45153134 </v>
   <v>       0.05388520       0.03142765       0.45059403 </v>
   <v>       0.04937576       0.35219753       0.46043284 </v>
   <v>       0.09216720       0.10960346       0.46573433 </v>
   <v>       0.09195401       0.27346543       0.46919701 </v>
   <v>       0.13535508       0.02733519       0.47533731 </v>
   <v>       0.13394260       0.35543704       0.48042388 </v>
   <v>       0.17609840       0.10086864       0.49280000 </v>
   <v>       0.17282888       0.27512593       0.49668955 </v>
   <v>       0.22015437       0.02413086       0.50235821 </v>
   <v>       0.21702995       0.35121358       0.50470149 </v>
   <v>       0.26300071       0.10326654       0.51514627 </v>
   <v>       0.25928948       0.26852346       0.51752537 </v>
   <v>       0.30715508       0.01398827       0.52257015 </v>
   <v>       0.30367273       0.34680988       0.52684776 </v>
   <v>       0.34989091       0.09456358       0.53423284 </v>
   <v>       0.34861925       0.26061481       0.53502687 </v>
   <v>       0.39317647       0.01350630       0.54098209 </v>
   <v>       0.39351159       0.34449383       0.54090448 </v>
   <v>       0.43708378       0.09850494       0.54762090 </v>
   <v>       0.43779323       0.26535185       0.54715522 </v>
   <v>       0.48273084       0.01619728       0.54458209 </v>
   <v>       0.48360071       0.34896049       0.55137015 </v>
   <v>       0.52679144       0.09671346       0.54605373 </v>
   <v>       0.52996791       0.26398519       0.55081493 </v>
   <v>       0.57095544       0.02069247       0.53263881 </v>
   <v>       0.57353654       0.35674074       0.54536119 </v>
   <v>       0.61313012       0.10823765       0.52693731 </v>
   <v>       0.61805348       0.26707531       0.53925075 </v>
   <v>       0.65690196       0.03056099       0.51454030 </v>
   <v>       0.66049911       0.35579753       0.52808060 </v>
   <v>       0.70048128       0.10905840       0.50704179 </v>
   <v>       0.70362923       0.27222963       0.51596418 </v>
   <v>       0.74343316       0.02746481       0.49323582 </v>
   <v>       0.74663102       0.35377901       0.50644179 </v>
   <v>       0.78568271       0.11105321       0.48444478 </v>
   <v>       0.78891979       0.27606914       0.49480896 </v>
   <v>       0.82694831       0.02480741       0.47167463 </v>
   <v>       0.83207487       0.35803086       0.48637612 </v>
   <v>       0.87117291       0.10486741       0.46554030 </v>
   <v>       0.87360071       0.27323827       0.47545075 </v>
   <v>       0.91254545       0.03045679       0.45349851 </v>
   <v>       0.91611408       0.35998765       0.46320000 </v>
   <v>       0.95765775       0.10475741       0.45155224 </v>
   <v>       0.95885205       0.27620247       0.45468358 </v>
   <v>       0.00732289       0.60428148       0.44761194 </v>
   <v>       0.00724752       0.78034938       0.44337612 </v>
   <v>       0.04896506       0.51941605       0.45607463 </v>
   <v>       0.05123743       0.85788148       0.44817015 </v>
   <v>       0.09495472       0.60716173       0.46079701 </v>
   <v>       0.09528877       0.77461975       0.45857910 </v>
   <v>       0.13660642       0.52676543       0.47520299 </v>
   <v>       0.13698503       0.85710741       0.47158806 </v>
   <v>       0.17818004       0.60581358       0.48673433 </v>
   <v>       0.18025419       0.77721605       0.48450746 </v>
   <v>       0.21949305       0.52210370       0.49928060 </v>
   <v>       0.22207986       0.85715432       0.49914925 </v>
   <v>       0.26395865       0.60065926       0.50726866 </v>
   <v>       0.26450196       0.77000741       0.50805970 </v>
   <v>       0.30708021       0.51107284       0.52042090 </v>
   <v>       0.30793369       0.84751852       0.51838507 </v>
   <v>       0.35241319       0.59018519       0.52270149 </v>
   <v>       0.35083529       0.76055679       0.52533731 </v>
   <v>       0.39405348       0.50822840       0.53320000 </v>
   <v>       0.39408913       0.84506543       0.53586269 </v>
   <v>       0.43914795       0.59340741       0.54114030 </v>
   <v>       0.43710873       0.76233704       0.54154328 </v>
   <v>       0.48524064       0.51652716       0.54686269 </v>
   <v>       0.48188592       0.84413827       0.54348358 </v>
   <v>       0.52782531       0.60338519       0.54251045 </v>
   <v>       0.52625668       0.77351235       0.54158507 </v>
   <v>       0.57270232       0.52813210       0.54057015 </v>
   <v>       0.56873797       0.85489012       0.53183582 </v>
   <v>       0.61757576       0.61100494       0.53100299 </v>
   <v>       0.61301604       0.77936296       0.52336119 </v>
   <v>       0.66049911       0.52811728       0.52657910 </v>
   <v>       0.65478788       0.85848519       0.51139403 </v>
   <v>       0.70237790       0.61387778       0.51195224 </v>
   <v>       0.69841355       0.77410247       0.50342687 </v>
   <v>       0.74455615       0.52435432       0.50391045 </v>
   <v>       0.73939394       0.85897407       0.49094030 </v>
   <v>       0.78437433       0.61024815       0.48690746 </v>
   <v>       0.78291979       0.77763457       0.47880000 </v>
   <v>       0.82827451       0.53118025       0.48155224 </v>
   <v>       0.82526916       0.85580123       0.46633433 </v>
   <v>       0.86995722       0.61143580       0.46528060 </v>
   <v>       0.86960428       0.77889753       0.45816716 </v>
   <v>       0.91407487       0.52687654       0.45829552 </v>
   <v>       0.91187879       0.85872346       0.44824776 </v>
   <v>       0.95603565       0.60739506       0.44835522 </v>
   <v>       0.95678788       0.78347654       0.44582687 </v>
  </varray>
 </structure>
</modeling>
