  92  92   0   0
  0.8273226E+02  0.2805000E-08  0.8100000E-09  0.3350000E-08  0.5000000E-15
   1.0000000000000000E-004
  CAR 
 unknown system                          
      3.86928811    -25.18943555  301     -3.24284707      1.00000000
    -25.189  0.0000E+00  0.0000E+00
    -25.093  0.0000E+00  0.0000E+00
    -24.996  0.0000E+00  0.0000E+00
    -24.899  0.0000E+00  0.0000E+00
    -24.802  0.0000E+00  0.0000E+00
    -24.705  0.0000E+00  0.0000E+00
    -24.608  0.0000E+00  0.0000E+00
    -24.511  0.0000E+00  0.0000E+00
    -24.415  0.0000E+00  0.0000E+00
    -24.318  0.3725E-14  0.3608E-15
    -24.221  0.7969E-12  0.7755E-13
    -24.124  0.1031E-09  0.1007E-10
    -24.027  0.8459E-08  0.8295E-09
    -23.930  0.4411E-06  0.4356E-07
    -23.833  0.1469E-04  0.1466E-05
    -23.736  0.3140E-03  0.3188E-04
    -23.640  0.4342E-02  0.4525E-03
    -23.543  0.3925E-01  0.4255E-02
    -23.446  0.2352E+00  0.2704E-01
    -23.349  0.9544E+00  0.1195E+00
    -23.252  0.2708E+01  0.3818E+00
    -23.155  0.5633E+01  0.9274E+00
    -23.058  0.9068E+01  0.1806E+01
    -22.962  0.1179E+02  0.2948E+01
    -22.865  0.1292E+02  0.4199E+01
    -22.768  0.1327E+02  0.5485E+01
    -22.671  0.1467E+02  0.6906E+01
    -22.574  0.1661E+02  0.8515E+01
    -22.477  0.1653E+02  0.1012E+02
    -22.380  0.1400E+02  0.1147E+02
    -22.284  0.1174E+02  0.1261E+02
    -22.187  0.1191E+02  0.1376E+02
    -22.090  0.1373E+02  0.1509E+02
    -21.993  0.1502E+02  0.1655E+02
    -21.896  0.1478E+02  0.1798E+02
    -21.799  0.1365E+02  0.1930E+02
    -21.702  0.1271E+02  0.2053E+02
    -21.606  0.1225E+02  0.2172E+02
    -21.509  0.1172E+02  0.2285E+02
    -21.412  0.1125E+02  0.2394E+02
    -21.315  0.1180E+02  0.2509E+02
    -21.218  0.1386E+02  0.2643E+02
    -21.121  0.1638E+02  0.2802E+02
    -21.024  0.1731E+02  0.2969E+02
    -20.927  0.1570E+02  0.3121E+02
    -20.831  0.1288E+02  0.3246E+02
    -20.734  0.1106E+02  0.3353E+02
    -20.637  0.1135E+02  0.3463E+02
    -20.540  0.1314E+02  0.3590E+02
    -20.443  0.1448E+02  0.3731E+02
    -20.346  0.1423E+02  0.3869E+02
    -20.249  0.1371E+02  0.4001E+02
    -20.153  0.1446E+02  0.4141E+02
    -20.056  0.1594E+02  0.4296E+02
    -19.959  0.1643E+02  0.4455E+02
    -19.862  0.1522E+02  0.4602E+02
    -19.765  0.1340E+02  0.4732E+02
    -19.668  0.1289E+02  0.4857E+02
    -19.571  0.1436E+02  0.4996E+02
    -19.475  0.1591E+02  0.5150E+02
    -19.378  0.1556E+02  0.5301E+02
    -19.281  0.1414E+02  0.5438E+02
    -19.184  0.1362E+02  0.5570E+02
    -19.087  0.1422E+02  0.5707E+02
    -18.990  0.1475E+02  0.5850E+02
    -18.893  0.1433E+02  0.5989E+02
    -18.797  0.1400E+02  0.6125E+02
    -18.700  0.1549E+02  0.6275E+02
    -18.603  0.1763E+02  0.6446E+02
    -18.506  0.1751E+02  0.6615E+02
    -18.409  0.1540E+02  0.6764E+02
    -18.312  0.1428E+02  0.6903E+02
    -18.215  0.1537E+02  0.7052E+02
    -18.118  0.1672E+02  0.7214E+02
    -18.022  0.1614E+02  0.7370E+02
    -17.925  0.1429E+02  0.7508E+02
    -17.828  0.1346E+02  0.7639E+02
    -17.731  0.1396E+02  0.7774E+02
    -17.634  0.1412E+02  0.7911E+02
    -17.537  0.1356E+02  0.8042E+02
    -17.440  0.1288E+02  0.8167E+02
    -17.344  0.1190E+02  0.8282E+02
    -17.247  0.1054E+02  0.8384E+02
    -17.150  0.9494E+01  0.8476E+02
    -17.053  0.9189E+01  0.8565E+02
    -16.956  0.9246E+01  0.8655E+02
    -16.859  0.9355E+01  0.8745E+02
    -16.762  0.1002E+02  0.8842E+02
    -16.666  0.1159E+02  0.8955E+02
    -16.569  0.1368E+02  0.9087E+02
    -16.472  0.1559E+02  0.9238E+02
    -16.375  0.1661E+02  0.9399E+02
    -16.278  0.1650E+02  0.9559E+02
    -16.181  0.1584E+02  0.9712E+02
    -16.084  0.1531E+02  0.9861E+02
    -15.988  0.1521E+02  0.1001E+03
    -15.891  0.1538E+02  0.1016E+03
    -15.794  0.1489E+02  0.1030E+03
    -15.697  0.1347E+02  0.1043E+03
    -15.600  0.1228E+02  0.1055E+03
    -15.503  0.1226E+02  0.1067E+03
    -15.406  0.1376E+02  0.1080E+03
    -15.309  0.1684E+02  0.1097E+03
    -15.213  0.2021E+02  0.1116E+03
    -15.116  0.2225E+02  0.1138E+03
    -15.019  0.2266E+02  0.1160E+03
    -14.922  0.2170E+02  0.1181E+03
    -14.825  0.1928E+02  0.1199E+03
    -14.728  0.1562E+02  0.1214E+03
    -14.631  0.1195E+02  0.1226E+03
    -14.535  0.9642E+01  0.1235E+03
    -14.438  0.8969E+01  0.1244E+03
    -14.341  0.9352E+01  0.1253E+03
    -14.244  0.1035E+02  0.1263E+03
    -14.147  0.1182E+02  0.1275E+03
    -14.050  0.1346E+02  0.1288E+03
    -13.953  0.1484E+02  0.1302E+03
    -13.857  0.1599E+02  0.1318E+03
    -13.760  0.1715E+02  0.1334E+03
    -13.663  0.1815E+02  0.1352E+03
    -13.566  0.1865E+02  0.1370E+03
    -13.469  0.1866E+02  0.1388E+03
    -13.372  0.1848E+02  0.1406E+03
    -13.275  0.1821E+02  0.1423E+03
    -13.178  0.1751E+02  0.1440E+03
    -13.082  0.1649E+02  0.1456E+03
    -12.985  0.1606E+02  0.1472E+03
    -12.888  0.1650E+02  0.1488E+03
    -12.791  0.1663E+02  0.1504E+03
    -12.694  0.1542E+02  0.1519E+03
    -12.597  0.1339E+02  0.1532E+03
    -12.500  0.1195E+02  0.1543E+03
    -12.404  0.1225E+02  0.1555E+03
    -12.307  0.1472E+02  0.1570E+03
    -12.210  0.1883E+02  0.1588E+03
    -12.113  0.2294E+02  0.1610E+03
    -12.016  0.2494E+02  0.1634E+03
    -11.919  0.2397E+02  0.1657E+03
    -11.822  0.2152E+02  0.1678E+03
    -11.726  0.2000E+02  0.1698E+03
    -11.629  0.1964E+02  0.1717E+03
    -11.532  0.1872E+02  0.1735E+03
    -11.435  0.1703E+02  0.1751E+03
    -11.338  0.1638E+02  0.1767E+03
    -11.241  0.1812E+02  0.1785E+03
    -11.144  0.2197E+02  0.1806E+03
    -11.048  0.2691E+02  0.1832E+03
    -10.951  0.3126E+02  0.1862E+03
    -10.854  0.3335E+02  0.1895E+03
    -10.757  0.3365E+02  0.1927E+03
    -10.660  0.3419E+02  0.1960E+03
    -10.563  0.3594E+02  0.1995E+03
    -10.466  0.3779E+02  0.2032E+03
    -10.369  0.3807E+02  0.2069E+03
    -10.273  0.3696E+02  0.2104E+03
    -10.176  0.3592E+02  0.2139E+03
    -10.079  0.3517E+02  0.2173E+03
     -9.982  0.3379E+02  0.2206E+03
     -9.885  0.3201E+02  0.2237E+03
     -9.788  0.3181E+02  0.2268E+03
     -9.691  0.3440E+02  0.2301E+03
     -9.595  0.3808E+02  0.2338E+03
     -9.498  0.4033E+02  0.2377E+03
     -9.401  0.4041E+02  0.2416E+03
     -9.304  0.3868E+02  0.2454E+03
     -9.207  0.3571E+02  0.2488E+03
     -9.110  0.3274E+02  0.2520E+03
     -9.013  0.3146E+02  0.2550E+03
     -8.917  0.3280E+02  0.2582E+03
     -8.820  0.3595E+02  0.2617E+03
     -8.723  0.3849E+02  0.2654E+03
     -8.626  0.3819E+02  0.2691E+03
     -8.529  0.3521E+02  0.2725E+03
     -8.432  0.3171E+02  0.2756E+03
     -8.335  0.2913E+02  0.2784E+03
     -8.239  0.2730E+02  0.2811E+03
     -8.142  0.2650E+02  0.2836E+03
     -8.045  0.2738E+02  0.2863E+03
     -7.948  0.2907E+02  0.2891E+03
     -7.851  0.3009E+02  0.2920E+03
     -7.754  0.2992E+02  0.2949E+03
     -7.657  0.2893E+02  0.2977E+03
     -7.560  0.2847E+02  0.3005E+03
     -7.464  0.2948E+02  0.3033E+03
     -7.367  0.3046E+02  0.3063E+03
     -7.270  0.2928E+02  0.3091E+03
     -7.173  0.2666E+02  0.3117E+03
     -7.076  0.2512E+02  0.3141E+03
     -6.979  0.2550E+02  0.3166E+03
     -6.882  0.2651E+02  0.3192E+03
     -6.786  0.2693E+02  0.3218E+03
     -6.689  0.2651E+02  0.3244E+03
     -6.592  0.2522E+02  0.3268E+03
     -6.495  0.2287E+02  0.3290E+03
     -6.398  0.2048E+02  0.3310E+03
     -6.301  0.2004E+02  0.3329E+03
     -6.204  0.2168E+02  0.3350E+03
     -6.108  0.2398E+02  0.3374E+03
     -6.011  0.2576E+02  0.3399E+03
     -5.914  0.2569E+02  0.3423E+03
     -5.817  0.2301E+02  0.3446E+03
     -5.720  0.1911E+02  0.3464E+03
     -5.623  0.1597E+02  0.3480E+03
     -5.526  0.1414E+02  0.3493E+03
     -5.430  0.1277E+02  0.3506E+03
     -5.333  0.1131E+02  0.3517E+03
     -5.236  0.1051E+02  0.3527E+03
     -5.139  0.1075E+02  0.3537E+03
     -5.042  0.1089E+02  0.3548E+03
     -4.945  0.1063E+02  0.3558E+03
     -4.848  0.1149E+02  0.3569E+03
     -4.751  0.1356E+02  0.3582E+03
     -4.655  0.1486E+02  0.3597E+03
     -4.558  0.1440E+02  0.3611E+03
     -4.461  0.1287E+02  0.3623E+03
     -4.364  0.1106E+02  0.3634E+03
     -4.267  0.8997E+01  0.3643E+03
     -4.170  0.6463E+01  0.3649E+03
     -4.073  0.3806E+01  0.3653E+03
     -3.977  0.1795E+01  0.3654E+03
     -3.880  0.9757E+00  0.3655E+03
     -3.783  0.1518E+01  0.3657E+03
     -3.686  0.3189E+01  0.3660E+03
     -3.589  0.4957E+01  0.3665E+03
     -3.492  0.5438E+01  0.3670E+03
     -3.395  0.4623E+01  0.3674E+03
     -3.299  0.3776E+01  0.3678E+03
     -3.202  0.3270E+01  0.3681E+03
     -3.105  0.2667E+01  0.3684E+03
     -3.008  0.2339E+01  0.3686E+03
     -2.911  0.2834E+01  0.3689E+03
     -2.814  0.3741E+01  0.3693E+03
     -2.717  0.4750E+01  0.3697E+03
     -2.620  0.6386E+01  0.3703E+03
     -2.524  0.8560E+01  0.3712E+03
     -2.427  0.9855E+01  0.3721E+03
     -2.330  0.9277E+01  0.3730E+03
     -2.233  0.7783E+01  0.3738E+03
     -2.136  0.6813E+01  0.3744E+03
     -2.039  0.6431E+01  0.3750E+03
     -1.942  0.6147E+01  0.3756E+03
     -1.846  0.6320E+01  0.3763E+03
     -1.749  0.7930E+01  0.3770E+03
     -1.652  0.1128E+02  0.3781E+03
     -1.555  0.1536E+02  0.3796E+03
     -1.458  0.1877E+02  0.3814E+03
     -1.361  0.2096E+02  0.3835E+03
     -1.264  0.2221E+02  0.3856E+03
     -1.168  0.2275E+02  0.3878E+03
     -1.071  0.2229E+02  0.3900E+03
     -0.974  0.2041E+02  0.3919E+03
     -0.877  0.1711E+02  0.3936E+03
     -0.780  0.1341E+02  0.3949E+03
     -0.683  0.1112E+02  0.3960E+03
     -0.586  0.1103E+02  0.3970E+03
     -0.490  0.1177E+02  0.3982E+03
     -0.393  0.1186E+02  0.3993E+03
     -0.296  0.1192E+02  0.4005E+03
     -0.199  0.1320E+02  0.4018E+03
     -0.102  0.1561E+02  0.4033E+03
     -0.005  0.1801E+02  0.4050E+03
      0.092  0.1974E+02  0.4069E+03
      0.189  0.2100E+02  0.4090E+03
      0.285  0.2192E+02  0.4111E+03
      0.382  0.2193E+02  0.4132E+03
      0.479  0.2098E+02  0.4152E+03
      0.576  0.2082E+02  0.4173E+03
      0.673  0.2313E+02  0.4195E+03
      0.770  0.2674E+02  0.4221E+03
      0.867  0.2936E+02  0.4249E+03
      0.963  0.3123E+02  0.4280E+03
      1.060  0.3458E+02  0.4313E+03
      1.157  0.4003E+02  0.4352E+03
      1.254  0.4587E+02  0.4396E+03
      1.351  0.4975E+02  0.4445E+03
      1.448  0.5017E+02  0.4493E+03
      1.545  0.4688E+02  0.4539E+03
      1.641  0.4014E+02  0.4577E+03
      1.738  0.3042E+02  0.4607E+03
      1.835  0.1932E+02  0.4626E+03
      1.932  0.9730E+01  0.4635E+03
      2.029  0.3756E+01  0.4639E+03
      2.126  0.1094E+01  0.4640E+03
      2.223  0.2368E+00  0.4640E+03
      2.319  0.3697E-01  0.4640E+03
      2.416  0.4002E-02  0.4640E+03
      2.513  0.2902E-03  0.4640E+03
      2.610  0.1375E-04  0.4640E+03
      2.707  0.4191E-06  0.4640E+03
      2.804  0.8143E-08  0.4640E+03
      2.901  0.1003E-09  0.4640E+03
      2.998  0.7806E-12  0.4640E+03
      3.094  0.3439E-14  0.4640E+03
      3.191  0.0000E+00  0.4640E+03
      3.288  0.0000E+00  0.4640E+03
      3.385  0.0000E+00  0.4640E+03
      3.482  0.0000E+00  0.4640E+03
      3.579  0.0000E+00  0.4640E+03
      3.676  0.0000E+00  0.4640E+03
      3.772  0.0000E+00  0.4640E+03
      3.869  0.0000E+00  0.4640E+03
