       N       E                     dE             d eps       ncg     rms          rms(c)
DAV:   1     0.374322456001E+04    0.37432E+04   -0.11855E+05  1696   0.105E+03
DAV:   2     0.189929877157E+03   -0.35533E+04   -0.32940E+04  2144   0.239E+02
DAV:   3    -0.833728704754E+03   -0.10237E+04   -0.10008E+04  1792   0.136E+02
DAV:   4    -0.895831047561E+03   -0.62102E+02   -0.61123E+02  1712   0.432E+01
DAV:   5    -0.897353889903E+03   -0.15228E+01   -0.15005E+01  1800   0.657E+00    0.457E+01
DAV:   6    -0.847413510759E+03    0.49940E+02   -0.47812E+01  1576   0.127E+01    0.268E+01
DAV:   7    -0.828826678361E+03    0.18587E+02   -0.65983E+01  1568   0.145E+01    0.736E+00
DAV:   8    -0.828535198398E+03    0.29148E+00   -0.25135E+00  1584   0.340E+00    0.997E-01
DAV:   9    -0.828425475033E+03    0.10972E+00   -0.27575E-01  1640   0.103E+00    0.586E-01
DAV:  10    -0.828383265485E+03    0.42210E-01   -0.53557E-02  1736   0.460E-01    0.357E-01
DAV:  11    -0.828355359962E+03    0.27906E-01   -0.20346E-02  1544   0.237E-01    0.253E-01
DAV:  12    -0.828352022497E+03    0.33375E-02   -0.23308E-02  1568   0.232E-01    0.153E-01
DAV:  13    -0.828362794615E+03   -0.10772E-01   -0.99299E-03  1576   0.151E-01    0.938E-02
DAV:  14    -0.828382049076E+03   -0.19254E-01   -0.13429E-03  1584   0.702E-02    0.544E-02
DAV:  15    -0.828402478517E+03   -0.20429E-01   -0.18865E-03  1592   0.670E-02    0.353E-02
DAV:  16    -0.828410470883E+03   -0.79924E-02   -0.45188E-04  1624   0.368E-02    0.208E-02
DAV:  17    -0.828414916599E+03   -0.44457E-02   -0.24106E-04  1560   0.219E-02    0.113E-02
DAV:  18    -0.828417432609E+03   -0.25160E-02   -0.13014E-04  1608   0.148E-02    0.585E-03
DAV:  19    -0.828418267385E+03   -0.83478E-03   -0.23463E-05  1408   0.700E-03    0.421E-03
DAV:  20    -0.828418631392E+03   -0.36401E-03   -0.52889E-06  1336   0.366E-03    0.199E-03
DAV:  21    -0.828418831287E+03   -0.19990E-03   -0.27255E-06  1288   0.232E-03    0.105E-03
DAV:  22    -0.828418873064E+03   -0.41777E-04   -0.12406E-07  1048   0.915E-04    0.679E-04
DAV:  23    -0.828418912881E+03   -0.39817E-04   -0.33436E-07   944   0.853E-04    0.401E-04
DAV:  24    -0.828418922964E+03   -0.10083E-04   -0.67287E-08   952   0.575E-04    0.199E-04
DAV:  25    -0.828418929734E+03   -0.67694E-05   -0.60352E-08   920   0.377E-04    0.227E-04
DAV:  26    -0.828418932273E+03   -0.25391E-05   -0.13408E-08   944   0.279E-04    0.905E-05
DAV:  27    -0.828418934723E+03   -0.24505E-05   -0.10581E-08   936   0.173E-04    0.815E-05
DAV:  28    -0.828418935926E+03   -0.12025E-05   -0.30508E-09   936   0.127E-04    0.401E-05
DAV:  29    -0.828418936520E+03   -0.59386E-06   -0.20378E-09   904   0.732E-05
   1 F= -.82841894E+03 E0= -.82838652E+03  d E =-.648400E-01
