 vasp.6.5.0 16Dec24 (build Feb 19 2025 19:45:31) complex                         
 executed on              LinuxNV date 2025.10.25  12:40:34
 running    2 mpi-ranks, on    1 nodes
 distrk:  each k-point on    2 cores,    1 groups
 distr:  one band on NCORE=   1 cores,    2 groups
 Offloading initialized ...    2 GPUs detected


--------------------------------------------------------------------------------------------------------


 INCAR:
   ISTART = 0            (Not Read existing wavefunction
   ISPIN = 1            (Non-Spin polarised DFT, Default\=1)
   ICHARG = 2            (The initial guess charge density is generated by superposition of atomic charge density)
   LREAL = Auto         (Projection operators: automatic)
   ENCUT = 500          (Cut-off energy for plane wave basis set, in eV)
   LWAVE = .FALSE.       (Write WAVECAR or not)
   LCHARG = .FALSE.       (Write CHGCAR or not)
   PREC = Accurate   (Precision level)
   KGAMMA = .TRUE.
   ALGO = Normal
   NSW = 0           (Default: NSW \= 0)
   IBRION = -1           (Ions are not moved)
   ISMEAR = 0
   EDIFF = 1E-06        (SCF energy convergence
   NELM = 150          (Max electronic SCF steps)

 POTCAR:    PAW_PBE C 08Apr2002                   
 POTCAR:    PAW_PBE C 08Apr2002                   
   SHA256 =  253f7b50bb8d59471dbedb8285d89021f4a42ed1a2c5d38a03a736e69125dd95 C/POTCAR              
   COPYR  = (c) Copyright 08Apr2002 Georg Kresse                                                    
   COPYR  = This file is part of the software VASP. Any use, copying, and all other rights are regul
   COPYR  = If you do not have a valid VASP license, you may not use, copy or distribute this file. 
   VRHFIN =C: s2p2                                                                                  
   LEXCH  = PE                                                                                      
   EATOM  =   147.1560 eV,   10.8157 Ry                                                             
                                                                                                    
   TITEL  = PAW_PBE C 08Apr2002                                                                     
   LULTRA =        F    use ultrasoft PP ?                                                          
   IUNSCR =        1    unscreen: 0-lin 1-nonlin 2-no                                               
   RPACOR =    1.200    partial core radius                                                         
   POMASS =   12.011; ZVAL   =    4.000    mass and valenz                                          
   RCORE  =    1.500    outmost cutoff radius                                                       
   RWIGS  =    1.630; RWIGS  =    0.863    wigner-seitz radius (au A)                               
   ENMAX  =  400.000; ENMIN  =  300.000 eV                                                          
   ICORE  =        2    local potential                                                             
   LCOR   =        T    correct aug charges                                                         
   LPAW   =        T    paw PP                                                                      
   EAUG   =  644.873                                                                                
   DEXC   =    0.000                                                                                
   RMAX   =    1.529    core radius for proj-oper                                                   
   RAUG   =    1.300    factor for augmentation sphere                                              
   RDEP   =    1.501    radius for radial grids                                                     
   RDEPT  =    1.300    core radius for aug-charge                                                  
                                                                                                    
   Atomic configuration                                                                             
    4 entries                                                                                       
     n  l   j            E        occ.                                                              
     1  0  0.50      -273.3789   2.0000                                                             
     2  0  0.50       -13.7508   2.0000                                                             
     2  1  0.50        -5.2854   2.0000                                                             
     3  2  1.50        -5.4423   0.0000                                                             
   Description                                                                                      
     l       E           TYP  RCUT    TYP  RCUT                                                     
     0    -13.7508458     23  1.200                                                                 
     0     -8.2022199     23  1.200                                                                 
     1     -5.2854383     23  1.500                                                                 
     1     34.0145650     23  1.500                                                                 
     2     -5.4423304      7  1.500                                                                 
  local pseudopotential read in
  partial core-charges read in
  partial kinetic energy density read in
  atomic valenz-charges read in
  non local Contribution for L=            0  read in
    real space projection operators read in
  non local Contribution for L=            0  read in
    real space projection operators read in
  non local Contribution for L=            1  read in
    real space projection operators read in
  non local Contribution for L=            1  read in
    real space projection operators read in
    PAW grid and wavefunctions read in
 
   number of l-projection  operators is LMAX  =            4
   number of lm-projection operators is LMMAX =            8
 
 Optimization of the real space projectors (new method)

 maximal supplied QI-value         = 25.13
 optimisation between [QCUT,QGAM] = [ 11.31, 22.87] = [ 35.82,146.48] Ry 
 Optimized for a Real-space Cutoff    1.03 Angstroem

   l    n(q)    QCUT    max X(q) W(low)/X(q) W(high)/X(q)  e(spline) 
   0      7    11.310   115.676    0.20E-03    0.90E-03    0.20E-06
   0      7    11.310    87.132    0.20E-03    0.89E-03    0.19E-06
   1      6    11.310     4.429    0.16E-03    0.28E-03    0.12E-06
   1      6    11.310     2.733    0.12E-03    0.21E-03    0.99E-07
  PAW_PBE C 08Apr2002                   :
 energy of atom  1       EATOM= -147.1560
 kinetic energy error for atom=    0.0076 (will be added to EATOM!!)
 
 
 POSCAR:  C
  positions in cartesian coordinates
  No initial velocities read in


 exchange-correlation table for PE
   RHO(1)=    0.500       N(1)  =     2000
   RHO(2)=  100.500       N(2)  =     4000
 


--------------------------------------------------------------------------------------------------------


 ion  position               nearest neighbor table
   1  0.009  0.105  0.451-   3 1.37   2 1.38  45 1.45  46 2.05
   2  0.009  0.275  0.451-   4 1.37   1 1.38  46 1.49  45 2.00
   3  0.052  0.025  0.450-  50 1.34   1 1.37   5 1.50
   4  0.050  0.362  0.455-  49 1.35   2 1.37   6 1.46
   5  0.098  0.108  0.459-   6 1.38   7 1.39   3 1.50
   6  0.095  0.278  0.464-   5 1.38   8 1.45   4 1.46
   7  0.140  0.027  0.471-  54 1.37   5 1.39   9 1.45
   8  0.139  0.359  0.474-  53 1.36  10 1.45   6 1.45
   9  0.181  0.106  0.488-  10 1.38  11 1.39   7 1.45
  10  0.182  0.277  0.489-   9 1.38  12 1.42   8 1.45
  11  0.220  0.019  0.504-  58 1.36   9 1.39  13 1.46
  12  0.223  0.357  0.504-  57 1.34  10 1.42  14 1.46
  13  0.261  0.096  0.523-  15 1.39  14 1.39  11 1.46
  14  0.262  0.268  0.523-  13 1.39  16 1.42  12 1.46
  15  0.303  0.015  0.533-  62 1.33  13 1.39  17 1.43
  16  0.303  0.353  0.535-  61 1.38  14 1.42  18 1.46
  17  0.346  0.096  0.544-  18 1.36  15 1.43  19 1.45
  18  0.347  0.264  0.545-  17 1.36  20 1.43  16 1.46
  19  0.393  0.017  0.546-  66 1.34  21 1.40  17 1.45
  20  0.392  0.346  0.551-  65 1.37  22 1.39  18 1.43
  21  0.437  0.096  0.548-  22 1.39  19 1.40  23 1.43
  22  0.435  0.267  0.552-  20 1.39  21 1.39  24 1.50
  23  0.482  0.013  0.543-  70 1.40  21 1.43  25 1.44
  24  0.484  0.346  0.546-  69 1.36  26 1.40  22 1.50
  25  0.526  0.095  0.537-  26 1.32  27 1.41  23 1.44
  26  0.526  0.257  0.542-  25 1.32  24 1.40  28 1.47
  27  0.569  0.014  0.529-  74 1.34  25 1.41  29 1.41
  28  0.571  0.348  0.538-  73 1.34  30 1.39  26 1.47
  29  0.613  0.101  0.524-  30 1.36  31 1.39  27 1.41
  30  0.613  0.268  0.525-  29 1.36  28 1.39  32 1.43
  31  0.657  0.026  0.519-  29 1.39  78 1.40  33 1.45
  32  0.658  0.349  0.522-  77 1.38  34 1.42  30 1.43
  33  0.698  0.109  0.502-  34 1.36  35 1.45  31 1.45
  34  0.700  0.275  0.508-  33 1.36  32 1.42  36 1.43
  35  0.740  0.021  0.489-  82 1.37  37 1.43  33 1.45
  36  0.743  0.361  0.498-  81 1.35  38 1.42  34 1.43
  37  0.783  0.108  0.481-  38 1.39  35 1.43  39 1.44
  38  0.784  0.280  0.483-  37 1.39  36 1.42  40 1.44
  39  0.825  0.023  0.468-  86 1.33  41 1.40  37 1.44
  40  0.828  0.364  0.473-  85 1.35  42 1.39  38 1.44
  41  0.867  0.110  0.459-  42 1.39  39 1.40  43 1.47
  42  0.869  0.279  0.464-  41 1.39  40 1.39  44 1.44
  43  0.913  0.030  0.450-  90 1.36  45 1.39  41 1.47
  44  0.915  0.360  0.458-  46 1.36  89 1.40  42 1.44
  45  0.957  0.103  0.447-  43 1.39  46 1.41   1 1.45   2 2.00
  46  0.955  0.278  0.448-  44 1.36  45 1.41   2 1.49   1 2.05
  47  0.010  0.619  0.448-  48 1.34  49 1.39  91 1.46  92 1.96
  48  0.011  0.783  0.444-  47 1.34  50 1.39  92 1.52
  49  0.051  0.529  0.456-   4 1.35  47 1.39  51 1.41
  50  0.055  0.860  0.452-   3 1.34  48 1.39  52 1.41
  51  0.095  0.606  0.460-  52 1.35  49 1.41  53 1.45
  52  0.098  0.772  0.457-  51 1.35  50 1.41  54 1.47
  53  0.138  0.527  0.475-   8 1.36  55 1.41  51 1.45
  54  0.140  0.858  0.472-   7 1.37  56 1.43  52 1.47
  55  0.178  0.607  0.491-  56 1.34  53 1.41  57 1.46
  56  0.181  0.771  0.486-  55 1.34  58 1.42  54 1.43
  57  0.222  0.523  0.503-  12 1.34  59 1.38  55 1.46
  58  0.223  0.853  0.500-  11 1.36  60 1.40  56 1.42
  59  0.264  0.602  0.514-  60 1.36  57 1.38  61 1.41
  60  0.265  0.769  0.509-  59 1.36  58 1.40  62 1.44
  61  0.304  0.522  0.530-  16 1.38  59 1.41  63 1.46
  62  0.306  0.855  0.524-  15 1.33  60 1.44  64 1.44
  63  0.349  0.604  0.539-  64 1.36  65 1.41  61 1.46
  64  0.350  0.769  0.534-  63 1.36  66 1.40  62 1.44
  65  0.392  0.515  0.546-  20 1.37  63 1.41  67 1.42
  66  0.392  0.853  0.543-  19 1.34  64 1.40  68 1.42
  67  0.437  0.598  0.546-  68 1.36  65 1.42  69 1.44
  68  0.436  0.765  0.545-  67 1.36  66 1.42  70 1.43
  69  0.482  0.514  0.547-  24 1.36  71 1.44  67 1.44
  70  0.481  0.841  0.540-  23 1.40  72 1.40  68 1.43
  71  0.528  0.593  0.544-  72 1.35  73 1.40  69 1.44
  72  0.525  0.759  0.542-  71 1.35  70 1.40  74 1.49
  73  0.572  0.514  0.541-  28 1.34  71 1.40  75 1.51
  74  0.570  0.850  0.535-  27 1.34  76 1.44  72 1.49
  75  0.619  0.604  0.535-  76 1.36  77 1.41  73 1.51
  76  0.616  0.772  0.535-  75 1.36  78 1.43  74 1.44
  77  0.661  0.519  0.526-  32 1.38  75 1.41  79 1.45
  78  0.659  0.854  0.522-  31 1.40  76 1.43  80 1.47
  79  0.705  0.604  0.515-  80 1.37  81 1.38  77 1.45
  80  0.703  0.771  0.510-  79 1.37  82 1.41  78 1.47
  81  0.746  0.526  0.502-  36 1.35  79 1.38  83 1.45
  82  0.743  0.853  0.494-  84 1.36  35 1.37  80 1.41
  83  0.786  0.611  0.484-  84 1.38  85 1.41  81 1.45
  84  0.785  0.781  0.482-  82 1.36  83 1.38  86 1.40
  85  0.829  0.530  0.474-  40 1.35  83 1.41  87 1.43
  86  0.826  0.859  0.467-  39 1.33  84 1.40  88 1.45
  87  0.872  0.617  0.465-  88 1.33  85 1.43  89 1.43
  88  0.869  0.775  0.455-  87 1.33  90 1.45  86 1.45
  89  0.916  0.533  0.456-  91 1.36  44 1.40  87 1.43
  90  0.914  0.862  0.449-  43 1.36  92 1.40  88 1.45
  91  0.958  0.607  0.447-  89 1.36  92 1.39  47 1.46
  92  0.957  0.778  0.444-  91 1.39  90 1.40  48 1.52  47 1.96
 
  LATTYP: Found a simple orthorhombic cell.
 ALAT       =     8.1000000000
 B/A-ratio  =     3.4629629630
 C/A-ratio  =     4.1358024691
  
  Lattice vectors:
  
 A1 = (   0.0000000000,  -8.1000000000,   0.0000000000)
 A2 = (  28.0500000000,   0.0000000000,   0.0000000000)
 A3 = (   0.0000000000,   0.0000000000,  33.5000000000)


Analysis of symmetry for initial positions (statically):
=====================================================================
 Subroutine PRICEL returns:
 Original cell was already a primitive cell.
 

 Routine SETGRP: Setting up the symmetry group for a 
 simple orthorhombic supercell.


 Subroutine GETGRP returns: Found  1 space group operations
 (whereof  1 operations were pure point group operations)
 out of a pool of  8 trial point group operations.


The static configuration has the point symmetry C_1 .


Analysis of symmetry for dynamics (positions and initial velocities):
=====================================================================
 Subroutine PRICEL returns:
 Original cell was already a primitive cell.
 

 Routine SETGRP: Setting up the symmetry group for a 
 simple orthorhombic supercell.


 Subroutine GETGRP returns: Found  1 space group operations
 (whereof  1 operations were pure point group operations)
 out of a pool of  8 trial point group operations.


The dynamic configuration has the point symmetry C_1 .


 Subroutine INISYM returns: Found  1 space group operations
 (whereof  1 operations are pure point group operations),
 and found     1 'primitive' translations


----------------------------------------------------------------------------------------

                                     Primitive cell                                     

  volume of cell :    7611.3675

  direct lattice vectors                    reciprocal lattice vectors
    28.050000000  0.000000000  0.000000000     0.035650624  0.000000000  0.000000000
     0.000000000  8.100000000  0.000000000     0.000000000  0.123456790  0.000000000
     0.000000000  0.000000000 33.500000000     0.000000000  0.000000000  0.029850746

  length of vectors
    28.050000000  8.100000000 33.500000000     0.035650624  0.123456790  0.029850746

  position of ions in fractional coordinates (direct lattice)
     0.008705561  0.105348148  0.450722388
     0.008514688  0.275175309  0.450549254
     0.051755437  0.025262346  0.450050746
     0.050090909  0.361959259  0.454973134
     0.098285205  0.108249506  0.459402985
     0.094986809  0.277579012  0.463549254
     0.139861676  0.026649506  0.470734328
     0.139125847  0.358907407  0.474349254
     0.181432442  0.105820000  0.488032836
     0.181559002  0.276501235  0.488814925
     0.219752941  0.019214815  0.504223881
     0.222900178  0.357307407  0.503611940
     0.261018182  0.095501975  0.523385075
     0.261591087  0.267537037  0.523164179
     0.303065597  0.014709753  0.532997015
     0.303440642  0.353183951  0.535364179
     0.346473440  0.096310370  0.543797015
     0.347077362  0.264249383  0.544952239
     0.392720143  0.017284074  0.546343284
     0.391707665  0.346230864  0.550883582
     0.436980392  0.095999259  0.548089552
     0.435479501  0.266927160  0.551814925
     0.481547237  0.013243333  0.542695522
     0.483515152  0.346088889  0.546343284
     0.526345811  0.095323704  0.536579104
     0.525939394  0.257433333  0.541692537
     0.569486631  0.013572593  0.528579104
     0.571172906  0.348369136  0.537602985
     0.612684492  0.100538272  0.523797015
     0.612573975  0.268464198  0.525498507
     0.656859180  0.025862963  0.519208955
     0.657540107  0.349440741  0.522426866
     0.697960784  0.108736790  0.502349254
     0.699668449  0.275112346  0.507513433
     0.740028520  0.020804198  0.489158209
     0.742705882  0.360524691  0.497620896
     0.783062389  0.108445062  0.481188060
     0.784039216  0.279997531  0.483158209
     0.825140820  0.023124074  0.468217910
     0.827782531  0.363525926  0.472982090
     0.866894831  0.109596543  0.459008955
     0.869493761  0.279313580  0.463755224
     0.912655971  0.030192593  0.450140299
     0.914645276  0.359919753  0.457602985
     0.957294118  0.103360247  0.447474627
     0.955344029  0.277683951  0.447665672
     0.009704100  0.619427160  0.448426866
     0.011171943  0.783483951  0.444170149
     0.050748307  0.528659259  0.456029851
     0.054626025  0.859846914  0.451916418
     0.095469162  0.605732099  0.459605970
     0.097502674  0.772096296  0.457208955
     0.137856684  0.527035802  0.475220896
     0.140106595  0.858008642  0.472053731
     0.178356506  0.607113580  0.491259701
     0.181123351  0.771107407  0.485931343
     0.222131551  0.522777778  0.503441791
     0.222952228  0.853004938  0.499677612
     0.264003565  0.602243210  0.513970149
     0.264803565  0.768891358  0.509402985
     0.304144029  0.521656790  0.530361194
     0.305859537  0.854829630  0.524361194
     0.349191444  0.603537037  0.539397015
     0.349564349  0.769492593  0.533907463
     0.391704100  0.514802469  0.546313433
     0.391889483  0.852839506  0.542913433
     0.436509804  0.597530864  0.546373134
     0.435561497  0.764841975  0.544665672
     0.482078431  0.514345679  0.546617910
     0.481311943  0.841313580  0.540074627
     0.528064171  0.593267901  0.544110448
     0.525269162  0.759386420  0.542373134
     0.572299465  0.513520988  0.541173134
     0.570484848  0.849537037  0.534686567
     0.618623886  0.604343210  0.535152239
     0.616459893  0.771548148  0.535167164
     0.661080214  0.519419753  0.525555224
     0.658745098  0.853593827  0.522379104
     0.704983957  0.604480247  0.515035821
     0.702852050  0.771440741  0.509528358
     0.745846702  0.526048148  0.502355224
     0.742916221  0.852680247  0.493632836
     0.786064171  0.610938272  0.484217910
     0.784727273  0.781269136  0.481985075
     0.828848485  0.529900000  0.473931343
     0.825907308  0.859103704  0.467486567
     0.871893048  0.616512346  0.464665672
     0.869294118  0.775267901  0.455361194
     0.915604278  0.532880247  0.455805970
     0.913625668  0.862020988  0.448788060
     0.957725490  0.606639506  0.446859701
     0.957083779  0.777986420  0.444379104

  ion indices of the primitive-cell ions
   primitive index   ion index
                 1           1
                 2           2
                 3           3
                 4           4
                 5           5
                 6           6
                 7           7
                 8           8
                 9           9
                10          10
                11          11
                12          12
                13          13
                14          14
                15          15
                16          16
                17          17
                18          18
                19          19
                20          20
                21          21
                22          22
                23          23
                24          24
                25          25
                26          26
                27          27
                28          28
                29          29
                30          30
                31          31
                32          32
                33          33
                34          34
                35          35
                36          36
                37          37
                38          38
                39          39
                40          40
                41          41
                42          42
                43          43
                44          44
                45          45
                46          46
                47          47
                48          48
                49          49
                50          50
                51          51
                52          52
                53          53
                54          54
                55          55
                56          56
                57          57
                58          58
                59          59
                60          60
                61          61
                62          62
                63          63
                64          64
                65          65
                66          66
                67          67
                68          68
                69          69
                70          70
                71          71
                72          72
                73          73
                74          74
                75          75
                76          76
                77          77
                78          78
                79          79
                80          80
                81          81
                82          82
                83          83
                84          84
                85          85
                86          86
                87          87
                88          88
                89          89
                90          90
                91          91
                92          92

----------------------------------------------------------------------------------------

 
 
 KPOINTS: K-Spacing Value to Generate K-Mesh: 0.03

Automatic generation of k-mesh.
 Grid dimensions read from file:
 generate k-points for:    1    4    1

 Generating k-lattice:

  Cartesian coordinates                     Fractional coordinates (reciprocal lattice)
     0.035650624  0.000000000  0.000000000     1.000000000  0.000000000  0.000000000
     0.000000000  0.030864198  0.000000000     0.000000000  0.250000000  0.000000000
     0.000000000  0.000000000  0.029850746     0.000000000  0.000000000  1.000000000

  Length of vectors
     0.035650624  0.030864198  0.029850746

  Shift w.r.t. Gamma in fractional coordinates (k-lattice)
     0.000000000  0.000000000  0.000000000

 
 Subroutine IBZKPT returns following result:
 ===========================================
 
 Found      3 irreducible k-points:
 
 Following reciprocal coordinates:
            Coordinates               Weight
  0.000000  0.000000  0.000000      1.000000
  0.000000  0.250000  0.000000      2.000000
  0.000000  0.500000  0.000000      1.000000
 
 Following cartesian coordinates:
            Coordinates               Weight
  0.000000  0.000000  0.000000      1.000000
  0.000000  0.030864  0.000000      2.000000
  0.000000  0.061728  0.000000      1.000000
 


--------------------------------------------------------------------------------------------------------




 Dimension of arrays:
   k-points           NKPTS =      3   k-points in BZ     NKDIM =      3   number of bands    NBANDS=    232
   number of dos      NEDOS =    301   number of ions     NIONS =     92
   non local maximal  LDIM  =      4   non local SUM 2l+1 LMDIM =      8
   total plane-waves  NPLWV = ******
   max r-space proj   IRMAX =   1967   max aug-charges    IRDMAX=   5083
   dimension x,y,z NGX =   210 NGY =   60 NGZ =  250
   dimension x,y,z NGXF=   420 NGYF=  120 NGZF=  500
   support grid    NGXF=   420 NGYF=  120 NGZF=  500
   ions per type =              92
   NGX,Y,Z   is equivalent  to a cutoff of  12.45, 12.31, 12.41 a.u.
   NGXF,Y,Z  is equivalent  to a cutoff of  24.89, 24.63, 24.81 a.u.

 SYSTEM =  unknown system                          
 POSCAR =   C                                      

 Startparameter for this run:
   NWRITE =      2    write-flag & timer
   PREC   = accura    normal or accurate (medium, high low for compatibility)
   ISTART =      0    job   : 0-new  1-cont  2-samecut
   ICHARG =      2    charge: 1-file 2-atom 10-const
   ISPIN  =      1    spin polarized calculation?
   LNONCOLLINEAR =      F non collinear calculations
   LSORBIT =      F    spin-orbit coupling
   INIWAV =      1    electr: 0-lowe 1-rand  2-diag
   LASPH  =      F    aspherical Exc in radial PAW
 Electronic Relaxation 1
   ENCUT  =  500.0 eV  36.75 Ry    6.06 a.u.  51.14 14.77 61.08*2*pi/ulx,y,z
   ENINI  =  500.0     initial cutoff
   ENAUG  =  644.9 eV  augmentation charge cutoff
   NELM   =    150;   NELMIN=  2; NELMDL= -5     # of ELM steps 
   EDIFF  = 0.1E-05   stopping-criterion for ELM
   LREAL  =      T    real-space projection
   NLSPLINE    = F    spline interpolate recip. space projectors
   LCOMPAT=      F    compatible to vasp.4.4
   GGA_COMPAT  = T    GGA compatible to vasp.4.4-vasp.4.6
   LMAXPAW     = -100 max onsite density
   LMAXMIX     =    2 max onsite mixed and CHGCAR
   VOSKOWN=      0    Vosko Wilk Nusair interpolation
   ROPT   =   -0.00025
 Ionic relaxation
   EDIFFG = 0.1E-04   stopping-criterion for IOM
   NSW    =      0    number of steps for IOM
   NBLOCK =      1;   KBLOCK =      1    inner block; outer block 
   IBRION =     -1    ionic relax: 0-MD 1-quasi-New 2-CG
   NFREE  =      0    steps in history (QN), initial steepest desc. (CG)
   ISIF   =      2    stress and relaxation
   IWAVPR =     10    prediction:  0-non 1-charg 2-wave 3-comb
   ISYM   =      2    0-nonsym 1-usesym 2-fastsym
   LCORR  =      T    Harris-Foulkes like correction to forces

   POTIM  = 0.5000    time-step for ionic-motion
   TEIN   =    0.0    initial temperature
   TEBEG  =    0.0;   TEEND  =   0.0 temperature during run
   SMASS  =  -3.00    Nose mass-parameter (am)
   estimated Nose-frequenzy (Omega)   =  0.10E-29 period in steps = 0.13E+47 mass=  -0.180E-25a.u.
   SCALEE = 1.0000    scale energy and forces
   NPACO  =    256;   APACO  = 10.0  distance and # of slots for P.C.
   PSTRESS=    0.0 pullay stress

  Mass of Ions in am
   POMASS =  12.01
  Ionic Valenz
   ZVAL   =   4.00
  Atomic Wigner-Seitz radii
   RWIGS  =  -1.00
  virtual crystal weights 
   VCA    =   1.00
   NELECT =     368.0000    total number of electrons
   NUPDOWN=      -1.0000    fix difference up-down

 DOS related values:
   EMIN   =  10.00;   EMAX   =-10.00  energy-range for DOS
   EFERMI =   0.00;   METHOD = LEGACY      
   ISMEAR =     0;   SIGMA  =   0.20  broadening in eV -4-tet -1-fermi 0-gaus
   EFERMI_NEDOS =   21; number of points for ismear=-14 and -15

 Electronic relaxation 2 (details)
   IALGO  =     38    algorithm
   LDIAG  =      T    sub-space diagonalisation (order eigenvalues)
   LSUBROT=      F    optimize rotation matrix (better conditioning)
   TURBO    =      0    0=normal 1=particle mesh
   IRESTART =      0    0=no restart 2=restart with 2 vectors
   NREBOOT  =      0    no. of reboots
   NMIN     =      0    reboot dimension
   EREF     =   0.00    reference energy to select bands
   IMIX   =      4    mixing-type and parameters
     AMIX     =   0.40;   BMIX     =  1.00
     AMIX_MAG =   1.60;   BMIX_MAG =  1.00
     AMIN     =   0.10
     WC   =   100.;   INIMIX=   1;  MIXPRE=   1;  MAXMIX= -45

 Intra band minimization:
   WEIMIN = 0.0000     energy-eigenvalue tresh-hold
   EBREAK =  0.11E-08  absolut break condition
   DEPER  =   0.30     relativ break condition  

   TIME   =   0.40     timestep for ELM

  volume/ion in A,a.u.               =      82.73       558.30
  Fermi-wavevector in a.u.,A,eV,Ry     =   0.596398  1.127030  4.839472  0.355691
  Thomas-Fermi vector in A             =   1.646729
 
 Write flags
   LWAVE        =      F    write WAVECAR
   LDOWNSAMPLE  =      F    k-point downsampling of WAVECAR
   LCHARG       =      F    write CHGCAR
   LVTOT        =      F    write LOCPOT, total local potential
   LVHAR        =      F    write LOCPOT, Hartree potential only
   WRT_POTENTIAL= false  ! write potential to hdf5 file
   LELF         =      F    write electronic localiz. function (ELF)
   LORBIT       =      0    0 simple, 1 ext, 2 COOP (PROOUT), +10 PAW based schemes


 Python interface
   PLUGINS active      =      F    recompile with -DPLUGINS to activate
 
 Dipole corrections
   LMONO      =      F    monopole corrections only (constant potential shift)
   LDIPOL     =      F    correct potential (dipole corrections)
   IDIPOL     =      0    1-x, 2-y, 3-z, 4-all directions 
   EPSILON    =  1.0000000 bulk dielectric constant
   LVACPOTAV  =      F  vacuum potentials using an averaging scheme for the charge density
   VACPOTFLAT =  0.1000000 required flatness to determine vacuum potential
 
Coulomb truncation method
  LTRUNCATE          =      F  Coulomb kernel truncation to be used
  IDIMENSIONALITY    =      3  Dimensionality of cutoff (0 molecules / 2 surfaces)
  ISURFACE           =     -1  Direction of surface normal
  LCOARSEN           =      F  Coarsen the charge grid before padding, preferred

 
 Exchange correlation treatment:
   GGA     = PE    functional components
   XC_C    = 1    coefficients multiplying the functional components
   LIBXC   =     F    Libxc                    
   VOSKOWN =     0    Vosko Wilk Nusair interpolation
   LHFCALC =     F    Hartree Fock is set to
   LHFONE  =     F    Hartree Fock one center treatment
   AEXX    =    0.0000 exact exchange contribution

 Parameters of functionals:
   PE:
     No parameter
 
 Van der Waals corrections
   IVDW    =     0    specifies the selected vdW correction

 Linear response parameters
   LEPSILON=     F    determine dielectric tensor
   LRPA    =     F    only Hartree local field effects (RPA)
   LNABLA  =     F    use nabla operator in PAW spheres
   LVEL    =     F    velocity operator in full k-point grid
   CSHIFT  =0.1000    complex shift for real part using Kramers Kronig
   OMEGAMAX=  -1.0    maximum frequency
   DEG_THRESHOLD= 0.2000000E-02 threshold for treating states as degnerate
   RTIME   =   -0.100 relaxation time in fs
  (WPLASMAI=    0.000 imaginary part of plasma frequency in eV, 0.658/RTIME)
   DFIELD  = 0.0000000 0.0000000 0.0000000 field for delta impulse in time
 
  Optional k-point grid parameters
   LKPOINTS_OPT  =     F    use optional k-point grid
   KPOINTS_OPT_MODE=     1    mode for optional k-point grid
 
 Orbital magnetization related:
   ORBITALMAG=     F  switch on orbital magnetization
   LCHIMAG   =     F  perturbation theory with respect to B field
   DQ        =  0.001000  dq finite difference perturbation B field
   LLRAUG    =     F  two centre corrections for induced B field
   LBONE     =     F  B-component reconstruction in AE one-centre
   LVGVCALC  =     T  calculate vGv susceptibility
   LVGVAPPL  =     F  apply vGv susceptibility instead of pGv for G=0

 Random number generation:
   RANDOM_GENERATOR = DEFAULT
   PCG_SEED         = not used


--------------------------------------------------------------------------------------------------------


 Static calculation
 charge density and potential will be updated during run
 non-spin polarized calculation
 Variant of blocked Davidson
 Davidson routine will perform the subspace rotation
 perform sub-space diagonalisation
    after iterative eigenvector-optimisation
 modified Broyden-mixing scheme, WC =      100.0
 initial mixing is a Kerker type mixing with AMIX =  0.4000 and BMIX =      1.0000
 Hartree-type preconditioning will be used
 using additional bands            48
 real space projection scheme for non local part
 use partial core corrections
 calculate Harris-corrections to forces 
   (improved forces if not selfconsistent)
 use gradient corrections 
 use of overlap-Matrix (Vanderbilt PP)
 Gauss-broadening in eV      SIGMA  =   0.20


--------------------------------------------------------------------------------------------------------


  energy-cutoff  :      500.00
  volume of cell :     7611.37
      direct lattice vectors                 reciprocal lattice vectors
    28.050000000  0.000000000  0.000000000     0.035650624  0.000000000  0.000000000
     0.000000000  8.100000000  0.000000000     0.000000000  0.123456790  0.000000000
     0.000000000  0.000000000 33.500000000     0.000000000  0.000000000  0.029850746

  length of vectors
    28.050000000  8.100000000 33.500000000     0.035650624  0.123456790  0.029850746


 
 k-points in units of 2pi/SCALE and weight: K-Spacing Value to Generate K-Mesh: 0.03
   0.00000000  0.00000000  0.00000000       0.250
   0.00000000  0.03086420  0.00000000       0.500
   0.00000000  0.06172840  0.00000000       0.250
 
 k-points in reciprocal lattice and weights: K-Spacing Value to Generate K-Mesh: 0.03
   0.00000000  0.00000000  0.00000000       0.250
   0.00000000  0.25000000  0.00000000       0.500
   0.00000000  0.50000000  0.00000000       0.250
 
 position of ions in fractional coordinates (direct lattice) 
   0.00870556  0.10534815  0.45072239
   0.00851469  0.27517531  0.45054925
   0.05175544  0.02526235  0.45005075
   0.05009091  0.36195926  0.45497313
   0.09828520  0.10824951  0.45940299
   0.09498681  0.27757901  0.46354925
   0.13986168  0.02664951  0.47073433
   0.13912585  0.35890741  0.47434925
   0.18143244  0.10582000  0.48803284
   0.18155900  0.27650123  0.48881493
   0.21975294  0.01921481  0.50422388
   0.22290018  0.35730741  0.50361194
   0.26101818  0.09550198  0.52338507
   0.26159109  0.26753704  0.52316418
   0.30306560  0.01470975  0.53299701
   0.30344064  0.35318395  0.53536418
   0.34647344  0.09631037  0.54379701
   0.34707736  0.26424938  0.54495224
   0.39272014  0.01728407  0.54634328
   0.39170766  0.34623086  0.55088358
   0.43698039  0.09599926  0.54808955
   0.43547950  0.26692716  0.55181493
   0.48154724  0.01324333  0.54269552
   0.48351515  0.34608889  0.54634328
   0.52634581  0.09532370  0.53657910
   0.52593939  0.25743333  0.54169254
   0.56948663  0.01357259  0.52857910
   0.57117291  0.34836914  0.53760299
   0.61268449  0.10053827  0.52379701
   0.61257398  0.26846420  0.52549851
   0.65685918  0.02586296  0.51920896
   0.65754011  0.34944074  0.52242687
   0.69796078  0.10873679  0.50234925
   0.69966845  0.27511235  0.50751343
   0.74002852  0.02080420  0.48915821
   0.74270588  0.36052469  0.49762090
   0.78306239  0.10844506  0.48118806
   0.78403922  0.27999753  0.48315821
   0.82514082  0.02312407  0.46821791
   0.82778253  0.36352593  0.47298209
   0.86689483  0.10959654  0.45900896
   0.86949376  0.27931358  0.46375522
   0.91265597  0.03019259  0.45014030
   0.91464528  0.35991975  0.45760299
   0.95729412  0.10336025  0.44747463
   0.95534403  0.27768395  0.44766567
   0.00970410  0.61942716  0.44842687
   0.01117194  0.78348395  0.44417015
   0.05074831  0.52865926  0.45602985
   0.05462602  0.85984691  0.45191642
   0.09546916  0.60573210  0.45960597
   0.09750267  0.77209630  0.45720896
   0.13785668  0.52703580  0.47522090
   0.14010660  0.85800864  0.47205373
   0.17835651  0.60711358  0.49125970
   0.18112335  0.77110741  0.48593134
   0.22213155  0.52277778  0.50344179
   0.22295223  0.85300494  0.49967761
   0.26400357  0.60224321  0.51397015
   0.26480357  0.76889136  0.50940299
   0.30414403  0.52165679  0.53036119
   0.30585954  0.85482963  0.52436119
   0.34919144  0.60353704  0.53939701
   0.34956435  0.76949259  0.53390746
   0.39170410  0.51480247  0.54631343
   0.39188948  0.85283951  0.54291343
   0.43650980  0.59753086  0.54637313
   0.43556150  0.76484198  0.54466567
   0.48207843  0.51434568  0.54661791
   0.48131194  0.84131358  0.54007463
   0.52806417  0.59326790  0.54411045
   0.52526916  0.75938642  0.54237313
   0.57229947  0.51352099  0.54117313
   0.57048485  0.84953704  0.53468657
   0.61862389  0.60434321  0.53515224
   0.61645989  0.77154815  0.53516716
   0.66108021  0.51941975  0.52555522
   0.65874510  0.85359383  0.52237910
   0.70498396  0.60448025  0.51503582
   0.70285205  0.77144074  0.50952836
   0.74584670  0.52604815  0.50235522
   0.74291622  0.85268025  0.49363284
   0.78606417  0.61093827  0.48421791
   0.78472727  0.78126914  0.48198507
   0.82884848  0.52990000  0.47393134
   0.82590731  0.85910370  0.46748657
   0.87189305  0.61651235  0.46466567
   0.86929412  0.77526790  0.45536119
   0.91560428  0.53288025  0.45580597
   0.91362567  0.86202099  0.44878806
   0.95772549  0.60663951  0.44685970
   0.95708378  0.77798642  0.44437910
 
 position of ions in cartesian coordinates  (Angst):
   0.24419100  0.85332000 15.09920000
   0.23883700  2.22892000 15.09340000
   1.45174000  0.20462500 15.07670000
   1.40505000  2.93187000 15.24160000
   2.75690000  0.87682100 15.39000000
   2.66438000  2.24839000 15.52890000
   3.92312000  0.21586100 15.76960000
   3.90248000  2.90715000 15.89070000
   5.08918000  0.85714200 16.34910000
   5.09273000  2.23966000 16.37530000
   6.16407000  0.15564000 16.89150000
   6.25235000  2.89419000 16.87100000
   7.32156000  0.77356600 17.53340000
   7.33763000  2.16705000 17.52600000
   8.50099000  0.11914900 17.85540000
   8.51151000  2.86079000 17.93470000
   9.71858000  0.78011400 18.21720000
   9.73552000  2.14042000 18.25590000
  11.01580000  0.14000100 18.30250000
  10.98740000  2.80447000 18.45460000
  12.25730000  0.77759400 18.36100000
  12.21520000  2.16211000 18.48580000
  13.50740000  0.10727100 18.18030000
  13.56260000  2.80332000 18.30250000
  14.76400000  0.77212200 17.97540000
  14.75260000  2.08521000 18.14670000
  15.97410000  0.10993800 17.70740000
  16.02140000  2.82179000 18.00970000
  17.18580000  0.81436000 17.54720000
  17.18270000  2.17456000 17.60420000
  18.42490000  0.20949000 17.39350000
  18.44400000  2.83047000 17.50130000
  19.57780000  0.88076800 16.82870000
  19.62570000  2.22841000 17.00170000
  20.75780000  0.16851400 16.38680000
  20.83290000  2.92025000 16.67030000
  21.96490000  0.87840500 16.11980000
  21.99230000  2.26798000 16.18580000
  23.14520000  0.18730500 15.68530000
  23.21930000  2.94456000 15.84490000
  24.31640000  0.88773200 15.37680000
  24.38930000  2.26244000 15.53580000
  25.60000000  0.24456000 15.07970000
  25.65580000  2.91535000 15.32970000
  26.85210000  0.83721800 14.99040000
  26.79740000  2.24924000 14.99680000
   0.27220000  5.01736000 15.02230000
   0.31337300  6.34622000 14.87970000
   1.42349000  4.28214000 15.27700000
   1.53226000  6.96476000 15.13920000
   2.67791000  4.90643000 15.39680000
   2.73495000  6.25398000 15.31650000
   3.86688000  4.26899000 15.91990000
   3.92999000  6.94987000 15.81380000
   5.00290000  4.91762000 16.45720000
   5.08051000  6.24597000 16.27870000
   6.23079000  4.23450000 16.86530000
   6.25381000  6.90934000 16.73920000
   7.40530000  4.87817000 17.21800000
   7.42774000  6.22802000 17.06500000
   8.53124000  4.22542000 17.76710000
   8.57936000  6.92412000 17.56610000
   9.79482000  4.88865000 18.06980000
   9.80528000  6.23289000 17.88590000
  10.98730000  4.16990000 18.30150000
  10.99250000  6.90800000 18.18760000
  12.24410000  4.84000000 18.30350000
  12.21750000  6.19522000 18.24630000
  13.52230000  4.16620000 18.31170000
  13.50080000  6.81464000 18.09250000
  14.81220000  4.80547000 18.22770000
  14.73380000  6.15103000 18.16950000
  16.05300000  4.15952000 18.12930000
  16.00210000  6.88125000 17.91200000
  17.35240000  4.89518000 17.92760000
  17.29170000  6.24954000 17.92810000
  18.54330000  4.20730000 17.60610000
  18.47780000  6.91411000 17.49970000
  19.77480000  4.89629000 17.25370000
  19.71500000  6.24867000 17.06920000
  20.92100000  4.26099000 16.82890000
  20.83880000  6.90671000 16.53670000
  22.04910000  4.94860000 16.22130000
  22.01160000  6.32828000 16.14650000
  23.24920000  4.29219000 15.87670000
  23.16670000  6.95874000 15.66080000
  24.45660000  4.99375000 15.56630000
  24.38370000  6.27967000 15.25460000
  25.68270000  4.31633000 15.26950000
  25.62720000  6.98237000 15.03440000
  26.86420000  4.91378000 14.96980000
  26.84620000  6.30169000 14.88670000
 


--------------------------------------------------------------------------------------------------------


 k-point     1 :   0.0000 0.0000 0.0000  plane waves:  193173
 k-point     2 :   0.0000 0.2500 0.0000  plane waves:  193166
 k-point     3 :   0.0000 0.5000 0.0000  plane waves:  193226

 maximum and minimum number of plane-waves per node :    193226   193166

 maximum number of plane-waves:    193226
 maximum index in each direction: 
   IXMAX=   51   IYMAX=   14   IZMAX=   61
   IXMIN=  -51   IYMIN=  -15   IZMIN=  -61


 serial   3D FFT for wavefunctions
 parallel 3D FFT for charge:
    minimum data exchange during FFTs selected (reduces bandwidth)


 total amount of memory used by VASP MPI-rank0  2294513. kBytes
=======================================================================

   base                                    :      30000. kBytes
   nonlr-proj                              :      15079. kBytes
   fftplans                                :     436558. kBytes
   grid                                    :     732614. kBytes
   one-center                              :        282. kBytes
   wavefun                                 :    1079980. kBytes
 
     INWAV:  cpu time      0.0000: real time      0.0000
 Broyden mixing: mesh for mixing (old mesh)
   NGX =103   NGY = 29   NGZ =123
  (NGX  =420   NGY  =120   NGZ  =500)
  gives a total of 367401 points

 initial charge density was supplied:
 charge density of overlapping atoms calculated
 number of electron     368.0000000 magnetization 
 keeping initial charge density in first step


--------------------------------------------------------------------------------------------------------


 Maximum index for non-local projection operator          1872
 Maximum index for augmentation-charges          2385 (set IRDMAX)


--------------------------------------------------------------------------------------------------------


 First call to EWALD:  gamma=   0.090
 Maximum number of real-space cells   2x   6x   2
 Maximum number of reciprocal cells   4x   1x   4

    FEWALD:  cpu time      0.1602: real time      0.1602


--------------------------------------- Ionic step        1  -------------------------------------------




--------------------------------------- Iteration      1(   1)  ---------------------------------------


    POTLOK:  cpu time      0.4161: real time      0.4431
    SETDIJ:  cpu time      0.0429: real time      0.0429
     EDDAV:  cpu time     10.9679: real time     10.9761
       DOS:  cpu time      0.0008: real time      0.0008
    --------------------------------------------
      LOOP:  cpu time     11.4277: real time     11.4629

 eigenvalue-minimisations  :  1696
 total energy-change (2. order) : 0.3743225E+04  (-0.1185522E+05)
 number of electron     368.0000000 magnetization 
 augmentation part      368.0000000 magnetization 

 Free energy of the ion-electron system (eV)
  ---------------------------------------------------
  alpha Z        PSCENC =        91.34886789
  Ewald energy   TEWEN  =    119145.08698744
  -Hartree energ DENC   =   -128470.30279011
  -exchange      EXHF   =         0.00000000
  -V(xc)+E(xc)   XCENC  =      1221.30833007
  PAW double counting   =      9984.02826696   -10036.41360137
  entropy T*S    EENTRO =        -0.85916345
  eigenvalues    EBANDS =     -1728.62713133
  atomic energy  EATOM  =     13537.65479391
  Solvation  Ediel_sol  =         0.00000000
  ---------------------------------------------------
  free energy    TOTEN  =      3743.22456001 eV

  energy without entropy =     3744.08372346  energy(sigma->0) =     3743.65414174


--------------------------------------------------------------------------------------------------------




--------------------------------------- Iteration      1(   2)  ---------------------------------------


     EDDAV:  cpu time     13.1092: real time     13.1141
       DOS:  cpu time      0.0007: real time      0.0007
    --------------------------------------------
      LOOP:  cpu time     13.1099: real time     13.1148

 eigenvalue-minimisations  :  2144
 total energy-change (2. order) :-0.3553295E+04  (-0.3293997E+04)
 number of electron     368.0000000 magnetization 
 augmentation part      368.0000000 magnetization 

 Free energy of the ion-electron system (eV)
  ---------------------------------------------------
  alpha Z        PSCENC =        91.34886789
  Ewald energy   TEWEN  =    119145.08698744
  -Hartree energ DENC   =   -128470.30279011
  -exchange      EXHF   =         0.00000000
  -V(xc)+E(xc)   XCENC  =      1221.30833007
  PAW double counting   =      9984.02826696   -10036.41360137
  entropy T*S    EENTRO =        -0.18912576
  eigenvalues    EBANDS =     -5282.59185188
  atomic energy  EATOM  =     13537.65479391
  Solvation  Ediel_sol  =         0.00000000
  ---------------------------------------------------
  free energy    TOTEN  =       189.92987716 eV

  energy without entropy =      190.11900292  energy(sigma->0) =      190.02444004


--------------------------------------------------------------------------------------------------------




--------------------------------------- Iteration      1(   3)  ---------------------------------------


     EDDAV:  cpu time     11.3064: real time     11.3102
       DOS:  cpu time      0.0007: real time      0.0007
    --------------------------------------------
      LOOP:  cpu time     11.3071: real time     11.3109

 eigenvalue-minimisations  :  1792
 total energy-change (2. order) :-0.1023659E+04  (-0.1000753E+04)
 number of electron     368.0000000 magnetization 
 augmentation part      368.0000000 magnetization 

 Free energy of the ion-electron system (eV)
  ---------------------------------------------------
  alpha Z        PSCENC =        91.34886789
  Ewald energy   TEWEN  =    119145.08698744
  -Hartree energ DENC   =   -128470.30279011
  -exchange      EXHF   =         0.00000000
  -V(xc)+E(xc)   XCENC  =      1221.30833007
  PAW double counting   =      9984.02826696   -10036.41360137
  entropy T*S    EENTRO =        -0.05554452
  eigenvalues    EBANDS =     -6306.38401503
  atomic energy  EATOM  =     13537.65479391
  Solvation  Ediel_sol  =         0.00000000
  ---------------------------------------------------
  free energy    TOTEN  =      -833.72870475 eV

  energy without entropy =     -833.67316024  energy(sigma->0) =     -833.70093250


--------------------------------------------------------------------------------------------------------




--------------------------------------- Iteration      1(   4)  ---------------------------------------


     EDDAV:  cpu time     10.9013: real time     10.9052
       DOS:  cpu time      0.0007: real time      0.0007
    --------------------------------------------
      LOOP:  cpu time     10.9020: real time     10.9059

 eigenvalue-minimisations  :  1712
 total energy-change (2. order) :-0.6210234E+02  (-0.6112285E+02)
 number of electron     368.0000000 magnetization 
 augmentation part      368.0000000 magnetization 

 Free energy of the ion-electron system (eV)
  ---------------------------------------------------
  alpha Z        PSCENC =        91.34886789
  Ewald energy   TEWEN  =    119145.08698744
  -Hartree energ DENC   =   -128470.30279011
  -exchange      EXHF   =         0.00000000
  -V(xc)+E(xc)   XCENC  =      1221.30833007
  PAW double counting   =      9984.02826696   -10036.41360137
  entropy T*S    EENTRO =        -0.07493782
  eigenvalues    EBANDS =     -6368.46696453
  atomic energy  EATOM  =     13537.65479391
  Solvation  Ediel_sol  =         0.00000000
  ---------------------------------------------------
  free energy    TOTEN  =      -895.83104756 eV

  energy without entropy =     -895.75610974  energy(sigma->0) =     -895.79357865


--------------------------------------------------------------------------------------------------------




--------------------------------------- Iteration      1(   5)  ---------------------------------------


     EDDAV:  cpu time     11.3136: real time     11.3177
       DOS:  cpu time      0.0007: real time      0.0007
    CHARGE:  cpu time      1.2083: real time      1.2087
    MIXING:  cpu time      0.2759: real time      0.2759
    --------------------------------------------
      LOOP:  cpu time     12.7985: real time     12.8029

 eigenvalue-minimisations  :  1800
 total energy-change (2. order) :-0.1522842E+01  (-0.1500505E+01)
 number of electron     367.9999996 magnetization 
 augmentation part       10.1595086 magnetization 

 Broyden mixing:
  rms(total) = 0.45655E+01    rms(broyden)= 0.45649E+01
  rms(prec ) = 0.46830E+01
  weight for this iteration     100.00

 Free energy of the ion-electron system (eV)
  ---------------------------------------------------
  alpha Z        PSCENC =        91.34886789
  Ewald energy   TEWEN  =    119145.08698744
  -Hartree energ DENC   =   -128470.30279011
  -exchange      EXHF   =         0.00000000
  -V(xc)+E(xc)   XCENC  =      1221.30833007
  PAW double counting   =      9984.02826696   -10036.41360137
  entropy T*S    EENTRO =        -0.07554984
  eigenvalues    EBANDS =     -6369.98919486
  atomic energy  EATOM  =     13537.65479391
  Solvation  Ediel_sol  =         0.00000000
  ---------------------------------------------------
  free energy    TOTEN  =      -897.35388990 eV

  energy without entropy =     -897.27834006  energy(sigma->0) =     -897.31611498


--------------------------------------------------------------------------------------------------------




--------------------------------------- Iteration      1(   6)  ---------------------------------------


    POTLOK:  cpu time      0.3219: real time      0.3219
    SETDIJ:  cpu time      0.0416: real time      0.0416
     EDDAV:  cpu time     10.2121: real time     10.2158
       DOS:  cpu time      0.0007: real time      0.0007
    CHARGE:  cpu time      1.1589: real time      1.1604
    MIXING:  cpu time      0.2783: real time      0.2784
    --------------------------------------------
      LOOP:  cpu time     12.0136: real time     12.0189

 eigenvalue-minimisations  :  1576
 total energy-change (2. order) : 0.4994038E+02  (-0.4781192E+01)
 number of electron     367.9999996 magnetization 
 augmentation part        9.7364756 magnetization 

 Broyden mixing:
  rms(total) = 0.26815E+01    rms(broyden)= 0.26815E+01
  rms(prec ) = 0.27397E+01
  weight for this iteration     100.00

 eigenvalues of (default mixing * dielectric matrix)
  average eigenvalue GAMMA=   2.1826
  2.1826

 Free energy of the ion-electron system (eV)
  ---------------------------------------------------
  alpha Z        PSCENC =        91.34886789
  Ewald energy   TEWEN  =    119145.08698744
  -Hartree energ DENC   =   -129041.28964016
  -exchange      EXHF   =         0.00000000
  -V(xc)+E(xc)   XCENC  =      1244.70468950
  PAW double counting   =     18948.26934212   -19008.29003017
  entropy T*S    EENTRO =        -0.06953573
  eigenvalues    EBANDS =     -5764.82898556
  atomic energy  EATOM  =     13537.65479391
  Solvation  Ediel_sol  =         0.00000000
  ---------------------------------------------------
  free energy    TOTEN  =      -847.41351076 eV

  energy without entropy =     -847.34397503  energy(sigma->0) =     -847.37874290


--------------------------------------------------------------------------------------------------------




--------------------------------------- Iteration      1(   7)  ---------------------------------------


    POTLOK:  cpu time      0.3214: real time      0.3214
    SETDIJ:  cpu time      0.0415: real time      0.0415
     EDDAV:  cpu time     10.1679: real time     10.1713
       DOS:  cpu time      0.0008: real time      0.0008
    CHARGE:  cpu time      1.1541: real time      1.1553
    MIXING:  cpu time      0.2803: real time      0.2802
    --------------------------------------------
      LOOP:  cpu time     11.9659: real time     11.9705

 eigenvalue-minimisations  :  1568
 total energy-change (2. order) : 0.1858683E+02  (-0.6598272E+01)
 number of electron     367.9999996 magnetization 
 augmentation part        9.1816071 magnetization 

 Broyden mixing:
  rms(total) = 0.73616E+00    rms(broyden)= 0.73588E+00
  rms(prec ) = 0.74595E+00
  weight for this iteration     100.00

 eigenvalues of (default mixing * dielectric matrix)
  average eigenvalue GAMMA=   2.2042
  2.2042  2.2042

 Free energy of the ion-electron system (eV)
  ---------------------------------------------------
  alpha Z        PSCENC =        91.34886789
  Ewald energy   TEWEN  =    119145.08698744
  -Hartree energ DENC   =   -129807.30051940
  -exchange      EXHF   =         0.00000000
  -V(xc)+E(xc)   XCENC  =      1275.87911746
  PAW double counting   =     36611.42006584   -36678.36322517
  entropy T*S    EENTRO =        -0.06458476
  eigenvalues    EBANDS =     -5004.48818157
  atomic energy  EATOM  =     13537.65479391
  Solvation  Ediel_sol  =         0.00000000
  ---------------------------------------------------
  free energy    TOTEN  =      -828.82667836 eV

  energy without entropy =     -828.76209360  energy(sigma->0) =     -828.79438598


--------------------------------------------------------------------------------------------------------




--------------------------------------- Iteration      1(   8)  ---------------------------------------


    POTLOK:  cpu time      0.3209: real time      0.3209
    SETDIJ:  cpu time      0.0417: real time      0.0417
     EDDAV:  cpu time     10.2400: real time     10.2435
       DOS:  cpu time      0.0007: real time      0.0007
    CHARGE:  cpu time      1.1544: real time      1.1551
    MIXING:  cpu time      0.2809: real time      0.2824
    --------------------------------------------
      LOOP:  cpu time     12.0387: real time     12.0444

 eigenvalue-minimisations  :  1584
 total energy-change (2. order) : 0.2914800E+00  (-0.2513492E+00)
 number of electron     367.9999996 magnetization 
 augmentation part        9.1645923 magnetization 

 Broyden mixing:
  rms(total) = 0.99659E-01    rms(broyden)= 0.99626E-01
  rms(prec ) = 0.12223E+00
  weight for this iteration     100.00

 eigenvalues of (default mixing * dielectric matrix)
  average eigenvalue GAMMA=   1.8612
  1.2510  2.4329  1.8998

 Free energy of the ion-electron system (eV)
  ---------------------------------------------------
  alpha Z        PSCENC =        91.34886789
  Ewald energy   TEWEN  =    119145.08698744
  -Hartree energ DENC   =   -129901.79220203
  -exchange      EXHF   =         0.00000000
  -V(xc)+E(xc)   XCENC  =      1275.61409562
  PAW double counting   =     40902.48693226   -40966.72999178
  entropy T*S    EENTRO =        -0.06456598
  eigenvalues    EBANDS =     -4912.14011574
  atomic energy  EATOM  =     13537.65479391
  Solvation  Ediel_sol  =         0.00000000
  ---------------------------------------------------
  free energy    TOTEN  =      -828.53519840 eV

  energy without entropy =     -828.47063242  energy(sigma->0) =     -828.50291541


--------------------------------------------------------------------------------------------------------




--------------------------------------- Iteration      1(   9)  ---------------------------------------


    POTLOK:  cpu time      0.3213: real time      0.3212
    SETDIJ:  cpu time      0.0431: real time      0.0431
     EDDAV:  cpu time     10.5544: real time     10.5579
       DOS:  cpu time      0.0007: real time      0.0007
    CHARGE:  cpu time      1.1558: real time      1.1566
    MIXING:  cpu time      0.2870: real time      0.2869
    --------------------------------------------
      LOOP:  cpu time     12.3622: real time     12.3665

 eigenvalue-minimisations  :  1640
 total energy-change (2. order) : 0.1097234E+00  (-0.2757460E-01)
 number of electron     367.9999996 magnetization 
 augmentation part        9.1407181 magnetization 

 Broyden mixing:
  rms(total) = 0.58564E-01    rms(broyden)= 0.58555E-01
  rms(prec ) = 0.79911E-01
  weight for this iteration     100.00

 eigenvalues of (default mixing * dielectric matrix)
  average eigenvalue GAMMA=   1.7209
  2.2198  2.2198  1.2010  1.2432

 Free energy of the ion-electron system (eV)
  ---------------------------------------------------
  alpha Z        PSCENC =        91.34886789
  Ewald energy   TEWEN  =    119145.08698744
  -Hartree energ DENC   =   -129972.16163603
  -exchange      EXHF   =         0.00000000
  -V(xc)+E(xc)   XCENC  =      1277.08987581
  PAW double counting   =     41403.62711722   -41467.98206591
  entropy T*S    EENTRO =        -0.06476239
  eigenvalues    EBANDS =     -4843.02465297
  atomic energy  EATOM  =     13537.65479391
  Solvation  Ediel_sol  =         0.00000000
  ---------------------------------------------------
  free energy    TOTEN  =      -828.42547503 eV

  energy without entropy =     -828.36071264  energy(sigma->0) =     -828.39309384


--------------------------------------------------------------------------------------------------------




--------------------------------------- Iteration      1(  10)  ---------------------------------------


    POTLOK:  cpu time      0.3211: real time      0.3212
    SETDIJ:  cpu time      0.0416: real time      0.0416
     EDDAV:  cpu time     11.0244: real time     11.0284
       DOS:  cpu time      0.0007: real time      0.0007
    CHARGE:  cpu time      1.1576: real time      1.1573
    MIXING:  cpu time      0.2926: real time      0.2937
    --------------------------------------------
      LOOP:  cpu time     12.8381: real time     12.8429

 eigenvalue-minimisations  :  1736
 total energy-change (2. order) : 0.4220955E-01  (-0.5355663E-02)
 number of electron     367.9999996 magnetization 
 augmentation part        9.1310709 magnetization 

 Broyden mixing:
  rms(total) = 0.35687E-01    rms(broyden)= 0.35684E-01
  rms(prec ) = 0.54888E-01
  weight for this iteration     100.00

 eigenvalues of (default mixing * dielectric matrix)
  average eigenvalue GAMMA=   1.7427
  2.5103  2.5103  1.6172  1.2706  0.8049

 Free energy of the ion-electron system (eV)
  ---------------------------------------------------
  alpha Z        PSCENC =        91.34886789
  Ewald energy   TEWEN  =    119145.08698744
  -Hartree energ DENC   =   -130025.89123290
  -exchange      EXHF   =         0.00000000
  -V(xc)+E(xc)   XCENC  =      1277.42899760
  PAW double counting   =     41150.36344301   -41214.55555247
  entropy T*S    EENTRO =        -0.06490945
  eigenvalues    EBANDS =     -4789.75466051
  atomic energy  EATOM  =     13537.65479391
  Solvation  Ediel_sol  =         0.00000000
  ---------------------------------------------------
  free energy    TOTEN  =      -828.38326549 eV

  energy without entropy =     -828.31835604  energy(sigma->0) =     -828.35081076


--------------------------------------------------------------------------------------------------------




--------------------------------------- Iteration      1(  11)  ---------------------------------------


    POTLOK:  cpu time      0.3217: real time      0.3217
    SETDIJ:  cpu time      0.0414: real time      0.0414
     EDDAV:  cpu time     10.0633: real time     10.0667
       DOS:  cpu time      0.0007: real time      0.0007
    CHARGE:  cpu time      1.1665: real time      1.1697
    MIXING:  cpu time      0.2986: real time      0.2991
    --------------------------------------------
      LOOP:  cpu time     11.8923: real time     11.8994

 eigenvalue-minimisations  :  1544
 total energy-change (2. order) : 0.2790552E-01  (-0.2034550E-02)
 number of electron     367.9999996 magnetization 
 augmentation part        9.1261490 magnetization 

 Broyden mixing:
  rms(total) = 0.25334E-01    rms(broyden)= 0.25332E-01
  rms(prec ) = 0.38687E-01
  weight for this iteration     100.00

 eigenvalues of (default mixing * dielectric matrix)
  average eigenvalue GAMMA=   1.7833
  2.9383  2.5302  1.9270  0.9331  1.1856  1.1856

 Free energy of the ion-electron system (eV)
  ---------------------------------------------------
  alpha Z        PSCENC =        91.34886789
  Ewald energy   TEWEN  =    119145.08698744
  -Hartree energ DENC   =   -130087.00850543
  -exchange      EXHF   =         0.00000000
  -V(xc)+E(xc)   XCENC  =      1277.98262173
  PAW double counting   =     41098.42873980   -41162.52520135
  entropy T*S    EENTRO =        -0.06487810
  eigenvalues    EBANDS =     -4729.25878585
  atomic energy  EATOM  =     13537.65479391
  Solvation  Ediel_sol  =         0.00000000
  ---------------------------------------------------
  free energy    TOTEN  =      -828.35535996 eV

  energy without entropy =     -828.29048186  energy(sigma->0) =     -828.32292091


--------------------------------------------------------------------------------------------------------




--------------------------------------- Iteration      1(  12)  ---------------------------------------


    POTLOK:  cpu time      0.3202: real time      0.3202
    SETDIJ:  cpu time      0.0413: real time      0.0414
     EDDAV:  cpu time     10.1774: real time     10.1812
       DOS:  cpu time      0.0008: real time      0.0008
    CHARGE:  cpu time      1.1530: real time      1.1565
    MIXING:  cpu time      0.3055: real time      0.3066
    --------------------------------------------
      LOOP:  cpu time     11.9983: real time     12.0067

 eigenvalue-minimisations  :  1568
 total energy-change (2. order) : 0.3337464E-02  (-0.2330800E-02)
 number of electron     367.9999996 magnetization 
 augmentation part        9.1187998 magnetization 

 Broyden mixing:
  rms(total) = 0.15318E-01    rms(broyden)= 0.15314E-01
  rms(prec ) = 0.23558E-01
  weight for this iteration     100.00

 eigenvalues of (default mixing * dielectric matrix)
  average eigenvalue GAMMA=   2.0840
  4.9562  2.3809  2.1461  1.9442  0.9877  1.0863  1.0863

 Free energy of the ion-electron system (eV)
  ---------------------------------------------------
  alpha Z        PSCENC =        91.34886789
  Ewald energy   TEWEN  =    119145.08698744
  -Hartree energ DENC   =   -130149.49671079
  -exchange      EXHF   =         0.00000000
  -V(xc)+E(xc)   XCENC  =      1278.59396289
  PAW double counting   =     41163.63974497   -41227.73207273
  entropy T*S    EENTRO =        -0.06482793
  eigenvalues    EBANDS =     -4667.38276816
  atomic energy  EATOM  =     13537.65479391
  Solvation  Ediel_sol  =         0.00000000
  ---------------------------------------------------
  free energy    TOTEN  =      -828.35202250 eV

  energy without entropy =     -828.28719457  energy(sigma->0) =     -828.31960853


--------------------------------------------------------------------------------------------------------




--------------------------------------- Iteration      1(  13)  ---------------------------------------


    POTLOK:  cpu time      0.3200: real time      0.3200
    SETDIJ:  cpu time      0.0412: real time      0.0412
     EDDAV:  cpu time     10.2055: real time     10.2091
       DOS:  cpu time      0.0008: real time      0.0007
    CHARGE:  cpu time      1.1576: real time      1.1576
    MIXING:  cpu time      0.3152: real time      0.3152
    --------------------------------------------
      LOOP:  cpu time     12.0402: real time     12.0439

 eigenvalue-minimisations  :  1576
 total energy-change (2. order) :-0.1077212E-01  (-0.9929944E-03)
 number of electron     367.9999996 magnetization 
 augmentation part        9.1160984 magnetization 

 Broyden mixing:
  rms(total) = 0.93834E-02    rms(broyden)= 0.93813E-02
  rms(prec ) = 0.12669E-01
  weight for this iteration     100.00

 eigenvalues of (default mixing * dielectric matrix)
  average eigenvalue GAMMA=   2.0960
  5.4029  2.4767  2.4767  1.8741  1.2849  1.2849  0.8868  1.0813

 Free energy of the ion-electron system (eV)
  ---------------------------------------------------
  alpha Z        PSCENC =        91.34886789
  Ewald energy   TEWEN  =    119145.08698744
  -Hartree energ DENC   =   -130203.28370136
  -exchange      EXHF   =         0.00000000
  -V(xc)+E(xc)   XCENC  =      1278.81598958
  PAW double counting   =     41108.32369309   -41172.40624333
  entropy T*S    EENTRO =        -0.06480492
  eigenvalues    EBANDS =     -4613.83837690
  atomic energy  EATOM  =     13537.65479391
  Solvation  Ediel_sol  =         0.00000000
  ---------------------------------------------------
  free energy    TOTEN  =      -828.36279462 eV

  energy without entropy =     -828.29798969  energy(sigma->0) =     -828.33039215


--------------------------------------------------------------------------------------------------------




--------------------------------------- Iteration      1(  14)  ---------------------------------------


    POTLOK:  cpu time      0.3211: real time      0.3211
    SETDIJ:  cpu time      0.0414: real time      0.0414
     EDDAV:  cpu time     10.2560: real time     10.2595
       DOS:  cpu time      0.0007: real time      0.0007
    CHARGE:  cpu time      1.1527: real time      1.1553
    MIXING:  cpu time      0.3211: real time      0.3222
    --------------------------------------------
      LOOP:  cpu time     12.0929: real time     12.1002

 eigenvalue-minimisations  :  1584
 total energy-change (2. order) :-0.1925446E-01  (-0.1342852E-03)
 number of electron     367.9999996 magnetization 
 augmentation part        9.1151405 magnetization 

 Broyden mixing:
  rms(total) = 0.54375E-02    rms(broyden)= 0.54370E-02
  rms(prec ) = 0.76315E-02
  weight for this iteration     100.00

 eigenvalues of (default mixing * dielectric matrix)
  average eigenvalue GAMMA=   2.2355
  6.5623  3.0018  2.5306  1.9095  1.7711  1.2154  1.2154  0.9567  0.9567

 Free energy of the ion-electron system (eV)
  ---------------------------------------------------
  alpha Z        PSCENC =        91.34886789
  Ewald energy   TEWEN  =    119145.08698744
  -Hartree energ DENC   =   -130218.19229012
  -exchange      EXHF   =         0.00000000
  -V(xc)+E(xc)   XCENC  =      1278.83311074
  PAW double counting   =     41117.29076234   -41181.38349628
  entropy T*S    EENTRO =        -0.06483439
  eigenvalues    EBANDS =     -4598.95595060
  atomic energy  EATOM  =     13537.65479391
  Solvation  Ediel_sol  =         0.00000000
  ---------------------------------------------------
  free energy    TOTEN  =      -828.38204908 eV

  energy without entropy =     -828.31721468  energy(sigma->0) =     -828.34963188


--------------------------------------------------------------------------------------------------------




--------------------------------------- Iteration      1(  15)  ---------------------------------------


    POTLOK:  cpu time      0.3207: real time      0.3208
    SETDIJ:  cpu time      0.0414: real time      0.0414
     EDDAV:  cpu time     10.3002: real time     10.3039
       DOS:  cpu time      0.0007: real time      0.0007
    CHARGE:  cpu time      1.1580: real time      1.1582
    MIXING:  cpu time      0.3316: real time      0.3320
    --------------------------------------------
      LOOP:  cpu time     12.1526: real time     12.1570

 eigenvalue-minimisations  :  1592
 total energy-change (2. order) :-0.2042944E-01  (-0.1886494E-03)
 number of electron     367.9999996 magnetization 
 augmentation part        9.1149097 magnetization 

 Broyden mixing:
  rms(total) = 0.35292E-02    rms(broyden)= 0.35288E-02
  rms(prec ) = 0.44577E-02
  weight for this iteration     100.00

 eigenvalues of (default mixing * dielectric matrix)
  average eigenvalue GAMMA=   2.2541
  7.0150  3.5057  2.2661  2.2661  1.6586  1.4069  1.4069  1.1124  0.9518  0.9518

 Free energy of the ion-electron system (eV)
  ---------------------------------------------------
  alpha Z        PSCENC =        91.34886789
  Ewald energy   TEWEN  =    119145.08698744
  -Hartree energ DENC   =   -130228.60269703
  -exchange      EXHF   =         0.00000000
  -V(xc)+E(xc)   XCENC  =      1278.80345562
  PAW double counting   =     41114.60430061   -41178.69862454
  entropy T*S    EENTRO =        -0.06485008
  eigenvalues    EBANDS =     -4588.53471232
  atomic energy  EATOM  =     13537.65479391
  Solvation  Ediel_sol  =         0.00000000
  ---------------------------------------------------
  free energy    TOTEN  =      -828.40247852 eV

  energy without entropy =     -828.33762844  energy(sigma->0) =     -828.37005348


--------------------------------------------------------------------------------------------------------




--------------------------------------- Iteration      1(  16)  ---------------------------------------


    POTLOK:  cpu time      0.3218: real time      0.3219
    SETDIJ:  cpu time      0.0415: real time      0.0414
     EDDAV:  cpu time     10.4626: real time     10.4663
       DOS:  cpu time      0.0008: real time      0.0008
    CHARGE:  cpu time      1.1640: real time      1.1663
    MIXING:  cpu time      0.3408: real time      0.3408
    --------------------------------------------
      LOOP:  cpu time     12.3314: real time     12.3374

 eigenvalue-minimisations  :  1624
 total energy-change (2. order) :-0.7992366E-02  (-0.4518820E-04)
 number of electron     367.9999996 magnetization 
 augmentation part        9.1148054 magnetization 

 Broyden mixing:
  rms(total) = 0.20802E-02    rms(broyden)= 0.20801E-02
  rms(prec ) = 0.26273E-02
  weight for this iteration     100.00

 eigenvalues of (default mixing * dielectric matrix)
  average eigenvalue GAMMA=   2.3308
  7.9229  4.0205  2.3823  2.3823  1.8769  1.5084  1.5084  0.9231  0.9842  1.0646
  1.0646

 Free energy of the ion-electron system (eV)
  ---------------------------------------------------
  alpha Z        PSCENC =        91.34886789
  Ewald energy   TEWEN  =    119145.08698744
  -Hartree energ DENC   =   -130232.03838693
  -exchange      EXHF   =         0.00000000
  -V(xc)+E(xc)   XCENC  =      1278.79017040
  PAW double counting   =     41112.62960372   -41176.72146751
  entropy T*S    EENTRO =        -0.06484059
  eigenvalues    EBANDS =     -4585.09619921
  atomic energy  EATOM  =     13537.65479391
  Solvation  Ediel_sol  =         0.00000000
  ---------------------------------------------------
  free energy    TOTEN  =      -828.41047088 eV

  energy without entropy =     -828.34563029  energy(sigma->0) =     -828.37805059


--------------------------------------------------------------------------------------------------------




--------------------------------------- Iteration      1(  17)  ---------------------------------------


    POTLOK:  cpu time      0.3208: real time      0.3208
    SETDIJ:  cpu time      0.0413: real time      0.0413
     EDDAV:  cpu time     10.1368: real time     10.1403
       DOS:  cpu time      0.0007: real time      0.0007
    CHARGE:  cpu time      1.1572: real time      1.1573
    MIXING:  cpu time      0.3510: real time      0.3512
    --------------------------------------------
      LOOP:  cpu time     12.0079: real time     12.0117

 eigenvalue-minimisations  :  1560
 total energy-change (2. order) :-0.4445716E-02  (-0.2410629E-04)
 number of electron     367.9999996 magnetization 
 augmentation part        9.1147121 magnetization 

 Broyden mixing:
  rms(total) = 0.11275E-02    rms(broyden)= 0.11274E-02
  rms(prec ) = 0.14553E-02
  weight for this iteration     100.00

 eigenvalues of (default mixing * dielectric matrix)
  average eigenvalue GAMMA=   2.4056
  8.3930  4.7560  2.5236  2.5236  2.0252  1.4213  1.4213  1.5530  1.2410  0.9766
  0.9766  1.0559

 Free energy of the ion-electron system (eV)
  ---------------------------------------------------
  alpha Z        PSCENC =        91.34886789
  Ewald energy   TEWEN  =    119145.08698744
  -Hartree energ DENC   =   -130234.11743106
  -exchange      EXHF   =         0.00000000
  -V(xc)+E(xc)   XCENC  =      1278.78933525
  PAW double counting   =     41115.20437478   -41179.29459192
  entropy T*S    EENTRO =        -0.06483875
  eigenvalues    EBANDS =     -4583.02241414
  atomic energy  EATOM  =     13537.65479391
  Solvation  Ediel_sol  =         0.00000000
  ---------------------------------------------------
  free energy    TOTEN  =      -828.41491660 eV

  energy without entropy =     -828.35007785  energy(sigma->0) =     -828.38249722


--------------------------------------------------------------------------------------------------------




--------------------------------------- Iteration      1(  18)  ---------------------------------------


    POTLOK:  cpu time      0.3211: real time      0.3211
    SETDIJ:  cpu time      0.0414: real time      0.0414
     EDDAV:  cpu time     10.3671: real time     10.3708
       DOS:  cpu time      0.0007: real time      0.0007
    CHARGE:  cpu time      1.1534: real time      1.1549
    MIXING:  cpu time      0.3598: real time      0.3618
    --------------------------------------------
      LOOP:  cpu time     12.2436: real time     12.2506

 eigenvalue-minimisations  :  1608
 total energy-change (2. order) :-0.2516009E-02  (-0.1301364E-04)
 number of electron     367.9999996 magnetization 
 augmentation part        9.1146583 magnetization 

 Broyden mixing:
  rms(total) = 0.58502E-03    rms(broyden)= 0.58493E-03
  rms(prec ) = 0.74729E-03
  weight for this iteration     100.00

 eigenvalues of (default mixing * dielectric matrix)
  average eigenvalue GAMMA=   2.4115
  8.8446  5.0705  2.8683  2.5787  1.9594  1.8846  1.4922  1.4922  1.1427  1.1427
  0.9316  0.9316  1.0107

 Free energy of the ion-electron system (eV)
  ---------------------------------------------------
  alpha Z        PSCENC =        91.34886789
  Ewald energy   TEWEN  =    119145.08698744
  -Hartree energ DENC   =   -130235.06988606
  -exchange      EXHF   =         0.00000000
  -V(xc)+E(xc)   XCENC  =      1278.78881062
  PAW double counting   =     41115.44715112   -41179.53614351
  entropy T*S    EENTRO =        -0.06483900
  eigenvalues    EBANDS =     -4582.07317501
  atomic energy  EATOM  =     13537.65479391
  Solvation  Ediel_sol  =         0.00000000
  ---------------------------------------------------
  free energy    TOTEN  =      -828.41743261 eV

  energy without entropy =     -828.35259361  energy(sigma->0) =     -828.38501311


--------------------------------------------------------------------------------------------------------




--------------------------------------- Iteration      1(  19)  ---------------------------------------


    POTLOK:  cpu time      0.3212: real time      0.3212
    SETDIJ:  cpu time      0.0414: real time      0.0414
     EDDAV:  cpu time      9.4044: real time      9.4075
       DOS:  cpu time      0.0007: real time      0.0007
    CHARGE:  cpu time      1.1558: real time      1.1564
    MIXING:  cpu time      0.3714: real time      0.3728
    --------------------------------------------
      LOOP:  cpu time     11.2950: real time     11.3001

 eigenvalue-minimisations  :  1408
 total energy-change (2. order) :-0.8347762E-03  (-0.2346311E-05)
 number of electron     367.9999996 magnetization 
 augmentation part        9.1146704 magnetization 

 Broyden mixing:
  rms(total) = 0.42142E-03    rms(broyden)= 0.42140E-03
  rms(prec ) = 0.49715E-03
  weight for this iteration     100.00

 eigenvalues of (default mixing * dielectric matrix)
  average eigenvalue GAMMA=   2.4186
  8.9605  5.4950  3.1097  2.4116  2.4116  1.8922  1.4531  1.4531  1.3574  1.3574
  0.9789  0.9789  0.9371  1.0645

 Free energy of the ion-electron system (eV)
  ---------------------------------------------------
  alpha Z        PSCENC =        91.34886789
  Ewald energy   TEWEN  =    119145.08698744
  -Hartree energ DENC   =   -130235.33426129
  -exchange      EXHF   =         0.00000000
  -V(xc)+E(xc)   XCENC  =      1278.78653034
  PAW double counting   =     41113.52940496   -41177.61760991
  entropy T*S    EENTRO =        -0.06484010
  eigenvalues    EBANDS =     -4581.80814063
  atomic energy  EATOM  =     13537.65479391
  Solvation  Ediel_sol  =         0.00000000
  ---------------------------------------------------
  free energy    TOTEN  =      -828.41826738 eV

  energy without entropy =     -828.35342729  energy(sigma->0) =     -828.38584734


--------------------------------------------------------------------------------------------------------




--------------------------------------- Iteration      1(  20)  ---------------------------------------


    POTLOK:  cpu time      0.3197: real time      0.3198
    SETDIJ:  cpu time      0.0414: real time      0.0414
     EDDAV:  cpu time      9.0424: real time      9.0458
       DOS:  cpu time      0.0007: real time      0.0007
    CHARGE:  cpu time      1.1529: real time      1.1565
    MIXING:  cpu time      0.3849: real time      0.3849
    --------------------------------------------
      LOOP:  cpu time     10.9421: real time     10.9491

 eigenvalue-minimisations  :  1336
 total energy-change (2. order) :-0.3640070E-03  (-0.5288902E-06)
 number of electron     367.9999996 magnetization 
 augmentation part        9.1146582 magnetization 

 Broyden mixing:
  rms(total) = 0.19920E-03    rms(broyden)= 0.19919E-03
  rms(prec ) = 0.24884E-03
  weight for this iteration     100.00

 eigenvalues of (default mixing * dielectric matrix)
  average eigenvalue GAMMA=   2.4635
  9.1774  5.9793  3.7330  2.5575  2.5575  1.9207  1.5279  1.5279  1.6314  1.2091
  1.2091  1.0286  0.9564  0.9682  0.9682

 Free energy of the ion-electron system (eV)
  ---------------------------------------------------
  alpha Z        PSCENC =        91.34886789
  Ewald energy   TEWEN  =    119145.08698744
  -Hartree energ DENC   =   -130235.47630312
  -exchange      EXHF   =         0.00000000
  -V(xc)+E(xc)   XCENC  =      1278.78613451
  PAW double counting   =     41114.59174803   -41178.68033016
  entropy T*S    EENTRO =        -0.06483974
  eigenvalues    EBANDS =     -4581.66569016
  atomic energy  EATOM  =     13537.65479391
  Solvation  Ediel_sol  =         0.00000000
  ---------------------------------------------------
  free energy    TOTEN  =      -828.41863139 eV

  energy without entropy =     -828.35379165  energy(sigma->0) =     -828.38621152


--------------------------------------------------------------------------------------------------------




--------------------------------------- Iteration      1(  21)  ---------------------------------------


    POTLOK:  cpu time      0.3210: real time      0.3210
    SETDIJ:  cpu time      0.0414: real time      0.0414
     EDDAV:  cpu time      8.7964: real time      8.7996
       DOS:  cpu time      0.0008: real time      0.0008
    CHARGE:  cpu time      1.1638: real time      1.1683
    MIXING:  cpu time      0.3979: real time      0.3978
    --------------------------------------------
      LOOP:  cpu time     10.7211: real time     10.7289

 eigenvalue-minimisations  :  1288
 total energy-change (2. order) :-0.1998956E-03  (-0.2725456E-06)
 number of electron     367.9999996 magnetization 
 augmentation part        9.1146565 magnetization 

 Broyden mixing:
  rms(total) = 0.10532E-03    rms(broyden)= 0.10530E-03
  rms(prec ) = 0.12898E-03
  weight for this iteration     100.00

 eigenvalues of (default mixing * dielectric matrix)
  average eigenvalue GAMMA=   2.4207
  9.2136  6.1678  3.8333  2.5275  2.5275  2.0822  1.7118  1.4909  1.4909  1.3223
  1.3223  1.1572  1.0093  1.0093  0.9324  0.9324

 Free energy of the ion-electron system (eV)
  ---------------------------------------------------
  alpha Z        PSCENC =        91.34886789
  Ewald energy   TEWEN  =    119145.08698744
  -Hartree energ DENC   =   -130235.57445693
  -exchange      EXHF   =         0.00000000
  -V(xc)+E(xc)   XCENC  =      1278.78555452
  PAW double counting   =     41113.52423294   -41177.61317972
  entropy T*S    EENTRO =        -0.06483990
  eigenvalues    EBANDS =     -4581.56679144
  atomic energy  EATOM  =     13537.65479391
  Solvation  Ediel_sol  =         0.00000000
  ---------------------------------------------------
  free energy    TOTEN  =      -828.41883129 eV

  energy without entropy =     -828.35399139  energy(sigma->0) =     -828.38641134


[...]
   0.287E+02 -.190E+02 -.166E+03   -.292E+02 0.197E+02 0.166E+03   -.294E+00 0.700E+00 0.515E+00   -.333E-05 0.590E-06 -.313E-05
   0.134E+02 -.211E+02 -.144E+03   -.141E+02 0.225E+02 0.144E+03   -.922E+00 -.331E+00 -.986E-01   -.251E-05 0.389E-05 -.235E-05
   0.190E+02 0.732E+01 -.194E+03   -.200E+02 -.749E+01 0.194E+03   -.610E-01 0.312E+00 -.796E+00   -.388E-05 -.123E-05 -.302E-05
   -.104E+02 0.665E+01 -.137E+03   0.112E+02 -.586E+01 0.137E+03   -.341E+00 0.283E-01 0.248E+00   0.241E-05 -.470E-06 -.260E-05
   -.141E+02 -.145E+02 -.185E+03   0.165E+02 0.145E+02 0.185E+03   0.989E+00 -.697E+00 -.105E+01   0.990E-06 0.183E-05 -.293E-05
   -.420E+01 -.108E+02 -.905E+02   0.462E+01 0.105E+02 0.906E+02   -.224E+00 0.105E-01 -.980E+00   0.363E-05 -.103E-05 -.182E-05
   0.547E+01 0.158E+02 -.114E+03   -.734E+01 -.165E+02 0.114E+03   -.166E+01 -.334E+00 0.116E+01   0.422E-05 0.241E-05 -.277E-05
   0.378E+01 0.185E+02 -.394E+02   -.459E+01 -.206E+02 0.390E+02   -.828E+00 -.132E+00 0.560E+00   0.938E-05 -.228E-05 -.214E-05
   -.127E+02 -.190E+02 -.108E+03   0.139E+02 0.212E+02 0.108E+03   0.459E+00 0.195E+01 -.613E+00   0.684E-05 0.230E-05 -.212E-05
   0.439E+01 -.633E+01 0.157E+02   -.426E+01 0.692E+01 -.163E+02   -.132E+00 0.508E+00 0.129E+01   0.800E-05 -.148E-05 -.535E-07
   -.223E+01 0.128E+02 -.108E+03   0.975E+00 -.141E+02 0.108E+03   -.158E+00 -.511E+00 -.752E+00   0.750E-05 0.278E-05 -.228E-05
   0.199E+01 0.120E+02 -.160E+02   -.237E+01 -.125E+02 0.159E+02   0.164E+00 0.158E+00 -.326E-01   0.218E-05 0.102E-07 0.677E-06
   -.480E+01 -.179E+02 -.160E+02   0.486E+01 0.186E+02 0.152E+02   0.117E+01 0.199E-01 0.161E+01   0.126E-05 -.160E-05 0.933E-06
   -.289E+02 -.393E+01 -.695E+02   0.302E+02 0.321E+01 0.695E+02   -.138E+00 -.101E+01 -.203E+01   -.347E-05 0.621E-06 0.596E-06
   -.149E+02 0.994E+01 -.945E+02   0.148E+02 -.101E+02 0.952E+02   0.617E+00 0.990E+00 -.165E+01   0.168E-06 0.224E-05 -.950E-06
   0.125E+02 0.188E+02 0.531E+02   -.123E+02 -.201E+02 -.537E+02   0.247E+00 -.756E+00 0.133E+01   -.434E-05 0.462E-05 0.276E-05
   -.101E+02 -.139E+02 -.174E+02   0.102E+02 0.145E+02 0.174E+02   0.503E-01 -.298E+00 -.199E+00   -.376E-05 -.178E-05 0.857E-06
   0.319E+02 -.142E+02 0.887E+02   -.325E+02 0.153E+02 -.890E+02   0.282E+00 0.116E+01 0.139E+01   -.159E-05 0.748E-06 0.924E-06
   0.222E+00 0.185E+02 -.775E+01   -.258E+00 -.195E+02 0.750E+01   0.469E+00 -.638E+00 0.313E+00   -.262E-05 -.734E-06 0.196E-06
   0.767E+01 0.244E+01 0.462E+02   -.773E+01 -.252E+01 -.459E+02   -.130E-01 -.265E+00 -.133E+01   -.120E-05 0.221E-05 0.612E-06
   0.351E+01 -.704E+01 0.441E+02   -.343E+01 0.709E+01 -.444E+02   0.215E+00 -.614E+00 0.214E+00   -.119E-05 0.431E-06 0.417E-08
   0.176E+02 -.213E+02 0.978E+02   -.186E+02 0.230E+02 -.978E+02   0.481E+00 0.130E+01 0.543E-01   0.149E-05 0.363E-05 0.634E-06
   0.132E+02 0.161E+02 0.566E+02   -.139E+02 -.171E+02 -.562E+02   -.337E+00 -.419E+00 0.480E+00   0.155E-05 -.248E-05 -.677E-06
   0.743E+01 0.812E+01 0.132E+03   -.655E+01 -.771E+01 -.133E+03   0.195E+01 0.155E+00 0.161E+00   0.704E-05 0.511E-05 0.322E-06
   -.612E+01 -.674E+01 0.685E+02   0.695E+01 0.621E+01 -.685E+02   0.186E+00 -.223E+00 -.524E+00   0.801E-05 -.140E-05 -.108E-05
   0.129E+02 -.149E+02 0.154E+03   -.141E+02 0.156E+02 -.154E+03   0.741E+00 -.662E+00 0.674E-02   -.183E-05 0.102E-04 0.377E-05
   -.231E+01 0.680E+00 0.633E+02   0.153E+01 -.664E-02 -.621E+02   -.252E+00 -.241E+00 -.162E+01   -.161E-05 -.967E-05 0.199E-05
   -.523E+01 0.601E+02 0.160E+03   0.203E+01 -.604E+02 -.160E+03   0.526E-01 0.267E+01 0.153E+00   0.127E-05 0.101E-04 0.505E-05
   -.651E+01 -.572E+02 0.182E+03   0.489E+01 0.571E+02 -.183E+03   0.222E+01 -.156E+01 0.208E+01   -.140E-05 -.570E-05 0.609E-05
   0.273E+01 0.670E+02 0.142E+03   0.496E+00 -.692E+02 -.142E+03   -.157E+01 -.708E+00 0.125E+00   -.157E-05 -.131E-05 0.313E-05
   0.969E+01 -.714E+02 0.210E+03   -.762E+01 0.737E+02 -.211E+03   -.201E+01 -.232E+01 0.181E+01   0.394E-07 -.441E-05 0.395E-05
   0.856E+01 0.155E+01 0.859E+02   -.897E+01 -.765E+00 -.853E+02   0.528E+00 0.408E+00 -.146E+01   -.438E-05 -.759E-05 0.126E-05
   -.926E+01 0.358E+01 0.128E+03   0.976E+01 -.418E+01 -.127E+03   -.173E+01 -.591E+00 -.263E+01   -.734E-06 0.833E-05 0.248E-05
   -.280E+02 0.227E+02 0.143E+03   0.285E+02 -.237E+02 -.143E+03   0.590E+00 0.526E+00 0.144E+01   0.358E-05 -.655E-05 0.294E-05
   -.394E+02 -.177E+02 0.171E+03   0.409E+02 0.188E+02 -.172E+03   -.556E+00 0.112E+01 0.164E+01   0.429E-05 0.559E-05 0.277E-05
   -.152E+01 -.130E+02 0.566E+02   0.120E+01 0.132E+02 -.566E+02   0.489E-01 -.331E+00 -.106E+00   0.734E-05 -.379E-05 0.335E-05
   -.869E+01 0.128E+02 0.850E+02   0.803E+01 -.138E+02 -.848E+02   -.452E-01 -.616E+00 -.144E+01   0.743E-05 0.603E-05 0.358E-05
   0.155E+02 0.205E+02 -.359E+02   -.153E+02 -.220E+02 0.366E+02   0.101E+01 -.437E+00 -.198E+01   0.281E-05 0.296E-07 -.129E-06
   -.819E+01 -.157E+02 0.609E+02   0.848E+01 0.171E+02 -.617E+02   -.637E+00 0.906E+00 0.115E+01   0.194E-05 -.983E-07 0.115E-05
   0.208E+02 -.131E+02 -.148E+02   -.221E+02 0.142E+02 0.147E+02   -.349E+00 0.745E-01 -.236E+00   -.506E-07 -.193E-05 -.574E-06
   -.196E+01 0.776E+01 0.250E+02   0.143E+01 -.843E+01 -.253E+02   -.497E+00 -.219E+00 -.513E+00   -.255E-05 0.713E-06 -.677E-06
   -.398E+01 0.138E+02 -.210E+02   0.449E+01 -.143E+02 0.213E+02   0.150E+00 0.282E+00 0.151E-01   -.691E-05 -.224E-05 -.204E-05
   -.204E+02 -.101E+02 0.460E+02   0.214E+02 0.110E+02 -.461E+02   0.874E-01 0.752E+00 0.149E+01   -.699E-05 -.152E-05 -.159E-05
   0.151E+02 -.117E+02 -.102E+03   -.140E+02 0.121E+02 0.102E+03   0.426E+00 -.265E+00 0.837E-01   -.678E-05 -.121E-05 -.257E-05
   -.585E-01 0.187E+02 -.216E+02   0.822E-01 -.211E+02 0.211E+02   0.397E+00 -.120E+01 0.233E+00   -.550E-05 0.876E-06 -.191E-05
   0.234E+02 0.173E+02 -.129E+03   -.243E+02 -.184E+02 0.129E+03   -.657E+00 -.599E+00 -.138E+01   -.402E-05 -.138E-05 -.159E-05
   0.115E+02 -.840E+01 -.432E+02   -.122E+02 0.926E+01 0.424E+02   -.273E+00 0.246E+00 0.114E+01   -.454E-05 -.889E-06 -.204E-05
   0.105E+02 -.664E+01 -.135E+03   -.101E+02 0.686E+01 0.135E+03   0.251E+00 0.673E+00 0.484E+00   -.168E-05 -.203E-06 -.221E-05
   0.449E+01 0.136E+02 -.112E+03   -.444E+01 -.146E+02 0.112E+03   0.787E+00 -.113E+01 -.525E+00   -.142E-05 -.279E-05 -.190E-05
   -.649E+01 0.194E+02 -.117E+03   0.641E+01 -.204E+02 0.117E+03   0.341E+00 -.443E+00 0.248E+00   0.134E-05 -.124E-05 -.210E-05
   -.257E+01 -.130E+02 -.109E+03   0.288E+01 0.140E+02 0.109E+03   0.101E+01 -.144E+00 -.898E+00   0.287E-05 -.630E-07 -.166E-05
   -.325E+00 -.158E+02 -.121E+03   0.519E+00 0.164E+02 0.121E+03   0.530E+00 -.193E+00 -.306E+00   0.685E-05 -.912E-06 -.253E-05
   -.178E+01 0.905E+01 -.346E+02   0.915E+00 -.877E+01 0.338E+02   -.214E+00 0.806E+00 0.221E+01   0.540E-05 -.120E-05 -.153E-05
   -.111E+02 0.149E+02 -.123E+03   0.105E+02 -.158E+02 0.123E+03   -.101E+01 0.629E+00 0.564E+00   0.587E-05 -.774E-06 -.226E-05
   -.190E+02 -.182E+02 -.116E+03   0.204E+02 0.194E+02 0.116E+03   0.103E+01 0.124E+01 -.195E+01   0.559E-05 -.174E-05 -.194E-05
   -.325E+02 -.226E+02 -.142E+03   0.344E+02 0.243E+02 0.142E+03   -.283E+00 0.550E+00 -.334E+00   0.433E-05 -.274E-05 -.284E-05
   -.911E+00 0.265E+02 -.697E+02   -.126E+00 -.286E+02 0.699E+02   0.455E+00 -.426E+00 0.848E+00   0.867E-05 0.284E-05 -.161E-05
   -.131E+02 0.169E+02 -.141E+03   0.122E+02 -.183E+02 0.141E+03   -.123E+01 -.106E+01 0.615E+00   0.430E-05 0.314E-05 -.288E-05
   -.227E+02 -.170E+02 -.160E+03   0.225E+02 0.181E+02 0.161E+03   0.189E+00 -.198E+00 -.196E+01   0.258E-05 -.200E-05 -.304E-05
   -.296E+02 -.110E+02 -.115E+03   0.298E+02 0.112E+02 0.115E+03   -.320E+00 0.449E+00 0.566E+00   -.226E-05 0.505E-06 -.833E-06
   -.278E+02 0.111E+02 -.864E+02   0.284E+02 -.108E+02 0.857E+02   0.551E+00 0.353E+00 0.209E+00   -.419E-05 -.804E-06 0.626E-06
   -.150E+02 0.922E+01 -.117E+03   0.139E+02 -.940E+01 0.118E+03   -.883E+00 0.261E-02 -.407E+00   -.388E-05 0.293E-05 -.947E-06
   0.485E+01 -.195E+02 -.375E+02   -.629E+01 0.200E+02 0.378E+02   -.422E+00 0.290E+00 0.106E+01   -.176E-05 -.506E-05 0.686E-06
   -.381E+02 -.112E+02 -.784E+02   0.398E+02 0.120E+02 0.784E+02   -.438E+00 0.515E-01 -.155E+01   -.727E-05 -.410E-06 0.170E-05
   0.164E+02 0.605E+01 0.174E+02   -.174E+02 -.549E+01 -.169E+02   -.624E+00 0.104E+01 -.430E+00   -.626E-05 -.159E-05 0.256E-05
   0.120E+02 0.146E+02 0.364E+02   -.124E+02 -.149E+02 -.365E+02   0.227E+00 -.334E+00 0.150E+01   -.155E-05 -.367E-05 0.977E-07
   0.220E+01 -.597E+01 0.471E+02   -.106E+01 0.494E+01 -.472E+02   0.451E-01 -.151E+01 -.335E+00   -.305E-05 0.257E-05 0.955E-06
   -.247E+01 -.121E+02 0.430E+02   0.245E+01 0.132E+02 -.427E+02   -.267E+00 0.354E+00 0.785E-01   -.296E-05 -.546E-05 0.436E-06
   0.816E+01 0.198E+02 0.112E+03   -.729E+01 -.215E+02 -.113E+03   -.374E+00 -.824E-01 -.179E+00   -.319E-05 0.356E-05 0.160E-05
   -.596E+01 0.199E+02 0.317E+02   0.649E+01 -.214E+02 -.306E+02   -.312E+00 -.144E+01 -.239E+01   -.217E-05 -.785E-05 0.317E-05
   0.259E+02 -.208E+02 0.186E+03   -.260E+02 0.227E+02 -.188E+03   0.698E-01 0.115E+01 0.260E+01   -.266E-05 0.530E-05 0.594E-06
   0.450E+00 0.509E+01 0.929E+02   -.182E+01 -.620E+01 -.924E+02   0.473E+00 -.700E+00 0.498E+00   0.190E-05 -.115E-04 0.180E-05
   0.350E+01 0.493E+01 0.166E+03   -.364E+01 -.537E+01 -.166E+03   -.799E-01 -.128E+01 -.514E+00   -.275E-06 0.993E-05 0.286E-05
   -.950E+01 0.678E+02 0.174E+03   0.806E+01 -.689E+02 -.174E+03   0.788E+00 0.336E+01 0.971E+00   0.404E-05 -.137E-05 0.323E-05
   -.474E+01 -.635E+02 0.191E+03   0.169E+01 0.645E+02 -.192E+03   0.140E+01 -.291E+00 0.474E+00   0.221E-05 -.340E-05 0.395E-05
 -----------------------------------------------------------------------------------------------
   0.148E+00 -.929E+00 -.121E+01   -.782E-12 -.284E-13 0.597E-12   -.211E+00 0.890E+00 0.119E+01   -.389E-06 -.184E-05 0.420E-05
 
 
 POSITION                                       TOTAL-FORCE (eV/Angst)
 -----------------------------------------------------------------------------------
      0.24419      0.85332     15.09920         1.427106      0.440957     -0.924566
      0.23884      2.22892     15.09340         0.464047      0.475572      0.004514
      1.45174      0.20462     15.07670         3.108785      1.864025      1.633719
      1.40505      2.93187     15.24160         1.254856     -1.971735      1.097263
      2.75690      0.87682     15.39000        -3.189797      0.771906     -0.407051
      2.66438      2.24839     15.52890         0.903513      0.002481     -0.619842
      3.92312      0.21586     15.76960         1.439945      0.036580      0.914519
      3.90248      2.90715     15.89070        -0.507530     -1.011629      0.597606
      5.08918      0.85714     16.34910        -1.536250      0.356861     -0.432188
      5.09273      2.23966     16.37530        -0.761697     -0.218460     -0.287773
      6.16407      0.15564     16.89150         2.224828      1.001593      0.723586
      6.25235      2.89419     16.87100        -0.498730     -2.816014      1.166276
      7.32156      0.77357     17.53340        -1.968138      1.776773     -1.235935
      7.33763      2.16705     17.52600        -0.374246      0.700848     -0.801056
      8.50099      0.11915     17.85540         1.123205      1.622746      0.229089
      8.51151      2.86079     17.93470         0.316829     -1.217166     -0.079819
      9.71858      0.78011     18.21720         0.796087     -0.072009      0.066107
      9.73552      2.14042     18.25590        -0.802690      1.437232      0.479764
     11.01580      0.14000     18.30250        -1.637608      1.104489     -0.145030
     10.98740      2.80447     18.45460        -1.098844      0.142236     -0.505076
     12.25730      0.77759     18.36100         0.459232      0.822893      0.270724
     12.21520      2.16211     18.48580         3.356187     -0.687676     -0.951762
     13.50740      0.10727     18.18030         0.202579     -0.221200     -0.825304
     13.56260      2.80332     18.30250        -3.527663     -1.015732      1.232796
     14.76400      0.77212     17.97540        -1.636012     -2.241954      0.140305
     14.75260      2.08521     18.14670         1.660329      4.142205     -0.298630
     15.97410      0.10994     17.70740        -0.001188      1.097918      0.665935
     16.02140      2.82179     18.00970        -1.414862     -1.837765     -0.398903
     17.18580      0.81436     17.54720        -0.220214     -0.309896     -0.092293
     17.18270      2.17456     17.60420         1.227646      0.753484      0.837768
     18.42490      0.20949     17.39350         1.215745     -1.723953     -2.011782
     18.44400      2.83047     17.50130         0.554185      0.858838     -0.919256
     19.57780      0.88077     16.82870         0.399834     -2.070059      0.740376
     19.62570      2.22841     17.00170         0.173892      0.302800     -0.216216
     20.75780      0.16851     16.38680        -0.362211      2.198995      1.144873
     20.83290      2.92025     16.67030         0.433609     -1.627441      0.064369
     21.96490      0.87841     16.11980        -0.074985     -0.347062     -1.029073
     21.99230      2.26798     16.18580         0.295037     -0.567305     -0.097512
     23.14520      0.18731     15.68530        -0.449846      3.001623      0.031880
     23.21930      2.94456     15.84490        -1.131296     -1.418662      0.862778
     24.31640      0.88773     15.37680         2.819361      0.567909     -0.237737
     24.38930      2.26244     15.53580         1.014669     -0.743766     -0.604196
     25.60000      0.24456     15.07970        -0.449787     -0.004587      0.265395
     25.65580      2.91535     15.32970        -1.027077      0.432525     -0.409206
     26.85210      0.83722     14.99040        -3.144766      2.300476     -0.112020
     26.79740      2.24924     14.99680         0.598236     -1.664580      0.848881
      0.27220      5.01736     15.02230         1.662673     -2.917540     -0.122179
      0.31337      6.34622     14.87970         0.058219     -0.057290      0.597536
      1.42349      4.28214     15.27700         0.120061      1.191637     -0.860558
      1.53226      6.96476     15.13920        -1.234243     -1.191363     -1.683887
      2.67791      4.90643     15.39680         1.093223     -0.464778      1.321693
      2.73495      6.25398     15.31650         0.966780      2.224924      1.457154
      3.86688      4.26899     15.91990        -0.270070     -0.038918     -0.084026
      3.92999      6.94987     15.81380        -0.707568     -1.662151     -1.246863
      5.00290      4.91762     16.45720         1.193877     -1.870581     -1.251008
      5.08051      6.24597     16.27870        -0.342652      2.292351      0.359692
      6.23079      4.23450     16.86530        -1.653531      1.174835     -0.383388
      6.25381      6.90934     16.73920        -1.032957     -0.893712     -0.762490
      7.40530      4.87817     17.21800         0.665420     -0.212598      0.304549
      7.42774      6.22802     17.06500         1.111978      1.730966      1.372370
      8.53124      4.22542     17.76710         1.478941      0.175523      0.314305
      8.57936      6.92412     17.56610         0.421292     -3.584299     -0.315989
      9.79482      4.88865     18.06980        -1.587231     -1.731059     -1.308112
      9.80528      6.23289     17.88590        -0.899278      1.107460      0.325838
     10.98730      4.16990     18.30150         0.630842      0.892719      0.456251
     10.99250      6.90800     18.18760         0.836523     -2.190254     -0.505276
     12.24410      4.84000     18.30350         0.252937     -1.445438      0.145235
     12.21750      6.19522     18.24630         1.318160      0.820221     -0.602012
     13.52230      4.16620     18.31170         0.725651      0.396289     -0.128693
     13.50080      6.81464     18.09250        -1.081575      1.082284      1.448664
     14.81220      4.80547     18.22770        -1.562915     -0.307889      0.580597
     14.73380      6.15103     18.16950         2.414548      2.522088     -1.415663
     16.05300      4.15952     18.12930         1.634025      2.206688     -0.216805
     16.00210      6.88125     17.91200        -0.580552     -2.481512      1.029570
     17.35240      4.89518     17.92760        -2.119165     -2.483305      0.659077
     17.29170      6.24954     17.92810        -0.053447      0.822033     -1.255422
     18.54330      4.20730     17.60610        -0.031871      0.672524      0.570892
     18.47780      6.91411     17.49970         1.180597      0.702222     -0.530225
     19.77480      4.89629     17.25370        -1.928141     -0.173906      0.324472
     19.71500      6.24867     17.06920        -1.855529      0.829899      1.423198
     20.92100      4.26099     16.82890         1.197597      0.861585     -1.542982
     20.83880      6.90671     16.53670        -1.621637      1.589674      0.067677
     22.04910      4.94860     16.22130        -0.208017     -0.599202      1.385760
     22.01160      6.32828     16.14650         1.189565     -2.534213     -0.422577
     23.24920      4.29219     15.87670        -0.287153      1.447218      0.351859
     23.16670      6.95874     15.66080         0.496773     -1.798252     -0.743640
     24.45660      4.99375     15.56630         0.223717     -2.938634     -1.292254
     24.38370      6.27967     15.25460        -0.057755      3.037737      1.310243
     25.68270      4.31633     15.26950        -0.897081     -1.803162      1.062319
     25.62720      6.98237     15.03440        -0.216824     -1.729278     -0.460822
     26.86420      4.91378     14.96980        -0.645756      2.252879      0.063565
     26.84620      6.30169     14.88670        -1.652759      0.650266     -0.173940
 -----------------------------------------------------------------------------------
    total drift:                               -0.062808     -0.038346     -0.016278


--------------------------------------------------------------------------------------------------------



  FREE ENERGIE OF THE ION-ELECTRON SYSTEM (eV)
  ---------------------------------------------------
  free  energy   TOTEN  =      -828.41893652 eV

  energy  without entropy=     -828.35409649  energy(sigma->0) =     -828.38651650
 


--------------------------------------------------------------------------------------------------------


    POTLOK:  cpu time      0.4540: real time      0.4540


--------------------------------------------------------------------------------------------------------


     LOOP+:  cpu time    333.2119: real time    333.3932
    4ORBIT:  cpu time      0.0000: real time      0.0000

 total amount of memory used by VASP MPI-rank0  2294513. kBytes
=======================================================================

   base                                    :      30000. kBytes
   nonlr-proj                              :      15079. kBytes
   fftplans                                :     436558. kBytes
   grid                                    :     732614. kBytes
   one-center                              :        282. kBytes
   wavefun                                 :    1079980. kBytes
 
  
  
 General timing and accounting informations for this job:
 ========================================================
  
                  Total CPU time used (sec):      366.613
                            User time (sec):      358.387
                          System time (sec):        8.226
                         Elapsed time (sec):      366.893
  
                   Maximum memory used (kb):     3734908.
                   Average memory used (kb):          N/A
  
                          Minor page faults:      3179472
                          Major page faults:         5290
                 Voluntary context switches:        10292
