<?xml version="1.0" encoding="ISO-8859-1"?>
<modeling>
 <generator>
  <i name="program" type="string">vasp </i>
  <i name="version" type="string">6.5.0  </i>
  <i name="subversion" type="string">16Dec24 (build Feb 19 2025 19:45:31) complex                          parallel </i>
  <i name="platform" type="string">LinuxNV </i>
  <i name="date" type="string">2025 10 25 </i>
  <i name="time" type="string">12:40:34 </i>
 </generator>
 <incar>
  <i type="int" name="ISTART">     0</i>
  <i type="string" name="PREC">Accurate   (Precision level)</i>
  <i type="string" name="ALGO">Normal</i>
  <i type="int" name="ISPIN">     1</i>
  <i type="int" name="ICHARG">     2</i>
  <i type="int" name="NELM">   150</i>
  <i type="int" name="IBRION">    -1</i>
  <i name="EDIFF">      0.00000100</i>
  <i type="int" name="NSW">     0</i>
  <i name="ENCUT">    500.00000000</i>
  <i type="string" name="LREAL">Auto         (Projection operators: automatic)</i>
  <i type="int" name="ISMEAR">     0</i>
  <i type="logical" name="KGAMMA"> T  </i>
  <i type="logical" name="LWAVE"> F  </i>
  <i type="logical" name="LCHARG"> F  </i>
 </incar>
 <primitive_cell>
  <structure name="primitive_cell" >
   <crystal>
    <varray name="basis" >
     <v>      28.05000000       0.00000000       0.00000000 </v>
     <v>       0.00000000       8.10000000       0.00000000 </v>
     <v>       0.00000000       0.00000000      33.50000000 </v>
    </varray>
    <i name="volume">   7611.36750000 </i>
    <varray name="rec_basis" >
     <v>       0.03565062       0.00000000       0.00000000 </v>
     <v>       0.00000000       0.12345679       0.00000000 </v>
     <v>       0.00000000       0.00000000       0.02985075 </v>
    </varray>
   </crystal>
   <varray name="positions" >
    <v>       0.00870556       0.10534815       0.45072239 </v>
    <v>       0.00851469       0.27517531       0.45054925 </v>
    <v>       0.05175544       0.02526235       0.45005075 </v>
    <v>       0.05009091       0.36195926       0.45497313 </v>
    <v>       0.09828520       0.10824951       0.45940299 </v>
    <v>       0.09498681       0.27757901       0.46354925 </v>
    <v>       0.13986168       0.02664951       0.47073433 </v>
    <v>       0.13912585       0.35890741       0.47434925 </v>
    <v>       0.18143244       0.10582000       0.48803284 </v>
    <v>       0.18155900       0.27650123       0.48881493 </v>
    <v>       0.21975294       0.01921481       0.50422388 </v>
    <v>       0.22290018       0.35730741       0.50361194 </v>
    <v>       0.26101818       0.09550198       0.52338507 </v>
    <v>       0.26159109       0.26753704       0.52316418 </v>
    <v>       0.30306560       0.01470975       0.53299701 </v>
    <v>       0.30344064       0.35318395       0.53536418 </v>
    <v>       0.34647344       0.09631037       0.54379701 </v>
    <v>       0.34707736       0.26424938       0.54495224 </v>
    <v>       0.39272014       0.01728407       0.54634328 </v>
    <v>       0.39170766       0.34623086       0.55088358 </v>
    <v>       0.43698039       0.09599926       0.54808955 </v>
    <v>       0.43547950       0.26692716       0.55181493 </v>
    <v>       0.48154724       0.01324333       0.54269552 </v>
    <v>       0.48351515       0.34608889       0.54634328 </v>
    <v>       0.52634581       0.09532370       0.53657910 </v>
    <v>       0.52593939       0.25743333       0.54169254 </v>
    <v>       0.56948663       0.01357259       0.52857910 </v>
    <v>       0.57117291       0.34836914       0.53760299 </v>
    <v>       0.61268449       0.10053827       0.52379701 </v>
    <v>       0.61257398       0.26846420       0.52549851 </v>
    <v>       0.65685918       0.02586296       0.51920896 </v>
    <v>       0.65754011       0.34944074       0.52242687 </v>
    <v>       0.69796078       0.10873679       0.50234925 </v>
    <v>       0.69966845       0.27511235       0.50751343 </v>
    <v>       0.74002852       0.02080420       0.48915821 </v>
    <v>       0.74270588       0.36052469       0.49762090 </v>
    <v>       0.78306239       0.10844506       0.48118806 </v>
    <v>       0.78403922       0.27999753       0.48315821 </v>
    <v>       0.82514082       0.02312407       0.46821791 </v>
    <v>       0.82778253       0.36352593       0.47298209 </v>
    <v>       0.86689483       0.10959654       0.45900896 </v>
    <v>       0.86949376       0.27931358       0.46375522 </v>
    <v>       0.91265597       0.03019259       0.45014030 </v>
    <v>       0.91464528       0.35991975       0.45760299 </v>
    <v>       0.95729412       0.10336025       0.44747463 </v>
    <v>       0.95534403       0.27768395       0.44766567 </v>
    <v>       0.00970410       0.61942716       0.44842687 </v>
    <v>       0.01117194       0.78348395       0.44417015 </v>
    <v>       0.05074831       0.52865926       0.45602985 </v>
    <v>       0.05462602       0.85984691       0.45191642 </v>
    <v>       0.09546916       0.60573210       0.45960597 </v>
    <v>       0.09750267       0.77209630       0.45720896 </v>
    <v>       0.13785668       0.52703580       0.47522090 </v>
    <v>       0.14010660       0.85800864       0.47205373 </v>
    <v>       0.17835651       0.60711358       0.49125970 </v>
    <v>       0.18112335       0.77110741       0.48593134 </v>
    <v>       0.22213155       0.52277778       0.50344179 </v>
    <v>       0.22295223       0.85300494       0.49967761 </v>
    <v>       0.26400357       0.60224321       0.51397015 </v>
    <v>       0.26480357       0.76889136       0.50940299 </v>
    <v>       0.30414403       0.52165679       0.53036119 </v>
    <v>       0.30585954       0.85482963       0.52436119 </v>
    <v>       0.34919144       0.60353704       0.53939701 </v>
    <v>       0.34956435       0.76949259       0.53390746 </v>
    <v>       0.39170410       0.51480247       0.54631343 </v>
    <v>       0.39188948       0.85283951       0.54291343 </v>
    <v>       0.43650980       0.59753086       0.54637313 </v>
    <v>       0.43556150       0.76484198       0.54466567 </v>
    <v>       0.48207843       0.51434568       0.54661791 </v>
    <v>       0.48131194       0.84131358       0.54007463 </v>
    <v>       0.52806417       0.59326790       0.54411045 </v>
    <v>       0.52526916       0.75938642       0.54237313 </v>
    <v>       0.57229947       0.51352099       0.54117313 </v>
    <v>       0.57048485       0.84953704       0.53468657 </v>
    <v>       0.61862389       0.60434321       0.53515224 </v>
    <v>       0.61645989       0.77154815       0.53516716 </v>
    <v>       0.66108021       0.51941975       0.52555522 </v>
    <v>       0.65874510       0.85359383       0.52237910 </v>
    <v>       0.70498396       0.60448025       0.51503582 </v>
    <v>       0.70285205       0.77144074       0.50952836 </v>
    <v>       0.74584670       0.52604815       0.50235522 </v>
    <v>       0.74291622       0.85268025       0.49363284 </v>
    <v>       0.78606417       0.61093827       0.48421791 </v>
    <v>       0.78472727       0.78126914       0.48198507 </v>
    <v>       0.82884848       0.52990000       0.47393134 </v>
    <v>       0.82590731       0.85910370       0.46748657 </v>
    <v>       0.87189305       0.61651235       0.46466567 </v>
    <v>       0.86929412       0.77526790       0.45536119 </v>
    <v>       0.91560428       0.53288025       0.45580597 </v>
    <v>       0.91362567       0.86202099       0.44878806 </v>
    <v>       0.95772549       0.60663951       0.44685970 </v>
    <v>       0.95708378       0.77798642       0.44437910 </v>
   </varray>
  </structure>
  <varray name="primitive_index" >
   <v type="int" >        1 </v>
   <v type="int" >        2 </v>
   <v type="int" >        3 </v>
   <v type="int" >        4 </v>
   <v type="int" >        5 </v>
   <v type="int" >        6 </v>
   <v type="int" >        7 </v>
   <v type="int" >        8 </v>
   <v type="int" >        9 </v>
   <v type="int" >       10 </v>
   <v type="int" >       11 </v>
   <v type="int" >       12 </v>
   <v type="int" >       13 </v>
   <v type="int" >       14 </v>
   <v type="int" >       15 </v>
   <v type="int" >       16 </v>
   <v type="int" >       17 </v>
   <v type="int" >       18 </v>
   <v type="int" >       19 </v>
   <v type="int" >       20 </v>
   <v type="int" >       21 </v>
   <v type="int" >       22 </v>
   <v type="int" >       23 </v>
   <v type="int" >       24 </v>
   <v type="int" >       25 </v>
   <v type="int" >       26 </v>
   <v type="int" >       27 </v>
   <v type="int" >       28 </v>
   <v type="int" >       29 </v>
   <v type="int" >       30 </v>
   <v type="int" >       31 </v>
   <v type="int" >       32 </v>
   <v type="int" >       33 </v>
   <v type="int" >       34 </v>
   <v type="int" >       35 </v>
   <v type="int" >       36 </v>
   <v type="int" >       37 </v>
   <v type="int" >       38 </v>
   <v type="int" >       39 </v>
   <v type="int" >       40 </v>
   <v type="int" >       41 </v>
   <v type="int" >       42 </v>
   <v type="int" >       43 </v>
   <v type="int" >       44 </v>
   <v type="int" >       45 </v>
   <v type="int" >       46 </v>
   <v type="int" >       47 </v>
   <v type="int" >       48 </v>
   <v type="int" >       49 </v>
   <v type="int" >       50 </v>
   <v type="int" >       51 </v>
   <v type="int" >       52 </v>
   <v type="int" >       53 </v>
   <v type="int" >       54 </v>
   <v type="int" >       55 </v>
   <v type="int" >       56 </v>
   <v type="int" >       57 </v>
   <v type="int" >       58 </v>
   <v type="int" >       59 </v>
   <v type="int" >       60 </v>
   <v type="int" >       61 </v>
   <v type="int" >       62 </v>
   <v type="int" >       63 </v>
   <v type="int" >       64 </v>
   <v type="int" >       65 </v>
   <v type="int" >       66 </v>
   <v type="int" >       67 </v>
   <v type="int" >       68 </v>
   <v type="int" >       69 </v>
   <v type="int" >       70 </v>
   <v type="int" >       71 </v>
   <v type="int" >       72 </v>
   <v type="int" >       73 </v>
   <v type="int" >       74 </v>
   <v type="int" >       75 </v>
   <v type="int" >       76 </v>
   <v type="int" >       77 </v>
   <v type="int" >       78 </v>
   <v type="int" >       79 </v>
   <v type="int" >       80 </v>
   <v type="int" >       81 </v>
   <v type="int" >       82 </v>
   <v type="int" >       83 </v>
   <v type="int" >       84 </v>
   <v type="int" >       85 </v>
   <v type="int" >       86 </v>
   <v type="int" >       87 </v>
   <v type="int" >       88 </v>
   <v type="int" >       89 </v>
   <v type="int" >       90 </v>
   <v type="int" >       91 </v>
   <v type="int" >       92 </v>
  </varray>
 </primitive_cell>
 <kpoints>
  <generation param="Gamma">
   <v type="int" name="divisions">       1        4        1 </v>
   <v name="usershift">      0.00000000       0.00000000       0.00000000 </v>
   <v name="genvec1">      1.00000000       0.00000000       0.00000000 </v>
   <v name="genvec2">      0.00000000       0.25000000       0.00000000 </v>
   <v name="genvec3">      0.00000000       0.00000000       1.00000000 </v>
   <v name="shift">      0.00000000       0.00000000       0.00000000 </v>
  </generation>
  <varray name="kpointlist" >
   <v>       0.00000000       0.00000000       0.00000000 </v>
   <v>       0.00000000       0.25000000       0.00000000 </v>
   <v>       0.00000000       0.50000000       0.00000000 </v>
  </varray>
  <varray name="weights" >
   <v>       0.25000000 </v>
   <v>       0.50000000 </v>
   <v>       0.25000000 </v>
  </varray>
 </kpoints>
 <parameters>
  <separator name="general" >
   <i type="string" name="SYSTEM">unknown system</i>
   <i type="logical" name="LCOMPAT"> F  </i>
  </separator>
  <separator name="electronic" >
   <i type="string" name="PREC">accura</i>
   <i name="ENMAX">    500.00000000</i>
   <i name="ENAUG">    644.87300000</i>
   <i name="EDIFF">      0.00000100</i>
   <i type="int" name="IALGO">    38</i>
   <i type="int" name="IWAVPR">    10</i>
   <i type="int" name="NBANDS">   232</i>
   <i type="int" name="NBANDSLOW">    -1</i>
   <i type="int" name="NBANDSHIGH">    -1</i>
   <i name="NELECT">    368.00000000</i>
   <i type="int" name="TURBO">     0</i>
   <i type="int" name="IRESTART">     0</i>
   <i type="int" name="NREBOOT">     0</i>
   <i type="int" name="NMIN">     0</i>
   <i name="EREF">      0.00000000</i>
   <separator name="electronic smearing" >
    <i type="int" name="ISMEAR">     0</i>
    <i name="SIGMA">      0.20000000</i>
    <i name="KSPACING">      0.50000000</i>
    <i type="logical" name="KGAMMA"> T  </i>
    <i type="logical" name="KBLOWUP"> T  </i>
   </separator>
   <separator name="electronic projectors" >
    <i type="logical" name="LREAL"> T  </i>
    <v name="ROPT">     -0.00025000</v>
    <i type="int" name="LMAXPAW">  -100</i>
    <i type="int" name="LMAXMIX">     2</i>
    <i type="logical" name="NLSPLINE"> F  </i>
   </separator>
   <separator name="electronic startup" >
    <i type="int" name="ISTART">     0</i>
    <i type="int" name="ICHARG">     2</i>
    <i type="int" name="INIWAV">     1</i>
   </separator>
   <separator name="electronic spin" >
    <i type="int" name="ISPIN">     1</i>
    <i type="logical" name="LNONCOLLINEAR"> F  </i>
    <v name="MAGMOM">      1.00000000      1.00000000      1.00000000      1.00000000      1.00000000      1.00000000      1.00000000      1.00000000      1.00000000      1.00000000      1.00000000      1.00000000      1.00000000      1.00000000      1.00000000      1.00000000      1.00000000      1.00000000      1.00000000      1.00000000
      1.00000000      1.00000000      1.00000000      1.00000000      1.00000000      1.00000000      1.00000000      1.00000000      1.00000000      1.00000000      1.00000000      1.00000000      1.00000000      1.00000000      1.00000000      1.00000000      1.00000000      1.00000000      1.00000000      1.00000000
      1.00000000      1.00000000      1.00000000      1.00000000      1.00000000      1.00000000      1.00000000      1.00000000      1.00000000      1.00000000      1.00000000      1.00000000      1.00000000      1.00000000      1.00000000      1.00000000      1.00000000      1.00000000      1.00000000      1.00000000
      1.00000000      1.00000000      1.00000000      1.00000000      1.00000000      1.00000000      1.00000000      1.00000000      1.00000000      1.00000000      1.00000000      1.00000000      1.00000000      1.00000000      1.00000000      1.00000000      1.00000000      1.00000000      1.00000000      1.00000000
      1.00000000      1.00000000      1.00000000      1.00000000      1.00000000      1.00000000      1.00000000      1.00000000      1.00000000      1.00000000      1.00000000      1.00000000</v>
    <i name="NUPDOWN">     -1.00000000</i>
    <i type="logical" name="LSORBIT"> F  </i>
    <v name="SAXIS">      0.00000000      0.00000000      1.00000000</v>
    <i type="logical" name="LSPIRAL"> F  </i>
    <v name="QSPIRAL">      0.00000000      0.00000000      0.00000000</v>
    <i type="logical" name="LZEROZ"> F  </i>
   </separator>
   <separator name="electronic exchange-correlation" >
    <i type="logical" name="LASPH"> F  </i>
   </separator>
   <separator name="electronic convergence" >
    <i type="int" name="NELM">   150</i>
    <i type="int" name="NELMDL">    -5</i>
    <i type="int" name="NELMIN">     2</i>
    <i name="ENINI">    500.00000000</i>
    <separator name="electronic convergence detail" >
     <i type="logical" name="LDIAG"> T  </i>
     <i type="logical" name="LSUBROT"> F  </i>
     <i name="WEIMIN">      0.00000000</i>
     <i name="EBREAK">      0.00000000</i>
     <i name="DEPER">      0.30000000</i>
     <i type="int" name="NRMM">     4</i>
     <i name="TIME">      0.40000000</i>
    </separator>
   </separator>
   <separator name="electronic mixer" >
    <i name="AMIX">      0.40000000</i>
    <i name="BMIX">      1.00000000</i>
    <i name="AMIN">      0.10000000</i>
    <i name="AMIX_MAG">      1.60000000</i>
    <i name="BMIX_MAG">      1.00000000</i>
    <separator name="electronic mixer details" >
     <i type="int" name="IMIX">     4</i>
     <i type="logical" name="MIXFIRST"> F  </i>
     <i type="int" name="MAXMIX">   -45</i>
     <i name="WC">    100.00000000</i>
     <i type="int" name="INIMIX">     1</i>
     <i type="int" name="MIXPRE">     1</i>
     <i type="int" name="MREMOVE">     5</i>
    </separator>
   </separator>
   <separator name="electronic dipolcorrection" >
    <i type="logical" name="LDIPOL"> F  </i>
    <i type="logical" name="LMONO"> F  </i>
    <i type="int" name="IDIPOL">     0</i>
    <i name="EPSILON">      1.00000000</i>
    <v name="DIPOL">   -100.00000000   -100.00000000   -100.00000000</v>
    <i name="EFIELD">      0.00000000</i>
    <i type="logical" name="LVACPOTAV"> F  </i>
   </separator>
  </separator>
  <separator name="grids" >
   <i type="int" name="NGX">   210</i>
   <i type="int" name="NGY">    60</i>
   <i type="int" name="NGZ">   250</i>
   <i type="int" name="NGXF">   420</i>
   <i type="int" name="NGYF">   120</i>
   <i type="int" name="NGZF">   500</i>
   <i type="logical" name="ADDGRID"> F  </i>
  </separator>
  <separator name="ionic" >
   <i type="int" name="NSW">     0</i>
   <i type="int" name="IBRION">    -1</i>
   <i type="int" name="MDALGO">     0</i>
   <i type="int" name="ISIF">     2</i>
   <i name="PSTRESS">      0.00000000</i>
   <i name="EDIFFG">      0.00001000</i>
   <i type="int" name="NFREE">     0</i>
   <i name="POTIM">      0.50000000</i>
   <i name="SMASS">     -3.00000000</i>
   <i name="SCALEE">      1.00000000</i>
  </separator>
  <separator name="ionic md" >
   <i name="TEBEG">      0.00010000</i>
   <i name="TEEND">      0.00010000</i>
   <i type="int" name="NBLOCK">     1</i>
   <i type="int" name="KBLOCK">     1</i>
   <i type="int" name="NPACO">   256</i>
   <i name="APACO">     10.00000000</i>
  </separator>
  <separator name="symmetry" >
   <i type="int" name="ISYM">     2</i>
   <i name="SYMPREC">      0.00001000</i>
  </separator>
  <separator name="dos" >
   <i type="int" name="LORBIT">     0</i>
   <v name="RWIGS">     -1.00000000</v>
   <i type="int" name="NEDOS">   301</i>
   <i name="EMIN">     10.00000000</i>
   <i name="EMAX">    -10.00000000</i>
   <i name="EFERMI">      0.00000000</i>
  </separator>
  <separator name="writing" >
   <i type="int" name="NWRITE">     2</i>
   <i type="logical" name="LWAVE"> F  </i>
   <i type="logical" name="LDOWNSAMPLE"> F  </i>
   <i type="logical" name="LCHARG"> F  </i>
   <i type="logical" name="LPARD"> F  </i>
   <i type="logical" name="LVTOT"> F  </i>
   <i type="logical" name="LVHAR"> F  </i>
   <i type="logical" name="LELF"> F  </i>
   <i type="logical" name="LOPTICS"> F  </i>
   <v name="STM">      0.00000000      0.00000000      0.00000000      0.00000000      0.00000000      0.00000000      0.00000000</v>
  </separator>
  <separator name="performance" >
   <i type="int" name="NPAR">     2</i>
   <i type="int" name="NSIM">     4</i>
   <i type="int" name="NBLK">    -1</i>
   <i type="logical" name="LPLANE"> T  </i>
   <i type="logical" name="LSCALAPACK"> T  </i>
   <i type="logical" name="LSCAAWARE"> F  </i>
   <i type="logical" name="LSCALU"> F  </i>
   <i type="logical" name="LASYNC"> F  </i>
   <i type="logical" name="LORBITALREAL"> F  </i>
  </separator>
  <separator name="miscellaneous" >
   <i type="int" name="IDIOT">     3</i>
   <i type="int" name="PHON_NSTRUCT">    -1</i>
   <i type="logical" name="LMUSIC"> F  </i>
   <v name="POMASS">     12.01100000</v>
   <v name="DARWINR">      0.00000000</v>
   <v name="DARWINV">      1.00000000</v>
   <i type="logical" name="LCORR"> T  </i>
  </separator>
  <i type="logical" name="GGA_COMPAT"> T  </i>
  <i type="logical" name="LBERRY"> F  </i>
  <i type="int" name="ICORELEVEL">     0</i>
  <i type="logical" name="LDAU"> F  </i>
  <i type="int" name="I_CONSTRAINED_M">     0</i>
  <separator name="electronic exchange-correlation" >
   <i type="string" name="GGA    ">PE</i>
   <i type="string" name="XC_C">1</i>
   <i type="int" name="VOSKOWN">     0</i>
   <i type="logical" name="LHFCALC"> F  </i>
   <i type="string" name="PRECFOCK"></i>
   <i type="logical" name="LSYMGRAD"> F  </i>
   <i type="logical" name="LHFONE"> F  </i>
   <i type="logical" name="LRHFCALC"> F  </i>
   <i type="logical" name="LTHOMAS"> F  </i>
   <i type="logical" name="LMODELHF"> F  </i>
   <i type="logical" name="LFOCKACE"> F  </i>
   <i name="ENCUT4O">     -1.00000000</i>
   <i type="int" name="EXXOEP">     0</i>
   <i type="int" name="FOURORBIT">     0</i>
   <i name="AEXX">      0.00000000</i>
   <i name="HFALPHA">      0.00000000</i>
   <i name="MCALPHA">      0.00000000</i>
   <i name="ALDAX">      1.00000000</i>
   <i name="AGGAX">      1.00000000</i>
   <i name="AMGGAX">      1.00000000</i>
   <i name="ALDAC">      1.00000000</i>
   <i name="AGGAC">      1.00000000</i>
   <i name="AMGGAC">      1.00000000</i>
   <i type="int" name="NKREDX">     1</i>
   <i type="int" name="NKREDY">     1</i>
   <i type="int" name="NKREDZ">     1</i>
   <i type="logical" name="SHIFTRED"> F  </i>
   <i type="logical" name="ODDONLY"> F  </i>
   <i type="logical" name="EVENONLY"> F  </i>
   <i type="int" name="LMAXFOCK">     0</i>
   <i type="int" name="NMAXFOCKAE">     0</i>
   <i type="logical" name="LFOCKAEDFT"> F  </i>
   <i name="HFSCREEN">      0.00000000</i>
   <i name="HFSCREENC">      0.00000000</i>
   <i type="int" name="NBANDSGWLOW">     0</i>
  </separator>
  <separator name="vdW DFT" >
   <i type="logical" name="LUSE_VDW"> F  </i>
   <i type="int" name="IVDW_NL">    -1</i>
   <i type="logical" name="LSPIN_VDW"> F  </i>
   <i name="ZAB_VDW">     -0.84910000</i>
   <i name="GAMMA_VDW">      1.39626340</i>
   <i name="ALPHA_VDW">      0.00000000</i>
   <i name="PARAM1">      0.12340000</i>
   <i name="PARAM2">      1.00000000</i>
   <i name="BPARAM">      6.30000000</i>
   <i name="CPARAM">      0.00930000</i>
  </separator>
  <separator name="model GW" >
   <i type="int" name="MODEL_GW">     0</i>
   <i name="MODEL_EPS0">     49.63935326</i>
   <i name="MODEL_ALPHA">      1.00000000</i>
  </separator>
  <separator name="linear response parameters" >
   <i type="logical" name="LEPSILON"> F  </i>
   <i type="logical" name="LRPA"> F  </i>
   <i type="logical" name="LNABLA"> F  </i>
   <i type="logical" name="LVEL"> F  </i>
   <i name="CSHIFT">      0.10000000</i>
   <i name="OMEGAMAX">     -1.00000000</i>
   <i name="DEG_THRESHOLD">      0.00200000</i>
   <i name="RTIME">     -0.10000000</i>
   <i name="WPLASMAI">      0.00000000</i>
   <v name="DFIELD">      0.00000000      0.00000000      0.00000000</v>
   <v name="WPLASMA">      0.00000000      0.00000000      0.00000000      0.00000000      0.00000000      0.00000000      0.00000000      0.00000000      0.00000000</v>
  </separator>
  <separator name="orbital magnetization" >
   <i type="logical" name="NUCIND"> F  </i>
   <v name="MAGPOS">      0.00000000      0.00000000      0.00000000</v>
   <i type="logical" name="LNICSALL"> T  </i>
   <i type="logical" name="ORBITALMAG"> F  </i>
   <i type="logical" name="LMAGBLOCH"> F  </i>
   <i type="logical" name="LCHIMAG"> F  </i>
   <i type="logical" name="LGAUGE"> T  </i>
   <i type="int" name="MAGATOM">     0</i>
   <v name="MAGDIPOL">      0.00000000      0.00000000      0.00000000</v>
   <v name="AVECCONST">      0.00000000      0.00000000      0.00000000</v>
  </separator>
  <separator name="response functions" >
   <i type="logical" name="LALL_IN_ONE"> F  </i>
   <i type="int" name="IALL_IN_ONE">    -1</i>
   <i type="int" name="NBANDS_WAVE">    -1</i>
   <i type="logical" name="LFINITE_TEMPERATURE"> F  </i>
   <i type="logical" name="LADDER"> F  </i>
   <i type="logical" name="LRPAFORCE"> F  </i>
   <i type="logical" name="LFXC"> F  </i>
   <i type="logical" name="LHARTREE"> T  </i>
   <i type="int" name="IBSE">     2</i>
   <v type="int" name="KPOINT">    -1     0     0     0</v>
   <i type="logical" name="LTCTC"> F  </i>
   <i type="logical" name="LTCTE"> F  </i>
   <i type="logical" name="LTETE"> F  </i>
   <i type="logical" name="LTRIPLET"> F  </i>
   <i type="logical" name="LFXCEPS"> F  </i>
   <i type="logical" name="LFXHEG"> F  </i>
   <i type="int" name="NATURALO">     2</i>
   <i type="logical" name="LHOLEGF"> F  </i>
   <i type="logical" name="L2ORDER"> F  </i>
   <i type="logical" name="LDMP1"> F  </i>
   <i type="logical" name="LMP2LT"> F  </i>
   <i type="logical" name="LSMP2LT"> F  </i>
   <i type="logical" name="LGWLF"> F  </i>
   <i name="ENCUTGW">     -1.60000002</i>
   <i name="ENCUTGWSOFT">     -1.60000002</i>
   <i name="ENCUTLF">     -1.00000000</i>
   <i type="logical" name="ESF_SPLINES"> F  </i>
   <i name="ESF_CONV">      0.01000000</i>
   <i type="int" name="ESF_NINTER">    15</i>
   <i type="int" name="LMAXMP2">    -1</i>
   <i name="SCISSOR">      0.00000000</i>
   <i type="int" name="NOMEGA">     0</i>
   <i type="int" name="NOMEGAR">     0</i>
   <i type="int" name="NBANDSGW">    -1</i>
   <i type="int" name="NBANDSO">    -1</i>
   <i type="int" name="NBANDSV">    -1</i>
   <i type="int" name="NELMGW">     1</i>
   <i type="int" name="NELMHF">     1</i>
   <i type="int" name="DIM">     3</i>
   <i type="int" name="IESPILON">     4</i>
   <i type="int" name="ANTIRES">     0</i>
   <i name="OMEGAMAX">    -30.00000000</i>
   <i name="OMEGAMIN">    -30.00000000</i>
   <i name="OMEGATL">   -200.00000000</i>
   <i type="int" name="OMEGAGRID">     0</i>
   <i name="CSHIFT">     -0.10000000</i>
   <i type="logical" name="LSELFENERGY"> F  </i>
   <i type="logical" name="LSPECTRAL"> F  </i>
   <i type="logical" name="LSPECTRALGW"> F  </i>
   <i type="logical" name="LSINGLES"> F  </i>
   <i type="logical" name="LFERMIGW"> F  </i>
   <i type="logical" name="ODDONLYGW"> F  </i>
   <i type="logical" name="EVENONLYGW"> F  </i>
   <i type="int" name="NKREDLFX">     1</i>
   <i type="int" name="NKREDLFY">     1</i>
   <i type="int" name="NKREDLFZ">     1</i>
   <i type="int" name="MAXMEM">  2800</i>
   <i type="int" name="TELESCOPE">     0</i>
   <i type="int" name="NTAUPAR">    -1</i>
   <i type="int" name="NOMEGAPAR">    -1</i>
   <i name="DAMP_NEWTON">      0.80000001</i>
   <i name="LAMBDA">      1.00000000</i>
  </separator>
  <separator name="External order field" >
   <i name="OFIELD_KAPPA">      0.00000000</i>
   <v name="OFIELD_K">      0.00000000      0.00000000      0.00000000</v>
   <i name="OFIELD_Q6_NEAR">      0.00000000</i>
   <i name="OFIELD_Q6_FAR">      0.00000000</i>
   <i name="OFIELD_A">      0.00000000</i>
  </separator>
  <separator name="optional k-points parameters" >
   <i type="int" name="KPOINTS_OPT_MODE">     1</i>
   <i type="logical" name="LKPOINTS_OPT"> F  </i>
  </separator>
 </parameters>
 <atominfo>
  <atoms>      92 </atoms>
  <types>       1 </types>
  <array name="atoms" >
   <dimension dim="1">ion</dimension>
   <field type="string">element</field>
   <field type="int">atomtype</field>
   <set>
    <rc><c>C </c><c>   1</c></rc>
    <rc><c>C </c><c>   1</c></rc>
    <rc><c>C </c><c>   1</c></rc>
    <rc><c>C </c><c>   1</c></rc>
    <rc><c>C </c><c>   1</c></rc>
    <rc><c>C </c><c>   1</c></rc>
    <rc><c>C </c><c>   1</c></rc>
    <rc><c>C </c><c>   1</c></rc>
    <rc><c>C </c><c>   1</c></rc>
    <rc><c>C </c><c>   1</c></rc>
    <rc><c>C </c><c>   1</c></rc>
    <rc><c>C </c><c>   1</c></rc>
    <rc><c>C </c><c>   1</c></rc>
    <rc><c>C </c><c>   1</c></rc>
    <rc><c>C </c><c>   1</c></rc>
    <rc><c>C </c><c>   1</c></rc>
    <rc><c>C </c><c>   1</c></rc>
    <rc><c>C </c><c>   1</c></rc>
    <rc><c>C </c><c>   1</c></rc>
    <rc><c>C </c><c>   1</c></rc>
    <rc><c>C </c><c>   1</c></rc>
    <rc><c>C </c><c>   1</c></rc>
    <rc><c>C </c><c>   1</c></rc>
    <rc><c>C </c><c>   1</c></rc>
    <rc><c>C </c><c>   1</c></rc>
    <rc><c>C </c><c>   1</c></rc>
    <rc><c>C </c><c>   1</c></rc>
    <rc><c>C </c><c>   1</c></rc>
    <rc><c>C </c><c>   1</c></rc>
    <rc><c>C </c><c>   1</c></rc>
    <rc><c>C </c><c>   1</c></rc>
    <rc><c>C </c><c>   1</c></rc>
    <rc><c>C </c><c>   1</c></rc>
    <rc><c>C </c><c>   1</c></rc>
    <rc><c>C </c><c>   1</c></rc>
    <rc><c>C </c><c>   1</c></rc>
    <rc><c>C </c><c>   1</c></rc>
    <rc><c>C </c><c>   1</c></rc>
    <rc><c>C </c><c>   1</c></rc>
    <rc><c>C </c><c>   1</c></rc>
    <rc><c>C </c><c>   1</c></rc>
    <rc><c>C </c><c>   1</c></rc>
    <rc><c>C </c><c>   1</c></rc>
    <rc><c>C </c><c>   1</c></rc>
    <rc><c>C </c><c>   1</c></rc>
    <rc><c>C </c><c>   1</c></rc>
    <rc><c>C </c><c>   1</c></rc>
    <rc><c>C </c><c>   1</c></rc>
    <rc><c>C </c><c>   1</c></rc>
    <rc><c>C </c><c>   1</c></rc>
    <rc><c>C </c><c>   1</c></rc>
    <rc><c>C </c><c>   1</c></rc>
    <rc><c>C </c><c>   1</c></rc>
    <rc><c>C </c><c>   1</c></rc>
    <rc><c>C </c><c>   1</c></rc>
    <rc><c>C </c><c>   1</c></rc>
    <rc><c>C </c><c>   1</c></rc>
    <rc><c>C </c><c>   1</c></rc>
    <rc><c>C </c><c>   1</c></rc>
    <rc><c>C </c><c>   1</c></rc>
    <rc><c>C </c><c>   1</c></rc>
    <rc><c>C </c><c>   1</c></rc>
    <rc><c>C </c><c>   1</c></rc>
    <rc><c>C </c><c>   1</c></rc>
    <rc><c>C </c><c>   1</c></rc>
    <rc><c>C </c><c>   1</c></rc>
    <rc><c>C </c><c>   1</c></rc>
    <rc><c>C </c><c>   1</c></rc>
    <rc><c>C </c><c>   1</c></rc>
    <rc><c>C </c><c>   1</c></rc>
    <rc><c>C </c><c>   1</c></rc>
    <rc><c>C </c><c>   1</c></rc>
    <rc><c>C </c><c>   1</c></rc>
    <rc><c>C </c><c>   1</c></rc>
    <rc><c>C </c><c>   1</c></rc>
    <rc><c>C </c><c>   1</c></rc>
    <rc><c>C </c><c>   1</c></rc>
    <rc><c>C </c><c>   1</c></rc>
    <rc><c>C </c><c>   1</c></rc>
    <rc><c>C </c><c>   1</c></rc>
    <rc><c>C </c><c>   1</c></rc>
    <rc><c>C </c><c>   1</c></rc>
    <rc><c>C </c><c>   1</c></rc>
    <rc><c>C </c><c>   1</c></rc>
    <rc><c>C </c><c>   1</c></rc>
    <rc><c>C </c><c>   1</c></rc>
    <rc><c>C </c><c>   1</c></rc>
    <rc><c>C </c><c>   1</c></rc>
    <rc><c>C </c><c>   1</c></rc>
    <rc><c>C </c><c>   1</c></rc>
    <rc><c>C </c><c>   1</c></rc>
    <rc><c>C </c><c>   1</c></rc>
   </set>
  </array>
  <array name="atomtypes" >
   <dimension dim="1">type</dimension>
   <field type="int">atomspertype</field>
   <field type="string">element</field>
   <field>mass</field>
   <field>valence</field>
   <field type="string">pseudopotential</field>
   <set>
    <rc><c>  92</c><c>C </c><c>     12.01100000</c><c>      4.00000000</c><c>  PAW_PBE C 08Apr2002                   </c></rc>
   </set>
  </array>
 </atominfo>
 <structure name="initialpos" >
  <crystal>
   <varray name="basis" >
    <v>      28.05000000       0.00000000       0.00000000 </v>
    <v>       0.00000000       8.10000000       0.00000000 </v>
    <v>       0.00000000       0.00000000      33.50000000 </v>
   </varray>
   <i name="volume">   7611.36750000 </i>
   <varray name="rec_basis" >
    <v>       0.03565062       0.00000000       0.00000000 </v>
    <v>       0.00000000       0.12345679       0.00000000 </v>
    <v>       0.00000000       0.00000000       0.02985075 </v>
   </varray>
  </crystal>
  <varray name="positions" >
   <v>       0.00870556       0.10534815       0.45072239 </v>
   <v>       0.00851469       0.27517531       0.45054925 </v>
   <v>       0.05175544       0.02526235       0.45005075 </v>
   <v>       0.05009091       0.36195926       0.45497313 </v>
   <v>       0.09828520       0.10824951       0.45940299 </v>
   <v>       0.09498681       0.27757901       0.46354925 </v>
   <v>       0.13986168       0.02664951       0.47073433 </v>
   <v>       0.13912585       0.35890741       0.47434925 </v>
   <v>       0.18143244       0.10582000       0.48803284 </v>
   <v>       0.18155900       0.27650123       0.48881493 </v>
   <v>       0.21975294       0.01921481       0.50422388 </v>
   <v>       0.22290018       0.35730741       0.50361194 </v>
   <v>       0.26101818       0.09550198       0.52338507 </v>
   <v>       0.26159109       0.26753704       0.52316418 </v>
   <v>       0.30306560       0.01470975       0.53299701 </v>
   <v>       0.30344064       0.35318395       0.53536418 </v>
   <v>       0.34647344       0.09631037       0.54379701 </v>
   <v>       0.34707736       0.26424938       0.54495224 </v>
   <v>       0.39272014       0.01728407       0.54634328 </v>
   <v>       0.39170766       0.34623086       0.55088358 </v>
   <v>       0.43698039       0.09599926       0.54808955 </v>
   <v>       0.43547950       0.26692716       0.55181493 </v>
   <v>       0.48154724       0.01324333       0.54269552 </v>
   <v>       0.48351515       0.34608889       0.54634328 </v>
   <v>       0.52634581       0.09532370       0.53657910 </v>
   <v>       0.52593939       0.25743333       0.54169254 </v>
   <v>       0.56948663       0.01357259       0.52857910 </v>
   <v>       0.57117291       0.34836914       0.53760299 </v>
   <v>       0.61268449       0.10053827       0.52379701 </v>
   <v>       0.61257398       0.26846420       0.52549851 </v>
   <v>       0.65685918       0.02586296       0.51920896 </v>
   <v>       0.65754011       0.34944074       0.52242687 </v>
   <v>       0.69796078       0.10873679       0.50234925 </v>
   <v>       0.69966845       0.27511235       0.50751343 </v>
   <v>       0.74002852       0.02080420       0.48915821 </v>
   <v>       0.74270588       0.36052469       0.49762090 </v>
   <v>       0.78306239       0.10844506       0.48118806 </v>
   <v>       0.78403922       0.27999753       0.48315821 </v>
   <v>       0.82514082       0.02312407       0.46821791 </v>
   <v>       0.82778253       0.36352593       0.47298209 </v>
   <v>       0.86689483       0.10959654       0.45900896 </v>
   <v>       0.86949376       0.27931358       0.46375522 </v>
   <v>       0.91265597       0.03019259       0.45014030 </v>
   <v>       0.91464528       0.35991975       0.45760299 </v>
   <v>       0.95729412       0.10336025       0.44747463 </v>
   <v>       0.95534403       0.27768395       0.44766567 </v>
   <v>       0.00970410       0.61942716       0.44842687 </v>
   <v>       0.01117194       0.78348395       0.44417015 </v>
   <v>       0.05074831       0.52865926       0.45602985 </v>
   <v>       0.05462602       0.85984691       0.45191642 </v>
   <v>       0.09546916       0.60573210       0.45960597 </v>
   <v>       0.09750267       0.77209630       0.45720896 </v>
   <v>       0.13785668       0.52703580       0.47522090 </v>
   <v>       0.14010660       0.85800864       0.47205373 </v>
   <v>       0.17835651       0.60711358       0.49125970 </v>
   <v>       0.18112335       0.77110741       0.48593134 </v>
   <v>       0.22213155       0.52277778       0.50344179 </v>
   <v>       0.22295223       0.85300494       0.49967761 </v>
   <v>       0.26400357       0.60224321       0.51397015 </v>
   <v>       0.26480357       0.76889136       0.50940299 </v>
   <v>       0.30414403       0.52165679       0.53036119 </v>
   <v>       0.30585954       0.85482963       0.52436119 </v>
   <v>       0.34919144       0.60353704       0.53939701 </v>
   <v>       0.34956435       0.76949259       0.53390746 </v>
   <v>       0.39170410       0.51480247       0.54631343 </v>
   <v>       0.39188948       0.85283951       0.54291343 </v>
   <v>       0.43650980       0.59753086       0.54637313 </v>
   <v>       0.43556150       0.76484198       0.54466567 </v>
   <v>       0.48207843       0.51434568       0.54661791 </v>
   <v>       0.48131194       0.84131358       0.54007463 </v>
   <v>       0.52806417       0.59326790       0.54411045 </v>
   <v>       0.52526916       0.75938642       0.54237313 </v>
   <v>       0.57229947       0.51352099       0.54117313 </v>
   <v>       0.57048485       0.84953704       0.53468657 </v>
   <v>       0.61862389       0.60434321       0.53515224 </v>
   <v>       0.61645989       0.77154815       0.53516716 </v>
   <v>       0.66108021       0.51941975       0.52555522 </v>
   <v>       0.65874510       0.85359383       0.52237910 </v>
   <v>       0.70498396       0.60448025       0.51503582 </v>
   <v>       0.70285205       0.77144074       0.50952836 </v>
   <v>       0.74584670       0.52604815       0.50235522 </v>
   <v>       0.74291622       0.85268025       0.49363284 </v>
   <v>       0.78606417       0.61093827       0.48421791 </v>
   <v>       0.78472727       0.78126914       0.48198507 </v>
   <v>       0.82884848       0.52990000       0.47393134 </v>
   <v>       0.82590731       0.85910370       0.46748657 </v>
   <v>       0.87189305       0.61651235       0.46466567 </v>
   <v>       0.86929412       0.77526790       0.45536119 </v>
   <v>       0.91560428       0.53288025       0.45580597 </v>
   <v>       0.91362567       0.86202099       0.44878806 </v>
   <v>       0.95772549       0.60663951       0.44685970 </v>
   <v>       0.95708378       0.77798642       0.44437910 </v>
  </varray>
 </structure>
 <calculation>
  <scstep>
   <time name="dav">   10.97   10.98</time>
   <time name="total">   11.43   11.46</time>
   <energy>
    <i name="alphaZ">     91.34886789 </i>
    <i name="ewald"> 119145.08698744 </i>
    <i name="hartreedc">-128470.30279011 </i>
    <i name="XCdc">   1221.30833007 </i>
    <i name="pawpsdc">   9984.02826696 </i>
    <i name="pawaedc"> -10036.41360137 </i>
    <i name="eentropy">     -0.85916345 </i>
    <i name="bandstr">  -1728.62713133 </i>
    <i name="atom">  13537.65479391 </i>
    <i name="e_fr_energy">   3743.22456001 </i>
    <i name="e_wo_entrp">   3744.08372346 </i>
    <i name="e_0_energy">   3743.65414174 </i>
   </energy>
  </scstep>
  <scstep>
   <time name="dav">   13.11   13.11</time>
   <time name="total">   13.11   13.11</time>
   <energy>
    <i name="e_fr_energy">    189.92987716 </i>
    <i name="e_wo_entrp">    190.11900292 </i>
    <i name="e_0_energy">    190.02444004 </i>
   </energy>
  </scstep>
  <scstep>
   <time name="dav">   11.31   11.31</time>
   <time name="total">   11.31   11.31</time>
   <energy>
    <i name="e_fr_energy">   -833.72870475 </i>
    <i name="e_wo_entrp">   -833.67316024 </i>
    <i name="e_0_energy">   -833.70093250 </i>
   </energy>
  </scstep>
  <scstep>
   <time name="dav">   10.90   10.91</time>
   <time name="total">   10.90   10.91</time>
   <energy>
    <i name="e_fr_energy">   -895.83104756 </i>
    <i name="e_wo_entrp">   -895.75610974 </i>
    <i name="e_0_energy">   -895.79357865 </i>
   </energy>
  </scstep>
  <scstep>
   <time name="dav">   11.31   11.32</time>
   <time name="total">   12.80   12.80</time>
   <energy>
    <i name="e_fr_energy">   -897.35388990 </i>
    <i name="e_wo_entrp">   -897.27834006 </i>
    <i name="e_0_energy">   -897.31611498 </i>
   </energy>
  </scstep>
  <scstep>
   <time name="dav">   10.21   10.22</time>
   <time name="total">   12.01   12.02</time>
   <energy>
    <i name="e_fr_energy">   -847.41351076 </i>
    <i name="e_wo_entrp">   -847.34397503 </i>
    <i name="e_0_energy">   -847.37874290 </i>
   </energy>
  </scstep>
  <scstep>
   <time name="dav">   10.17   10.17</time>
   <time name="total">   11.97   11.97</time>
   <energy>
    <i name="e_fr_energy">   -828.82667836 </i>
    <i name="e_wo_entrp">   -828.76209360 </i>
    <i name="e_0_energy">   -828.79438598 </i>
   </energy>
  </scstep>
  <scstep>
   <time name="dav">   10.24   10.24</time>
   <time name="total">   12.04   12.04</time>
   <energy>
    <i name="e_fr_energy">   -828.53519840 </i>
    <i name="e_wo_entrp">   -828.47063242 </i>
    <i name="e_0_energy">   -828.50291541 </i>
   </energy>
  </scstep>
  <scstep>
   <time name="dav">   10.55   10.56</time>
   <time name="total">   12.36   12.37</time>
   <energy>
    <i name="e_fr_energy">   -828.42547503 </i>
    <i name="e_wo_entrp">   -828.36071264 </i>
    <i name="e_0_energy">   -828.39309384 </i>
   </energy>
  </scstep>
  <scstep>
   <time name="dav">   11.02   11.03</time>
   <time name="total">   12.84   12.84</time>
   <energy>
    <i name="e_fr_energy">   -828.38326549 </i>
    <i name="e_wo_entrp">   -828.31835604 </i>
    <i name="e_0_energy">   -828.35081076 </i>
   </energy>
  </scstep>
  <scstep>
   <time name="dav">   10.06   10.07</time>
   <time name="total">   11.89   11.90</time>
   <energy>
    <i name="e_fr_energy">   -828.35535996 </i>
    <i name="e_wo_entrp">   -828.29048186 </i>
    <i name="e_0_energy">   -828.32292091 </i>
   </energy>
  </scstep>
  <scstep>
   <time name="dav">   10.18   10.18</time>
   <time name="total">   12.00   12.01</time>
   <energy>
    <i name="e_fr_energy">   -828.35202250 </i>
    <i name="e_wo_entrp">   -828.28719457 </i>
    <i name="e_0_energy">   -828.31960853 </i>
   </energy>
  </scstep>
  <scstep>
   <time name="dav">   10.21   10.21</time>
   <time name="total">   12.04   12.04</time>
   <energy>
    <i name="e_fr_energy">   -828.36279462 </i>
    <i name="e_wo_entrp">   -828.29798969 </i>
    <i name="e_0_energy">   -828.33039215 </i>
   </energy>
  </scstep>
  <scstep>
   <time name="dav">   10.26   10.26</time>
   <time name="total">   12.09   12.10</time>
   <energy>
    <i name="e_fr_energy">   -828.38204908 </i>
    <i name="e_wo_entrp">   -828.31721468 </i>
    <i name="e_0_energy">   -828.34963188 </i>
   </energy>
  </scstep>
  <scstep>
   <time name="dav">   10.30   10.30</time>
   <time name="total">   12.15   12.16</time>
   <energy>
    <i name="e_fr_energy">   -828.40247852 </i>
    <i name="e_wo_entrp">   -828.33762844 </i>
    <i name="e_0_energy">   -828.37005348 </i>
   </energy>
  </scstep>
  <scstep>
   <time name="dav">   10.46   10.47</time>
   <time name="total">   12.33   12.34</time>
   <energy>
    <i name="e_fr_energy">   -828.41047088 </i>
    <i name="e_wo_entrp">   -828.34563029 </i>
    <i name="e_0_energy">   -828.37805059 </i>
   </energy>
  </scstep>
  <scstep>
   <time name="dav">   10.14   10.14</time>
   <time name="total">   12.01   12.01</time>
   <energy>
    <i name="e_fr_energy">   -828.41491660 </i>
    <i name="e_wo_entrp">   -828.35007785 </i>
    <i name="e_0_energy">   -828.38249722 </i>
   </energy>
  </scstep>
  <scstep>
   <time name="dav">   10.37   10.37</time>
   <time name="total">   12.24   12.25</time>
   <energy>
    <i name="e_fr_energy">   -828.41743261 </i>
    <i name="e_wo_entrp">   -828.35259361 </i>
    <i name="e_0_energy">   -828.38501311 </i>
   </energy>
  </scstep>
  <scstep>
   <time name="dav">    9.40    9.41</time>
   <time name="total">   11.29   11.30</time>
   <energy>
    <i name="e_fr_energy">   -828.41826738 </i>
    <i name="e_wo_entrp">   -828.35342729 </i>
    <i name="e_0_energy">   -828.38584734 </i>
   </energy>
  </scstep>
  <scstep>
   <time name="dav">    9.04    9.05</time>
   <time name="total">   10.94   10.95</time>
   <energy>
    <i name="e_fr_energy">   -828.41863139 </i>
    <i name="e_wo_entrp">   -828.35379165 </i>
    <i name="e_0_energy">   -828.38621152 </i>
   </energy>
  </scstep>
  <scstep>
   <time name="dav">    8.80    8.80</time>
   <time name="total">   10.72   10.73</time>
   <energy>
    <i name="e_fr_energy">   -828.41883129 </i>
    <i name="e_wo_entrp">   -828.35399139 </i>
    <i name="e_0_energy">   -828.38641134 </i>
   </energy>
  </scstep>
  <scstep>
   <time name="dav">    7.65    7.65</time>
   <time name="total">    9.58    9.58</time>
   <energy>
    <i name="e_fr_energy">   -828.41887306 </i>
    <i name="e_wo_entrp">   -828.35403282 </i>
    <i name="e_0_energy">   -828.38645294 </i>
   </energy>
  </scstep>
  <scstep>
   <time name="dav">    7.10    7.10</time>
   <time name="total">    9.04    9.04</time>
   <energy>
    <i name="e_fr_energy">   -828.41891288 </i>
    <i name="e_wo_entrp">   -828.35407272 </i>
    <i name="e_0_energy">   -828.38649280 </i>
   </energy>
  </scstep>
  <scstep>
   <time name="dav">    7.14    7.15</time>
   <time name="total">    9.11    9.11</time>
   <energy>
    <i name="e_fr_energy">   -828.41892296 </i>
    <i name="e_wo_entrp">   -828.35408297 </i>
    <i name="e_0_energy">   -828.38650297 </i>
   </energy>
  </scstep>
  <scstep>
   <time name="dav">    6.98    6.98</time>
   <time name="total">    8.95    8.95</time>
   <energy>
    <i name="e_fr_energy">   -828.41892973 </i>
    <i name="e_wo_entrp">   -828.35408975 </i>
    <i name="e_0_energy">   -828.38650974 </i>
   </energy>
  </scstep>
  <scstep>
   <time name="dav">    7.11    7.11</time>
   <time name="total">    9.11    9.12</time>
   <energy>
    <i name="e_fr_energy">   -828.41893227 </i>
    <i name="e_wo_entrp">   -828.35409227 </i>
    <i name="e_0_energy">   -828.38651227 </i>
   </energy>
  </scstep>
  <scstep>
   <time name="dav">    7.07    7.07</time>
   <time name="total">    9.08    9.08</time>
   <energy>
    <i name="e_fr_energy">   -828.41893472 </i>
    <i name="e_wo_entrp">   -828.35409470 </i>
    <i name="e_0_energy">   -828.38651471 </i>
   </energy>
  </scstep>
  <scstep>
   <time name="dav">    7.07    7.07</time>
   <time name="total">    9.09    9.10</time>
   <energy>
    <i name="e_fr_energy">   -828.41893593 </i>
    <i name="e_wo_entrp">   -828.35409589 </i>
    <i name="e_0_energy">   -828.38651591 </i>
   </energy>
  </scstep>
  <scstep>
   <time name="dav">    6.91    6.91</time>
   <time name="total">    7.27    7.27</time>
   <energy>
    <i name="alphaZ">     91.34886789 </i>
    <i name="ewald"> 119145.08698744 </i>
    <i name="hartreedc">-130235.68819295 </i>
    <i name="XCdc">   1278.78590530 </i>
    <i name="pawpsdc">  41113.80347682 </i>
    <i name="pawaedc"> -41177.89234573 </i>
    <i name="eentropy">     -0.06484003 </i>
    <i name="bandstr">  -4581.45358918 </i>
    <i name="atom">  13537.65479391 </i>
    <i name="e_fr_energy">   -828.41893652 </i>
    <i name="e_wo_entrp">   -828.35409649 </i>
    <i name="e_0_energy">   -828.38651650 </i>
   </energy>
  </scstep>
  <structure>
   <crystal>
    <varray name="basis" >
     <v>      28.05000000       0.00000000       0.00000000 </v>
     <v>       0.00000000       8.10000000       0.00000000 </v>
     <v>       0.00000000       0.00000000      33.50000000 </v>
    </varray>
    <i name="volume">   7611.36750000 </i>
    <varray name="rec_basis" >
     <v>       0.03565062       0.00000000       0.00000000 </v>
     <v>       0.00000000       0.12345679       0.00000000 </v>
     <v>       0.00000000       0.00000000       0.02985075 </v>
    </varray>
   </crystal>
   <varray name="positions" >
    <v>       0.00870556       0.10534815       0.45072239 </v>
    <v>       0.00851469       0.27517531       0.45054925 </v>
    <v>       0.05175544       0.02526235       0.45005075 </v>
    <v>       0.05009091       0.36195926       0.45497313 </v>
    <v>       0.09828520       0.10824951       0.45940299 </v>
    <v>       0.09498681       0.27757901       0.46354925 </v>
    <v>       0.13986168       0.02664951       0.47073433 </v>
    <v>       0.13912585       0.35890741       0.47434925 </v>
    <v>       0.18143244       0.10582000       0.48803284 </v>
    <v>       0.18155900       0.27650123       0.48881493 </v>
    <v>       0.21975294       0.01921481       0.50422388 </v>
    <v>       0.22290018       0.35730741       0.50361194 </v>
    <v>       0.26101818       0.09550198       0.52338507 </v>
    <v>       0.26159109       0.26753704       0.52316418 </v>
    <v>       0.30306560       0.01470975       0.53299701 </v>
    <v>       0.30344064       0.35318395       0.53536418 </v>
    <v>       0.34647344       0.09631037       0.54379701 </v>
    <v>       0.34707736       0.26424938       0.54495224 </v>
    <v>       0.39272014       0.01728407       0.54634328 </v>
    <v>       0.39170766       0.34623086       0.55088358 </v>
    <v>       0.43698039       0.09599926       0.54808955 </v>
    <v>       0.43547950       0.26692716       0.55181493 </v>
    <v>       0.48154724       0.01324333       0.54269552 </v>
    <v>       0.48351515       0.34608889       0.54634328 </v>
    <v>       0.52634581       0.09532370       0.53657910 </v>
    <v>       0.52593939       0.25743333       0.54169254 </v>
    <v>       0.56948663       0.01357259       0.52857910 </v>
    <v>       0.57117291       0.34836914       0.53760299 </v>
    <v>       0.61268449       0.10053827       0.52379701 </v>
    <v>       0.61257398       0.26846420       0.52549851 </v>
    <v>       0.65685918       0.02586296       0.51920896 </v>
    <v>       0.65754011       0.34944074       0.52242687 </v>
    <v>       0.69796078       0.10873679       0.50234925 </v>
    <v>       0.69966845       0.27511235       0.50751343 </v>
    <v>       0.74002852       0.02080420       0.48915821 </v>
    <v>       0.74270588       0.36052469       0.49762090 </v>
    <v>       0.78306239       0.10844506       0.48118806 </v>
    <v>       0.78403922       0.27999753       0.48315821 </v>
    <v>       0.82514082       0.02312407       0.46821791 </v>
    <v>       0.82778253       0.36352593       0.47298209 </v>
    <v>       0.86689483       0.10959654       0.45900896 </v>
    <v>       0.86949376       0.27931358       0.46375522 </v>
    <v>       0.91265597       0.03019259       0.45014030 </v>
    <v>       0.91464528       0.35991975       0.45760299 </v>
    <v>       0.95729412       0.10336025       0.44747463 </v>
    <v>       0.95534403       0.27768395       0.44766567 </v>
    <v>       0.00970410       0.61942716       0.44842687 </v>
    <v>       0.01117194       0.78348395       0.44417015 </v>
    <v>       0.05074831       0.52865926       0.45602985 </v>
    <v>       0.05462602       0.85984691       0.45191642 </v>
    <v>       0.09546916       0.60573210       0.45960597 </v>
    <v>       0.09750267       0.77209630       0.45720896 </v>
    <v>       0.13785668       0.52703580       0.47522090 </v>
    <v>       0.14010660       0.85800864       0.47205373 </v>
    <v>       0.17835651       0.60711358       0.49125970 </v>
    <v>       0.18112335       0.77110741       0.48593134 </v>
    <v>       0.22213155       0.52277778       0.50344179 </v>
    <v>       0.22295223       0.85300494       0.49967761 </v>
    <v>       0.26400357       0.60224321       0.51397015 </v>
    <v>       0.26480357       0.76889136       0.50940299 </v>
    <v>       0.30414403       0.52165679       0.53036119 </v>
    <v>       0.30585954       0.85482963       0.52436119 </v>
    <v>       0.34919144       0.60353704       0.53939701 </v>
    <v>       0.34956435       0.76949259       0.53390746 </v>
    <v>       0.39170410       0.51480247       0.54631343 </v>
    <v>       0.39188948       0.85283951       0.54291343 </v>
    <v>       0.43650980       0.59753086       0.54637313 </v>
    <v>       0.43556150       0.76484198       0.54466567 </v>
    <v>       0.48207843       0.51434568       0.54661791 </v>
    <v>       0.48131194       0.84131358       0.54007463 </v>
    <v>       0.52806417       0.59326790       0.54411045 </v>
    <v>       0.52526916       0.75938642       0.54237313 </v>
    <v>       0.57229947       0.51352099       0.54117313 </v>
    <v>       0.57048485       0.84953704       0.53468657 </v>
    <v>       0.61862389       0.60434321       0.53515224 </v>
    <v>       0.61645989       0.77154815       0.53516716 </v>
    <v>       0.66108021       0.51941975       0.52555522 </v>
    <v>       0.65874510       0.85359383       0.52237910 </v>
    <v>       0.70498396       0.60448025       0.51503582 </v>
    <v>       0.70285205       0.77144074       0.50952836 </v>
    <v>       0.74584670       0.52604815       0.50235522 </v>
    <v>       0.74291622       0.85268025       0.49363284 </v>
    <v>       0.78606417       0.61093827       0.48421791 </v>
    <v>       0.78472727       0.78126914       0.48198507 </v>
    <v>       0.82884848       0.52990000       0.47393134 </v>
    <v>       0.82590731       0.85910370       0.46748657 </v>
    <v>       0.87189305       0.61651235       0.46466567 </v>
    <v>       0.86929412       0.77526790       0.45536119 </v>
    <v>       0.91560428       0.53288025       0.45580597 </v>
    <v>       0.91362567       0.86202099       0.44878806 </v>
    <v>       0.95772549       0.60663951       0.44685970 </v>
    <v>       0.95708378       0.77798642       0.44437910 </v>
   </varray>
  </structure>
  <varray name="forces" >
   <v>       1.42710613       0.44095739      -0.92456619 </v>
   <v>       0.46404723       0.47557189       0.00451384 </v>
   <v>       3.10878461       1.86402541       1.63371890 </v>
   <v>       1.25485597      -1.97173510       1.09726251 </v>
   <v>      -3.18979689       0.77190642      -0.40705098 </v>
   <v>       0.90351299       0.00248115      -0.61984160 </v>
   <v>       1.43994525       0.03657972       0.91451929 </v>
   <v>      -0.50752957      -1.01162933       0.59760609 </v>
   <v>      -1.53625022       0.35686091      -0.43218795 </v>
   <v>      -0.76169723      -0.21845989      -0.28777342 </v>
   <v>       2.22482793       1.00159290       0.72358600 </v>
   <v>      -0.49872984      -2.81601426       1.16627645 </v>
   <v>      -1.96813779       1.77677338      -1.23593516 </v>
   <v>      -0.37424634       0.70084815      -0.80105645 </v>
   <v>       1.12320508       1.62274591       0.22908935 </v>
   <v>       0.31682874      -1.21716621      -0.07981934 </v>
   <v>       0.79608732      -0.07200913       0.06610699 </v>
   <v>      -0.80268963       1.43723201       0.47976385 </v>
   <v>      -1.63760800       1.10448899      -0.14503006 </v>
   <v>      -1.09884439       0.14223560      -0.50507554 </v>
   <v>       0.45923246       0.82289287       0.27072429 </v>
   <v>       3.35618689      -0.68767598      -0.95176192 </v>
   <v>       0.20257898      -0.22120029      -0.82530375 </v>
   <v>      -3.52766341      -1.01573151       1.23279623 </v>
   <v>      -1.63601190      -2.24195409       0.14030517 </v>
   <v>       1.66032920       4.14220535      -0.29863000 </v>
   <v>      -0.00118807       1.09791769       0.66593454 </v>
   <v>      -1.41486186      -1.83776501      -0.39890278 </v>
   <v>      -0.22021363      -0.30989556      -0.09229329 </v>
   <v>       1.22764593       0.75348433       0.83776777 </v>
   <v>       1.21574526      -1.72395339      -2.01178155 </v>
   <v>       0.55418480       0.85883803      -0.91925564 </v>
   <v>       0.39983399      -2.07005940       0.74037573 </v>
   <v>       0.17389236       0.30280001      -0.21621623 </v>
   <v>      -0.36221148       2.19899478       1.14487281 </v>
   <v>       0.43360891      -1.62744090       0.06436898 </v>
   <v>      -0.07498483      -0.34706199      -1.02907292 </v>
   <v>       0.29503669      -0.56730535      -0.09751232 </v>
   <v>      -0.44984586       3.00162307       0.03188001 </v>
   <v>      -1.13129560      -1.41866205       0.86277787 </v>
   <v>       2.81936126       0.56790948      -0.23773678 </v>
   <v>       1.01466917      -0.74376629      -0.60419620 </v>
   <v>      -0.44978702      -0.00458658       0.26539517 </v>
   <v>      -1.02707694       0.43252460      -0.40920591 </v>
   <v>      -3.14476615       2.30047559      -0.11202046 </v>
   <v>       0.59823647      -1.66458046       0.84888059 </v>
   <v>       1.66267286      -2.91753956      -0.12217930 </v>
   <v>       0.05821913      -0.05728963       0.59753566 </v>
   <v>       0.12006134       1.19163679      -0.86055820 </v>
   <v>      -1.23424276      -1.19136285      -1.68388742 </v>
   <v>       1.09322294      -0.46477822       1.32169293 </v>
   <v>       0.96677957       2.22492375       1.45715366 </v>
   <v>      -0.27007024      -0.03891822      -0.08402647 </v>
   <v>      -0.70756788      -1.66215149      -1.24686286 </v>
   <v>       1.19387721      -1.87058082      -1.25100816 </v>
   <v>      -0.34265233       2.29235097       0.35969223 </v>
   <v>      -1.65353088       1.17483531      -0.38338770 </v>
   <v>      -1.03295662      -0.89371243      -0.76248956 </v>
   <v>       0.66541959      -0.21259826       0.30454873 </v>
   <v>       1.11197813       1.73096572       1.37237043 </v>
   <v>       1.47894148       0.17552261       0.31430514 </v>
   <v>       0.42129234      -3.58429942      -0.31598867 </v>
   <v>      -1.58723103      -1.73105946      -1.30811184 </v>
   <v>      -0.89927791       1.10745985       0.32583794 </v>
   <v>       0.63084174       0.89271862       0.45625148 </v>
   <v>       0.83652307      -2.19025408      -0.50527574 </v>
   <v>       0.25293723      -1.44543760       0.14523462 </v>
   <v>       1.31816026       0.82022123      -0.60201160 </v>
   <v>       0.72565146       0.39628864      -0.12869326 </v>
   <v>      -1.08157497       1.08228373       1.44866362 </v>
   <v>      -1.56291533      -0.30788949       0.58059669 </v>
   <v>       2.41454799       2.52208840      -1.41566290 </v>
   <v>       1.63402473       2.20668776      -0.21680524 </v>
   <v>      -0.58055154      -2.48151162       1.02956978 </v>
   <v>      -2.11916477      -2.48330509       0.65907685 </v>
   <v>      -0.05344722       0.82203298      -1.25542183 </v>
   <v>      -0.03187119       0.67252375       0.57089205 </v>
   <v>       1.18059743       0.70222237      -0.53022540 </v>
   <v>      -1.92814065      -0.17390586       0.32447183 </v>
   <v>      -1.85552864       0.82989922       1.42319791 </v>
   <v>       1.19759663       0.86158541      -1.54298163 </v>
   <v>      -1.62163729       1.58967420       0.06767712 </v>
   <v>      -0.20801740      -0.59920159       1.38575981 </v>
   <v>       1.18956457      -2.53421299      -0.42257687 </v>
   <v>      -0.28715310       1.44721819       0.35185947 </v>
   <v>       0.49677280      -1.79825166      -0.74364005 </v>
   <v>       0.22371668      -2.93863439      -1.29225362 </v>
   <v>      -0.05775456       3.03773742       1.31024281 </v>
   <v>      -0.89708137      -1.80316208       1.06231876 </v>
   <v>      -0.21682398      -1.72927776      -0.46082164 </v>
   <v>      -0.64575570       2.25287926       0.06356481 </v>
   <v>      -1.65275882       0.65026558      -0.17394034 </v>
  </varray>
  <varray name="stress" >
   <v>      -7.77013663      -0.42581802      -0.31259400 </v>
   <v>      -0.42581802      60.26238001       0.95587279 </v>
   <v>      -0.31259400       0.95587278      -1.60387647 </v>
  </varray>
  <energy>
   <i name="e_fr_energy">   -828.41893652 </i>
   <i name="e_wo_entrp">   -828.35409649 </i>
   <i name="e_0_energy">   -828.38651650 </i>
  </energy>
  <time name="totalsc">  333.21  333.39</time>
  <eigenvalues>
   <array>
    <dimension dim="1">band</dimension>
    <dimension dim="2">kpoint</dimension>
    <dimension dim="3">spin</dimension>
    <field>eigene</field>
    <field>occ</field>
    <set>
     <set comment="spin 1">
      <set comment="kpoint 1">
       <r>  -23.1894    1.0000 </r>
       <r>  -23.0277    1.0000 </r>
       <r>  -22.9801    1.0000 </r>
       <r>  -22.6849    1.0000 </r>
       <r>  -22.5748    1.0000 </r>
       <r>  -22.3654    1.0000 </r>
       <r>  -22.0146    1.0000 </r>
       <r>  -21.9956    1.0000 </r>
       <r>  -21.4789    1.0000 </r>
       <r>  -21.4354    1.0000 </r>
       <r>  -21.3935    1.0000 </r>
       <r>  -21.3252    1.0000 </r>
       <r>  -21.2245    1.0000 </r>
       <r>  -21.1793    1.0000 </r>
       <r>  -21.1113    1.0000 </r>
       <r>  -21.0655    1.0000 </r>
       <r>  -20.9800    1.0000 </r>
       <r>  -20.9409    1.0000 </r>
       <r>  -20.7389    1.0000 </r>
       <r>  -20.5031    1.0000 </r>
       <r>  -20.4073    1.0000 </r>
       <r>  -20.3477    1.0000 </r>
       <r>  -20.1227    1.0000 </r>
       <r>  -20.0797    1.0000 </r>
       <r>  -20.0024    1.0000 </r>
       <r>  -19.7012    1.0000 </r>
       <r>  -19.5797    1.0000 </r>
       <r>  -19.4546    1.0000 </r>
       <r>  -19.2388    1.0000 </r>
       <r>  -18.9858    1.0000 </r>
       <r>  -18.7278    1.0000 </r>
       <r>  -18.6527    1.0000 </r>
       <r>  -18.6240    1.0000 </r>
       <r>  -18.4152    1.0000 </r>
       <r>  -18.2225    1.0000 </r>
       <r>  -17.6947    1.0000 </r>
       <r>  -17.4807    1.0000 </r>
       <r>  -17.2793    1.0000 </r>
       <r>  -16.8730    1.0000 </r>
       <r>  -16.7987    1.0000 </r>
       <r>  -16.7674    1.0000 </r>
       <r>  -16.6881    1.0000 </r>
       <r>  -16.6730    1.0000 </r>
       <r>  -16.6712    1.0000 </r>
       <r>  -16.5690    1.0000 </r>
       <r>  -16.5196    1.0000 </r>
       <r>  -16.4679    1.0000 </r>
       <r>  -16.4060    1.0000 </r>
       <r>  -16.3954    1.0000 </r>
       <r>  -16.3338    1.0000 </r>
       <r>  -16.3198    1.0000 </r>
       <r>  -16.2474    1.0000 </r>
       <r>  -16.1428    1.0000 </r>
       <r>  -15.9387    1.0000 </r>
       <r>  -15.7577    1.0000 </r>
       <r>  -15.6012    1.0000 </r>
       <r>  -15.4288    1.0000 </r>
       <r>  -15.3888    1.0000 </r>
       <r>  -15.3090    1.0000 </r>
       <r>  -15.1467    1.0000 </r>
       <r>  -14.9853    1.0000 </r>
       <r>  -14.9702    1.0000 </r>
       <r>  -14.2573    1.0000 </r>
       <r>  -14.1194    1.0000 </r>
       <r>  -14.0660    1.0000 </r>
       <r>  -14.0032    1.0000 </r>
       <r>  -13.8939    1.0000 </r>
       <r>  -13.7973    1.0000 </r>
       <r>  -13.7119    1.0000 </r>
       <r>  -13.6638    1.0000 </r>
       <r>  -13.4533    1.0000 </r>
       <r>  -13.4114    1.0000 </r>
       <r>  -13.3396    1.0000 </r>
       <r>  -13.0791    1.0000 </r>
       <r>  -12.9369    1.0000 </r>
       <r>  -12.8539    1.0000 </r>
       <r>  -12.7278    1.0000 </r>
       <r>  -12.4809    1.0000 </r>
       <r>  -12.2082    1.0000 </r>
       <r>  -12.1686    1.0000 </r>
       <r>  -12.1327    1.0000 </r>
       <r>  -12.0175    1.0000 </r>
       <r>  -11.8938    1.0000 </r>
       <r>  -11.7607    1.0000 </r>
       <r>  -11.6160    1.0000 </r>
       <r>  -11.5443    1.0000 </r>
       <r>  -11.4549    1.0000 </r>
       <r>  -11.1537    1.0000 </r>
       <r>  -11.0895    1.0000 </r>
       <r>  -11.0105    1.0000 </r>
       <r>  -10.9726    1.0000 </r>
       <r>  -10.9344    1.0000 </r>
       <r>  -10.8578    1.0000 </r>
       <r>  -10.7968    1.0000 </r>
       <r>  -10.7383    1.0000 </r>
       <r>  -10.6402    1.0000 </r>
       <r>  -10.6183    1.0000 </r>
       <r>  -10.5426    1.0000 </r>
       <r>  -10.4820    1.0000 </r>
       <r>  -10.3610    1.0000 </r>
       <r>  -10.3172    1.0000 </r>
       <r>  -10.2831    1.0000 </r>
       <r>  -10.2230    1.0000 </r>
       <r>  -10.1741    1.0000 </r>
       <r>  -10.1170    1.0000 </r>
       <r>  -10.0088    1.0000 </r>
       <r>   -9.8412    1.0000 </r>
       <r>   -9.7761    1.0000 </r>
       <r>   -9.7172    1.0000 </r>
       <r>   -9.6401    1.0000 </r>
       <r>   -9.6306    1.0000 </r>
       <r>   -9.6034    1.0000 </r>
       <r>   -9.5675    1.0000 </r>
       <r>   -9.5486    1.0000 </r>
       <r>   -9.5007    1.0000 </r>
       <r>   -9.4673    1.0000 </r>
       <r>   -9.4511    1.0000 </r>
       <r>   -9.4406    1.0000 </r>
       <r>   -9.3866    1.0000 </r>
       <r>   -9.3629    1.0000 </r>
       <r>   -9.3457    1.0000 </r>
       <r>   -9.2875    1.0000 </r>
       <r>   -9.2646    1.0000 </r>
       <r>   -9.2363    1.0000 </r>
       <r>   -9.1729    1.0000 </r>
       <r>   -9.1659    1.0000 </r>
       <r>   -9.1125    1.0000 </r>
       <r>   -9.1037    1.0000 </r>
       <r>   -9.0523    1.0000 </r>
       <r>   -9.0351    1.0000 </r>
       <r>   -9.0249    1.0000 </r>
       <r>   -8.9833    1.0000 </r>
       <r>   -8.9300    1.0000 </r>
       <r>   -8.8784    1.0000 </r>
       <r>   -8.8672    1.0000 </r>
       <r>   -8.8312    1.0000 </r>
       <r>   -8.7813    1.0000 </r>
       <r>   -8.7707    1.0000 </r>
       <r>   -8.7180    1.0000 </r>
       <r>   -8.6898    1.0000 </r>
       <r>   -8.6332    1.0000 </r>
       <r>   -8.5900    1.0000 </r>
       <r>   -8.5615    1.0000 </r>
       <r>   -8.5160    1.0000 </r>
       <r>   -8.4115    1.0000 </r>
       <r>   -8.3336    1.0000 </r>
       <r>   -8.0218    1.0000 </r>
       <r>   -7.9880    1.0000 </r>
       <r>   -7.9391    1.0000 </r>
       <r>   -7.8472    1.0000 </r>
       <r>   -7.7620    1.0000 </r>
       <r>   -7.6880    1.0000 </r>
       <r>   -7.5121    1.0000 </r>
       <r>   -7.4844    1.0000 </r>
       <r>   -7.4197    1.0000 </r>
       <r>   -7.4136    1.0000 </r>
       <r>   -7.3253    1.0000 </r>
       <r>   -7.1437    1.0000 </r>
       <r>   -7.1194    1.0000 </r>
       <r>   -6.9646    1.0000 </r>
       <r>   -6.8504    1.0000 </r>
       <r>   -6.7654    1.0000 </r>
       <r>   -6.7153    1.0000 </r>
       <r>   -6.5549    1.0000 </r>
       <r>   -6.4795    1.0000 </r>
       <r>   -6.3273    1.0000 </r>
       <r>   -6.1886    1.0000 </r>
       <r>   -6.1447    1.0000 </r>
       <r>   -6.0563    1.0000 </r>
       <r>   -5.9857    1.0000 </r>
       <r>   -5.9513    1.0000 </r>
       <r>   -5.9375    1.0000 </r>
       <r>   -5.8538    1.0000 </r>
       <r>   -4.9539    1.0000 </r>
       <r>   -4.8264    1.0000 </r>
       <r>   -4.8051    1.0000 </r>
       <r>   -4.7531    1.0000 </r>
       <r>   -4.5812    1.0000 </r>
       <r>   -4.5435    1.0000 </r>
       <r>   -4.3469    1.0000 </r>
       <r>   -4.3271    1.0000 </r>
       <r>   -3.6669    0.9986 </r>
       <r>   -3.5408    0.9824 </r>
       <r>   -3.2745    0.5887 </r>
       <r>   -3.2238    0.4465 </r>
       <r>   -2.6376    0.0000 </r>
       <r>   -2.5185    0.0000 </r>
       <r>   -2.4269    0.0000 </r>
       <r>   -2.3547    0.0000 </r>
       <r>   -2.2288    0.0000 </r>
       <r>   -1.8117    0.0000 </r>
       <r>   -1.7319    0.0000 </r>
       <r>   -1.6302    0.0000 </r>
       <r>   -1.4676    0.0000 </r>
       <r>   -1.3554    0.0000 </r>
       <r>   -1.2768    0.0000 </r>
       <r>   -1.1713    0.0000 </r>
       <r>   -1.1517    0.0000 </r>
       <r>   -0.8199    0.0000 </r>
       <r>   -0.6545    0.0000 </r>
       <r>   -0.5270    0.0000 </r>
       <r>   -0.3619    0.0000 </r>
       <r>   -0.0539    0.0000 </r>
       <r>    0.0988    0.0000 </r>
       <r>    0.1454    0.0000 </r>
       <r>    0.2325    0.0000 </r>
       <r>    0.3714    0.0000 </r>
       <r>    0.5823    0.0000 </r>
       <r>    0.6305    0.0000 </r>
       <r>    0.7081    0.0000 </r>
       <r>    0.7173    0.0000 </r>
       <r>    0.8466    0.0000 </r>
       <r>    0.8996    0.0000 </r>
       <r>    0.9304    0.0000 </r>
       <r>    0.9526    0.0000 </r>
       <r>    0.9908    0.0000 </r>
       <r>    1.0910    0.0000 </r>
       <r>    1.1490    0.0000 </r>
       <r>    1.1575    0.0000 </r>
       <r>    1.2236    0.0000 </r>
       <r>    1.2945    0.0000 </r>
       <r>    1.3106    0.0000 </r>
       <r>    1.3270    0.0000 </r>
       <r>    1.4098    0.0000 </r>
       <r>    1.4678    0.0000 </r>
       <r>    1.5454    0.0000 </r>
       <r>    1.5701    0.0000 </r>
       <r>    1.7194    0.0000 </r>
       <r>    1.7276    0.0000 </r>
       <r>    1.7314    0.0000 </r>
       <r>    1.7514    0.0000 </r>
       <r>    1.8693    0.0000 </r>
      </set>
      <set comment="kpoint 2">
       <r>  -23.1073    1.0000 </r>
       <r>  -22.9317    1.0000 </r>
       <r>  -22.8816    1.0000 </r>
       <r>  -22.5958    1.0000 </r>
       <r>  -22.5296    1.0000 </r>
       <r>  -22.4794    1.0000 </r>
       <r>  -22.1255    1.0000 </r>
       <r>  -22.0692    1.0000 </r>
       <r>  -21.9159    1.0000 </r>
       <r>  -21.8931    1.0000 </r>
       <r>  -21.8046    1.0000 </r>
       <r>  -21.6456    1.0000 </r>
       <r>  -21.2366    1.0000 </r>
       <r>  -21.1091    1.0000 </r>
       <r>  -21.0785    1.0000 </r>
       <r>  -20.9718    1.0000 </r>
       <r>  -20.5486    1.0000 </r>
       <r>  -20.5119    1.0000 </r>
       <r>  -20.4604    1.0000 </r>
       <r>  -20.2932    1.0000 </r>
       <r>  -20.1888    1.0000 </r>
       <r>  -20.0914    1.0000 </r>
       <r>  -20.0308    1.0000 </r>
       <r>  -19.9179    1.0000 </r>
       <r>  -19.8424    1.0000 </r>
       <r>  -19.5302    1.0000 </r>
       <r>  -19.5005    1.0000 </r>
       <r>  -19.1656    1.0000 </r>
       <r>  -19.0455    1.0000 </r>
       <r>  -18.9145    1.0000 </r>
       <r>  -18.6987    1.0000 </r>
       <r>  -18.6284    1.0000 </r>
       <r>  -18.5757    1.0000 </r>
       <r>  -18.2142    1.0000 </r>
       <r>  -18.1446    1.0000 </r>
       <r>  -18.1184    1.0000 </r>
       <r>  -18.0571    1.0000 </r>
       <r>  -17.9621    1.0000 </r>
       <r>  -17.7870    1.0000 </r>
       <r>  -17.7492    1.0000 </r>
       <r>  -17.4875    1.0000 </r>
       <r>  -17.4592    1.0000 </r>
       <r>  -17.3333    1.0000 </r>
       <r>  -17.1932    1.0000 </r>
       <r>  -17.0269    1.0000 </r>
       <r>  -16.5388    1.0000 </r>
       <r>  -16.4109    1.0000 </r>
       <r>  -16.1738    1.0000 </r>
       <r>  -16.0487    1.0000 </r>
       <r>  -15.8562    1.0000 </r>
       <r>  -15.8146    1.0000 </r>
       <r>  -15.5942    1.0000 </r>
       <r>  -15.5475    1.0000 </r>
       <r>  -15.3141    1.0000 </r>
       <r>  -15.2529    1.0000 </r>
       <r>  -15.1874    1.0000 </r>
       <r>  -15.1156    1.0000 </r>
       <r>  -15.0613    1.0000 </r>
       <r>  -14.9671    1.0000 </r>
       <r>  -14.9088    1.0000 </r>
       <r>  -14.8435    1.0000 </r>
       <r>  -14.7707    1.0000 </r>
       <r>  -14.5415    1.0000 </r>
       <r>  -14.4198    1.0000 </r>
       <r>  -14.3063    1.0000 </r>
       <r>  -14.1497    1.0000 </r>
       <r>  -13.9260    1.0000 </r>
       <r>  -13.8055    1.0000 </r>
       <r>  -13.3026    1.0000 </r>
       <r>  -13.2798    1.0000 </r>
       <r>  -13.1667    1.0000 </r>
       <r>  -13.1028    1.0000 </r>
       <r>  -12.9344    1.0000 </r>
       <r>  -12.8762    1.0000 </r>
       <r>  -12.7816    1.0000 </r>
       <r>  -12.7347    1.0000 </r>
       <r>  -12.6319    1.0000 </r>
       <r>  -12.5270    1.0000 </r>
       <r>  -12.3450    1.0000 </r>
       <r>  -12.2687    1.0000 </r>
       <r>  -12.1347    1.0000 </r>
       <r>  -12.1083    1.0000 </r>
       <r>  -11.9938    1.0000 </r>
       <r>  -11.9287    1.0000 </r>
       <r>  -11.6908    1.0000 </r>
       <r>  -11.6247    1.0000 </r>
       <r>  -11.4929    1.0000 </r>
       <r>  -11.3812    1.0000 </r>
       <r>  -11.2629    1.0000 </r>
       <r>  -11.2260    1.0000 </r>
       <r>  -11.0376    1.0000 </r>
       <r>  -11.0141    1.0000 </r>
       <r>  -10.9739    1.0000 </r>
       <r>  -10.9273    1.0000 </r>
       <r>  -10.8938    1.0000 </r>
       <r>  -10.8365    1.0000 </r>
       <r>  -10.8009    1.0000 </r>
       <r>  -10.7383    1.0000 </r>
       <r>  -10.6901    1.0000 </r>
       <r>  -10.5611    1.0000 </r>
       <r>  -10.5462    1.0000 </r>
       <r>  -10.4810    1.0000 </r>
       <r>  -10.4549    1.0000 </r>
       <r>  -10.3886    1.0000 </r>
       <r>  -10.3630    1.0000 </r>
       <r>  -10.2926    1.0000 </r>
       <r>  -10.1822    1.0000 </r>
       <r>  -10.1183    1.0000 </r>
       <r>  -10.0679    1.0000 </r>
       <r>  -10.0223    1.0000 </r>
       <r>   -9.9494    1.0000 </r>
       <r>   -9.9041    1.0000 </r>
       <r>   -9.8691    1.0000 </r>
       <r>   -9.7931    1.0000 </r>
       <r>   -9.7136    1.0000 </r>
       <r>   -9.6780    1.0000 </r>
       <r>   -9.6620    1.0000 </r>
       <r>   -9.6192    1.0000 </r>
       <r>   -9.5622    1.0000 </r>
       <r>   -9.5506    1.0000 </r>
       <r>   -9.4762    1.0000 </r>
       <r>   -9.4326    1.0000 </r>
       <r>   -9.3959    1.0000 </r>
       <r>   -9.3167    1.0000 </r>
       <r>   -9.2363    1.0000 </r>
       <r>   -9.1407    1.0000 </r>
       <r>   -8.9975    1.0000 </r>
       <r>   -8.8927    1.0000 </r>
       <r>   -8.8586    1.0000 </r>
       <r>   -8.7795    1.0000 </r>
       <r>   -8.7680    1.0000 </r>
       <r>   -8.7222    1.0000 </r>
       <r>   -8.6401    1.0000 </r>
       <r>   -8.6259    1.0000 </r>
       <r>   -8.5832    1.0000 </r>
       <r>   -8.5480    1.0000 </r>
       <r>   -8.4516    1.0000 </r>
       <r>   -8.3814    1.0000 </r>
       <r>   -8.3330    1.0000 </r>
       <r>   -8.2500    1.0000 </r>
       <r>   -8.1747    1.0000 </r>
       <r>   -8.1013    1.0000 </r>
       <r>   -8.0781    1.0000 </r>
       <r>   -8.0274    1.0000 </r>
       <r>   -7.9573    1.0000 </r>
       <r>   -7.9305    1.0000 </r>
       <r>   -7.8755    1.0000 </r>
       <r>   -7.8315    1.0000 </r>
       <r>   -7.7503    1.0000 </r>
       <r>   -7.7257    1.0000 </r>
       <r>   -7.6504    1.0000 </r>
       <r>   -7.5226    1.0000 </r>
       <r>   -7.4580    1.0000 </r>
       <r>   -7.3957    1.0000 </r>
       <r>   -7.3491    1.0000 </r>
       <r>   -7.3038    1.0000 </r>
       <r>   -7.2530    1.0000 </r>
       <r>   -7.0495    1.0000 </r>
       <r>   -6.9501    1.0000 </r>
       <r>   -6.9405    1.0000 </r>
       <r>   -6.8332    1.0000 </r>
       <r>   -6.7560    1.0000 </r>
       <r>   -6.6079    1.0000 </r>
       <r>   -6.5532    1.0000 </r>
       <r>   -6.5296    1.0000 </r>
       <r>   -6.3151    1.0000 </r>
       <r>   -6.2226    1.0000 </r>
       <r>   -6.1594    1.0000 </r>
       <r>   -6.0832    1.0000 </r>
       <r>   -6.0210    1.0000 </r>
       <r>   -5.9877    1.0000 </r>
       <r>   -5.8510    1.0000 </r>
       <r>   -5.7185    1.0000 </r>
       <r>   -5.5883    1.0000 </r>
       <r>   -5.4778    1.0000 </r>
       <r>   -5.4328    1.0000 </r>
       <r>   -5.1118    1.0000 </r>
       <r>   -5.0777    1.0000 </r>
       <r>   -4.7785    1.0000 </r>
       <r>   -4.7331    1.0000 </r>
       <r>   -4.6274    1.0000 </r>
       <r>   -4.5360    1.0000 </r>
       <r>   -4.3915    1.0000 </r>
       <r>   -3.5623    0.9881 </r>
       <r>   -2.8651    0.0038 </r>
       <r>   -2.4439    0.0000 </r>
       <r>   -2.1281    0.0000 </r>
       <r>   -1.9773    0.0000 </r>
       <r>   -1.5942    0.0000 </r>
       <r>   -1.5159    0.0000 </r>
       <r>   -1.4196    0.0000 </r>
       <r>   -1.3320    0.0000 </r>
       <r>   -1.2830    0.0000 </r>
       <r>   -1.1997    0.0000 </r>
       <r>   -1.1126    0.0000 </r>
       <r>   -1.0172    0.0000 </r>
       <r>   -0.9668    0.0000 </r>
       <r>   -0.9221    0.0000 </r>
       <r>   -0.8368    0.0000 </r>
       <r>   -0.5307    0.0000 </r>
       <r>   -0.2323    0.0000 </r>
       <r>   -0.0812    0.0000 </r>
       <r>   -0.0310    0.0000 </r>
       <r>    0.0505    0.0000 </r>
       <r>    0.1389    0.0000 </r>
       <r>    0.1986    0.0000 </r>
       <r>    0.2417    0.0000 </r>
       <r>    0.3431    0.0000 </r>
       <r>    0.3830    0.0000 </r>
       <r>    0.7724    0.0000 </r>
       <r>    0.8025    0.0000 </r>
       <r>    0.8545    0.0000 </r>
       <r>    1.0024    0.0000 </r>
       <r>    1.0565    0.0000 </r>
       <r>    1.0736    0.0000 </r>
       <r>    1.1299    0.0000 </r>
       <r>    1.1657    0.0000 </r>
       <r>    1.2162    0.0000 </r>
       <r>    1.2911    0.0000 </r>
       <r>    1.2985    0.0000 </r>
       <r>    1.3631    0.0000 </r>
       <r>    1.3773    0.0000 </r>
       <r>    1.3904    0.0000 </r>
       <r>    1.4431    0.0000 </r>
       <r>    1.4506    0.0000 </r>
       <r>    1.4704    0.0000 </r>
       <r>    1.5523    0.0000 </r>
       <r>    1.5926    0.0000 </r>
       <r>    1.6123    0.0000 </r>
       <r>    1.6568    0.0000 </r>
       <r>    1.6884    0.0000 </r>
       <r>    1.7218    0.0000 </r>
      </set>
      <set comment="kpoint 3">
       <r>  -22.9385    1.0000 </r>
       <r>  -22.7769    1.0000 </r>
       <r>  -22.6909    1.0000 </r>
       <r>  -22.6263    1.0000 </r>
       <r>  -22.6121    1.0000 </r>
       <r>  -22.5039    1.0000 </r>
       <r>  -22.3441    1.0000 </r>
       <r>  -22.2474    1.0000 </r>
       <r>  -22.1752    1.0000 </r>
       <r>  -22.1243    1.0000 </r>
       <r>  -21.6709    1.0000 </r>
       <r>  -21.6433    1.0000 </r>
       <r>  -21.6113    1.0000 </r>
       <r>  -21.5070    1.0000 </r>
       <r>  -20.9033    1.0000 </r>
       <r>  -20.7918    1.0000 </r>
       <r>  -20.7452    1.0000 </r>
       <r>  -20.6544    1.0000 </r>
       <r>  -19.9314    1.0000 </r>
       <r>  -19.8391    1.0000 </r>
       <r>  -19.6911    1.0000 </r>
       <r>  -19.6113    1.0000 </r>
       <r>  -19.4911    1.0000 </r>
       <r>  -19.4460    1.0000 </r>
       <r>  -19.4059    1.0000 </r>
       <r>  -19.3404    1.0000 </r>
       <r>  -19.2663    1.0000 </r>
       <r>  -19.2114    1.0000 </r>
       <r>  -19.0849    1.0000 </r>
       <r>  -18.9799    1.0000 </r>
       <r>  -18.9662    1.0000 </r>
       <r>  -18.8792    1.0000 </r>
       <r>  -18.5964    1.0000 </r>
       <r>  -18.5746    1.0000 </r>
       <r>  -18.5139    1.0000 </r>
       <r>  -18.4313    1.0000 </r>
       <r>  -18.3905    1.0000 </r>
       <r>  -18.3149    1.0000 </r>
       <r>  -18.2181    1.0000 </r>
       <r>  -18.0283    1.0000 </r>
       <r>  -17.8053    1.0000 </r>
       <r>  -17.7180    1.0000 </r>
       <r>  -17.6562    1.0000 </r>
       <r>  -17.6000    1.0000 </r>
       <r>  -17.0165    1.0000 </r>
       <r>  -16.9830    1.0000 </r>
       <r>  -16.2639    1.0000 </r>
       <r>  -16.1566    1.0000 </r>
       <r>  -16.0311    1.0000 </r>
       <r>  -15.9394    1.0000 </r>
       <r>  -15.9016    1.0000 </r>
       <r>  -15.7929    1.0000 </r>
       <r>  -15.2957    1.0000 </r>
       <r>  -15.2561    1.0000 </r>
       <r>  -15.1215    1.0000 </r>
       <r>  -15.0531    1.0000 </r>
       <r>  -14.8920    1.0000 </r>
       <r>  -14.7973    1.0000 </r>
       <r>  -14.7105    1.0000 </r>
       <r>  -14.6354    1.0000 </r>
       <r>  -14.0529    1.0000 </r>
       <r>  -13.9980    1.0000 </r>
       <r>  -13.7865    1.0000 </r>
       <r>  -13.7453    1.0000 </r>
       <r>  -13.6519    1.0000 </r>
       <r>  -13.6335    1.0000 </r>
       <r>  -13.6090    1.0000 </r>
       <r>  -13.5673    1.0000 </r>
       <r>  -13.5531    1.0000 </r>
       <r>  -13.5414    1.0000 </r>
       <r>  -13.5084    1.0000 </r>
       <r>  -13.4622    1.0000 </r>
       <r>  -13.4102    1.0000 </r>
       <r>  -13.2738    1.0000 </r>
       <r>  -13.1667    1.0000 </r>
       <r>  -12.9620    1.0000 </r>
       <r>  -12.3830    1.0000 </r>
       <r>  -12.2378    1.0000 </r>
       <r>  -12.1145    1.0000 </r>
       <r>  -12.0881    1.0000 </r>
       <r>  -12.0090    1.0000 </r>
       <r>  -11.9914    1.0000 </r>
       <r>  -11.9578    1.0000 </r>
       <r>  -11.9221    1.0000 </r>
       <r>  -11.8631    1.0000 </r>
       <r>  -11.7536    1.0000 </r>
       <r>  -11.7354    1.0000 </r>
       <r>  -11.7135    1.0000 </r>
       <r>  -11.6133    1.0000 </r>
       <r>  -11.5515    1.0000 </r>
       <r>  -11.2611    1.0000 </r>
       <r>  -11.2226    1.0000 </r>
       <r>  -11.1615    1.0000 </r>
       <r>  -11.0991    1.0000 </r>
       <r>  -11.0230    1.0000 </r>
       <r>  -10.9703    1.0000 </r>
       <r>  -10.7791    1.0000 </r>
       <r>  -10.7110    1.0000 </r>
       <r>  -10.6783    1.0000 </r>
       <r>  -10.6376    1.0000 </r>
       <r>  -10.5644    1.0000 </r>
       <r>  -10.5608    1.0000 </r>
       <r>  -10.4884    1.0000 </r>
       <r>  -10.4845    1.0000 </r>
       <r>  -10.4567    1.0000 </r>
       <r>  -10.4321    1.0000 </r>
       <r>  -10.3566    1.0000 </r>
       <r>  -10.3058    1.0000 </r>
       <r>  -10.2674    1.0000 </r>
       <r>  -10.2167    1.0000 </r>
       <r>  -10.1919    1.0000 </r>
       <r>  -10.1355    1.0000 </r>
       <r>  -10.1271    1.0000 </r>
       <r>  -10.0815    1.0000 </r>
       <r>  -10.0415    1.0000 </r>
[...]
       <r>   -22.6710    14.6679     6.9055 </r>
       <r>   -22.5742    16.6137     8.5148 </r>
       <r>   -22.4773    16.5281    10.1157 </r>
       <r>   -22.3804    13.9976    11.4715 </r>
       <r>   -22.2836    11.7355    12.6083 </r>
       <r>   -22.1867    11.9068    13.7616 </r>
       <r>   -22.0898    13.7265    15.0912 </r>
       <r>   -21.9930    15.0150    16.5456 </r>
       <r>   -21.8961    14.7829    17.9775 </r>
       <r>   -21.7993    13.6490    19.2995 </r>
       <r>   -21.7024    12.7125    20.5309 </r>
       <r>   -21.6055    12.2503    21.7175 </r>
       <r>   -21.5087    11.7215    22.8529 </r>
       <r>   -21.4118    11.2498    23.9425 </r>
       <r>   -21.3149    11.8032    25.0858 </r>
       <r>   -21.2181    13.8649    26.4288 </r>
       <r>   -21.1212    16.3820    28.0156 </r>
       <r>   -21.0244    17.3071    29.6920 </r>
       <r>   -20.9275    15.7005    31.2128 </r>
       <r>   -20.8306    12.8825    32.4606 </r>
       <r>   -20.7338    11.0565    33.5316 </r>
       <r>   -20.6369    11.3523    34.6312 </r>
       <r>   -20.5400    13.1422    35.9042 </r>
       <r>   -20.4432    14.4759    37.3064 </r>
       <r>   -20.3463    14.2347    38.6852 </r>
       <r>   -20.2495    13.7056    40.0127 </r>
       <r>   -20.1526    14.4573    41.4131 </r>
       <r>   -20.0557    15.9447    42.9575 </r>
       <r>   -19.9589    16.4265    44.5486 </r>
       <r>   -19.8620    15.2197    46.0229 </r>
       <r>   -19.7651    13.4003    47.3208 </r>
       <r>   -19.6683    12.8902    48.5694 </r>
       <r>   -19.5714    14.3554    49.9599 </r>
       <r>   -19.4746    15.9091    51.5009 </r>
       <r>   -19.3777    15.5580    53.0079 </r>
       <r>   -19.2808    14.1388    54.3774 </r>
       <r>   -19.1840    13.6185    55.6965 </r>
       <r>   -19.0871    14.2228    57.0742 </r>
       <r>   -18.9902    14.7497    58.5029 </r>
       <r>   -18.8934    14.3314    59.8911 </r>
       <r>   -18.7965    14.0002    61.2471 </r>
       <r>   -18.6997    15.4915    62.7477 </r>
       <r>   -18.6028    17.6305    64.4554 </r>
       <r>   -18.5059    17.5125    66.1517 </r>
       <r>   -18.4091    15.4019    67.6436 </r>
       <r>   -18.3122    14.2835    69.0271 </r>
       <r>   -18.2153    15.3687    70.5158 </r>
       <r>   -18.1185    16.7187    72.1352 </r>
       <r>   -18.0216    16.1443    73.6990 </r>
       <r>   -17.9248    14.2879    75.0829 </r>
       <r>   -17.8279    13.4649    76.3872 </r>
       <r>   -17.7310    13.9637    77.7397 </r>
       <r>   -17.6342    14.1234    79.1077 </r>
       <r>   -17.5373    13.5581    80.4210 </r>
       <r>   -17.4404    12.8805    81.6687 </r>
       <r>   -17.3436    11.8960    82.8209 </r>
       <r>   -17.2467    10.5405    83.8419 </r>
       <r>   -17.1499     9.4935    84.7615 </r>
       <r>   -17.0530     9.1892    85.6516 </r>
       <r>   -16.9561     9.2461    86.5472 </r>
       <r>   -16.8593     9.3555    87.4534 </r>
       <r>   -16.7624    10.0249    88.4244 </r>
       <r>   -16.6655    11.5937    89.5474 </r>
       <r>   -16.5687    13.6755    90.8720 </r>
       <r>   -16.4718    15.5939    92.3825 </r>
       <r>   -16.3750    16.6087    93.9913 </r>
       <r>   -16.2781    16.4958    95.5891 </r>
       <r>   -16.1812    15.8450    97.1239 </r>
       <r>   -16.0844    15.3076    98.6066 </r>
       <r>   -15.9875    15.2098   100.0798 </r>
       <r>   -15.8906    15.3774   101.5693 </r>
       <r>   -15.7938    14.8933   103.0119 </r>
       <r>   -15.6969    13.4719   104.3169 </r>
       <r>   -15.6001    12.2795   105.5063 </r>
       <r>   -15.5032    12.2605   106.6939 </r>
       <r>   -15.4063    13.7614   108.0268 </r>
       <r>   -15.3095    16.8364   109.6576 </r>
       <r>   -15.2126    20.2082   111.6151 </r>
       <r>   -15.1157    22.2531   113.7705 </r>
       <r>   -15.0189    22.6630   115.9657 </r>
       <r>   -14.9220    21.7005   118.0677 </r>
       <r>   -14.8252    19.2789   119.9351 </r>
       <r>   -14.7283    15.6184   121.4479 </r>
       <r>   -14.6314    11.9476   122.6052 </r>
       <r>   -14.5346     9.6419   123.5391 </r>
       <r>   -14.4377     8.9692   124.4079 </r>
       <r>   -14.3408     9.3521   125.3138 </r>
       <r>   -14.2440    10.3454   126.3159 </r>
       <r>   -14.1471    11.8184   127.4606 </r>
       <r>   -14.0503    13.4637   128.7648 </r>
       <r>   -13.9534    14.8417   130.2024 </r>
       <r>   -13.8565    15.9925   131.7514 </r>
       <r>   -13.7597    17.1542   133.4130 </r>
       <r>   -13.6628    18.1492   135.1710 </r>
       <r>   -13.5659    18.6536   136.9778 </r>
       <r>   -13.4691    18.6559   138.7849 </r>
       <r>   -13.3722    18.4779   140.5747 </r>
       <r>   -13.2754    18.2149   142.3390 </r>
       <r>   -13.1785    17.5106   144.0352 </r>
       <r>   -13.0816    16.4888   145.6323 </r>
       <r>   -12.9848    16.0619   147.1881 </r>
       <r>   -12.8879    16.4980   148.7861 </r>
       <r>   -12.7910    16.6255   150.3965 </r>
       <r>   -12.6942    15.4166   151.8898 </r>
       <r>   -12.5973    13.3862   153.1864 </r>
       <r>   -12.5005    11.9492   154.3439 </r>
       <r>   -12.4036    12.2496   155.5304 </r>
       <r>   -12.3067    14.7172   156.9559 </r>
       <r>   -12.2099    18.8315   158.7800 </r>
       <r>   -12.1130    22.9357   161.0016 </r>
       <r>   -12.0161    24.9363   163.4170 </r>
       <r>   -11.9193    23.9667   165.7385 </r>
       <r>   -11.8224    21.5186   167.8228 </r>
       <r>   -11.7256    20.0014   169.7602 </r>
       <r>   -11.6287    19.6361   171.6622 </r>
       <r>   -11.5318    18.7245   173.4759 </r>
       <r>   -11.4350    17.0312   175.1256 </r>
       <r>   -11.3381    16.3799   176.7122 </r>
       <r>   -11.2412    18.1245   178.4678 </r>
       <r>   -11.1444    21.9668   180.5955 </r>
       <r>   -11.0475    26.9073   183.2018 </r>
       <r>   -10.9507    31.2638   186.2301 </r>
       <r>   -10.8538    33.3485   189.4603 </r>
       <r>   -10.7569    33.6510   192.7199 </r>
       <r>   -10.6601    34.1908   196.0317 </r>
       <r>   -10.5632    35.9444   199.5133 </r>
       <r>   -10.4663    37.7921   203.1739 </r>
       <r>   -10.3695    38.0659   206.8611 </r>
       <r>   -10.2726    36.9610   210.4412 </r>
       <r>   -10.1758    35.9209   213.9206 </r>
       <r>   -10.0789    35.1743   217.3277 </r>
       <r>    -9.9820    33.7928   220.6009 </r>
       <r>    -9.8852    32.0093   223.7014 </r>
       <r>    -9.7883    31.8136   226.7830 </r>
       <r>    -9.6914    34.3979   230.1148 </r>
       <r>    -9.5946    38.0775   233.8031 </r>
       <r>    -9.4977    40.3268   237.7093 </r>
       <r>    -9.4009    40.4058   241.6231 </r>
       <r>    -9.3040    38.6763   245.3694 </r>
       <r>    -9.2071    35.7069   248.8280 </r>
       <r>    -9.1103    32.7357   251.9989 </r>
       <r>    -9.0134    31.4570   255.0459 </r>
       <r>    -8.9166    32.8033   258.2233 </r>
       <r>    -8.8197    35.9539   261.7059 </r>
       <r>    -8.7228    38.4879   265.4339 </r>
       <r>    -8.6260    38.1906   269.1331 </r>
       <r>    -8.5291    35.2081   272.5435 </r>
       <r>    -8.4322    31.7102   275.6150 </r>
       <r>    -8.3354    29.1341   278.4370 </r>
       <r>    -8.2385    27.2989   281.0812 </r>
       <r>    -8.1417    26.4974   283.6478 </r>
       <r>    -8.0448    27.3766   286.2996 </r>
       <r>    -7.9479    29.0674   289.1151 </r>
       <r>    -7.8511    30.0935   292.0301 </r>
       <r>    -7.7542    29.9178   294.9280 </r>
       <r>    -7.6573    28.9333   297.7305 </r>
       <r>    -7.5605    28.4689   300.4881 </r>
       <r>    -7.4636    29.4825   303.3438 </r>
       <r>    -7.3668    30.4581   306.2941 </r>
       <r>    -7.2699    29.2801   309.1302 </r>
       <r>    -7.1730    26.6619   311.7128 </r>
       <r>    -7.0762    25.1247   314.1464 </r>
       <r>    -6.9793    25.4993   316.6163 </r>
       <r>    -6.8824    26.5074   319.1839 </r>
       <r>    -6.7856    26.9278   321.7922 </r>
       <r>    -6.6887    26.5079   324.3598 </r>
       <r>    -6.5919    25.2187   326.8025 </r>
       <r>    -6.4950    22.8662   329.0174 </r>
       <r>    -6.3981    20.4750   331.0007 </r>
       <r>    -6.3013    20.0350   332.9413 </r>
       <r>    -6.2044    21.6818   335.0415 </r>
       <r>    -6.1075    23.9834   337.3646 </r>
       <r>    -6.0107    25.7625   339.8600 </r>
       <r>    -5.9138    25.6873   342.3481 </r>
       <r>    -5.8170    23.0125   344.5772 </r>
       <r>    -5.7201    19.1082   346.4280 </r>
       <r>    -5.6232    15.9744   347.9754 </r>
       <r>    -5.5264    14.1400   349.3450 </r>
       <r>    -5.4295    12.7750   350.5824 </r>
       <r>    -5.3326    11.3148   351.6784 </r>
       <r>    -5.2358    10.5063   352.6960 </r>
       <r>    -5.1389    10.7547   353.7378 </r>
       <r>    -5.0421    10.8938   354.7930 </r>
       <r>    -4.9452    10.6285   355.8225 </r>
       <r>    -4.8483    11.4866   356.9351 </r>
       <r>    -4.7515    13.5602   358.2486 </r>
       <r>    -4.6546    14.8628   359.6882 </r>
       <r>    -4.5577    14.4017   361.0832 </r>
       <r>    -4.4609    12.8697   362.3298 </r>
       <r>    -4.3640    11.0565   363.4007 </r>
       <r>    -4.2672     8.9968   364.2722 </r>
       <r>    -4.1703     6.4628   364.8982 </r>
       <r>    -4.0734     3.8064   365.2669 </r>
       <r>    -3.9766     1.7949   365.4408 </r>
       <r>    -3.8797     0.9757   365.5353 </r>
       <r>    -3.7828     1.5177   365.6823 </r>
       <r>    -3.6860     3.1895   365.9912 </r>
       <r>    -3.5891     4.9573   366.4714 </r>
       <r>    -3.4923     5.4383   366.9982 </r>
       <r>    -3.3954     4.6231   367.4460 </r>
       <r>    -3.2985     3.7761   367.8117 </r>
       <r>    -3.2017     3.2702   368.1285 </r>
       <r>    -3.1048     2.6666   368.3868 </r>
       <r>    -3.0079     2.3388   368.6133 </r>
       <r>    -2.9111     2.8337   368.8878 </r>
       <r>    -2.8142     3.7410   369.2502 </r>
       <r>    -2.7174     4.7496   369.7102 </r>
       <r>    -2.6205     6.3857   370.3288 </r>
       <r>    -2.5236     8.5600   371.1579 </r>
       <r>    -2.4268     9.8552   372.1125 </r>
       <r>    -2.3299     9.2775   373.0111 </r>
       <r>    -2.2330     7.7831   373.7650 </r>
       <r>    -2.1362     6.8134   374.4250 </r>
       <r>    -2.0393     6.4308   375.0479 </r>
       <r>    -1.9425     6.1469   375.6433 </r>
       <r>    -1.8456     6.3198   376.2555 </r>
       <r>    -1.7487     7.9300   377.0236 </r>
       <r>    -1.6519    11.2847   378.1166 </r>
       <r>    -1.5550    15.3632   379.6048 </r>
       <r>    -1.4581    18.7662   381.4225 </r>
       <r>    -1.3613    20.9569   383.4524 </r>
       <r>    -1.2644    22.2124   385.6040 </r>
       <r>    -1.1676    22.7469   387.8073 </r>
       <r>    -1.0707    22.2861   389.9660 </r>
       <r>    -0.9738    20.4066   391.9426 </r>
       <r>    -0.8770    17.1084   393.5998 </r>
       <r>    -0.7801    13.4057   394.8983 </r>
       <r>    -0.6832    11.1180   395.9752 </r>
       <r>    -0.5864    11.0349   397.0441 </r>
       <r>    -0.4895    11.7735   398.1845 </r>
       <r>    -0.3927    11.8636   399.3336 </r>
       <r>    -0.2958    11.9166   400.4879 </r>
       <r>    -0.1989    13.2014   401.7666 </r>
       <r>    -0.1021    15.6061   403.2782 </r>
       <r>    -0.0052    18.0133   405.0230 </r>
       <r>     0.0917    19.7391   406.9350 </r>
       <r>     0.1885    21.0033   408.9695 </r>
       <r>     0.2854    21.9224   411.0929 </r>
       <r>     0.3822    21.9296   413.2171 </r>
       <r>     0.4791    20.9754   415.2488 </r>
       <r>     0.5760    20.8197   417.2654 </r>
       <r>     0.6728    23.1338   419.5062 </r>
       <r>     0.7697    26.7448   422.0968 </r>
       <r>     0.8666    29.3621   424.9409 </r>
       <r>     0.9634    31.2325   427.9662 </r>
       <r>     1.0603    34.5756   431.3152 </r>
       <r>     1.1571    40.0305   435.1927 </r>
       <r>     1.2540    45.8661   439.6354 </r>
       <r>     1.3509    49.7499   444.4543 </r>
       <r>     1.4477    50.1746   449.3143 </r>
       <r>     1.5446    46.8780   453.8550 </r>
       <r>     1.6415    40.1361   457.7427 </r>
       <r>     1.7383    30.4230   460.6895 </r>
       <r>     1.8352    19.3191   462.5608 </r>
       <r>     1.9320     9.7299   463.5033 </r>
       <r>     2.0289     3.7557   463.8671 </r>
       <r>     2.1258     1.0941   463.9731 </r>
       <r>     2.2226     0.2368   463.9960 </r>
       <r>     2.3195     0.0370   463.9996 </r>
       <r>     2.4164     0.0040   464.0000 </r>
       <r>     2.5132     0.0003   464.0000 </r>
       <r>     2.6101     0.0000   464.0000 </r>
       <r>     2.7069     0.0000   464.0000 </r>
       <r>     2.8038     0.0000   464.0000 </r>
       <r>     2.9007     0.0000   464.0000 </r>
       <r>     2.9975     0.0000   464.0000 </r>
       <r>     3.0944     0.0000   464.0000 </r>
       <r>     3.1913     0.0000   464.0000 </r>
       <r>     3.2881     0.0000   464.0000 </r>
       <r>     3.3850     0.0000   464.0000 </r>
       <r>     3.4818     0.0000   464.0000 </r>
       <r>     3.5787     0.0000   464.0000 </r>
       <r>     3.6756     0.0000   464.0000 </r>
       <r>     3.7724     0.0000   464.0000 </r>
       <r>     3.8693     0.0000   464.0000 </r>
      </set>
     </set>
    </array>
   </total>
  </dos>
 </calculation>
 <structure name="finalpos" >
  <crystal>
   <varray name="basis" >
    <v>      28.05000000       0.00000000       0.00000000 </v>
    <v>       0.00000000       8.10000000       0.00000000 </v>
    <v>       0.00000000       0.00000000      33.50000000 </v>
   </varray>
   <i name="volume">   7611.36750000 </i>
   <varray name="rec_basis" >
    <v>       0.03565062       0.00000000       0.00000000 </v>
    <v>       0.00000000       0.12345679       0.00000000 </v>
    <v>       0.00000000       0.00000000       0.02985075 </v>
   </varray>
  </crystal>
  <varray name="positions" >
   <v>       0.00870556       0.10534815       0.45072239 </v>
   <v>       0.00851469       0.27517531       0.45054925 </v>
   <v>       0.05175544       0.02526235       0.45005075 </v>
   <v>       0.05009091       0.36195926       0.45497313 </v>
   <v>       0.09828520       0.10824951       0.45940299 </v>
   <v>       0.09498681       0.27757901       0.46354925 </v>
   <v>       0.13986168       0.02664951       0.47073433 </v>
   <v>       0.13912585       0.35890741       0.47434925 </v>
   <v>       0.18143244       0.10582000       0.48803284 </v>
   <v>       0.18155900       0.27650123       0.48881493 </v>
   <v>       0.21975294       0.01921481       0.50422388 </v>
   <v>       0.22290018       0.35730741       0.50361194 </v>
   <v>       0.26101818       0.09550198       0.52338507 </v>
   <v>       0.26159109       0.26753704       0.52316418 </v>
   <v>       0.30306560       0.01470975       0.53299701 </v>
   <v>       0.30344064       0.35318395       0.53536418 </v>
   <v>       0.34647344       0.09631037       0.54379701 </v>
   <v>       0.34707736       0.26424938       0.54495224 </v>
   <v>       0.39272014       0.01728407       0.54634328 </v>
   <v>       0.39170766       0.34623086       0.55088358 </v>
   <v>       0.43698039       0.09599926       0.54808955 </v>
   <v>       0.43547950       0.26692716       0.55181493 </v>
   <v>       0.48154724       0.01324333       0.54269552 </v>
   <v>       0.48351515       0.34608889       0.54634328 </v>
   <v>       0.52634581       0.09532370       0.53657910 </v>
   <v>       0.52593939       0.25743333       0.54169254 </v>
   <v>       0.56948663       0.01357259       0.52857910 </v>
   <v>       0.57117291       0.34836914       0.53760299 </v>
   <v>       0.61268449       0.10053827       0.52379701 </v>
   <v>       0.61257398       0.26846420       0.52549851 </v>
   <v>       0.65685918       0.02586296       0.51920896 </v>
   <v>       0.65754011       0.34944074       0.52242687 </v>
   <v>       0.69796078       0.10873679       0.50234925 </v>
   <v>       0.69966845       0.27511235       0.50751343 </v>
   <v>       0.74002852       0.02080420       0.48915821 </v>
   <v>       0.74270588       0.36052469       0.49762090 </v>
   <v>       0.78306239       0.10844506       0.48118806 </v>
   <v>       0.78403922       0.27999753       0.48315821 </v>
   <v>       0.82514082       0.02312407       0.46821791 </v>
   <v>       0.82778253       0.36352593       0.47298209 </v>
   <v>       0.86689483       0.10959654       0.45900896 </v>
   <v>       0.86949376       0.27931358       0.46375522 </v>
   <v>       0.91265597       0.03019259       0.45014030 </v>
   <v>       0.91464528       0.35991975       0.45760299 </v>
   <v>       0.95729412       0.10336025       0.44747463 </v>
   <v>       0.95534403       0.27768395       0.44766567 </v>
   <v>       0.00970410       0.61942716       0.44842687 </v>
   <v>       0.01117194       0.78348395       0.44417015 </v>
   <v>       0.05074831       0.52865926       0.45602985 </v>
   <v>       0.05462602       0.85984691       0.45191642 </v>
   <v>       0.09546916       0.60573210       0.45960597 </v>
   <v>       0.09750267       0.77209630       0.45720896 </v>
   <v>       0.13785668       0.52703580       0.47522090 </v>
   <v>       0.14010660       0.85800864       0.47205373 </v>
   <v>       0.17835651       0.60711358       0.49125970 </v>
   <v>       0.18112335       0.77110741       0.48593134 </v>
   <v>       0.22213155       0.52277778       0.50344179 </v>
   <v>       0.22295223       0.85300494       0.49967761 </v>
   <v>       0.26400357       0.60224321       0.51397015 </v>
   <v>       0.26480357       0.76889136       0.50940299 </v>
   <v>       0.30414403       0.52165679       0.53036119 </v>
   <v>       0.30585954       0.85482963       0.52436119 </v>
   <v>       0.34919144       0.60353704       0.53939701 </v>
   <v>       0.34956435       0.76949259       0.53390746 </v>
   <v>       0.39170410       0.51480247       0.54631343 </v>
   <v>       0.39188948       0.85283951       0.54291343 </v>
   <v>       0.43650980       0.59753086       0.54637313 </v>
   <v>       0.43556150       0.76484198       0.54466567 </v>
   <v>       0.48207843       0.51434568       0.54661791 </v>
   <v>       0.48131194       0.84131358       0.54007463 </v>
   <v>       0.52806417       0.59326790       0.54411045 </v>
   <v>       0.52526916       0.75938642       0.54237313 </v>
   <v>       0.57229947       0.51352099       0.54117313 </v>
   <v>       0.57048485       0.84953704       0.53468657 </v>
   <v>       0.61862389       0.60434321       0.53515224 </v>
   <v>       0.61645989       0.77154815       0.53516716 </v>
   <v>       0.66108021       0.51941975       0.52555522 </v>
   <v>       0.65874510       0.85359383       0.52237910 </v>
   <v>       0.70498396       0.60448025       0.51503582 </v>
   <v>       0.70285205       0.77144074       0.50952836 </v>
   <v>       0.74584670       0.52604815       0.50235522 </v>
   <v>       0.74291622       0.85268025       0.49363284 </v>
   <v>       0.78606417       0.61093827       0.48421791 </v>
   <v>       0.78472727       0.78126914       0.48198507 </v>
   <v>       0.82884848       0.52990000       0.47393134 </v>
   <v>       0.82590731       0.85910370       0.46748657 </v>
   <v>       0.87189305       0.61651235       0.46466567 </v>
   <v>       0.86929412       0.77526790       0.45536119 </v>
   <v>       0.91560428       0.53288025       0.45580597 </v>
   <v>       0.91362567       0.86202099       0.44878806 </v>
   <v>       0.95772549       0.60663951       0.44685970 </v>
   <v>       0.95708378       0.77798642       0.44437910 </v>
  </varray>
 </structure>
</modeling>
