unknown system                          
            1
    28.050000    0.000000    0.000000
     0.000000    8.100000    0.000000
     0.000000    0.000000   33.500000
   C 
    92
Direct configuration=     1
   0.00870556  0.10534815  0.45072239
   0.00851469  0.27517531  0.45054925
   0.05175544  0.02526235  0.45005075
   0.05009091  0.36195926  0.45497313
   0.09828520  0.10824951  0.45940299
   0.09498681  0.27757901  0.46354925
   0.13986168  0.02664951  0.47073433
   0.13912585  0.35890741  0.47434925
   0.18143244  0.10582000  0.48803284
   0.18155900  0.27650123  0.48881493
   0.21975294  0.01921481  0.50422388
   0.22290018  0.35730741  0.50361194
   0.26101818  0.09550198  0.52338507
   0.26159109  0.26753704  0.52316418
   0.30306560  0.01470975  0.53299701
   0.30344064  0.35318395  0.53536418
   0.34647344  0.09631037  0.54379701
   0.34707736  0.26424938  0.54495224
   0.39272014  0.01728407  0.54634328
   0.39170766  0.34623086  0.55088358
   0.43698039  0.09599926  0.54808955
   0.43547950  0.26692716  0.55181493
   0.48154724  0.01324333  0.54269552
   0.48351515  0.34608889  0.54634328
   0.52634581  0.09532370  0.53657910
   0.52593939  0.25743333  0.54169254
   0.56948663  0.01357259  0.52857910
   0.57117291  0.34836914  0.53760299
   0.61268449  0.10053827  0.52379701
   0.61257398  0.26846420  0.52549851
   0.65685918  0.02586296  0.51920896
   0.65754011  0.34944074  0.52242687
   0.69796078  0.10873679  0.50234925
   0.69966845  0.27511235  0.50751343
   0.74002852  0.02080420  0.48915821
   0.74270588  0.36052469  0.49762090
   0.78306239  0.10844506  0.48118806
   0.78403922  0.27999753  0.48315821
   0.82514082  0.02312407  0.46821791
   0.82778253  0.36352593  0.47298209
   0.86689483  0.10959654  0.45900896
   0.86949376  0.27931358  0.46375522
   0.91265597  0.03019259  0.45014030
   0.91464528  0.35991975  0.45760299
   0.95729412  0.10336025  0.44747463
   0.95534403  0.27768395  0.44766567
   0.00970410  0.61942716  0.44842687
   0.01117194  0.78348395  0.44417015
   0.05074831  0.52865926  0.45602985
   0.05462602  0.85984691  0.45191642
   0.09546916  0.60573210  0.45960597
   0.09750267  0.77209630  0.45720896
   0.13785668  0.52703580  0.47522090
   0.14010660  0.85800864  0.47205373
   0.17835651  0.60711358  0.49125970
   0.18112335  0.77110741  0.48593134
   0.22213155  0.52277778  0.50344179
   0.22295223  0.85300494  0.49967761
   0.26400357  0.60224321  0.51397015
   0.26480357  0.76889136  0.50940299
   0.30414403  0.52165679  0.53036119
   0.30585954  0.85482963  0.52436119
   0.34919144  0.60353704  0.53939701
   0.34956435  0.76949259  0.53390746
   0.39170410  0.51480247  0.54631343
   0.39188948  0.85283951  0.54291343
   0.43650980  0.59753086  0.54637313
   0.43556150  0.76484198  0.54466567
   0.48207843  0.51434568  0.54661791
   0.48131194  0.84131358  0.54007463
   0.52806417  0.59326790  0.54411045
   0.52526916  0.75938642  0.54237313
   0.57229947  0.51352099  0.54117313
   0.57048485  0.84953704  0.53468657
   0.61862389  0.60434321  0.53515224
   0.61645989  0.77154815  0.53516716
   0.66108021  0.51941975  0.52555522
   0.65874510  0.85359383  0.52237910
   0.70498396  0.60448025  0.51503582
   0.70285205  0.77144074  0.50952836
   0.74584670  0.52604815  0.50235522
   0.74291622  0.85268025  0.49363284
   0.78606417  0.61093827  0.48421791
   0.78472727  0.78126914  0.48198507
   0.82884848  0.52990000  0.47393134
   0.82590731  0.85910370  0.46748657
   0.87189305  0.61651235  0.46466567
   0.86929412  0.77526790  0.45536119
   0.91560428  0.53288025  0.45580597
   0.91362567  0.86202099  0.44878806
   0.95772549  0.60663951  0.44685970
   0.95708378  0.77798642  0.44437910
