  92  92   0   0
  0.8273226E+02  0.2805000E-08  0.8100000E-09  0.3350000E-08  0.5000000E-15
   1.0000000000000000E-004
  CAR 
 unknown system                          
      3.90470295    -25.19789075  301     -3.17158845      1.00000000
    -25.198  0.0000E+00  0.0000E+00
    -25.101  0.0000E+00  0.0000E+00
    -25.004  0.0000E+00  0.0000E+00
    -24.907  0.0000E+00  0.0000E+00
    -24.810  0.0000E+00  0.0000E+00
    -24.713  0.0000E+00  0.0000E+00
    -24.616  0.0000E+00  0.0000E+00
    -24.519  0.0000E+00  0.0000E+00
    -24.422  0.0000E+00  0.0000E+00
    -24.325  0.4006E-14  0.3886E-15
    -24.228  0.8518E-12  0.8302E-13
    -24.131  0.1100E-09  0.1075E-10
    -24.034  0.8976E-08  0.8815E-09
    -23.937  0.4649E-06  0.4598E-07
    -23.840  0.1536E-04  0.1536E-05
    -23.743  0.3256E-03  0.3312E-04
    -23.646  0.4474E-02  0.4672E-03
    -23.549  0.4037E-01  0.4383E-02
    -23.452  0.2434E+00  0.2800E-01
    -23.355  0.1004E+01  0.1254E+00
    -23.258  0.2914E+01  0.4080E+00
    -23.161  0.6161E+01  0.1006E+01
    -23.064  0.9844E+01  0.1961E+01
    -22.967  0.1236E+02  0.3160E+01
    -22.870  0.1306E+02  0.4427E+01
    -22.773  0.1338E+02  0.5725E+01
    -22.676  0.1480E+02  0.7161E+01
    -22.579  0.1608E+02  0.8721E+01
    -22.482  0.1531E+02  0.1021E+02
    -22.385  0.1355E+02  0.1152E+02
    -22.288  0.1318E+02  0.1280E+02
    -22.191  0.1420E+02  0.1418E+02
    -22.094  0.1488E+02  0.1562E+02
    -21.997  0.1462E+02  0.1704E+02
    -21.900  0.1400E+02  0.1840E+02
    -21.803  0.1338E+02  0.1970E+02
    -21.706  0.1295E+02  0.2095E+02
    -21.609  0.1272E+02  0.2219E+02
    -21.512  0.1230E+02  0.2338E+02
    -21.415  0.1181E+02  0.2452E+02
    -21.318  0.1201E+02  0.2569E+02
    -21.221  0.1347E+02  0.2700E+02
    -21.124  0.1550E+02  0.2850E+02
    -21.027  0.1629E+02  0.3008E+02
    -20.930  0.1487E+02  0.3152E+02
    -20.833  0.1273E+02  0.3276E+02
    -20.735  0.1206E+02  0.3393E+02
    -20.638  0.1312E+02  0.3520E+02
    -20.541  0.1420E+02  0.3658E+02
    -20.444  0.1399E+02  0.3793E+02
    -20.347  0.1309E+02  0.3920E+02
    -20.250  0.1277E+02  0.4044E+02
    -20.153  0.1338E+02  0.4174E+02
    -20.056  0.1437E+02  0.4314E+02
    -19.959  0.1498E+02  0.4459E+02
    -19.862  0.1470E+02  0.4601E+02
    -19.765  0.1393E+02  0.4737E+02
    -19.668  0.1440E+02  0.4876E+02
    -19.571  0.1646E+02  0.5036E+02
    -19.474  0.1733E+02  0.5204E+02
    -19.377  0.1521E+02  0.5352E+02
    -19.280  0.1250E+02  0.5473E+02
    -19.183  0.1202E+02  0.5589E+02
    -19.086  0.1316E+02  0.5717E+02
    -18.989  0.1380E+02  0.5851E+02
    -18.892  0.1352E+02  0.5982E+02
    -18.795  0.1364E+02  0.6115E+02
    -18.698  0.1527E+02  0.6263E+02
    -18.601  0.1742E+02  0.6432E+02
    -18.504  0.1780E+02  0.6604E+02
    -18.407  0.1656E+02  0.6765E+02
    -18.310  0.1613E+02  0.6922E+02
    -18.213  0.1703E+02  0.7087E+02
    -18.116  0.1725E+02  0.7254E+02
    -18.019  0.1553E+02  0.7405E+02
    -17.922  0.1306E+02  0.7531E+02
    -17.825  0.1195E+02  0.7647E+02
    -17.728  0.1240E+02  0.7768E+02
    -17.631  0.1287E+02  0.7892E+02
    -17.534  0.1278E+02  0.8016E+02
    -17.437  0.1243E+02  0.8137E+02
    -17.340  0.1169E+02  0.8250E+02
    -17.243  0.1092E+02  0.8356E+02
    -17.146  0.1102E+02  0.8463E+02
    -17.049  0.1171E+02  0.8577E+02
    -16.952  0.1169E+02  0.8690E+02
    -16.855  0.1089E+02  0.8796E+02
    -16.758  0.1062E+02  0.8899E+02
    -16.661  0.1154E+02  0.9011E+02
    -16.564  0.1319E+02  0.9139E+02
    -16.467  0.1458E+02  0.9280E+02
    -16.370  0.1513E+02  0.9427E+02
    -16.273  0.1531E+02  0.9576E+02
    -16.176  0.1589E+02  0.9730E+02
    -16.079  0.1662E+02  0.9891E+02
    -15.982  0.1665E+02  0.1005E+03
    -15.885  0.1583E+02  0.1021E+03
    -15.788  0.1449E+02  0.1035E+03
    -15.691  0.1309E+02  0.1047E+03
    -15.594  0.1248E+02  0.1059E+03
    -15.497  0.1317E+02  0.1072E+03
    -15.400  0.1538E+02  0.1087E+03
    -15.303  0.1859E+02  0.1105E+03
    -15.206  0.2097E+02  0.1126E+03
    -15.109  0.2139E+02  0.1146E+03
    -15.012  0.2073E+02  0.1166E+03
    -14.915  0.1960E+02  0.1185E+03
    -14.818  0.1733E+02  0.1202E+03
    -14.721  0.1406E+02  0.1216E+03
    -14.624  0.1125E+02  0.1227E+03
    -14.527  0.9905E+01  0.1236E+03
    -14.430  0.9809E+01  0.1246E+03
    -14.333  0.1020E+02  0.1256E+03
    -14.236  0.1084E+02  0.1266E+03
    -14.139  0.1232E+02  0.1278E+03
    -14.042  0.1444E+02  0.1292E+03
    -13.945  0.1602E+02  0.1308E+03
    -13.848  0.1676E+02  0.1324E+03
    -13.751  0.1706E+02  0.1341E+03
    -13.654  0.1708E+02  0.1357E+03
    -13.557  0.1706E+02  0.1374E+03
    -13.460  0.1769E+02  0.1391E+03
    -13.363  0.1910E+02  0.1409E+03
    -13.266  0.2026E+02  0.1429E+03
    -13.169  0.1953E+02  0.1448E+03
    -13.072  0.1675E+02  0.1464E+03
    -12.975  0.1429E+02  0.1478E+03
    -12.878  0.1405E+02  0.1492E+03
    -12.781  0.1471E+02  0.1506E+03
    -12.684  0.1436E+02  0.1520E+03
    -12.587  0.1331E+02  0.1533E+03
    -12.490  0.1320E+02  0.1546E+03
    -12.393  0.1473E+02  0.1560E+03
    -12.296  0.1720E+02  0.1577E+03
    -12.199  0.1996E+02  0.1596E+03
    -12.102  0.2278E+02  0.1618E+03
    -12.005  0.2451E+02  0.1642E+03
    -11.908  0.2404E+02  0.1665E+03
    -11.811  0.2206E+02  0.1687E+03
    -11.714  0.1964E+02  0.1706E+03
    -11.617  0.1702E+02  0.1722E+03
    -11.520  0.1508E+02  0.1737E+03
    -11.423  0.1533E+02  0.1752E+03
    -11.326  0.1788E+02  0.1769E+03
    -11.229  0.2130E+02  0.1790E+03
    -11.132  0.2462E+02  0.1814E+03
    -11.035  0.2815E+02  0.1841E+03
    -10.938  0.3170E+02  0.1872E+03
    -10.841  0.3377E+02  0.1904E+03
    -10.744  0.3406E+02  0.1937E+03
    -10.647  0.3449E+02  0.1971E+03
    -10.550  0.3660E+02  0.2006E+03
    -10.453  0.3893E+02  0.2044E+03
    -10.356  0.3882E+02  0.2082E+03
    -10.259  0.3647E+02  0.2117E+03
    -10.162  0.3472E+02  0.2151E+03
    -10.065  0.3476E+02  0.2185E+03
     -9.968  0.3474E+02  0.2218E+03
     -9.871  0.3340E+02  0.2251E+03
     -9.774  0.3268E+02  0.2282E+03
     -9.677  0.3446E+02  0.2316E+03
     -9.579  0.3755E+02  0.2352E+03
     -9.482  0.3994E+02  0.2391E+03
     -9.385  0.4094E+02  0.2431E+03
     -9.288  0.4004E+02  0.2470E+03
     -9.191  0.3680E+02  0.2505E+03
     -9.094  0.3272E+02  0.2537E+03
     -8.997  0.3094E+02  0.2567E+03
     -8.900  0.3237E+02  0.2598E+03
     -8.803  0.3446E+02  0.2632E+03
     -8.706  0.3524E+02  0.2666E+03
     -8.609  0.3521E+02  0.2700E+03
     -8.512  0.3441E+02  0.2734E+03
     -8.415  0.3229E+02  0.2765E+03
     -8.318  0.2987E+02  0.2794E+03
     -8.221  0.2831E+02  0.2821E+03
     -8.124  0.2766E+02  0.2848E+03
     -8.027  0.2763E+02  0.2875E+03
     -7.930  0.2786E+02  0.2902E+03
     -7.833  0.2818E+02  0.2929E+03
     -7.736  0.2842E+02  0.2957E+03
     -7.639  0.2819E+02  0.2984E+03
     -7.542  0.2792E+02  0.3011E+03
     -7.445  0.2848E+02  0.3039E+03
     -7.348  0.2903E+02  0.3067E+03
     -7.251  0.2799E+02  0.3094E+03
     -7.154  0.2582E+02  0.3119E+03
     -7.057  0.2482E+02  0.3143E+03
     -6.960  0.2600E+02  0.3169E+03
     -6.863  0.2749E+02  0.3195E+03
     -6.766  0.2733E+02  0.3222E+03
     -6.669  0.2556E+02  0.3247E+03
     -6.572  0.2304E+02  0.3269E+03
     -6.475  0.2065E+02  0.3289E+03
     -6.378  0.1956E+02  0.3308E+03
     -6.281  0.2024E+02  0.3328E+03
     -6.184  0.2181E+02  0.3349E+03
     -6.087  0.2362E+02  0.3372E+03
     -5.990  0.2524E+02  0.3396E+03
     -5.893  0.2540E+02  0.3421E+03
     -5.796  0.2362E+02  0.3444E+03
     -5.699  0.2105E+02  0.3464E+03
     -5.602  0.1840E+02  0.3482E+03
     -5.505  0.1535E+02  0.3497E+03
     -5.408  0.1213E+02  0.3509E+03
     -5.311  0.1029E+02  0.3519E+03
     -5.214  0.1083E+02  0.3529E+03
     -5.117  0.1209E+02  0.3541E+03
     -5.020  0.1172E+02  0.3552E+03
     -4.923  0.1019E+02  0.3562E+03
     -4.826  0.9752E+01  0.3572E+03
     -4.729  0.1095E+02  0.3582E+03
     -4.632  0.1280E+02  0.3595E+03
     -4.535  0.1459E+02  0.3609E+03
     -4.438  0.1520E+02  0.3623E+03
     -4.341  0.1304E+02  0.3636E+03
     -4.244  0.8652E+01  0.3645E+03
     -4.147  0.4605E+01  0.3649E+03
     -4.050  0.2531E+01  0.3651E+03
     -3.953  0.1973E+01  0.3653E+03
     -3.856  0.2067E+01  0.3655E+03
     -3.759  0.2790E+01  0.3658E+03
     -3.662  0.4087E+01  0.3662E+03
     -3.565  0.4982E+01  0.3667E+03
     -3.468  0.4543E+01  0.3671E+03
     -3.371  0.3306E+01  0.3674E+03
     -3.274  0.2645E+01  0.3677E+03
     -3.177  0.2861E+01  0.3680E+03
     -3.080  0.3241E+01  0.3683E+03
     -2.983  0.3588E+01  0.3686E+03
     -2.886  0.4218E+01  0.3691E+03
     -2.789  0.4983E+01  0.3695E+03
     -2.692  0.5620E+01  0.3701E+03
     -2.595  0.6395E+01  0.3707E+03
     -2.498  0.7514E+01  0.3714E+03
     -2.401  0.8262E+01  0.3722E+03
     -2.304  0.8006E+01  0.3730E+03
     -2.207  0.7641E+01  0.3738E+03
     -2.110  0.7906E+01  0.3745E+03
     -2.013  0.7711E+01  0.3753E+03
     -1.916  0.6471E+01  0.3759E+03
     -1.819  0.5885E+01  0.3765E+03
     -1.722  0.7955E+01  0.3772E+03
     -1.625  0.1276E+02  0.3785E+03
     -1.528  0.1816E+02  0.3802E+03
     -1.431  0.2163E+02  0.3823E+03
     -1.334  0.2243E+02  0.3845E+03
     -1.237  0.2147E+02  0.3866E+03
     -1.140  0.2012E+02  0.3885E+03
     -1.043  0.1895E+02  0.3904E+03
     -0.946  0.1737E+02  0.3921E+03
     -0.849  0.1533E+02  0.3936E+03
     -0.752  0.1371E+02  0.3949E+03
     -0.655  0.1281E+02  0.3961E+03
     -0.558  0.1228E+02  0.3973E+03
     -0.461  0.1181E+02  0.3985E+03
     -0.364  0.1153E+02  0.3996E+03
     -0.267  0.1228E+02  0.4008E+03
     -0.170  0.1438E+02  0.4022E+03
     -0.073  0.1687E+02  0.4038E+03
      0.024  0.1882E+02  0.4056E+03
      0.121  0.2023E+02  0.4076E+03
      0.218  0.2125E+02  0.4097E+03
      0.315  0.2150E+02  0.4117E+03
      0.412  0.2053E+02  0.4137E+03
      0.509  0.1928E+02  0.4156E+03
      0.606  0.2021E+02  0.4176E+03
      0.703  0.2418E+02  0.4199E+03
      0.800  0.2889E+02  0.4227E+03
      0.897  0.3188E+02  0.4258E+03
      0.994  0.3377E+02  0.4291E+03
      1.091  0.3688E+02  0.4327E+03
      1.188  0.4208E+02  0.4367E+03
      1.285  0.4781E+02  0.4414E+03
      1.382  0.5091E+02  0.4463E+03
      1.479  0.4940E+02  0.4511E+03
      1.576  0.4397E+02  0.4554E+03
      1.674  0.3605E+02  0.4589E+03
      1.771  0.2616E+02  0.4614E+03
      1.868  0.1562E+02  0.4629E+03
      1.965  0.7317E+01  0.4636E+03
      2.062  0.2710E+01  0.4639E+03
      2.159  0.8116E+00  0.4640E+03
      2.256  0.1909E+00  0.4640E+03
      2.353  0.3271E-01  0.4640E+03
      2.450  0.3815E-02  0.4640E+03
      2.547  0.2910E-03  0.4640E+03
      2.644  0.1423E-04  0.4640E+03
      2.741  0.4419E-06  0.4640E+03
      2.838  0.8681E-08  0.4640E+03
      2.935  0.1076E-09  0.4640E+03
      3.032  0.8400E-12  0.4640E+03
      3.129  0.4006E-14  0.4640E+03
      3.226  0.0000E+00  0.4640E+03
      3.323  0.0000E+00  0.4640E+03
      3.420  0.0000E+00  0.4640E+03
      3.517  0.0000E+00  0.4640E+03
      3.614  0.0000E+00  0.4640E+03
      3.711  0.0000E+00  0.4640E+03
      3.808  0.0000E+00  0.4640E+03
      3.905  0.0000E+00  0.4640E+03
