       N       E                     dE             d eps       ncg     rms          rms(c)
DAV:   1     0.364089673088E+04    0.36409E+04   -0.11983E+05  1728   0.105E+03
DAV:   2     0.172212656022E+03   -0.34687E+04   -0.32126E+04  2144   0.236E+02
DAV:   3    -0.835481886890E+03   -0.10077E+04   -0.98505E+03  1800   0.134E+02
DAV:   4    -0.896819494718E+03   -0.61338E+02   -0.60260E+02  1720   0.425E+01
DAV:   5    -0.898359537223E+03   -0.15400E+01   -0.15167E+01  1752   0.655E+00    0.458E+01
DAV:   6    -0.847995266104E+03    0.50364E+02   -0.47940E+01  1576   0.127E+01    0.269E+01
DAV:   7    -0.829232664636E+03    0.18763E+02   -0.66616E+01  1552   0.146E+01    0.741E+00
DAV:   8    -0.828940039544E+03    0.29263E+00   -0.25106E+00  1616   0.343E+00    0.101E+00
DAV:   9    -0.828828269149E+03    0.11177E+00   -0.28408E-01  1648   0.104E+00    0.578E-01
DAV:  10    -0.828790872370E+03    0.37397E-01   -0.47246E-02  1752   0.443E-01    0.368E-01
DAV:  11    -0.828759608689E+03    0.31264E-01   -0.22897E-02  1576   0.252E-01    0.247E-01
DAV:  12    -0.828755042962E+03    0.45657E-02   -0.23097E-02  1536   0.228E-01    0.157E-01
DAV:  13    -0.828766667275E+03   -0.11624E-01   -0.95525E-03  1552   0.158E-01    0.869E-02
DAV:  14    -0.828782706211E+03   -0.16039E-01   -0.12493E-03  1592   0.721E-02    0.614E-02
DAV:  15    -0.828804320856E+03   -0.21615E-01   -0.19972E-03  1552   0.705E-02    0.311E-02
DAV:  16    -0.828813219225E+03   -0.88984E-02   -0.51985E-04  1632   0.396E-02    0.234E-02
DAV:  17    -0.828818311365E+03   -0.50921E-02   -0.31145E-04  1592   0.237E-02    0.122E-02
DAV:  18    -0.828820429849E+03   -0.21185E-02   -0.86604E-05  1608   0.137E-02    0.632E-03
DAV:  19    -0.828821615348E+03   -0.11855E-02   -0.43281E-05  1440   0.896E-03    0.421E-03
DAV:  20    -0.828822015281E+03   -0.39993E-03   -0.74663E-06  1368   0.386E-03    0.266E-03
DAV:  21    -0.828822277713E+03   -0.26243E-03   -0.39238E-06  1328   0.294E-03    0.109E-03
DAV:  22    -0.828822333182E+03   -0.55469E-04   -0.28766E-07  1032   0.114E-03    0.764E-04
DAV:  23    -0.828822375305E+03   -0.42123E-04   -0.34120E-07   968   0.996E-04    0.508E-04
DAV:  24    -0.828822390119E+03   -0.14814E-04   -0.10884E-07   992   0.575E-04    0.313E-04
DAV:  25    -0.828822395494E+03   -0.53758E-05   -0.42820E-08   928   0.517E-04    0.171E-04
DAV:  26    -0.828822399919E+03   -0.44246E-05   -0.39046E-08   912   0.320E-04    0.197E-04
DAV:  27    -0.828822400915E+03   -0.99585E-06   -0.87820E-09   984   0.256E-04
   1 F= -.82882240E+03 E0= -.82879144E+03  d E =-.619141E-01
