 vasp.6.5.0 16Dec24 (build Feb 19 2025 19:45:31) complex                         
 executed on              LinuxNV date 2025.10.25  16:29:02
 running    2 mpi-ranks, on    1 nodes
 distrk:  each k-point on    2 cores,    1 groups
 distr:  one band on NCORE=   1 cores,    2 groups
 Offloading initialized ...    2 GPUs detected


--------------------------------------------------------------------------------------------------------


 INCAR:
   ISTART = 0            (Not Read existing wavefunction
   ISPIN = 1            (Non-Spin polarised DFT, Default\=1)
   ICHARG = 2            (The initial guess charge density is generated by superposition of atomic charge density)
   LREAL = Auto         (Projection operators: automatic)
   ENCUT = 500          (Cut-off energy for plane wave basis set, in eV)
   LWAVE = .FALSE.       (Write WAVECAR or not)
   LCHARG = .FALSE.       (Write CHGCAR or not)
   PREC = Accurate   (Precision level)
   KGAMMA = .TRUE.
   ALGO = Normal
   NSW = 0           (Default: NSW \= 0)
   IBRION = -1           (Ions are not moved)
   ISMEAR = 0
   EDIFF = 1E-06        (SCF energy convergence
   NELM = 150          (Max electronic SCF steps)

 POTCAR:    PAW_PBE C 08Apr2002                   
 POTCAR:    PAW_PBE C 08Apr2002                   
   SHA256 =  253f7b50bb8d59471dbedb8285d89021f4a42ed1a2c5d38a03a736e69125dd95 C/POTCAR              
   COPYR  = (c) Copyright 08Apr2002 Georg Kresse                                                    
   COPYR  = This file is part of the software VASP. Any use, copying, and all other rights are regul
   COPYR  = If you do not have a valid VASP license, you may not use, copy or distribute this file. 
   VRHFIN =C: s2p2                                                                                  
   LEXCH  = PE                                                                                      
   EATOM  =   147.1560 eV,   10.8157 Ry                                                             
                                                                                                    
   TITEL  = PAW_PBE C 08Apr2002                                                                     
   LULTRA =        F    use ultrasoft PP ?                                                          
   IUNSCR =        1    unscreen: 0-lin 1-nonlin 2-no                                               
   RPACOR =    1.200    partial core radius                                                         
   POMASS =   12.011; ZVAL   =    4.000    mass and valenz                                          
   RCORE  =    1.500    outmost cutoff radius                                                       
   RWIGS  =    1.630; RWIGS  =    0.863    wigner-seitz radius (au A)                               
   ENMAX  =  400.000; ENMIN  =  300.000 eV                                                          
   ICORE  =        2    local potential                                                             
   LCOR   =        T    correct aug charges                                                         
   LPAW   =        T    paw PP                                                                      
   EAUG   =  644.873                                                                                
   DEXC   =    0.000                                                                                
   RMAX   =    1.529    core radius for proj-oper                                                   
   RAUG   =    1.300    factor for augmentation sphere                                              
   RDEP   =    1.501    radius for radial grids                                                     
   RDEPT  =    1.300    core radius for aug-charge                                                  
                                                                                                    
   Atomic configuration                                                                             
    4 entries                                                                                       
     n  l   j            E        occ.                                                              
     1  0  0.50      -273.3789   2.0000                                                             
     2  0  0.50       -13.7508   2.0000                                                             
     2  1  0.50        -5.2854   2.0000                                                             
     3  2  1.50        -5.4423   0.0000                                                             
   Description                                                                                      
     l       E           TYP  RCUT    TYP  RCUT                                                     
     0    -13.7508458     23  1.200                                                                 
     0     -8.2022199     23  1.200                                                                 
     1     -5.2854383     23  1.500                                                                 
     1     34.0145650     23  1.500                                                                 
     2     -5.4423304      7  1.500                                                                 
  local pseudopotential read in
  partial core-charges read in
  partial kinetic energy density read in
  atomic valenz-charges read in
  non local Contribution for L=            0  read in
    real space projection operators read in
  non local Contribution for L=            0  read in
    real space projection operators read in
  non local Contribution for L=            1  read in
    real space projection operators read in
  non local Contribution for L=            1  read in
    real space projection operators read in
    PAW grid and wavefunctions read in
 
   number of l-projection  operators is LMAX  =            4
   number of lm-projection operators is LMMAX =            8
 
 Optimization of the real space projectors (new method)

 maximal supplied QI-value         = 25.13
 optimisation between [QCUT,QGAM] = [ 11.31, 22.87] = [ 35.82,146.48] Ry 
 Optimized for a Real-space Cutoff    1.03 Angstroem

   l    n(q)    QCUT    max X(q) W(low)/X(q) W(high)/X(q)  e(spline) 
   0      7    11.310   115.676    0.20E-03    0.90E-03    0.20E-06
   0      7    11.310    87.132    0.20E-03    0.89E-03    0.19E-06
   1      6    11.310     4.429    0.16E-03    0.28E-03    0.12E-06
   1      6    11.310     2.733    0.12E-03    0.21E-03    0.99E-07
  PAW_PBE C 08Apr2002                   :
 energy of atom  1       EATOM= -147.1560
 kinetic energy error for atom=    0.0076 (will be added to EATOM!!)
 
 
 POSCAR:  C
  positions in cartesian coordinates
  No initial velocities read in


 exchange-correlation table for PE
   RHO(1)=    0.500       N(1)  =     2000
   RHO(2)=  100.500       N(2)  =     4000
 


--------------------------------------------------------------------------------------------------------


 ion  position               nearest neighbor table
   1  0.001  0.108  0.464-   2 1.37   3 1.40  45 1.52  46 1.97
   2  0.004  0.277  0.461-   1 1.37   4 1.39  46 1.52
   3  0.045  0.027  0.463-  50 1.39   1 1.40   5 1.49
   4  0.048  0.357  0.461-  49 1.35   2 1.39   6 1.44
   5  0.092  0.104  0.455-   6 1.38   7 1.41   3 1.49
   6  0.093  0.274  0.455-   5 1.38   8 1.41   4 1.44
   7  0.137  0.024  0.454-  54 1.38   9 1.41   5 1.41
   8  0.137  0.360  0.452-  53 1.36   6 1.41  10 1.46
   9  0.181  0.105  0.451-  10 1.37  11 1.39   7 1.41
  10  0.182  0.274  0.448-  12 1.36   9 1.37   8 1.46
  11  0.223  0.018  0.461-  58 1.33   9 1.39  13 1.45
  12  0.224  0.354  0.455-  57 1.33  10 1.36  14 1.46
  13  0.269  0.097  0.466-  14 1.34  15 1.41  11 1.45
  14  0.268  0.260  0.460-  13 1.34  16 1.45  12 1.46
  15  0.313  0.018  0.468-  62 1.39  13 1.41  17 1.41
  16  0.311  0.346  0.474-  61 1.40  18 1.42  14 1.45
  17  0.357  0.097  0.479-  18 1.38  15 1.41  19 1.43
  18  0.354  0.266  0.484-  17 1.38  16 1.42  20 1.42
  19  0.399  0.015  0.490-  66 1.41  21 1.41  17 1.43
  20  0.394  0.346  0.501-  65 1.38  22 1.42  18 1.42
  21  0.442  0.100  0.501-  23 1.40  22 1.41  19 1.41
  22  0.439  0.271  0.509-  24 1.40  21 1.41  20 1.42
  23  0.481  0.021  0.519-  21 1.40  70 1.41  25 1.42
  24  0.480  0.350  0.524-  69 1.34  22 1.40  26 1.43
  25  0.524  0.102  0.526-  26 1.33  27 1.37  23 1.42
  26  0.525  0.266  0.527-  25 1.33  24 1.43  28 1.44
  27  0.568  0.026  0.532-  74 1.37  25 1.37  29 1.42
  28  0.567  0.358  0.536-  73 1.33  30 1.43  26 1.44
  29  0.612  0.107  0.538-  30 1.35  27 1.42  31 1.46
  30  0.611  0.273  0.542-  29 1.35  32 1.43  28 1.43
  31  0.657  0.021  0.539-  78 1.39  33 1.41  29 1.46
  32  0.655  0.361  0.545-  77 1.34  30 1.43  34 1.45
  33  0.701  0.109  0.540-  34 1.38  31 1.41  35 1.43
  34  0.701  0.279  0.539-  33 1.38  36 1.43  32 1.45
  35  0.746  0.027  0.539-  37 1.37  82 1.40  33 1.43
  36  0.746  0.361  0.536-  81 1.35  38 1.42  34 1.43
  37  0.786  0.108  0.528-  35 1.37  38 1.40  39 1.47
  38  0.789  0.281  0.526-  37 1.40  40 1.41  36 1.42
  39  0.832  0.022  0.520-  86 1.32  41 1.41  37 1.47
  40  0.828  0.363  0.508-  85 1.37  38 1.41  42 1.42
  41  0.871  0.110  0.505-  42 1.38  43 1.39  39 1.41
  42  0.870  0.277  0.497-  41 1.38  44 1.42  40 1.42
  43  0.913  0.026  0.497-  90 1.35  45 1.37  41 1.39
  44  0.913  0.361  0.490-  89 1.36  46 1.39  42 1.42
  45  0.951  0.110  0.480-  46 1.37  43 1.37   1 1.52
  46  0.953  0.278  0.475-  45 1.37  44 1.39   2 1.52   1 1.97
  47  0.006  0.601  0.475-  49 1.39  48 1.40  91 1.46  92 2.04
  48  0.007  0.773  0.477-  50 1.38  47 1.40  92 1.46  91 2.00
  49  0.050  0.520  0.470-   4 1.35  51 1.38  47 1.39
  50  0.047  0.855  0.464-  48 1.38   3 1.39  52 1.43
  51  0.092  0.606  0.464-  52 1.35  49 1.38  53 1.47
  52  0.092  0.773  0.460-  51 1.35  54 1.39  50 1.43
  53  0.138  0.524  0.461-   8 1.36  55 1.37  51 1.47
  54  0.136  0.853  0.456-   7 1.38  52 1.39  56 1.41
  55  0.181  0.607  0.460-  56 1.35  53 1.37  57 1.42
  56  0.180  0.773  0.463-  55 1.35  58 1.35  54 1.41
  57  0.224  0.516  0.461-  12 1.33  59 1.39  55 1.42
  58  0.221  0.857  0.468-  11 1.33  56 1.35  60 1.49
  59  0.266  0.599  0.470-  60 1.36  57 1.39  61 1.41
  60  0.267  0.766  0.472-  59 1.36  62 1.41  58 1.49
  61  0.309  0.517  0.479-  16 1.40  59 1.41  63 1.43
  62  0.310  0.849  0.474-  64 1.38  15 1.39  60 1.41
  63  0.351  0.594  0.495-  65 1.37  64 1.41  61 1.43
  64  0.350  0.767  0.488-  62 1.38  63 1.41  66 1.47
  65  0.391  0.514  0.507-  63 1.37  20 1.38  67 1.41
  66  0.396  0.845  0.498-  19 1.41  68 1.41  64 1.47
  67  0.433  0.597  0.520-  68 1.36  65 1.41  69 1.46
  68  0.435  0.763  0.516-  67 1.36  66 1.41  70 1.42
  69  0.478  0.513  0.529-  24 1.34  71 1.45  67 1.46
  70  0.479  0.849  0.524-  23 1.41  68 1.42  72 1.45
  71  0.522  0.603  0.536-  72 1.38  73 1.42  69 1.45
  72  0.524  0.773  0.534-  71 1.38  74 1.41  70 1.45
  73  0.566  0.522  0.540-  28 1.33  71 1.42  75 1.42
  74  0.568  0.857  0.536-  27 1.37  72 1.41  76 1.44
  75  0.611  0.604  0.546-  76 1.38  77 1.40  73 1.42
  76  0.613  0.770  0.538-  75 1.38  78 1.41  74 1.44
  77  0.655  0.526  0.548-  32 1.34  75 1.40  79 1.42
  78  0.657  0.849  0.540-  31 1.39  76 1.41  80 1.42
  79  0.700  0.606  0.546-  80 1.38  81 1.40  77 1.42
  80  0.703  0.777  0.546-  82 1.37  79 1.38  78 1.42
  81  0.743  0.528  0.537-  36 1.35  79 1.40  83 1.47
  82  0.746  0.854  0.543-  80 1.37  35 1.40  84 1.42
  83  0.788  0.612  0.529-  84 1.35  85 1.42  81 1.47
  84  0.791  0.774  0.538-  83 1.35  82 1.42  86 1.44
  85  0.829  0.530  0.513-  40 1.37  87 1.40  83 1.42
  86  0.834  0.863  0.529-  39 1.32  88 1.44  84 1.44
  87  0.872  0.614  0.509-  88 1.38  85 1.40  89 1.41
  88  0.877  0.780  0.517-  87 1.38  90 1.40  86 1.44
  89  0.914  0.526  0.497-  44 1.36  91 1.40  87 1.41
  90  0.918  0.863  0.504-  43 1.35  92 1.39  88 1.40
  91  0.958  0.603  0.490-  89 1.40  92 1.40  47 1.46  48 2.00
  92  0.959  0.775  0.494-  90 1.39  91 1.40  48 1.46  47 2.04
 
  LATTYP: Found a simple orthorhombic cell.
 ALAT       =     8.1000000000
 B/A-ratio  =     3.4629629630
 C/A-ratio  =     4.1358024691
  
  Lattice vectors:
  
 A1 = (   0.0000000000,  -8.1000000000,   0.0000000000)
 A2 = (  28.0500000000,   0.0000000000,   0.0000000000)
 A3 = (   0.0000000000,   0.0000000000,  33.5000000000)


Analysis of symmetry for initial positions (statically):
=====================================================================
 Subroutine PRICEL returns:
 Original cell was already a primitive cell.
 

 Routine SETGRP: Setting up the symmetry group for a 
 simple orthorhombic supercell.


 Subroutine GETGRP returns: Found  1 space group operations
 (whereof  1 operations were pure point group operations)
 out of a pool of  8 trial point group operations.


The static configuration has the point symmetry C_1 .


Analysis of symmetry for dynamics (positions and initial velocities):
=====================================================================
 Subroutine PRICEL returns:
 Original cell was already a primitive cell.
 

 Routine SETGRP: Setting up the symmetry group for a 
 simple orthorhombic supercell.


 Subroutine GETGRP returns: Found  1 space group operations
 (whereof  1 operations were pure point group operations)
 out of a pool of  8 trial point group operations.


The dynamic configuration has the point symmetry C_1 .


 Subroutine INISYM returns: Found  1 space group operations
 (whereof  1 operations are pure point group operations),
 and found     1 'primitive' translations


----------------------------------------------------------------------------------------

                                     Primitive cell                                     

  volume of cell :    7611.3675

  direct lattice vectors                    reciprocal lattice vectors
    28.050000000  0.000000000  0.000000000     0.035650624  0.000000000  0.000000000
     0.000000000  8.100000000  0.000000000     0.000000000  0.123456790  0.000000000
     0.000000000  0.000000000 33.500000000     0.000000000  0.000000000  0.029850746

  length of vectors
    28.050000000  8.100000000 33.500000000     0.035650624  0.123456790  0.029850746

  position of ions in fractional coordinates (direct lattice)
     0.001186945  0.108047284  0.463895522
     0.004178574  0.276833333  0.461041791
     0.045298039  0.027117901  0.462600000
     0.048039572  0.356897531  0.460976119
     0.092413547  0.104302222  0.454802985
     0.092875579  0.274082716  0.454561194
     0.137109804  0.023525556  0.454101493
     0.136633868  0.359761728  0.451949254
     0.181474510  0.105486667  0.451185075
     0.182209982  0.273903704  0.447943284
     0.222718004  0.017816173  0.460543284
     0.224047415  0.353596296  0.454907463
     0.268526560  0.096509877  0.465904478
     0.268175045  0.260322222  0.460492537
     0.313234581  0.018349630  0.468232836
     0.310573619  0.345674074  0.473761194
     0.356509804  0.096865185  0.478510448
     0.353976114  0.265956790  0.483982090
     0.399458111  0.015211728  0.490364179
     0.394427807  0.345971605  0.500832836
     0.441607843  0.099902716  0.501194030
     0.439090909  0.271118519  0.509125373
     0.480598930  0.020749383  0.518620896
     0.479953654  0.350106173  0.523504478
     0.524399287  0.101889506  0.526462687
     0.524563280  0.265891358  0.527220896
     0.567586453  0.025656420  0.531814925
     0.567165775  0.358222222  0.536146269
     0.611754011  0.106647160  0.538388060
     0.611283422  0.272909877  0.542238806
     0.657418895  0.020618395  0.538976119
     0.655194296  0.361234568  0.544507463
     0.700880570  0.108973580  0.540241791
     0.700730838  0.278767901  0.539158209
     0.745889483  0.026694691  0.539432836
     0.745511586  0.361117284  0.535886567
     0.786303030  0.108300494  0.528050746
     0.789069519  0.280679012  0.526489552
     0.831593583  0.022447654  0.520322388
     0.827550802  0.362674074  0.507707463
     0.871158645  0.109915556  0.505268657
     0.869992870  0.276797531  0.497432836
     0.913415330  0.026392716  0.497468657
     0.913308378  0.361461728  0.490143284
     0.950759358  0.109560370  0.480131343
     0.952748663  0.277913580  0.475489552
     0.006205241  0.601177778  0.474913433
     0.006900107  0.773462963  0.477268657
     0.049622816  0.520153086  0.469582090
     0.047192870  0.855443210  0.464483582
     0.091623529  0.606460494  0.463817910
     0.091994652  0.772714815  0.459823881
     0.137954011  0.523664198  0.460976119
     0.135561141  0.853196296  0.456411940
     0.180515508  0.606996296  0.460104478
     0.179525490  0.772912346  0.463077612
     0.223994296  0.516290123  0.461170149
     0.220773975  0.857043210  0.467907463
     0.266139750  0.598803704  0.470050746
     0.266629947  0.766122222  0.471617910
     0.309439929  0.516756790  0.478719403
     0.310474866  0.849250617  0.474468657
     0.350972549  0.594222222  0.494811940
     0.350356506  0.766579012  0.488080597
     0.391372549  0.513595062  0.507068657
     0.396285205  0.845040741  0.498050746
     0.432905526  0.596538272  0.520098507
     0.435426025  0.763209877  0.515602985
     0.477778966  0.513424691  0.528716418
     0.478552585  0.848672840  0.523704478
     0.521611408  0.602760494  0.536292537
     0.523871658  0.772969136  0.533668657
     0.566274510  0.521955556  0.539976119
     0.567896613  0.857454321  0.535982090
     0.610588235  0.603609877  0.545731343
     0.612538324  0.770365432  0.538211940
     0.655122995  0.526193827  0.547707463
     0.657383244  0.848577778  0.540179104
     0.700053476  0.605937037  0.546202985
     0.702941176  0.776628395  0.546101493
     0.743279857  0.527891358  0.537074627
     0.746124777  0.854359259  0.543125373
     0.788352941  0.612409877  0.528519403
     0.790816399  0.774097531  0.538002985
     0.829126560  0.530116049  0.512841791
     0.834003565  0.863404938  0.528922388
     0.872288770  0.614345679  0.508591045
     0.876830660  0.780307407  0.516853731
     0.913557932  0.526304938  0.497262687
     0.918213904  0.862601235  0.504370149
     0.957572193  0.602779012  0.490217910
     0.958787879  0.775264198  0.493662687

  ion indices of the primitive-cell ions
   primitive index   ion index
                 1           1
                 2           2
                 3           3
                 4           4
                 5           5
                 6           6
                 7           7
                 8           8
                 9           9
                10          10
                11          11
                12          12
                13          13
                14          14
                15          15
                16          16
                17          17
                18          18
                19          19
                20          20
                21          21
                22          22
                23          23
                24          24
                25          25
                26          26
                27          27
                28          28
                29          29
                30          30
                31          31
                32          32
                33          33
                34          34
                35          35
                36          36
                37          37
                38          38
                39          39
                40          40
                41          41
                42          42
                43          43
                44          44
                45          45
                46          46
                47          47
                48          48
                49          49
                50          50
                51          51
                52          52
                53          53
                54          54
                55          55
                56          56
                57          57
                58          58
                59          59
                60          60
                61          61
                62          62
                63          63
                64          64
                65          65
                66          66
                67          67
                68          68
                69          69
                70          70
                71          71
                72          72
                73          73
                74          74
                75          75
                76          76
                77          77
                78          78
                79          79
                80          80
                81          81
                82          82
                83          83
                84          84
                85          85
                86          86
                87          87
                88          88
                89          89
                90          90
                91          91
                92          92

----------------------------------------------------------------------------------------

 
 
 KPOINTS: K-Spacing Value to Generate K-Mesh: 0.03

Automatic generation of k-mesh.
 Grid dimensions read from file:
 generate k-points for:    1    4    1

 Generating k-lattice:

  Cartesian coordinates                     Fractional coordinates (reciprocal lattice)
     0.035650624  0.000000000  0.000000000     1.000000000  0.000000000  0.000000000
     0.000000000  0.030864198  0.000000000     0.000000000  0.250000000  0.000000000
     0.000000000  0.000000000  0.029850746     0.000000000  0.000000000  1.000000000

  Length of vectors
     0.035650624  0.030864198  0.029850746

  Shift w.r.t. Gamma in fractional coordinates (k-lattice)
     0.000000000  0.000000000  0.000000000

 
 Subroutine IBZKPT returns following result:
 ===========================================
 
 Found      3 irreducible k-points:
 
 Following reciprocal coordinates:
            Coordinates               Weight
  0.000000  0.000000  0.000000      1.000000
  0.000000  0.250000  0.000000      2.000000
  0.000000  0.500000  0.000000      1.000000
 
 Following cartesian coordinates:
            Coordinates               Weight
  0.000000  0.000000  0.000000      1.000000
  0.000000  0.030864  0.000000      2.000000
  0.000000  0.061728  0.000000      1.000000
 


--------------------------------------------------------------------------------------------------------




 Dimension of arrays:
   k-points           NKPTS =      3   k-points in BZ     NKDIM =      3   number of bands    NBANDS=    232
   number of dos      NEDOS =    301   number of ions     NIONS =     92
   non local maximal  LDIM  =      4   non local SUM 2l+1 LMDIM =      8
   total plane-waves  NPLWV = ******
   max r-space proj   IRMAX =   1967   max aug-charges    IRDMAX=   5083
   dimension x,y,z NGX =   210 NGY =   60 NGZ =  250
   dimension x,y,z NGXF=   420 NGYF=  120 NGZF=  500
   support grid    NGXF=   420 NGYF=  120 NGZF=  500
   ions per type =              92
   NGX,Y,Z   is equivalent  to a cutoff of  12.45, 12.31, 12.41 a.u.
   NGXF,Y,Z  is equivalent  to a cutoff of  24.89, 24.63, 24.81 a.u.

 SYSTEM =  unknown system                          
 POSCAR =   C                                      

 Startparameter for this run:
   NWRITE =      2    write-flag & timer
   PREC   = accura    normal or accurate (medium, high low for compatibility)
   ISTART =      0    job   : 0-new  1-cont  2-samecut
   ICHARG =      2    charge: 1-file 2-atom 10-const
   ISPIN  =      1    spin polarized calculation?
   LNONCOLLINEAR =      F non collinear calculations
   LSORBIT =      F    spin-orbit coupling
   INIWAV =      1    electr: 0-lowe 1-rand  2-diag
   LASPH  =      F    aspherical Exc in radial PAW
 Electronic Relaxation 1
   ENCUT  =  500.0 eV  36.75 Ry    6.06 a.u.  51.14 14.77 61.08*2*pi/ulx,y,z
   ENINI  =  500.0     initial cutoff
   ENAUG  =  644.9 eV  augmentation charge cutoff
   NELM   =    150;   NELMIN=  2; NELMDL= -5     # of ELM steps 
   EDIFF  = 0.1E-05   stopping-criterion for ELM
   LREAL  =      T    real-space projection
   NLSPLINE    = F    spline interpolate recip. space projectors
   LCOMPAT=      F    compatible to vasp.4.4
   GGA_COMPAT  = T    GGA compatible to vasp.4.4-vasp.4.6
   LMAXPAW     = -100 max onsite density
   LMAXMIX     =    2 max onsite mixed and CHGCAR
   VOSKOWN=      0    Vosko Wilk Nusair interpolation
   ROPT   =   -0.00025
 Ionic relaxation
   EDIFFG = 0.1E-04   stopping-criterion for IOM
   NSW    =      0    number of steps for IOM
   NBLOCK =      1;   KBLOCK =      1    inner block; outer block 
   IBRION =     -1    ionic relax: 0-MD 1-quasi-New 2-CG
   NFREE  =      0    steps in history (QN), initial steepest desc. (CG)
   ISIF   =      2    stress and relaxation
   IWAVPR =     10    prediction:  0-non 1-charg 2-wave 3-comb
   ISYM   =      2    0-nonsym 1-usesym 2-fastsym
   LCORR  =      T    Harris-Foulkes like correction to forces

   POTIM  = 0.5000    time-step for ionic-motion
   TEIN   =    0.0    initial temperature
   TEBEG  =    0.0;   TEEND  =   0.0 temperature during run
   SMASS  =  -3.00    Nose mass-parameter (am)
   estimated Nose-frequenzy (Omega)   =  0.10E-29 period in steps = 0.13E+47 mass=  -0.180E-25a.u.
   SCALEE = 1.0000    scale energy and forces
   NPACO  =    256;   APACO  = 10.0  distance and # of slots for P.C.
   PSTRESS=    0.0 pullay stress

  Mass of Ions in am
   POMASS =  12.01
  Ionic Valenz
   ZVAL   =   4.00
  Atomic Wigner-Seitz radii
   RWIGS  =  -1.00
  virtual crystal weights 
   VCA    =   1.00
   NELECT =     368.0000    total number of electrons
   NUPDOWN=      -1.0000    fix difference up-down

 DOS related values:
   EMIN   =  10.00;   EMAX   =-10.00  energy-range for DOS
   EFERMI =   0.00;   METHOD = LEGACY      
   ISMEAR =     0;   SIGMA  =   0.20  broadening in eV -4-tet -1-fermi 0-gaus
   EFERMI_NEDOS =   21; number of points for ismear=-14 and -15

 Electronic relaxation 2 (details)
   IALGO  =     38    algorithm
   LDIAG  =      T    sub-space diagonalisation (order eigenvalues)
   LSUBROT=      F    optimize rotation matrix (better conditioning)
   TURBO    =      0    0=normal 1=particle mesh
   IRESTART =      0    0=no restart 2=restart with 2 vectors
   NREBOOT  =      0    no. of reboots
   NMIN     =      0    reboot dimension
   EREF     =   0.00    reference energy to select bands
   IMIX   =      4    mixing-type and parameters
     AMIX     =   0.40;   BMIX     =  1.00
     AMIX_MAG =   1.60;   BMIX_MAG =  1.00
     AMIN     =   0.10
     WC   =   100.;   INIMIX=   1;  MIXPRE=   1;  MAXMIX= -45

 Intra band minimization:
   WEIMIN = 0.0000     energy-eigenvalue tresh-hold
   EBREAK =  0.11E-08  absolut break condition
   DEPER  =   0.30     relativ break condition  

   TIME   =   0.40     timestep for ELM

  volume/ion in A,a.u.               =      82.73       558.30
  Fermi-wavevector in a.u.,A,eV,Ry     =   0.596398  1.127030  4.839472  0.355691
  Thomas-Fermi vector in A             =   1.646729
 
 Write flags
   LWAVE        =      F    write WAVECAR
   LDOWNSAMPLE  =      F    k-point downsampling of WAVECAR
   LCHARG       =      F    write CHGCAR
   LVTOT        =      F    write LOCPOT, total local potential
   LVHAR        =      F    write LOCPOT, Hartree potential only
   WRT_POTENTIAL= false  ! write potential to hdf5 file
   LELF         =      F    write electronic localiz. function (ELF)
   LORBIT       =      0    0 simple, 1 ext, 2 COOP (PROOUT), +10 PAW based schemes


 Python interface
   PLUGINS active      =      F    recompile with -DPLUGINS to activate
 
 Dipole corrections
   LMONO      =      F    monopole corrections only (constant potential shift)
   LDIPOL     =      F    correct potential (dipole corrections)
   IDIPOL     =      0    1-x, 2-y, 3-z, 4-all directions 
   EPSILON    =  1.0000000 bulk dielectric constant
   LVACPOTAV  =      F  vacuum potentials using an averaging scheme for the charge density
   VACPOTFLAT =  0.1000000 required flatness to determine vacuum potential
 
Coulomb truncation method
  LTRUNCATE          =      F  Coulomb kernel truncation to be used
  IDIMENSIONALITY    =      3  Dimensionality of cutoff (0 molecules / 2 surfaces)
  ISURFACE           =     -1  Direction of surface normal
  LCOARSEN           =      F  Coarsen the charge grid before padding, preferred

 
 Exchange correlation treatment:
   GGA     = PE    functional components
   XC_C    = 1    coefficients multiplying the functional components
   LIBXC   =     F    Libxc                    
   VOSKOWN =     0    Vosko Wilk Nusair interpolation
   LHFCALC =     F    Hartree Fock is set to
   LHFONE  =     F    Hartree Fock one center treatment
   AEXX    =    0.0000 exact exchange contribution

 Parameters of functionals:
   PE:
     No parameter
 
 Van der Waals corrections
   IVDW    =     0    specifies the selected vdW correction

 Linear response parameters
   LEPSILON=     F    determine dielectric tensor
   LRPA    =     F    only Hartree local field effects (RPA)
   LNABLA  =     F    use nabla operator in PAW spheres
   LVEL    =     F    velocity operator in full k-point grid
   CSHIFT  =0.1000    complex shift for real part using Kramers Kronig
   OMEGAMAX=  -1.0    maximum frequency
   DEG_THRESHOLD= 0.2000000E-02 threshold for treating states as degnerate
   RTIME   =   -0.100 relaxation time in fs
  (WPLASMAI=    0.000 imaginary part of plasma frequency in eV, 0.658/RTIME)
   DFIELD  = 0.0000000 0.0000000 0.0000000 field for delta impulse in time
 
  Optional k-point grid parameters
   LKPOINTS_OPT  =     F    use optional k-point grid
   KPOINTS_OPT_MODE=     1    mode for optional k-point grid
 
 Orbital magnetization related:
   ORBITALMAG=     F  switch on orbital magnetization
   LCHIMAG   =     F  perturbation theory with respect to B field
   DQ        =  0.001000  dq finite difference perturbation B field
   LLRAUG    =     F  two centre corrections for induced B field
   LBONE     =     F  B-component reconstruction in AE one-centre
   LVGVCALC  =     T  calculate vGv susceptibility
   LVGVAPPL  =     F  apply vGv susceptibility instead of pGv for G=0

 Random number generation:
   RANDOM_GENERATOR = DEFAULT
   PCG_SEED         = not used


--------------------------------------------------------------------------------------------------------


 Static calculation
 charge density and potential will be updated during run
 non-spin polarized calculation
 Variant of blocked Davidson
 Davidson routine will perform the subspace rotation
 perform sub-space diagonalisation
    after iterative eigenvector-optimisation
 modified Broyden-mixing scheme, WC =      100.0
 initial mixing is a Kerker type mixing with AMIX =  0.4000 and BMIX =      1.0000
 Hartree-type preconditioning will be used
 using additional bands            48
 real space projection scheme for non local part
 use partial core corrections
 calculate Harris-corrections to forces 
   (improved forces if not selfconsistent)
 use gradient corrections 
 use of overlap-Matrix (Vanderbilt PP)
 Gauss-broadening in eV      SIGMA  =   0.20


--------------------------------------------------------------------------------------------------------


  energy-cutoff  :      500.00
  volume of cell :     7611.37
      direct lattice vectors                 reciprocal lattice vectors
    28.050000000  0.000000000  0.000000000     0.035650624  0.000000000  0.000000000
     0.000000000  8.100000000  0.000000000     0.000000000  0.123456790  0.000000000
     0.000000000  0.000000000 33.500000000     0.000000000  0.000000000  0.029850746

  length of vectors
    28.050000000  8.100000000 33.500000000     0.035650624  0.123456790  0.029850746


 
 k-points in units of 2pi/SCALE and weight: K-Spacing Value to Generate K-Mesh: 0.03
   0.00000000  0.00000000  0.00000000       0.250
   0.00000000  0.03086420  0.00000000       0.500
   0.00000000  0.06172840  0.00000000       0.250
 
 k-points in reciprocal lattice and weights: K-Spacing Value to Generate K-Mesh: 0.03
   0.00000000  0.00000000  0.00000000       0.250
   0.00000000  0.25000000  0.00000000       0.500
   0.00000000  0.50000000  0.00000000       0.250
 
 position of ions in fractional coordinates (direct lattice) 
   0.00118694  0.10804728  0.46389552
   0.00417857  0.27683333  0.46104179
   0.04529804  0.02711790  0.46260000
   0.04803957  0.35689753  0.46097612
   0.09241355  0.10430222  0.45480299
   0.09287558  0.27408272  0.45456119
   0.13710980  0.02352556  0.45410149
   0.13663387  0.35976173  0.45194925
   0.18147451  0.10548667  0.45118507
   0.18220998  0.27390370  0.44794328
   0.22271800  0.01781617  0.46054328
   0.22404742  0.35359630  0.45490746
   0.26852656  0.09650988  0.46590448
   0.26817504  0.26032222  0.46049254
   0.31323458  0.01834963  0.46823284
   0.31057362  0.34567407  0.47376119
   0.35650980  0.09686519  0.47851045
   0.35397611  0.26595679  0.48398209
   0.39945811  0.01521173  0.49036418
   0.39442781  0.34597160  0.50083284
   0.44160784  0.09990272  0.50119403
   0.43909091  0.27111852  0.50912537
   0.48059893  0.02074938  0.51862090
   0.47995365  0.35010617  0.52350448
   0.52439929  0.10188951  0.52646269
   0.52456328  0.26589136  0.52722090
   0.56758645  0.02565642  0.53181493
   0.56716578  0.35822222  0.53614627
   0.61175401  0.10664716  0.53838806
   0.61128342  0.27290988  0.54223881
   0.65741889  0.02061840  0.53897612
   0.65519430  0.36123457  0.54450746
   0.70088057  0.10897358  0.54024179
   0.70073084  0.27876790  0.53915821
   0.74588948  0.02669469  0.53943284
   0.74551159  0.36111728  0.53588657
   0.78630303  0.10830049  0.52805075
   0.78906952  0.28067901  0.52648955
   0.83159358  0.02244765  0.52032239
   0.82755080  0.36267407  0.50770746
   0.87115865  0.10991556  0.50526866
   0.86999287  0.27679753  0.49743284
   0.91341533  0.02639272  0.49746866
   0.91330838  0.36146173  0.49014328
   0.95075936  0.10956037  0.48013134
   0.95274866  0.27791358  0.47548955
   0.00620524  0.60117778  0.47491343
   0.00690011  0.77346296  0.47726866
   0.04962282  0.52015309  0.46958209
   0.04719287  0.85544321  0.46448358
   0.09162353  0.60646049  0.46381791
   0.09199465  0.77271481  0.45982388
   0.13795401  0.52366420  0.46097612
   0.13556114  0.85319630  0.45641194
   0.18051551  0.60699630  0.46010448
   0.17952549  0.77291235  0.46307761
   0.22399430  0.51629012  0.46117015
   0.22077398  0.85704321  0.46790746
   0.26613975  0.59880370  0.47005075
   0.26662995  0.76612222  0.47161791
   0.30943993  0.51675679  0.47871940
   0.31047487  0.84925062  0.47446866
   0.35097255  0.59422222  0.49481194
   0.35035651  0.76657901  0.48808060
   0.39137255  0.51359506  0.50706866
   0.39628520  0.84504074  0.49805075
   0.43290553  0.59653827  0.52009851
   0.43542602  0.76320988  0.51560299
   0.47777897  0.51342469  0.52871642
   0.47855258  0.84867284  0.52370448
   0.52161141  0.60276049  0.53629254
   0.52387166  0.77296914  0.53366866
   0.56627451  0.52195556  0.53997612
   0.56789661  0.85745432  0.53598209
   0.61058824  0.60360988  0.54573134
   0.61253832  0.77036543  0.53821194
   0.65512299  0.52619383  0.54770746
   0.65738324  0.84857778  0.54017910
   0.70005348  0.60593704  0.54620299
   0.70294118  0.77662840  0.54610149
   0.74327986  0.52789136  0.53707463
   0.74612478  0.85435926  0.54312537
   0.78835294  0.61240988  0.52851940
   0.79081640  0.77409753  0.53800299
   0.82912656  0.53011605  0.51284179
   0.83400357  0.86340494  0.52892239
   0.87228877  0.61434568  0.50859104
   0.87683066  0.78030741  0.51685373
   0.91355793  0.52630494  0.49726269
   0.91821390  0.86260123  0.50437015
   0.95757219  0.60277901  0.49021791
   0.95878788  0.77526420  0.49366269
 
 position of ions in cartesian coordinates  (Angst):
   0.03329380  0.87518300 15.54050000
   0.11720900  2.24235000 15.44490000
   1.27061000  0.21965500 15.49710000
   1.34751000  2.89087000 15.44270000
   2.59220000  0.84484800 15.23590000
   2.60516000  2.22007000 15.22780000
   3.84593000  0.19055700 15.21240000
   3.83258000  2.91407000 15.14030000
   5.09036000  0.85444200 15.11470000
   5.11099000  2.21862000 15.00610000
   6.24724000  0.14431100 15.42820000
   6.28453000  2.86413000 15.23940000
   7.53217000  0.78173000 15.60780000
   7.52231000  2.10861000 15.42650000
   8.78623000  0.14863200 15.68580000
   8.71159000  2.79996000 15.87100000
  10.00010000  0.78460800 16.03010000
   9.92903000  2.15425000 16.21340000
  11.20480000  0.12321500 16.42720000
  11.06370000  2.80237000 16.77790000
  12.38710000  0.80921200 16.79000000
  12.31650000  2.19606000 17.05570000
  13.48080000  0.16807000 17.37380000
  13.46270000  2.83586000 17.53740000
  14.70940000  0.82530500 17.63650000
  14.71400000  2.15372000 17.66190000
  15.92080000  0.20781700 17.81580000
  15.90900000  2.90160000 17.96090000
  17.15970000  0.86384200 18.03600000
  17.14650000  2.21057000 18.16500000
  18.44060000  0.16700900 18.05570000
  18.37820000  2.92600000 18.24100000
  19.65970000  0.88268600 18.09810000
  19.65550000  2.25802000 18.06180000
  20.92220000  0.21622700 18.07100000
  20.91160000  2.92505000 17.95220000
  22.05580000  0.87723400 17.68970000
  22.13340000  2.27350000 17.63740000
  23.32620000  0.18182600 17.43080000
  23.21280000  2.93766000 17.00820000
  24.43600000  0.89031600 16.92650000
  24.40330000  2.24206000 16.66400000
  25.62130000  0.21378100 16.66520000
  25.61830000  2.92784000 16.41980000
  26.66880000  0.88743900 16.08440000
  26.72460000  2.25110000 15.92890000
   0.17405700  4.86954000 15.90960000
   0.19354800  6.26505000 15.98850000
   1.39192000  4.21324000 15.73100000
   1.32376000  6.92909000 15.56020000
   2.57004000  4.91233000 15.53790000
   2.58045000  6.25899000 15.40410000
   3.86961000  4.24168000 15.44270000
   3.80249000  6.91089000 15.28980000
   5.06346000  4.91667000 15.41350000
   5.03569000  6.26059000 15.51310000
   6.28304000  4.18195000 15.44920000
   6.19271000  6.94205000 15.67490000
   7.46522000  4.85031000 15.74670000
   7.47897000  6.20559000 15.79920000
   8.67979000  4.18573000 16.03710000
   8.70882000  6.87893000 15.89470000
   9.84478000  4.81320000 16.57620000
   9.82750000  6.20929000 16.35070000
  10.97800000  4.16012000 16.98680000
  11.11580000  6.84483000 16.68470000
  12.14300000  4.83196000 17.42330000
  12.21370000  6.18200000 17.27270000
  13.40170000  4.15874000 17.71200000
  13.42340000  6.87425000 17.54410000
  14.63120000  4.88236000 17.96580000
  14.69460000  6.26105000 17.87790000
  15.88400000  4.22784000 18.08920000
  15.92950000  6.94538000 17.95540000
  17.12700000  4.88924000 18.28200000
  17.18170000  6.23996000 18.03010000
  18.37620000  4.26217000 18.34820000
  18.43960000  6.87348000 18.09600000
  19.63650000  4.90809000 18.29780000
  19.71750000  6.29069000 18.29440000
  20.84900000  4.27592000 17.99200000
  20.92880000  6.92031000 18.19470000
  22.11330000  4.96052000 17.70540000
  22.18240000  6.27019000 18.02310000
  23.25700000  4.29394000 17.18020000
  23.39380000  6.99358000 17.71890000
  24.46770000  4.97620000 17.03780000
  24.59510000  6.32049000 17.31460000
  25.62530000  4.26307000 16.65830000
  25.75590000  6.98707000 16.89640000
  26.85990000  4.88251000 16.42230000
  26.89400000  6.27964000 16.53770000
 


--------------------------------------------------------------------------------------------------------


 k-point     1 :   0.0000 0.0000 0.0000  plane waves:  193173
 k-point     2 :   0.0000 0.2500 0.0000  plane waves:  193166
 k-point     3 :   0.0000 0.5000 0.0000  plane waves:  193226

 maximum and minimum number of plane-waves per node :    193226   193166

 maximum number of plane-waves:    193226
 maximum index in each direction: 
   IXMAX=   51   IYMAX=   14   IZMAX=   61
   IXMIN=  -51   IYMIN=  -15   IZMIN=  -61


 serial   3D FFT for wavefunctions
 parallel 3D FFT for charge:
    minimum data exchange during FFTs selected (reduces bandwidth)


 total amount of memory used by VASP MPI-rank0  2294514. kBytes
=======================================================================

   base                                    :      30000. kBytes
   nonlr-proj                              :      15080. kBytes
   fftplans                                :     436558. kBytes
   grid                                    :     732614. kBytes
   one-center                              :        282. kBytes
   wavefun                                 :    1079980. kBytes
 
     INWAV:  cpu time      0.0000: real time      0.0000
 Broyden mixing: mesh for mixing (old mesh)
   NGX =103   NGY = 29   NGZ =123
  (NGX  =420   NGY  =120   NGZ  =500)
  gives a total of 367401 points

 initial charge density was supplied:
 charge density of overlapping atoms calculated
 number of electron     368.0000000 magnetization 
 keeping initial charge density in first step


--------------------------------------------------------------------------------------------------------


 Maximum index for non-local projection operator          1872
 Maximum index for augmentation-charges          2393 (set IRDMAX)


--------------------------------------------------------------------------------------------------------


 First call to EWALD:  gamma=   0.090
 Maximum number of real-space cells   2x   6x   2
 Maximum number of reciprocal cells   4x   1x   4

    FEWALD:  cpu time      0.1608: real time      0.1609


--------------------------------------- Ionic step        1  -------------------------------------------




--------------------------------------- Iteration      1(   1)  ---------------------------------------


    POTLOK:  cpu time      0.4230: real time      0.4521
    SETDIJ:  cpu time      0.0410: real time      0.0410
     EDDAV:  cpu time     11.1333: real time     11.1371
       DOS:  cpu time      0.0008: real time      0.0008
    --------------------------------------------
      LOOP:  cpu time     11.5981: real time     11.6311

 eigenvalue-minimisations  :  1728
 total energy-change (2. order) : 0.3640897E+04  (-0.1198345E+05)
 number of electron     368.0000000 magnetization 
 augmentation part      368.0000000 magnetization 

 Free energy of the ion-electron system (eV)
  ---------------------------------------------------
  alpha Z        PSCENC =        91.34886789
  Ewald energy   TEWEN  =    120137.82168890
  -Hartree energ DENC   =   -129447.46851941
  -exchange      EXHF   =         0.00000000
  -V(xc)+E(xc)   XCENC  =      1222.42875363
  PAW double counting   =      9984.02826696   -10036.41360137
  entropy T*S    EENTRO =        -0.87267550
  eigenvalues    EBANDS =     -1847.63084413
  atomic energy  EATOM  =     13537.65479391
  Solvation  Ediel_sol  =         0.00000000
  ---------------------------------------------------
  free energy    TOTEN  =      3640.89673088 eV

  energy without entropy =     3641.76940638  energy(sigma->0) =     3641.33306863


--------------------------------------------------------------------------------------------------------




--------------------------------------- Iteration      1(   2)  ---------------------------------------


     EDDAV:  cpu time     13.1427: real time     13.1477
       DOS:  cpu time      0.0007: real time      0.0007
    --------------------------------------------
      LOOP:  cpu time     13.1434: real time     13.1484

 eigenvalue-minimisations  :  2144
 total energy-change (2. order) :-0.3468684E+04  (-0.3212643E+04)
 number of electron     368.0000000 magnetization 
 augmentation part      368.0000000 magnetization 

 Free energy of the ion-electron system (eV)
  ---------------------------------------------------
  alpha Z        PSCENC =        91.34886789
  Ewald energy   TEWEN  =    120137.82168890
  -Hartree energ DENC   =   -129447.46851941
  -exchange      EXHF   =         0.00000000
  -V(xc)+E(xc)   XCENC  =      1222.42875363
  PAW double counting   =      9984.02826696   -10036.41360137
  entropy T*S    EENTRO =        -0.25023476
  eigenvalues    EBANDS =     -5316.93735973
  atomic energy  EATOM  =     13537.65479391
  Solvation  Ediel_sol  =         0.00000000
  ---------------------------------------------------
  free energy    TOTEN  =       172.21265602 eV

  energy without entropy =      172.46289078  energy(sigma->0) =      172.33777340


--------------------------------------------------------------------------------------------------------




--------------------------------------- Iteration      1(   3)  ---------------------------------------


     EDDAV:  cpu time     11.3350: real time     11.3396
       DOS:  cpu time      0.0007: real time      0.0007
    --------------------------------------------
      LOOP:  cpu time     11.3357: real time     11.3403

 eigenvalue-minimisations  :  1800
 total energy-change (2. order) :-0.1007695E+04  (-0.9850464E+03)
 number of electron     368.0000000 magnetization 
 augmentation part      368.0000000 magnetization 

 Free energy of the ion-electron system (eV)
  ---------------------------------------------------
  alpha Z        PSCENC =        91.34886789
  Ewald energy   TEWEN  =    120137.82168890
  -Hartree energ DENC   =   -129447.46851941
  -exchange      EXHF   =         0.00000000
  -V(xc)+E(xc)   XCENC  =      1222.42875363
  PAW double counting   =      9984.02826696   -10036.41360137
  entropy T*S    EENTRO =        -0.05194249
  eigenvalues    EBANDS =     -6324.83019492
  atomic energy  EATOM  =     13537.65479391
  Solvation  Ediel_sol  =         0.00000000
  ---------------------------------------------------
  free energy    TOTEN  =      -835.48188689 eV

  energy without entropy =     -835.42994440  energy(sigma->0) =     -835.45591565


--------------------------------------------------------------------------------------------------------




--------------------------------------- Iteration      1(   4)  ---------------------------------------


     EDDAV:  cpu time     10.9170: real time     10.9229
       DOS:  cpu time      0.0007: real time      0.0007
    --------------------------------------------
      LOOP:  cpu time     10.9177: real time     10.9235

 eigenvalue-minimisations  :  1720
 total energy-change (2. order) :-0.6133761E+02  (-0.6026019E+02)
 number of electron     368.0000000 magnetization 
 augmentation part      368.0000000 magnetization 

 Free energy of the ion-electron system (eV)
  ---------------------------------------------------
  alpha Z        PSCENC =        91.34886789
  Ewald energy   TEWEN  =    120137.82168890
  -Hartree energ DENC   =   -129447.46851941
  -exchange      EXHF   =         0.00000000
  -V(xc)+E(xc)   XCENC  =      1222.42875363
  PAW double counting   =      9984.02826696   -10036.41360137
  entropy T*S    EENTRO =        -0.05763296
  eigenvalues    EBANDS =     -6386.16211227
  atomic energy  EATOM  =     13537.65479391
  Solvation  Ediel_sol  =         0.00000000
  ---------------------------------------------------
  free energy    TOTEN  =      -896.81949472 eV

  energy without entropy =     -896.76186176  energy(sigma->0) =     -896.79067824


--------------------------------------------------------------------------------------------------------




--------------------------------------- Iteration      1(   5)  ---------------------------------------


     EDDAV:  cpu time     11.0992: real time     11.1032
       DOS:  cpu time      0.0007: real time      0.0007
    CHARGE:  cpu time      1.2075: real time      1.2099
    MIXING:  cpu time      0.2733: real time      0.2751
    --------------------------------------------
      LOOP:  cpu time     12.5807: real time     12.5889

 eigenvalue-minimisations  :  1752
 total energy-change (2. order) :-0.1540043E+01  (-0.1516709E+01)
 number of electron     367.9999999 magnetization 
 augmentation part       10.1978192 magnetization 

 Broyden mixing:
  rms(total) = 0.45818E+01    rms(broyden)= 0.45813E+01
  rms(prec ) = 0.46999E+01
  weight for this iteration     100.00

 Free energy of the ion-electron system (eV)
  ---------------------------------------------------
  alpha Z        PSCENC =        91.34886789
  Ewald energy   TEWEN  =    120137.82168890
  -Hartree energ DENC   =   -129447.46851941
  -exchange      EXHF   =         0.00000000
  -V(xc)+E(xc)   XCENC  =      1222.42875363
  PAW double counting   =      9984.02826696   -10036.41360137
  entropy T*S    EENTRO =        -0.05813160
  eigenvalues    EBANDS =     -6387.70165614
  atomic energy  EATOM  =     13537.65479391
  Solvation  Ediel_sol  =         0.00000000
  ---------------------------------------------------
  free energy    TOTEN  =      -898.35953722 eV

  energy without entropy =     -898.30140562  energy(sigma->0) =     -898.33047142


--------------------------------------------------------------------------------------------------------




--------------------------------------- Iteration      1(   6)  ---------------------------------------


    POTLOK:  cpu time      0.3202: real time      0.3202
    SETDIJ:  cpu time      0.0406: real time      0.0406
     EDDAV:  cpu time     10.2313: real time     10.2352
       DOS:  cpu time      0.0007: real time      0.0007
    CHARGE:  cpu time      1.1628: real time      1.1631
    MIXING:  cpu time      0.2783: real time      0.2783
    --------------------------------------------
      LOOP:  cpu time     12.0340: real time     12.0381

 eigenvalue-minimisations  :  1576
 total energy-change (2. order) : 0.5036427E+02  (-0.4794005E+01)
 number of electron     367.9999999 magnetization 
 augmentation part        9.7711442 magnetization 

 Broyden mixing:
  rms(total) = 0.26922E+01    rms(broyden)= 0.26921E+01
  rms(prec ) = 0.27507E+01
  weight for this iteration     100.00

 eigenvalues of (default mixing * dielectric matrix)
  average eigenvalue GAMMA=   2.1837
  2.1837

 Free energy of the ion-electron system (eV)
  ---------------------------------------------------
  alpha Z        PSCENC =        91.34886789
  Ewald energy   TEWEN  =    120137.82168890
  -Hartree energ DENC   =   -130022.55935331
  -exchange      EXHF   =         0.00000000
  -V(xc)+E(xc)   XCENC  =      1245.90770550
  PAW double counting   =     19014.61500815   -19074.69502103
  entropy T*S    EENTRO =        -0.05838480
  eigenvalues    EBANDS =     -5778.03057131
  atomic energy  EATOM  =     13537.65479391
  Solvation  Ediel_sol  =         0.00000000
  ---------------------------------------------------
  free energy    TOTEN  =      -847.99526610 eV

  energy without entropy =     -847.93688130  energy(sigma->0) =     -847.96607370


--------------------------------------------------------------------------------------------------------




--------------------------------------- Iteration      1(   7)  ---------------------------------------


    POTLOK:  cpu time      0.3202: real time      0.3202
    SETDIJ:  cpu time      0.0403: real time      0.0403
     EDDAV:  cpu time     10.1153: real time     10.1190
       DOS:  cpu time      0.0007: real time      0.0007
    CHARGE:  cpu time      1.1558: real time      1.1564
    MIXING:  cpu time      0.2808: real time      0.2808
    --------------------------------------------
      LOOP:  cpu time     11.9130: real time     11.9175

 eigenvalue-minimisations  :  1552
 total energy-change (2. order) : 0.1876260E+02  (-0.6661605E+01)
 number of electron     367.9999999 magnetization 
 augmentation part        9.2099990 magnetization 

 Broyden mixing:
  rms(total) = 0.74079E+00    rms(broyden)= 0.74051E+00
  rms(prec ) = 0.75064E+00
  weight for this iteration     100.00

 eigenvalues of (default mixing * dielectric matrix)
  average eigenvalue GAMMA=   2.2066
  2.2066  2.2066

 Free energy of the ion-electron system (eV)
  ---------------------------------------------------
  alpha Z        PSCENC =        91.34886789
  Ewald energy   TEWEN  =    120137.82168890
  -Hartree energ DENC   =   -130794.93775143
  -exchange      EXHF   =         0.00000000
  -V(xc)+E(xc)   XCENC  =      1277.25710065
  PAW double counting   =     36842.67527844   -36909.74639667
  entropy T*S    EENTRO =        -0.06376021
  eigenvalues    EBANDS =     -5011.24248612
  atomic energy  EATOM  =     13537.65479391
  Solvation  Ediel_sol  =         0.00000000
  ---------------------------------------------------
  free energy    TOTEN  =      -829.23266464 eV

  energy without entropy =     -829.16890443  energy(sigma->0) =     -829.20078453


--------------------------------------------------------------------------------------------------------




--------------------------------------- Iteration      1(   8)  ---------------------------------------


    POTLOK:  cpu time      0.3201: real time      0.3202
    SETDIJ:  cpu time      0.0404: real time      0.0404
     EDDAV:  cpu time     10.4411: real time     10.4449
       DOS:  cpu time      0.0007: real time      0.0007
    CHARGE:  cpu time      1.1543: real time      1.1574
    MIXING:  cpu time      0.2790: real time      0.2811
    --------------------------------------------
      LOOP:  cpu time     12.2358: real time     12.2447

 eigenvalue-minimisations  :  1616
 total energy-change (2. order) : 0.2926251E+00  (-0.2510571E+00)
 number of electron     367.9999999 magnetization 
 augmentation part        9.1960912 magnetization 

 Broyden mixing:
  rms(total) = 0.10146E+00    rms(broyden)= 0.10143E+00
  rms(prec ) = 0.12390E+00
  weight for this iteration     100.00

 eigenvalues of (default mixing * dielectric matrix)
  average eigenvalue GAMMA=   1.8628
  1.2436  2.4412  1.9036

 Free energy of the ion-electron system (eV)
  ---------------------------------------------------
  alpha Z        PSCENC =        91.34886789
  Ewald energy   TEWEN  =    120137.82168890
  -Hartree energ DENC   =   -130888.80419242
  -exchange      EXHF   =         0.00000000
  -V(xc)+E(xc)   XCENC  =      1276.94404407
  PAW double counting   =     41155.21242705   -41219.54785939
  entropy T*S    EENTRO =        -0.06131863
  eigenvalues    EBANDS =     -4919.50849093
  atomic energy  EATOM  =     13537.65479391
  Solvation  Ediel_sol  =         0.00000000
  ---------------------------------------------------
  free energy    TOTEN  =      -828.94003954 eV

  energy without entropy =     -828.87872091  energy(sigma->0) =     -828.90938023


--------------------------------------------------------------------------------------------------------




--------------------------------------- Iteration      1(   9)  ---------------------------------------


    POTLOK:  cpu time      0.3201: real time      0.3201
    SETDIJ:  cpu time      0.0432: real time      0.0432
     EDDAV:  cpu time     10.6141: real time     10.6194
       DOS:  cpu time      0.0008: real time      0.0008
    CHARGE:  cpu time      1.1552: real time      1.1577
    MIXING:  cpu time      0.2846: real time      0.2852
    --------------------------------------------
      LOOP:  cpu time     12.4180: real time     12.4264

 eigenvalue-minimisations  :  1648
 total energy-change (2. order) : 0.1117704E+00  (-0.2840808E-01)
 number of electron     367.9999999 magnetization 
 augmentation part        9.1714554 magnetization 

 Broyden mixing:
  rms(total) = 0.57828E-01    rms(broyden)= 0.57819E-01
  rms(prec ) = 0.79443E-01
  weight for this iteration     100.00

 eigenvalues of (default mixing * dielectric matrix)
  average eigenvalue GAMMA=   1.6835
  2.1990  2.1990  1.0709  1.2651

 Free energy of the ion-electron system (eV)
  ---------------------------------------------------
  alpha Z        PSCENC =        91.34886789
  Ewald energy   TEWEN  =    120137.82168890
  -Hartree energ DENC   =   -130960.21727899
  -exchange      EXHF   =         0.00000000
  -V(xc)+E(xc)   XCENC  =      1278.44188399
  PAW double counting   =     41696.93731564   -41761.38646263
  entropy T*S    EENTRO =        -0.06183122
  eigenvalues    EBANDS =     -4849.36724663
  atomic energy  EATOM  =     13537.65479391
  Solvation  Ediel_sol  =         0.00000000
  ---------------------------------------------------
  free energy    TOTEN  =      -828.82826915 eV

  energy without entropy =     -828.76643792  energy(sigma->0) =     -828.79735354


--------------------------------------------------------------------------------------------------------




--------------------------------------- Iteration      1(  10)  ---------------------------------------


    POTLOK:  cpu time      0.3200: real time      0.3200
    SETDIJ:  cpu time      0.0403: real time      0.0403
     EDDAV:  cpu time     11.1227: real time     11.1287
       DOS:  cpu time      0.0008: real time      0.0008
    CHARGE:  cpu time      1.1547: real time      1.1583
    MIXING:  cpu time      0.2913: real time      0.2924
    --------------------------------------------
      LOOP:  cpu time     12.9299: real time     12.9405

 eigenvalue-minimisations  :  1752
 total energy-change (2. order) : 0.3739678E-01  (-0.4724587E-02)
 number of electron     367.9999999 magnetization 
 augmentation part        9.1616819 magnetization 

 Broyden mixing:
  rms(total) = 0.36823E-01    rms(broyden)= 0.36820E-01
  rms(prec ) = 0.56669E-01
  weight for this iteration     100.00

 eigenvalues of (default mixing * dielectric matrix)
  average eigenvalue GAMMA=   1.7267
  2.4655  2.4655  1.5714  1.2901  0.8410

 Free energy of the ion-electron system (eV)
  ---------------------------------------------------
  alpha Z        PSCENC =        91.34886789
  Ewald energy   TEWEN  =    120137.82168890
  -Hartree energ DENC   =   -131008.16610991
  -exchange      EXHF   =         0.00000000
  -V(xc)+E(xc)   XCENC  =      1278.75175921
  PAW double counting   =     41469.78256369   -41534.09651129
  entropy T*S    EENTRO =        -0.06179249
  eigenvalues    EBANDS =     -4801.82613228
  atomic energy  EATOM  =     13537.65479391
  Solvation  Ediel_sol  =         0.00000000
  ---------------------------------------------------
  free energy    TOTEN  =      -828.79087237 eV

  energy without entropy =     -828.72907988  energy(sigma->0) =     -828.75997612


--------------------------------------------------------------------------------------------------------




--------------------------------------- Iteration      1(  11)  ---------------------------------------


    POTLOK:  cpu time      0.3198: real time      0.3197
    SETDIJ:  cpu time      0.0403: real time      0.0403
     EDDAV:  cpu time     10.2394: real time     10.2445
       DOS:  cpu time      0.0008: real time      0.0008
    CHARGE:  cpu time      1.1674: real time      1.1694
    MIXING:  cpu time      0.2994: real time      0.2995
    --------------------------------------------
      LOOP:  cpu time     12.0671: real time     12.0742

 eigenvalue-minimisations  :  1576
 total energy-change (2. order) : 0.3126368E-01  (-0.2289707E-02)
 number of electron     367.9999999 magnetization 
 augmentation part        9.1569211 magnetization 

 Broyden mixing:
  rms(total) = 0.24734E-01    rms(broyden)= 0.24732E-01
  rms(prec ) = 0.38528E-01
  weight for this iteration     100.00

 eigenvalues of (default mixing * dielectric matrix)
  average eigenvalue GAMMA=   1.7736
  2.9481  2.5501  1.9198  0.9409  1.1413  1.1413

 Free energy of the ion-electron system (eV)
  ---------------------------------------------------
  alpha Z        PSCENC =        91.34886789
  Ewald energy   TEWEN  =    120137.82168890
  -Hartree energ DENC   =   -131074.20210756
  -exchange      EXHF   =         0.00000000
  -V(xc)+E(xc)   XCENC  =      1279.32083457
  PAW double counting   =     41390.41132839   -41454.61053109
  entropy T*S    EENTRO =        -0.06177263
  eigenvalues    EBANDS =     -4736.44271106
  atomic energy  EATOM  =     13537.65479391
  Solvation  Ediel_sol  =         0.00000000
  ---------------------------------------------------
  free energy    TOTEN  =      -828.75960869 eV

  energy without entropy =     -828.69783606  energy(sigma->0) =     -828.72872238


--------------------------------------------------------------------------------------------------------




--------------------------------------- Iteration      1(  12)  ---------------------------------------


    POTLOK:  cpu time      0.3197: real time      0.3197
    SETDIJ:  cpu time      0.0404: real time      0.0403
     EDDAV:  cpu time     10.0210: real time     10.0303
       DOS:  cpu time      0.0007: real time      0.0008
    CHARGE:  cpu time      1.1581: real time      1.1586
    MIXING:  cpu time      0.3069: real time      0.3071
    --------------------------------------------
      LOOP:  cpu time     11.8469: real time     11.8569

 eigenvalue-minimisations  :  1536
 total energy-change (2. order) : 0.4565727E-02  (-0.2309684E-02)
 number of electron     367.9999999 magnetization 
 augmentation part        9.1496358 magnetization 

 Broyden mixing:
  rms(total) = 0.15695E-01    rms(broyden)= 0.15691E-01
  rms(prec ) = 0.23942E-01
  weight for this iteration     100.00

 eigenvalues of (default mixing * dielectric matrix)
  average eigenvalue GAMMA=   2.0636
  4.8219  2.4251  2.0243  2.0243  0.9463  1.1017  1.1017

 Free energy of the ion-electron system (eV)
  ---------------------------------------------------
  alpha Z        PSCENC =        91.34886789
  Ewald energy   TEWEN  =    120137.82168890
  -Hartree energ DENC   =   -131137.77013133
  -exchange      EXHF   =         0.00000000
  -V(xc)+E(xc)   XCENC  =      1279.94050909
  PAW double counting   =     41447.06117567   -41511.25007850
  entropy T*S    EENTRO =        -0.06194335
  eigenvalues    EBANDS =     -4673.49992524
  atomic energy  EATOM  =     13537.65479391
  Solvation  Ediel_sol  =         0.00000000
  ---------------------------------------------------
  free energy    TOTEN  =      -828.75504296 eV

  energy without entropy =     -828.69309961  energy(sigma->0) =     -828.72407129


--------------------------------------------------------------------------------------------------------




--------------------------------------- Iteration      1(  13)  ---------------------------------------


    POTLOK:  cpu time      0.3207: real time      0.3207
    SETDIJ:  cpu time      0.0403: real time      0.0403
     EDDAV:  cpu time     10.0964: real time     10.1043
       DOS:  cpu time      0.0008: real time      0.0008
    CHARGE:  cpu time      1.1561: real time      1.1576
    MIXING:  cpu time      0.3122: real time      0.3128
    --------------------------------------------
      LOOP:  cpu time     11.9265: real time     11.9365

 eigenvalue-minimisations  :  1552
 total energy-change (2. order) :-0.1162431E-01  (-0.9552462E-03)
 number of electron     367.9999999 magnetization 
 augmentation part        9.1469033 magnetization 

 Broyden mixing:
  rms(total) = 0.86923E-02    rms(broyden)= 0.86901E-02
  rms(prec ) = 0.12313E-01
  weight for this iteration     100.00

 eigenvalues of (default mixing * dielectric matrix)
  average eigenvalue GAMMA=   2.0668
  5.4156  2.4286  2.4286  1.9022  1.2001  1.2001  0.8743  1.0847

 Free energy of the ion-electron system (eV)
  ---------------------------------------------------
  alpha Z        PSCENC =        91.34886789
  Ewald energy   TEWEN  =    120137.82168890
  -Hartree energ DENC   =   -131191.13013987
  -exchange      EXHF   =         0.00000000
  -V(xc)+E(xc)   XCENC  =      1280.15727677
  PAW double counting   =     41402.29254439   -41466.47299940
  entropy T*S    EENTRO =        -0.06190565
  eigenvalues    EBANDS =     -4620.37679422
  atomic energy  EATOM  =     13537.65479391
  Solvation  Ediel_sol  =         0.00000000
  ---------------------------------------------------
  free energy    TOTEN  =      -828.76666727 eV

  energy without entropy =     -828.70476163  energy(sigma->0) =     -828.73571445


--------------------------------------------------------------------------------------------------------




--------------------------------------- Iteration      1(  14)  ---------------------------------------


    POTLOK:  cpu time      0.3202: real time      0.3204
    SETDIJ:  cpu time      0.0404: real time      0.0404
     EDDAV:  cpu time     10.3131: real time     10.3196
       DOS:  cpu time      0.0007: real time      0.0007
    CHARGE:  cpu time      1.1549: real time      1.1559
    MIXING:  cpu time      0.3221: real time      0.3227
    --------------------------------------------
      LOOP:  cpu time     12.1515: real time     12.1598

 eigenvalue-minimisations  :  1592
 total energy-change (2. order) :-0.1603894E-01  (-0.1249302E-03)
 number of electron     367.9999999 magnetization 
 augmentation part        9.1459164 magnetization 

 Broyden mixing:
  rms(total) = 0.61436E-02    rms(broyden)= 0.61430E-02
  rms(prec ) = 0.84100E-02
  weight for this iteration     100.00

 eigenvalues of (default mixing * dielectric matrix)
  average eigenvalue GAMMA=   2.1954
  6.3589  2.7249  2.7249  1.7741  1.7741  1.3201  1.1985  0.9413  0.9413

 Free energy of the ion-electron system (eV)
  ---------------------------------------------------
  alpha Z        PSCENC =        91.34886789
  Ewald energy   TEWEN  =    120137.82168890
  -Hartree energ DENC   =   -131206.03838321
  -exchange      EXHF   =         0.00000000
  -V(xc)+E(xc)   XCENC  =      1280.18410792
  PAW double counting   =     41403.94747206   -41468.13955079
  entropy T*S    EENTRO =        -0.06187985
  eigenvalues    EBANDS =     -4605.49982304
  atomic energy  EATOM  =     13537.65479391
  Solvation  Ediel_sol  =         0.00000000
  ---------------------------------------------------
  free energy    TOTEN  =      -828.78270621 eV

  energy without entropy =     -828.72082636  energy(sigma->0) =     -828.75176629


--------------------------------------------------------------------------------------------------------




--------------------------------------- Iteration      1(  15)  ---------------------------------------


    POTLOK:  cpu time      0.3216: real time      0.3216
    SETDIJ:  cpu time      0.0404: real time      0.0404
     EDDAV:  cpu time     10.1040: real time     10.1088
       DOS:  cpu time      0.0007: real time      0.0007
    CHARGE:  cpu time      1.1534: real time      1.1570
    MIXING:  cpu time      0.3303: real time      0.3304
    --------------------------------------------
      LOOP:  cpu time     11.9503: real time     11.9589

 eigenvalue-minimisations  :  1552
 total energy-change (2. order) :-0.2161464E-01  (-0.1997159E-03)
 number of electron     367.9999999 magnetization 
 augmentation part        9.1455201 magnetization 

 Broyden mixing:
  rms(total) = 0.31110E-02    rms(broyden)= 0.31106E-02
  rms(prec ) = 0.42757E-02
  weight for this iteration     100.00

 eigenvalues of (default mixing * dielectric matrix)
  average eigenvalue GAMMA=   2.2429
  7.0416  3.5001  2.2493  2.2493  1.6611  1.3537  1.3537  1.1188  0.9507  0.9507

 Free energy of the ion-electron system (eV)
  ---------------------------------------------------
  alpha Z        PSCENC =        91.34886789
  Ewald energy   TEWEN  =    120137.82168890
  -Hartree energ DENC   =   -131217.39987893
  -exchange      EXHF   =         0.00000000
  -V(xc)+E(xc)   XCENC  =      1280.16329777
  PAW double counting   =     41409.63632765   -41473.83044925
  entropy T*S    EENTRO =        -0.06191400
  eigenvalues    EBANDS =     -4594.13705480
  atomic energy  EATOM  =     13537.65479391
  Solvation  Ediel_sol  =         0.00000000
  ---------------------------------------------------
  free energy    TOTEN  =      -828.80432086 eV

  energy without entropy =     -828.74240685  energy(sigma->0) =     -828.77336385


--------------------------------------------------------------------------------------------------------




--------------------------------------- Iteration      1(  16)  ---------------------------------------


    POTLOK:  cpu time      0.3225: real time      0.3225
    SETDIJ:  cpu time      0.0417: real time      0.0417
     EDDAV:  cpu time     10.5200: real time     10.5252
       DOS:  cpu time      0.0008: real time      0.0008
    CHARGE:  cpu time      1.1672: real time      1.1679
    MIXING:  cpu time      0.3386: real time      0.3400
    --------------------------------------------
      LOOP:  cpu time     12.3908: real time     12.3981

 eigenvalue-minimisations  :  1632
 total energy-change (2. order) :-0.8898370E-02  (-0.5198467E-04)
 number of electron     367.9999999 magnetization 
 augmentation part        9.1455175 magnetization 

 Broyden mixing:
  rms(total) = 0.23395E-02    rms(broyden)= 0.23394E-02
  rms(prec ) = 0.28935E-02
  weight for this iteration     100.00

 eigenvalues of (default mixing * dielectric matrix)
  average eigenvalue GAMMA=   2.3321
  7.8810  3.9965  2.3699  2.3699  1.9134  1.5248  1.5248  0.9564  0.9564  1.0800
  1.0800

 Free energy of the ion-electron system (eV)
  ---------------------------------------------------
  alpha Z        PSCENC =        91.34886789
  Ewald energy   TEWEN  =    120137.82168890
  -Hartree energ DENC   =   -131221.17325147
  -exchange      EXHF   =         0.00000000
  -V(xc)+E(xc)   XCENC  =      1280.13728872
  PAW double counting   =     41398.77086871   -41462.96290359
  entropy T*S    EENTRO =        -0.06190916
  eigenvalues    EBANDS =     -4590.34866313
  atomic energy  EATOM  =     13537.65479391
  Solvation  Ediel_sol  =         0.00000000
  ---------------------------------------------------
  free energy    TOTEN  =      -828.81321923 eV

  energy without entropy =     -828.75131007  energy(sigma->0) =     -828.78226465


--------------------------------------------------------------------------------------------------------




--------------------------------------- Iteration      1(  17)  ---------------------------------------


    POTLOK:  cpu time      0.3206: real time      0.3206
    SETDIJ:  cpu time      0.0403: real time      0.0403
     EDDAV:  cpu time     10.3081: real time     10.3114
       DOS:  cpu time      0.0007: real time      0.0007
    CHARGE:  cpu time      1.1553: real time      1.1572
    MIXING:  cpu time      0.3484: real time      0.3501
    --------------------------------------------
      LOOP:  cpu time     12.1734: real time     12.1803

 eigenvalue-minimisations  :  1592
 total energy-change (2. order) :-0.5092140E-02  (-0.3114496E-04)
 number of electron     367.9999999 magnetization 
 augmentation part        9.1453590 magnetization 

 Broyden mixing:
  rms(total) = 0.12192E-02    rms(broyden)= 0.12191E-02
  rms(prec ) = 0.15371E-02
  weight for this iteration     100.00

 eigenvalues of (default mixing * dielectric matrix)
  average eigenvalue GAMMA=   2.3465
  8.3228  4.4722  2.4345  2.4345  1.9752  1.4134  1.4134  1.3626  1.3626  0.9639
  0.9639  1.0391

 Free energy of the ion-electron system (eV)
  ---------------------------------------------------
  alpha Z        PSCENC =        91.34886789
  Ewald energy   TEWEN  =    120137.82168890
  -Hartree energ DENC   =   -131223.62988055
  -exchange      EXHF   =         0.00000000
  -V(xc)+E(xc)   XCENC  =      1280.14095344
  PAW double counting   =     41406.82851513   -41471.01842410
  entropy T*S    EENTRO =        -0.06191447
  eigenvalues    EBANDS =     -4587.90291151
  atomic energy  EATOM  =     13537.65479391
  Solvation  Ediel_sol  =         0.00000000
  ---------------------------------------------------
  free energy    TOTEN  =      -828.81831137 eV

  energy without entropy =     -828.75639690  energy(sigma->0) =     -828.78735413


--------------------------------------------------------------------------------------------------------




--------------------------------------- Iteration      1(  18)  ---------------------------------------


    POTLOK:  cpu time      0.3207: real time      0.3207
    SETDIJ:  cpu time      0.0401: real time      0.0401
     EDDAV:  cpu time     10.3862: real time     10.3899
       DOS:  cpu time      0.0007: real time      0.0007
    CHARGE:  cpu time      1.1539: real time      1.1573
    MIXING:  cpu time      0.3595: real time      0.3605
    --------------------------------------------
      LOOP:  cpu time     12.2610: real time     12.2692

 eigenvalue-minimisations  :  1608
 total energy-change (2. order) :-0.2118484E-02  (-0.8660373E-05)
 number of electron     367.9999999 magnetization 
 augmentation part        9.1453212 magnetization 

 Broyden mixing:
  rms(total) = 0.63212E-03    rms(broyden)= 0.63203E-03
  rms(prec ) = 0.83864E-03
  weight for this iteration     100.00

 eigenvalues of (default mixing * dielectric matrix)
  average eigenvalue GAMMA=   2.3875
  8.7968  4.9385  2.6819  2.6819  1.8314  1.8314  1.5298  1.5298  1.1540  1.1540
  0.9462  0.9462  1.0155

 Free energy of the ion-electron system (eV)
  ---------------------------------------------------
  alpha Z        PSCENC =        91.34886789
  Ewald energy   TEWEN  =    120137.82168890
  -Hartree energ DENC   =   -131224.37403373
  -exchange      EXHF   =         0.00000000
  -V(xc)+E(xc)   XCENC  =      1280.13812496
  PAW double counting   =     41404.50586724   -41468.69538380
  entropy T*S    EENTRO =        -0.06191739
  eigenvalues    EBANDS =     -4587.15843782
  atomic energy  EATOM  =     13537.65479391
  Solvation  Ediel_sol  =         0.00000000
  ---------------------------------------------------
  free energy    TOTEN  =      -828.82042985 eV

  energy without entropy =     -828.75851245  energy(sigma->0) =     -828.78947115


--------------------------------------------------------------------------------------------------------




--------------------------------------- Iteration      1(  19)  ---------------------------------------


    POTLOK:  cpu time      0.3203: real time      0.3204
    SETDIJ:  cpu time      0.0401: real time      0.0401
     EDDAV:  cpu time      9.5660: real time      9.5706
       DOS:  cpu time      0.0008: real time      0.0008
    CHARGE:  cpu time      1.1537: real time      1.1559
    MIXING:  cpu time      0.3723: real time      0.3725
    --------------------------------------------
      LOOP:  cpu time     11.4532: real time     11.4602

 eigenvalue-minimisations  :  1440
 total energy-change (2. order) :-0.1185499E-02  (-0.4328126E-05)
 number of electron     367.9999999 magnetization 
 augmentation part        9.1453336 magnetization 

 Broyden mixing:
  rms(total) = 0.42079E-03    rms(broyden)= 0.42076E-03
  rms(prec ) = 0.51055E-03
  weight for this iteration     100.00

 eigenvalues of (default mixing * dielectric matrix)
  average eigenvalue GAMMA=   2.3909
  8.9444  5.4356  3.0657  2.3387  2.3387  1.8905  1.5152  1.5152  1.2481  1.2481
  0.9331  1.0318  0.9839  0.9839

 Free energy of the ion-electron system (eV)
  ---------------------------------------------------
  alpha Z        PSCENC =        91.34886789
  Ewald energy   TEWEN  =    120137.82168890
  -Hartree energ DENC   =   -131224.76970161
  -exchange      EXHF   =         0.00000000
  -V(xc)+E(xc)   XCENC  =      1280.13631143
  PAW double counting   =     41403.60075859   -41467.78872048
  entropy T*S    EENTRO =        -0.06191248
  eigenvalues    EBANDS =     -4586.76370149
  atomic energy  EATOM  =     13537.65479391
  Solvation  Ediel_sol  =         0.00000000
  ---------------------------------------------------
  free energy    TOTEN  =      -828.82161535 eV

  energy without entropy =     -828.75970287  energy(sigma->0) =     -828.79065911


--------------------------------------------------------------------------------------------------------




--------------------------------------- Iteration      1(  20)  ---------------------------------------


    POTLOK:  cpu time      0.3225: real time      0.3226
    SETDIJ:  cpu time      0.0402: real time      0.0402
     EDDAV:  cpu time      9.2128: real time      9.2175
       DOS:  cpu time      0.0007: real time      0.0007
    CHARGE:  cpu time      1.1536: real time      1.1572
    MIXING:  cpu time      0.3844: real time      0.3845
    --------------------------------------------
      LOOP:  cpu time     11.1143: real time     11.1227

 eigenvalue-minimisations  :  1368
 total energy-change (2. order) :-0.3999323E-03  (-0.7466328E-06)
 number of electron     367.9999999 magnetization 
 augmentation part        9.1453100 magnetization 

 Broyden mixing:
  rms(total) = 0.26630E-03    rms(broyden)= 0.26629E-03
  rms(prec ) = 0.31826E-03
  weight for this iteration     100.00

 eigenvalues of (default mixing * dielectric matrix)
  average eigenvalue GAMMA=   2.4397
  9.2072  5.8276  3.6255  2.5432  2.4074  1.9199  1.6032  1.6032  1.3465  1.3465
  1.1941  0.9718  0.9718  1.0137  1.0137

 Free energy of the ion-electron system (eV)
  ---------------------------------------------------
  alpha Z        PSCENC =        91.34886789
  Ewald energy   TEWEN  =    120137.82168890
  -Hartree energ DENC   =   -131224.96597567
  -exchange      EXHF   =         0.00000000
  -V(xc)+E(xc)   XCENC  =      1280.13682080
  PAW double counting   =     41404.47638651   -41468.66467288
  entropy T*S    EENTRO =        -0.06191275
  eigenvalues    EBANDS =     -4586.56801199
  atomic energy  EATOM  =     13537.65479391
  Solvation  Ediel_sol  =         0.00000000
  ---------------------------------------------------
  free energy    TOTEN  =      -828.82201528 eV

  energy without entropy =     -828.76010253  energy(sigma->0) =     -828.79105890


--------------------------------------------------------------------------------------------------------




--------------------------------------- Iteration      1(  21)  ---------------------------------------


    POTLOK:  cpu time      0.3205: real time      0.3206
    SETDIJ:  cpu time      0.0401: real time      0.0401
     EDDAV:  cpu time      9.0121: real time      9.0153
       DOS:  cpu time      0.0008: real time      0.0008
    CHARGE:  cpu time      1.1681: real time      1.1687
    MIXING:  cpu time      0.3963: real time      0.3964
    --------------------------------------------
      LOOP:  cpu time     10.9378: real time     10.9417

 eigenvalue-minimisations  :  1328
 total energy-change (2. order) :-0.2624327E-03  (-0.3923792E-06)
 number of electron     367.9999999 magnetization 
 augmentation part        9.1453103 magnetization 

 Broyden mixing:
  rms(total) = 0.10885E-03    rms(broyden)= 0.10883E-03
  rms(prec ) = 0.13508E-03
  weight for this iteration     100.00

 eigenvalues of (default mixing * dielectric matrix)
  average eigenvalue GAMMA=   2.4030
  9.1891  6.1529  3.7837  2.5198  2.5198  2.0251  1.5693  1.5693  1.7014  1.2187
  1.2187  1.1291  0.9928  0.9928  0.9329  0.9329

 Free energy of the ion-electron system (eV)
  ---------------------------------------------------
  alpha Z        PSCENC =        91.34886789
  Ewald energy   TEWEN  =    120137.82168890
  -Hartree energ DENC   =   -131225.05757561
  -exchange      EXHF   =         0.00000000
  -V(xc)+E(xc)   XCENC  =      1280.13586058
  PAW double counting   =     41403.31677224   -41467.50549860
  entropy T*S    EENTRO =        -0.06191462
  eigenvalues    EBANDS =     -4586.47527241
  atomic energy  EATOM  =     13537.65479391
  Solvation  Ediel_sol  =         0.00000000
  ---------------------------------------------------
  free energy    TOTEN  =      -828.82227771 eV

  energy without entropy =     -828.76036310  energy(sigma->0) =     -828.79132040


[...]
   -.148E+02 -.124E+02 0.566E+02   0.148E+02 0.124E+02 -.568E+02   0.337E+00 -.267E+00 0.391E-02   -.151E-04 0.932E-05 -.143E-04
   -.250E+02 -.473E+00 0.101E+03   0.249E+02 -.246E+00 -.101E+03   -.338E+00 -.103E+00 -.131E+00   0.914E-05 -.670E-05 -.414E-05
   0.758E+01 0.175E+02 -.232E+02   -.753E+01 -.179E+02 0.233E+02   0.654E-01 0.517E+00 -.231E-01   0.916E-05 -.253E-04 -.124E-05
   -.221E+02 0.369E+01 0.985E+02   0.221E+02 -.280E+01 -.994E+02   -.840E+00 0.215E+00 0.231E+01   -.131E-05 0.356E-05 -.485E-05
   0.760E+01 -.495E+01 -.147E+02   -.809E+01 0.424E+01 0.143E+02   -.630E+00 -.948E+00 -.829E+00   0.273E-05 -.924E-05 0.796E-06
   0.830E+01 0.800E+00 -.479E+02   -.873E+01 -.209E+01 0.483E+02   0.756E+00 -.768E+00 -.118E+01   -.117E-04 -.168E-04 0.133E-05
   0.114E+02 0.147E+02 -.861E+02   -.105E+02 -.162E+02 0.866E+02   -.408E+00 -.242E+00 -.912E+00   0.360E-05 0.723E-05 0.922E-05
   0.127E+02 0.189E+02 -.474E+02   -.136E+02 -.202E+02 0.473E+02   0.466E-01 0.360E+00 -.455E+00   -.369E-05 0.474E-05 0.453E-05
   -.169E+00 -.220E+02 -.386E+02   0.580E+00 0.243E+02 0.383E+02   -.591E+00 0.159E+01 0.879E+00   0.121E-04 0.236E-04 0.902E-05
   -.830E+01 -.446E+01 -.359E+02   0.959E+01 0.422E+01 0.356E+02   0.386E+00 -.897E+00 0.130E+01   0.359E-04 -.108E-04 0.105E-04
   0.893E+01 0.161E+02 -.764E+02   -.907E+01 -.183E+02 0.763E+02   0.654E-01 -.158E+01 0.418E+00   0.789E-05 -.441E-05 0.109E-04
   -.627E+01 0.191E+02 -.858E+02   0.729E+01 -.204E+02 0.857E+02   -.107E-01 -.209E+00 -.447E+00   0.364E-04 -.733E-06 0.112E-04
   0.436E+01 -.821E+01 -.137E+03   -.450E+01 0.932E+01 0.137E+03   0.293E+00 0.640E+00 -.948E+00   0.111E-04 -.102E-04 0.925E-05
   0.559E+01 -.961E+01 -.669E+02   -.633E+01 0.951E+01 0.669E+02   -.717E+00 0.799E+00 0.393E+00   -.135E-04 0.854E-06 0.752E-05
   -.474E+01 0.248E+02 -.133E+03   0.528E+01 -.266E+02 0.133E+03   0.716E+00 -.115E+01 -.215E+00   0.399E-05 -.204E-04 0.932E-05
   -.247E+01 0.816E+01 -.105E+03   0.246E+01 -.853E+01 0.105E+03   0.360E-01 -.464E+00 -.372E+00   -.276E-04 0.505E-05 0.822E-05
   0.488E+00 -.106E+02 -.795E+02   -.103E+01 0.113E+02 0.792E+02   -.544E-01 -.495E+00 0.119E+01   -.111E-04 -.523E-06 0.890E-05
   -.101E+02 -.661E+01 -.140E+03   0.899E+01 0.609E+01 0.141E+03   -.607E+00 -.144E+00 -.908E+00   0.470E-05 0.771E-05 0.879E-05
   -.157E+02 0.176E+02 -.106E+03   0.158E+02 -.185E+02 0.106E+03   -.917E+00 -.141E+00 -.512E+00   0.545E-05 -.453E-05 0.425E-05
   -.193E+02 0.382E+01 -.543E+02   0.211E+02 -.348E+01 0.531E+02   0.177E+01 0.195E+00 0.966E+00   0.170E-04 0.161E-04 0.994E-06
   -.232E+02 -.582E+01 -.814E+02   0.235E+02 0.547E+01 0.819E+02   -.204E+01 -.592E+00 -.186E+01   0.151E-04 -.167E-06 -.472E-05
   -.546E+01 -.231E+02 -.537E+02   0.381E+01 0.257E+02 0.535E+02   -.512E+00 0.141E+01 0.652E+00   -.828E-05 0.362E-05 0.100E-04
   0.241E+02 0.108E+02 0.906E+02   -.241E+02 -.118E+02 -.914E+02   0.455E+00 -.135E+00 0.209E+01   -.670E-05 -.117E-04 -.217E-05
   0.305E+01 0.300E+01 -.596E-01   -.361E+01 -.280E+01 0.333E+00   0.223E+00 -.664E+00 -.596E+00   -.281E-04 0.219E-04 0.255E-05
   0.213E+02 -.594E+01 0.993E+02   -.214E+02 0.629E+01 -.999E+02   -.327E+00 -.118E+00 0.128E+01   -.279E-04 0.918E-06 -.412E-05
   -.238E+02 -.489E+00 -.199E+01   0.235E+02 0.104E+01 0.239E+01   0.157E+01 0.825E+00 -.767E+00   0.274E-04 0.870E-05 -.146E-04
   -.754E+01 -.174E+00 0.596E+02   0.744E+01 -.261E+00 -.597E+02   -.793E+00 -.508E+00 -.107E+01   0.111E-04 -.800E-05 -.178E-04
   -.417E+01 0.644E+02 0.880E+02   0.263E+01 -.652E+02 -.883E+02   0.309E+01 0.129E+01 -.109E+01   0.146E-04 0.719E-06 -.191E-04
   0.514E+01 -.652E+02 0.140E+03   -.699E+01 0.670E+02 -.140E+03   0.827E+00 -.129E+01 0.109E+01   0.465E-05 -.204E-05 -.179E-04
   0.272E+02 0.618E+02 0.740E+02   -.244E+02 -.626E+02 -.758E+02   -.929E+00 0.184E+01 0.252E+01   -.197E-04 -.142E-04 -.759E-05
   0.150E+02 -.648E+02 0.264E+02   -.120E+02 0.656E+02 -.267E+02   -.134E+01 -.167E+01 -.726E+00   0.714E-05 0.386E-04 -.864E-05
   0.190E+02 0.360E+01 0.989E+01   -.196E+02 -.333E+01 -.876E+01   -.140E+01 0.767E+00 -.180E+01   -.798E-06 0.167E-04 -.465E-05
   0.269E+02 -.536E+01 0.107E+03   -.267E+02 0.625E+01 -.108E+03   -.307E+00 -.146E+00 0.135E+01   0.582E-05 0.296E-04 -.129E-04
   0.543E+01 0.152E+02 0.559E+02   -.391E+01 -.158E+02 -.558E+02   0.992E+00 -.335E+00 0.261E+00   0.269E-04 0.169E-04 -.133E-04
   0.250E+02 -.181E+02 0.117E+03   -.259E+02 0.186E+02 -.117E+03   -.585E+00 0.529E-01 0.207E+00   0.213E-05 0.189E-04 -.977E-05
   0.202E+02 -.442E+01 0.440E+02   -.216E+02 0.494E+01 -.433E+02   -.134E+01 -.275E-01 -.181E+01   -.177E-04 -.531E-05 -.978E-05
   0.137E+02 0.437E+01 0.134E+03   -.129E+02 -.408E+01 -.135E+03   0.240E+00 0.420E+00 0.135E+01   -.350E-04 0.113E-04 -.101E-04
   -.783E+01 0.858E+01 0.954E+02   0.884E+01 -.958E+01 -.961E+02   -.129E+00 -.103E+01 0.129E+01   -.176E-04 -.993E-06 -.678E-05
   0.109E+02 -.772E+01 0.430E+02   -.121E+02 0.832E+01 -.426E+02   -.508E+00 -.205E+00 -.899E+00   -.172E-04 -.237E-05 -.472E-05
   -.760E+01 -.120E+02 0.991E+02   0.695E+01 0.134E+02 -.989E+02   0.851E-01 0.109E+01 -.183E+00   0.111E-04 0.131E-04 -.632E-05
   -.170E+02 0.110E+02 -.371E+01   0.192E+02 -.126E+02 0.468E+01   0.135E+01 -.107E+01 -.123E+01   0.270E-04 -.121E-04 0.172E-05
   -.127E+02 0.111E+02 0.613E+02   0.132E+02 -.116E+02 -.610E+02   0.800E+00 0.299E+00 0.305E+00   0.171E-04 0.183E-04 -.203E-05
   0.310E+01 -.175E+02 0.387E+02   -.457E+01 0.190E+02 -.385E+02   -.484E+00 0.803E+00 -.197E+00   -.416E-06 -.515E-05 -.298E-05
   -.106E+02 -.587E+01 0.418E+02   0.112E+02 0.543E+01 -.420E+02   -.245E+00 -.891E+00 0.573E+00   -.131E-04 -.108E-04 -.146E-04
   -.165E+02 0.486E+01 0.895E+02   0.160E+02 -.441E+01 -.900E+02   0.370E+00 -.714E+00 0.421E+00   -.175E-04 -.192E-04 -.625E-05
   0.199E+02 0.611E+00 -.580E+02   -.216E+02 0.607E+00 0.580E+02   -.113E+01 0.834E+00 -.179E+01   -.318E-04 0.111E-04 -.137E-04
   -.166E+02 -.883E+01 0.199E+02   0.183E+02 0.836E+01 -.192E+02   0.193E+01 -.451E+00 0.978E+00   0.215E-05 0.766E-05 -.503E-05
   0.200E+02 -.447E+01 -.942E+02   -.190E+02 0.403E+01 0.946E+02   0.235E+00 0.266E+00 0.217E+00   -.102E-05 -.891E-06 0.599E-05
   0.245E+01 0.969E+01 0.143E+02   -.370E+01 -.948E+01 -.149E+02   -.477E+00 0.726E+00 -.328E+00   -.115E-04 0.599E-05 -.842E-05
   0.264E+02 0.110E+02 -.142E+03   -.258E+02 -.123E+02 0.143E+03   0.880E+00 -.102E+00 -.423E+00   0.285E-04 -.244E-05 0.232E-04
   0.161E+02 -.164E+02 -.853E+02   -.160E+02 0.170E+02 0.854E+02   0.367E-01 0.724E+00 -.329E+00   0.126E-04 0.155E-04 0.858E-05
   0.249E+02 -.229E+02 -.139E+03   -.253E+02 0.252E+02 0.140E+03   0.140E+00 0.116E+01 0.135E+00   0.199E-04 0.124E-04 0.189E-04
   0.163E+02 0.101E+02 -.920E+02   -.155E+02 -.960E+01 0.919E+02   0.622E+00 0.675E+00 0.130E+00   0.173E-04 -.646E-05 0.131E-04
   0.299E+02 0.680E+01 -.145E+03   -.304E+02 -.680E+01 0.145E+03   0.620E+00 -.254E+00 -.512E+00   -.773E-05 0.780E-05 0.125E-04
   0.186E+02 -.132E+02 -.115E+03   -.194E+02 0.134E+02 0.115E+03   -.124E+01 -.459E+00 -.115E-01   -.438E-05 -.111E-04 0.104E-04
   0.141E+02 -.195E+02 -.124E+03   -.146E+02 0.212E+02 0.124E+03   0.249E+00 -.867E-01 0.535E+00   -.721E-05 0.111E-06 0.110E-04
   0.387E+01 0.129E+02 -.941E+02   -.308E+01 -.132E+02 0.944E+02   -.240E+00 -.977E+00 -.109E+01   0.126E-04 -.191E-04 0.110E-04
   0.173E+02 0.552E+01 -.171E+03   -.180E+02 -.512E+01 0.172E+03   0.360E+00 0.394E+00 -.160E+01   0.121E-05 0.135E-04 0.121E-04
   0.618E+01 -.145E+02 -.493E+02   -.696E+01 0.146E+02 0.489E+02   -.941E-01 0.499E+00 0.181E+01   0.735E-05 0.120E-04 0.903E-05
   -.371E+01 -.148E+02 -.174E+03   0.384E+01 0.157E+02 0.174E+03   0.251E+00 -.233E+00 -.638E-01   0.570E-05 -.121E-05 0.120E-04
   0.259E+01 0.655E+01 -.711E+02   -.234E+01 -.588E+01 0.711E+02   0.648E-01 0.166E+01 0.387E+00   -.144E-04 0.184E-04 0.675E-05
   -.629E+01 0.122E+02 -.170E+03   0.640E+01 -.119E+02 0.170E+03   0.644E+00 0.216E+00 -.614E+00   0.283E-05 -.494E-05 0.114E-04
   -.407E+01 -.136E+02 -.172E+03   0.300E+01 0.129E+02 0.173E+03   -.143E+01 -.944E+00 -.973E+00   -.134E-04 0.904E-08 0.112E-04
   -.185E+02 -.148E+02 -.941E+02   0.192E+02 0.157E+02 0.937E+02   0.984E+00 0.668E-01 0.316E+00   0.102E-04 0.517E-05 0.638E-05
   -.254E+02 0.278E+00 -.170E+03   0.268E+02 0.620E+00 0.169E+03   0.190E+00 0.928E+00 0.432E+00   0.132E-04 -.889E-05 0.117E-04
   -.649E+01 0.181E+02 -.578E+02   0.583E+01 -.196E+02 0.576E+02   -.293E+00 -.521E+00 0.903E+00   0.537E-05 0.188E-05 0.889E-05
   -.406E+02 -.112E+02 -.193E+03   0.412E+02 0.121E+02 0.194E+03   -.436E+00 0.809E+00 -.144E+01   0.155E-04 -.105E-04 0.102E-04
   0.951E+01 -.129E+02 0.278E+02   -.101E+02 0.136E+02 -.276E+02   -.400E+00 0.519E+00 0.393E+00   -.117E-04 -.584E-05 0.510E-05
   -.376E+02 0.166E+02 -.175E+03   0.379E+02 -.188E+02 0.175E+03   0.159E-01 -.915E+00 -.101E+01   0.402E-06 -.107E-04 0.145E-04
   -.944E+01 0.488E+01 -.151E+02   0.960E+01 -.451E+01 0.151E+02   0.919E+00 -.884E+00 0.354E+00   -.110E-04 0.113E-04 0.101E-04
   -.364E+02 -.374E+01 -.128E+03   0.359E+02 0.378E+01 0.129E+03   -.881E+00 -.609E+00 -.509E+00   -.146E-04 -.611E-05 0.193E-04
   -.169E+02 -.457E+01 -.645E+01   0.169E+02 0.548E+01 0.638E+01   0.171E+01 0.256E+00 -.749E+00   0.115E-04 0.379E-05 -.535E-05
   -.483E+02 -.118E+01 -.777E+02   0.489E+02 0.337E+00 0.779E+02   -.387E-01 -.705E+00 0.254E+00   0.155E-04 -.182E-04 0.510E-05
   -.163E+02 0.644E+02 -.148E+02   0.131E+02 -.653E+02 0.165E+02   0.649E+00 0.229E+01 -.611E+00   -.845E-05 -.176E-04 -.241E-06
   -.291E+02 -.617E+02 -.545E+02   0.268E+02 0.622E+02 0.557E+02   0.978E+00 -.116E+01 -.103E+01   -.450E-05 0.203E-04 0.425E-05
 -----------------------------------------------------------------------------------------------
   -.314E+00 0.114E+00 -.119E+01   -.544E-12 -.199E-12 0.102E-11   0.355E+00 -.287E+00 0.126E+01   -.128E-04 0.371E-05 -.726E-04
 
 
 POSITION                                       TOTAL-FORCE (eV/Angst)
 -----------------------------------------------------------------------------------
      0.03329      0.87518     15.54050         2.403076     -1.027590      0.081978
      0.11721      2.24235     15.44490        -0.611908     -0.138299      0.695113
      1.27061      0.21966     15.49710         1.522743     -0.637642     -1.028812
      1.34751      2.89087     15.44270         0.294722     -1.945533     -0.253079
      2.59220      0.84485     15.23590        -1.851916      0.389914      0.184674
      2.60516      2.22007     15.22780        -1.019377      0.274484     -0.236483
      3.84593      0.19056     15.21240        -1.002208     -0.358280     -0.648602
      3.83258      2.91407     15.14030         1.247097     -1.776347      0.196154
      5.09036      0.85444     15.11470        -0.964091     -0.883602      0.294574
      5.11099      2.21862     15.00610        -3.115711      0.417749      0.436757
      6.24724      0.14431     15.42820         1.921013      2.305263      0.233818
      6.28453      2.86413     15.23940         2.626662     -2.152399     -0.098515
      7.53217      0.78173     15.60780        -0.907124     -0.791795     -2.230664
      7.52231      2.10861     15.42650         0.484594      3.725757      1.090549
      8.78623      0.14863     15.68580        -0.195443     -0.950582      1.581136
      8.71159      2.79996     15.87100        -0.120303      0.441042     -0.213623
     10.00010      0.78461     16.03010         0.159691      0.206645     -0.205326
      9.92903      2.15425     16.21340         0.294942     -0.237737     -0.211051
     11.20480      0.12321     16.42720        -0.452733     -0.820618     -0.041621
     11.06370      2.80237     16.77790         0.113472      0.042976      0.039554
     12.38710      0.80921     16.79000        -0.829240      1.100572      1.401242
     12.31650      2.19606     17.05570        -1.122838     -1.657857     -1.227011
     13.48080      0.16807     17.37380         0.334067     -2.050503     -0.830787
     13.46270      2.83586     17.53740         0.495399     -1.794290     -0.486623
     14.70940      0.82530     17.63650        -0.850864     -0.954307     -0.495252
     14.71400      2.15372     17.66190        -0.180652      3.928235      0.600032
     15.92080      0.20782     17.81580         1.675921     -1.136322      0.945786
     15.90900      2.90160     17.96090        -0.073090     -3.799917      0.351472
     17.15970      0.86384     18.03600         1.004328     -1.484053     -0.611861
     17.14650      2.21057     18.16500         0.156059      1.744625     -0.797711
     18.44060      0.16701     18.05570        -1.458311      0.703140      0.360698
     18.37820      2.92600     18.24100         1.258689     -2.939256     -0.337645
     19.65970      0.88269     18.09810         0.022486     -0.834104     -0.202508
     19.65550      2.25802     18.06180        -0.592622      0.184825      0.971959
     20.92220      0.21623     18.07100        -1.747867     -0.666612     -0.012821
     20.91160      2.92505     17.95220        -0.836631     -1.022149     -0.457631
     22.05580      0.87723     17.68970         3.619290      0.537035     -0.208476
     22.13340      2.27350     17.63740        -1.742041     -0.933981     -1.387942
     23.32620      0.18183     17.43080        -2.155234      3.990798      0.505950
     23.21280      2.93766     17.00820         0.468296     -1.135329      1.208534
     24.43600      0.89032     16.92650        -0.331782     -0.461931     -0.323490
     24.40330      2.24206     16.66400        -0.465874      0.232232      0.648897
     25.62130      0.21378     16.66520         1.280403      1.380887     -0.365111
     25.61830      2.92784     16.41980        -0.886439     -0.941487     -1.110042
     26.66880      0.88744     16.08440         1.556905      0.525249     -1.409338
     26.72460      2.25110     15.92890        -1.029022      0.521160      0.561852
      0.17406      4.86954     15.90960         1.949690      1.069517      0.732351
      0.19355      6.26505     15.98850         1.642771     -0.911243     -1.037740
      1.39192      4.21324     15.73100        -1.970072      1.037754     -0.667741
      1.32376      6.92909     15.56020        -0.113103      0.739339      0.803152
      2.57004      4.91233     15.53790         2.506592     -0.973919      0.325420
      2.58045      6.25899     15.40410        -1.499777      0.631453      0.389446
      3.86961      4.24168     15.44270        -2.795615      0.500202     -1.178044
      3.80249      6.91089     15.28980         0.976996      0.714275      0.862232
      5.06346      4.91667     15.41350         0.882539     -2.030529      0.674452
      5.03569      6.26059     15.51310        -1.770028      0.400329     -0.562958
      6.28304      4.18195     15.44920        -0.564617      2.529439      0.021062
      6.19271      6.94205     15.67490         3.614852     -2.718604     -0.263737
      7.46522      4.85031     15.74670         1.324651     -0.252857      0.534500
      7.47897      6.20559     15.79920        -1.947621      2.308827      0.015491
      8.67979      4.18573     16.03710         0.327041     -1.329824      0.383907
      8.70882      6.87893     15.89470        -0.184450     -0.261673     -0.022674
      9.84478      4.81320     16.57620        -2.759609      2.053705     -1.730632
      9.82750      6.20929     16.35070         3.612620     -0.923015      1.676646
     10.97800      4.16012     16.98680         1.287558     -0.172840      0.625820
     11.11580      6.84483     16.68470        -1.724577      0.931835     -0.890009
     12.14300      4.83196     17.42330         1.473436     -1.345287      0.248396
     12.21370      6.18200     17.27270         0.105064      1.325947     -0.150427
     13.40170      4.15874     17.71200        -0.209202      3.440302      0.409943
     13.42340      6.87425     17.54410         1.459087      1.146549      0.098571
     14.63120      4.88236     17.96580         0.110999     -0.255014     -0.301169
     14.69460      6.26105     17.87790        -2.030216     -0.266668     -0.044238
     15.88400      4.22784     18.08920        -0.257550      1.640816      0.602417
     15.92950      6.94538     17.95540         0.549761     -1.310640     -0.868751
     17.12700      4.88924     18.28200        -0.318024      0.788327     -0.741881
     17.18170      6.23996     18.03010        -0.880985      0.594973      1.381020
     18.37620      4.26217     18.34820         0.375750      0.696052      0.041353
     18.43960      6.87348     18.09600         0.318030      2.328800      0.330193
     19.63650      4.90809     18.29780         0.744886      0.498932     -0.240849
     19.71750      6.29069     18.29440        -2.499719     -1.623759     -0.509790
     20.84900      4.27592     17.99200         1.682155      0.981158     -0.124086
     20.92880      6.92031     18.19470         1.533776      1.827546      0.181010
     22.11330      4.96052     17.70540        -0.946502     -1.970602      0.634083
     22.18240      6.27019     18.02310         0.155628      1.677863     -0.496630
     23.25700      4.29394     17.18020        -1.037196      1.210517      0.613672
     23.39380      6.99358     17.71890         0.304734     -3.138184     -0.225466
     24.46770      4.97620     17.03780         1.073658     -0.518131      0.370080
     24.59510      6.32049     17.31460        -1.383030     -0.567963      0.265482
     25.62530      4.26307     16.65830         1.770919      1.171556     -0.826300
     25.75590      6.98707     16.89640         0.505423     -1.544234      0.392043
     26.85990      4.88251     16.42230        -2.480272      1.375658      1.161150
     26.89400      6.27964     16.53770        -1.312988     -0.626749      0.150526
 -----------------------------------------------------------------------------------
    total drift:                                0.041025     -0.173275      0.076811


--------------------------------------------------------------------------------------------------------



  FREE ENERGIE OF THE ION-ELECTRON SYSTEM (eV)
  ---------------------------------------------------
  free  energy   TOTEN  =      -828.82240091 eV

  energy  without entropy=     -828.76048685  energy(sigma->0) =     -828.79144388
 


--------------------------------------------------------------------------------------------------------


    POTLOK:  cpu time      0.4524: real time      0.4524


--------------------------------------------------------------------------------------------------------


     LOOP+:  cpu time    316.4954: real time    316.7184
    4ORBIT:  cpu time      0.0000: real time      0.0000

 total amount of memory used by VASP MPI-rank0  2294514. kBytes
=======================================================================

   base                                    :      30000. kBytes
   nonlr-proj                              :      15080. kBytes
   fftplans                                :     436558. kBytes
   grid                                    :     732614. kBytes
   one-center                              :        282. kBytes
   wavefun                                 :    1079980. kBytes
 
  
  
 General timing and accounting informations for this job:
 ========================================================
  
                  Total CPU time used (sec):      349.840
                            User time (sec):      341.914
                          System time (sec):        7.926
                         Elapsed time (sec):      350.111
  
                   Maximum memory used (kb):     3735948.
                   Average memory used (kb):          N/A
  
                          Minor page faults:      3006041
                          Major page faults:         6050
                 Voluntary context switches:         9353
