unknown system                          
            1
    28.050000    0.000000    0.000000
     0.000000    8.100000    0.000000
     0.000000    0.000000   33.500000
   C 
    92
Direct configuration=     1
   0.00118694  0.10804728  0.46389552
   0.00417857  0.27683333  0.46104179
   0.04529804  0.02711790  0.46260000
   0.04803957  0.35689753  0.46097612
   0.09241355  0.10430222  0.45480299
   0.09287558  0.27408272  0.45456119
   0.13710980  0.02352556  0.45410149
   0.13663387  0.35976173  0.45194925
   0.18147451  0.10548667  0.45118507
   0.18220998  0.27390370  0.44794328
   0.22271800  0.01781617  0.46054328
   0.22404742  0.35359630  0.45490746
   0.26852656  0.09650988  0.46590448
   0.26817504  0.26032222  0.46049254
   0.31323458  0.01834963  0.46823284
   0.31057362  0.34567407  0.47376119
   0.35650980  0.09686519  0.47851045
   0.35397611  0.26595679  0.48398209
   0.39945811  0.01521173  0.49036418
   0.39442781  0.34597160  0.50083284
   0.44160784  0.09990272  0.50119403
   0.43909091  0.27111852  0.50912537
   0.48059893  0.02074938  0.51862090
   0.47995365  0.35010617  0.52350448
   0.52439929  0.10188951  0.52646269
   0.52456328  0.26589136  0.52722090
   0.56758645  0.02565642  0.53181493
   0.56716578  0.35822222  0.53614627
   0.61175401  0.10664716  0.53838806
   0.61128342  0.27290988  0.54223881
   0.65741889  0.02061840  0.53897612
   0.65519430  0.36123457  0.54450746
   0.70088057  0.10897358  0.54024179
   0.70073084  0.27876790  0.53915821
   0.74588948  0.02669469  0.53943284
   0.74551159  0.36111728  0.53588657
   0.78630303  0.10830049  0.52805075
   0.78906952  0.28067901  0.52648955
   0.83159358  0.02244765  0.52032239
   0.82755080  0.36267407  0.50770746
   0.87115865  0.10991556  0.50526866
   0.86999287  0.27679753  0.49743284
   0.91341533  0.02639272  0.49746866
   0.91330838  0.36146173  0.49014328
   0.95075936  0.10956037  0.48013134
   0.95274866  0.27791358  0.47548955
   0.00620524  0.60117778  0.47491343
   0.00690011  0.77346296  0.47726866
   0.04962282  0.52015309  0.46958209
   0.04719287  0.85544321  0.46448358
   0.09162353  0.60646049  0.46381791
   0.09199465  0.77271481  0.45982388
   0.13795401  0.52366420  0.46097612
   0.13556114  0.85319630  0.45641194
   0.18051551  0.60699630  0.46010448
   0.17952549  0.77291235  0.46307761
   0.22399430  0.51629012  0.46117015
   0.22077398  0.85704321  0.46790746
   0.26613975  0.59880370  0.47005075
   0.26662995  0.76612222  0.47161791
   0.30943993  0.51675679  0.47871940
   0.31047487  0.84925062  0.47446866
   0.35097255  0.59422222  0.49481194
   0.35035651  0.76657901  0.48808060
   0.39137255  0.51359506  0.50706866
   0.39628520  0.84504074  0.49805075
   0.43290553  0.59653827  0.52009851
   0.43542602  0.76320988  0.51560299
   0.47777897  0.51342469  0.52871642
   0.47855258  0.84867284  0.52370448
   0.52161141  0.60276049  0.53629254
   0.52387166  0.77296914  0.53366866
   0.56627451  0.52195556  0.53997612
   0.56789661  0.85745432  0.53598209
   0.61058824  0.60360988  0.54573134
   0.61253832  0.77036543  0.53821194
   0.65512299  0.52619383  0.54770746
   0.65738324  0.84857778  0.54017910
   0.70005348  0.60593704  0.54620299
   0.70294118  0.77662840  0.54610149
   0.74327986  0.52789136  0.53707463
   0.74612478  0.85435926  0.54312537
   0.78835294  0.61240988  0.52851940
   0.79081640  0.77409753  0.53800299
   0.82912656  0.53011605  0.51284179
   0.83400357  0.86340494  0.52892239
   0.87228877  0.61434568  0.50859104
   0.87683066  0.78030741  0.51685373
   0.91355793  0.52630494  0.49726269
   0.91821390  0.86260123  0.50437015
   0.95757219  0.60277901  0.49021791
   0.95878788  0.77526420  0.49366269
