       N       E                     dE             d eps       ncg     rms          rms(c)
DAV:   1     0.361926170584E+04    0.36193E+04   -0.11968E+05  1736   0.105E+03
DAV:   2     0.165835402803E+03   -0.34534E+04   -0.31995E+04  2144   0.236E+02
DAV:   3    -0.833767255194E+03   -0.99960E+03   -0.97579E+03  1784   0.133E+02
DAV:   4    -0.895473007203E+03   -0.61706E+02   -0.60605E+02  1720   0.425E+01
DAV:   5    -0.897030938989E+03   -0.15579E+01   -0.15351E+01  1792   0.655E+00    0.452E+01
DAV:   6    -0.848120469319E+03    0.48910E+02   -0.46614E+01  1576   0.125E+01    0.266E+01
DAV:   7    -0.829919446450E+03    0.18201E+02   -0.64729E+01  1568   0.144E+01    0.728E+00
DAV:   8    -0.829636872952E+03    0.28257E+00   -0.24242E+00  1608   0.341E+00    0.103E+00
DAV:   9    -0.829529131909E+03    0.10774E+00   -0.28792E-01  1648   0.106E+00    0.567E-01
DAV:  10    -0.829494310296E+03    0.34822E-01   -0.49526E-02  1784   0.451E-01    0.361E-01
DAV:  11    -0.829466276659E+03    0.28034E-01   -0.21001E-02  1560   0.247E-01    0.246E-01
DAV:  12    -0.829461610232E+03    0.46664E-02   -0.25758E-02  1568   0.236E-01    0.151E-01
DAV:  13    -0.829474156801E+03   -0.12547E-01   -0.81938E-03  1560   0.154E-01    0.867E-02
DAV:  14    -0.829491597120E+03   -0.17440E-01   -0.15434E-03  1608   0.798E-02    0.568E-02
DAV:  15    -0.829510666045E+03   -0.19069E-01   -0.16972E-03  1576   0.645E-02    0.299E-02
DAV:  16    -0.829519293495E+03   -0.86274E-02   -0.49198E-04  1616   0.373E-02    0.224E-02
DAV:  17    -0.829524194781E+03   -0.49013E-02   -0.30638E-04  1576   0.234E-02    0.120E-02
DAV:  18    -0.829526147883E+03   -0.19531E-02   -0.78003E-05  1640   0.137E-02    0.604E-03
DAV:  19    -0.829527239067E+03   -0.10912E-02   -0.40094E-05  1432   0.891E-03    0.398E-03
DAV:  20    -0.829527614882E+03   -0.37581E-03   -0.69247E-06  1400   0.381E-03    0.260E-03
DAV:  21    -0.829527844442E+03   -0.22956E-03   -0.33436E-06  1288   0.289E-03    0.111E-03
DAV:  22    -0.829527905896E+03   -0.61454E-04   -0.35500E-07  1056   0.125E-03    0.768E-04
DAV:  23    -0.829527946851E+03   -0.40955E-04   -0.43007E-07   984   0.104E-03    0.561E-04
DAV:  24    -0.829527960852E+03   -0.14001E-04   -0.10193E-07  1008   0.592E-04    0.296E-04
DAV:  25    -0.829527966061E+03   -0.52080E-05   -0.46378E-08   936   0.472E-04    0.168E-04
DAV:  26    -0.829527970521E+03   -0.44607E-05   -0.34918E-08   912   0.311E-04    0.192E-04
DAV:  27    -0.829527971820E+03   -0.12986E-05   -0.98751E-09   936   0.263E-04    0.862E-05
DAV:  28    -0.829527973828E+03   -0.20082E-05   -0.94889E-09   920   0.171E-04    0.996E-05
DAV:  29    -0.829527974178E+03   -0.34962E-06   -0.26172E-09   968   0.128E-04
   1 F= -.82952797E+03 E0= -.82949050E+03  d E =-.749396E-01
