unknown system                          
            1
    28.050000    0.000000    0.000000
     0.000000    8.100000    0.000000
     0.000000    0.000000   33.500000
   C 
    92
Direct configuration=     1
   0.00374938  0.10043556  0.54994328
   0.00614834  0.27557284  0.54495224
   0.04816791  0.02413296  0.55337015
   0.04985169  0.35984444  0.54516716
   0.09349626  0.10388543  0.55487164
   0.09458431  0.26927901  0.54594328
   0.13957611  0.02087852  0.55384776
   0.13743316  0.35584691  0.54124478
   0.18321569  0.10455346  0.54798209
   0.18045597  0.26931975  0.53939701
   0.22799251  0.02304123  0.54035821
   0.22174082  0.35472099  0.52573134
   0.26811159  0.10540074  0.52534925
   0.26480927  0.27091852  0.51822388
   0.30996827  0.02761012  0.51185970
   0.30470232  0.35316914  0.50149851
   0.35120428  0.11040741  0.49788955
   0.34787594  0.27211605  0.48848358
   0.39221034  0.02925259  0.48685075
   0.39082709  0.35535802  0.47856418
   0.43518360  0.11092198  0.47739104
   0.43438503  0.27415309  0.46867463
   0.48157932  0.03305741  0.47244179
   0.47879144  0.35282222  0.46056716
   0.52638503  0.11082074  0.46790746
   0.52381462  0.27355556  0.45820299
   0.56990374  0.02437346  0.46830149
   0.56897683  0.35641481  0.45413731
   0.61434938  0.10654160  0.46732239
   0.61532620  0.27261605  0.46016716
   0.65748663  0.01524160  0.46804776
   0.65948307  0.35387654  0.45603284
   0.69993583  0.09950580  0.47487463
   0.70296613  0.26845432  0.46437015
   0.74385027  0.01449494  0.48244179
   0.74775758  0.34493333  0.46953134
   0.78435651  0.09773185  0.49651940
   0.78685205  0.26553704  0.48679403
   0.82623173  0.01746975  0.50911045
   0.82952585  0.35213210  0.49662090
   0.86813547  0.10210889  0.51994328
   0.86956506  0.27099753  0.51595522
   0.91062032  0.02482173  0.53046269
   0.91431729  0.35152346  0.52173134
   0.95341533  0.10643938  0.54057313
   0.95531551  0.27699506  0.53587463
   0.00880046  0.60710741  0.52742090
   0.00509693  0.77624321  0.53855522
   0.05137504  0.52246049  0.53410746
   0.04865241  0.85180247  0.54754925
   0.09416720  0.60769383  0.53620299
   0.09448378  0.77368519  0.54278507
   0.13765455  0.52381235  0.53457910
   0.13884421  0.85225802  0.54488358
   0.18082709  0.60227037  0.52909254
   0.18277897  0.77114938  0.53480896
   0.22140677  0.52032346  0.51624776
   0.22596150  0.85075432  0.53431940
   0.26415651  0.61224074  0.51000299
   0.26491480  0.77447407  0.51524478
   0.30438930  0.52338889  0.49794627
   0.30818752  0.85890988  0.50760000
   0.34654724  0.60776790  0.48643582
   0.34808984  0.77567778  0.48866567
   0.39001070  0.52620741  0.47594627
   0.39205348  0.86109630  0.48112537
   0.43466310  0.60783827  0.46562090
   0.43570053  0.77922840  0.46755224
   0.47924064  0.52336543  0.45682985
   0.48003209  0.86342716  0.46295821
   0.52357219  0.60467407  0.45180299
   0.52347237  0.77548148  0.45334328
   0.56992870  0.52079753  0.45090448
   0.57026025  0.85637531  0.45850746
   0.61550089  0.60454444  0.44936418
   0.61628877  0.77379506  0.45225075
   0.65897326  0.52155802  0.45260896
   0.65885561  0.84901235  0.46134030
   0.70336542  0.59973210  0.46167463
   0.70290553  0.76999506  0.46328657
   0.74827807  0.51720494  0.46625672
   0.74515508  0.84364815  0.47798806
   0.79178253  0.60132840  0.47758209
   0.78822103  0.76537037  0.48840896
   0.83398930  0.51811111  0.48998806
   0.82642068  0.85331852  0.50508657
   0.87348307  0.60301481  0.50567463
   0.87045989  0.76760247  0.51544179
   0.91787166  0.51715062  0.51301791
   0.90940107  0.85452963  0.52957313
   0.95752941  0.60403457  0.52474328
   0.95182175  0.76666173  0.53475224
