  92  92   0   0
  0.8273226E+02  0.2805000E-08  0.8100000E-09  0.3350000E-08  0.5000000E-15
   1.0000000000000000E-004
  CAR 
 unknown system                          
      3.77720210    -25.24860691  301     -3.17699359      1.00000000
    -25.249  0.0000E+00  0.0000E+00
    -25.152  0.0000E+00  0.0000E+00
    -25.055  0.0000E+00  0.0000E+00
    -24.958  0.0000E+00  0.0000E+00
    -24.862  0.0000E+00  0.0000E+00
    -24.765  0.0000E+00  0.0000E+00
    -24.668  0.0000E+00  0.0000E+00
    -24.571  0.0000E+00  0.0000E+00
    -24.475  0.0000E+00  0.0000E+00
    -24.378  0.3729E-14  0.3608E-15
    -24.281  0.7588E-12  0.7377E-13
    -24.184  0.9840E-10  0.9594E-11
    -24.088  0.8103E-08  0.7936E-09
    -23.991  0.4249E-06  0.4190E-07
    -23.894  0.1425E-04  0.1420E-05
    -23.797  0.3071E-03  0.3114E-04
    -23.701  0.4286E-02  0.4458E-03
    -23.604  0.3904E-01  0.4223E-02
    -23.507  0.2348E+00  0.2694E-01
    -23.410  0.9478E+00  0.1186E+00
    -23.314  0.2633E+01  0.3734E+00
    -23.217  0.5260E+01  0.8824E+00
    -23.120  0.8078E+01  0.1664E+01
    -23.023  0.1033E+02  0.2663E+01
    -22.927  0.1178E+02  0.3803E+01
    -22.830  0.1285E+02  0.5046E+01
    -22.733  0.1441E+02  0.6441E+01
    -22.636  0.1639E+02  0.8027E+01
    -22.540  0.1699E+02  0.9671E+01
    -22.443  0.1496E+02  0.1112E+02
    -22.346  0.1205E+02  0.1228E+02
    -22.249  0.1090E+02  0.1334E+02
    -22.153  0.1164E+02  0.1447E+02
    -22.056  0.1293E+02  0.1572E+02
    -21.959  0.1395E+02  0.1707E+02
    -21.862  0.1435E+02  0.1845E+02
    -21.766  0.1395E+02  0.1980E+02
    -21.669  0.1306E+02  0.2107E+02
    -21.572  0.1212E+02  0.2224E+02
    -21.475  0.1144E+02  0.2335E+02
    -21.378  0.1135E+02  0.2444E+02
    -21.282  0.1236E+02  0.2564E+02
    -21.185  0.1432E+02  0.2703E+02
    -21.088  0.1614E+02  0.2859E+02
    -20.991  0.1658E+02  0.3019E+02
    -20.895  0.1504E+02  0.3165E+02
    -20.798  0.1252E+02  0.3286E+02
    -20.701  0.1129E+02  0.3395E+02
    -20.604  0.1212E+02  0.3512E+02
    -20.508  0.1339E+02  0.3642E+02
    -20.411  0.1378E+02  0.3775E+02
    -20.314  0.1377E+02  0.3908E+02
    -20.217  0.1425E+02  0.4046E+02
    -20.121  0.1506E+02  0.4192E+02
    -20.024  0.1525E+02  0.4340E+02
    -19.927  0.1463E+02  0.4481E+02
    -19.830  0.1373E+02  0.4614E+02
    -19.734  0.1297E+02  0.4739E+02
    -19.637  0.1348E+02  0.4870E+02
    -19.540  0.1568E+02  0.5022E+02
    -19.443  0.1717E+02  0.5188E+02
    -19.347  0.1595E+02  0.5342E+02
    -19.250  0.1367E+02  0.5474E+02
    -19.153  0.1282E+02  0.5598E+02
    -19.056  0.1341E+02  0.5728E+02
    -18.960  0.1377E+02  0.5861E+02
    -18.863  0.1329E+02  0.5990E+02
    -18.766  0.1307E+02  0.6116E+02
    -18.669  0.1447E+02  0.6256E+02
    -18.573  0.1684E+02  0.6419E+02
    -18.476  0.1803E+02  0.6594E+02
    -18.379  0.1745E+02  0.6763E+02
    -18.282  0.1660E+02  0.6923E+02
    -18.186  0.1685E+02  0.7086E+02
    -18.089  0.1746E+02  0.7255E+02
    -17.992  0.1627E+02  0.7413E+02
    -17.895  0.1354E+02  0.7544E+02
    -17.799  0.1203E+02  0.7660E+02
    -17.702  0.1229E+02  0.7779E+02
    -17.605  0.1226E+02  0.7898E+02
    -17.508  0.1146E+02  0.8008E+02
    -17.412  0.1136E+02  0.8118E+02
    -17.315  0.1221E+02  0.8237E+02
    -17.218  0.1293E+02  0.8362E+02
    -17.121  0.1304E+02  0.8488E+02
    -17.025  0.1235E+02  0.8607E+02
    -16.928  0.1084E+02  0.8712E+02
    -16.831  0.9459E+01  0.8804E+02
    -16.734  0.9569E+01  0.8896E+02
    -16.638  0.1148E+02  0.9007E+02
    -16.541  0.1389E+02  0.9142E+02
    -16.444  0.1549E+02  0.9292E+02
    -16.347  0.1616E+02  0.9448E+02
    -16.251  0.1637E+02  0.9606E+02
    -16.154  0.1667E+02  0.9768E+02
    -16.057  0.1732E+02  0.9935E+02
    -15.960  0.1751E+02  0.1010E+03
    -15.864  0.1630E+02  0.1026E+03
    -15.767  0.1404E+02  0.1040E+03
    -15.670  0.1207E+02  0.1051E+03
    -15.573  0.1124E+02  0.1062E+03
    -15.477  0.1204E+02  0.1074E+03
    -15.380  0.1496E+02  0.1088E+03
    -15.283  0.1891E+02  0.1107E+03
    -15.186  0.2182E+02  0.1128E+03
    -15.090  0.2290E+02  0.1150E+03
    -14.993  0.2217E+02  0.1171E+03
    -14.896  0.1967E+02  0.1191E+03
    -14.799  0.1615E+02  0.1206E+03
    -14.703  0.1265E+02  0.1218E+03
    -14.606  0.9907E+01  0.1228E+03
    -14.509  0.8652E+01  0.1236E+03
    -14.412  0.9248E+01  0.1245E+03
    -14.316  0.1093E+02  0.1256E+03
    -14.219  0.1241E+02  0.1268E+03
    -14.122  0.1346E+02  0.1281E+03
    -14.025  0.1463E+02  0.1295E+03
    -13.929  0.1585E+02  0.1310E+03
    -13.832  0.1670E+02  0.1327E+03
    -13.735  0.1711E+02  0.1343E+03
    -13.638  0.1733E+02  0.1360E+03
    -13.542  0.1760E+02  0.1377E+03
    -13.445  0.1785E+02  0.1394E+03
    -13.348  0.1823E+02  0.1412E+03
    -13.251  0.1886E+02  0.1430E+03
    -13.155  0.1869E+02  0.1448E+03
    -13.058  0.1684E+02  0.1464E+03
    -12.961  0.1473E+02  0.1479E+03
    -12.864  0.1421E+02  0.1492E+03
    -12.768  0.1480E+02  0.1507E+03
    -12.671  0.1480E+02  0.1521E+03
    -12.574  0.1403E+02  0.1535E+03
    -12.477  0.1387E+02  0.1548E+03
    -12.380  0.1515E+02  0.1563E+03
    -12.284  0.1774E+02  0.1580E+03
    -12.187  0.2113E+02  0.1600E+03
    -12.090  0.2393E+02  0.1623E+03
    -11.993  0.2452E+02  0.1647E+03
    -11.897  0.2311E+02  0.1670E+03
    -11.800  0.2118E+02  0.1690E+03
    -11.703  0.1911E+02  0.1709E+03
    -11.606  0.1658E+02  0.1725E+03
    -11.510  0.1468E+02  0.1739E+03
    -11.413  0.1519E+02  0.1753E+03
    -11.316  0.1812E+02  0.1771E+03
    -11.219  0.2179E+02  0.1792E+03
    -11.123  0.2525E+02  0.1817E+03
    -11.026  0.2879E+02  0.1844E+03
    -10.929  0.3205E+02  0.1875E+03
    -10.832  0.3378E+02  0.1908E+03
    -10.736  0.3377E+02  0.1941E+03
    -10.639  0.3349E+02  0.1973E+03
    -10.542  0.3499E+02  0.2007E+03
    -10.445  0.3827E+02  0.2044E+03
    -10.349  0.4014E+02  0.2083E+03
    -10.252  0.3828E+02  0.2120E+03
    -10.155  0.3497E+02  0.2154E+03
    -10.058  0.3347E+02  0.2186E+03
     -9.962  0.3351E+02  0.2219E+03
     -9.865  0.3373E+02  0.2251E+03
     -9.768  0.3473E+02  0.2285E+03
     -9.671  0.3705E+02  0.2321E+03
     -9.575  0.3961E+02  0.2359E+03
     -9.478  0.4127E+02  0.2399E+03
     -9.381  0.4125E+02  0.2439E+03
     -9.284  0.3882E+02  0.2476E+03
     -9.188  0.3461E+02  0.2510E+03
     -9.091  0.3099E+02  0.2540E+03
     -8.994  0.3026E+02  0.2569E+03
     -8.897  0.3233E+02  0.2600E+03
     -8.801  0.3517E+02  0.2634E+03
     -8.704  0.3715E+02  0.2670E+03
     -8.607  0.3760E+02  0.2707E+03
     -8.510  0.3603E+02  0.2742E+03
     -8.414  0.3287E+02  0.2773E+03
     -8.317  0.2977E+02  0.2802E+03
     -8.220  0.2786E+02  0.2829E+03
     -8.123  0.2690E+02  0.2855E+03
     -8.027  0.2619E+02  0.2881E+03
     -7.930  0.2565E+02  0.2905E+03
     -7.833  0.2585E+02  0.2930E+03
     -7.736  0.2719E+02  0.2957E+03
     -7.640  0.2878E+02  0.2985E+03
     -7.543  0.2914E+02  0.3013E+03
     -7.446  0.2839E+02  0.3040E+03
     -7.349  0.2774E+02  0.3067E+03
     -7.253  0.2724E+02  0.3093E+03
     -7.156  0.2642E+02  0.3119E+03
     -7.059  0.2538E+02  0.3143E+03
     -6.962  0.2447E+02  0.3167E+03
     -6.866  0.2424E+02  0.3191E+03
     -6.769  0.2494E+02  0.3215E+03
     -6.672  0.2563E+02  0.3240E+03
     -6.575  0.2504E+02  0.3264E+03
     -6.479  0.2291E+02  0.3286E+03
     -6.382  0.2053E+02  0.3306E+03
     -6.285  0.1991E+02  0.3325E+03
     -6.188  0.2127E+02  0.3346E+03
     -6.092  0.2321E+02  0.3368E+03
     -5.995  0.2485E+02  0.3392E+03
     -5.898  0.2566E+02  0.3417E+03
     -5.801  0.2482E+02  0.3441E+03
     -5.705  0.2208E+02  0.3462E+03
     -5.608  0.1817E+02  0.3480E+03
     -5.511  0.1443E+02  0.3494E+03
     -5.414  0.1179E+02  0.3505E+03
     -5.318  0.1066E+02  0.3516E+03
     -5.221  0.1131E+02  0.3527E+03
     -5.124  0.1260E+02  0.3539E+03
     -5.027  0.1214E+02  0.3550E+03
     -4.931  0.9805E+01  0.3560E+03
     -4.834  0.8292E+01  0.3568E+03
     -4.737  0.9349E+01  0.3577E+03
     -4.640  0.1214E+02  0.3589E+03
     -4.544  0.1507E+02  0.3603E+03
     -4.447  0.1638E+02  0.3619E+03
     -4.350  0.1429E+02  0.3633E+03
     -4.253  0.9495E+01  0.3642E+03
     -4.157  0.5022E+01  0.3647E+03
     -4.060  0.2616E+01  0.3650E+03
     -3.963  0.2015E+01  0.3652E+03
     -3.866  0.2450E+01  0.3654E+03
     -3.770  0.3242E+01  0.3657E+03
     -3.673  0.3881E+01  0.3661E+03
     -3.576  0.4147E+01  0.3665E+03
     -3.479  0.4136E+01  0.3669E+03
     -3.382  0.3889E+01  0.3673E+03
     -3.286  0.3541E+01  0.3676E+03
     -3.189  0.3609E+01  0.3680E+03
     -3.092  0.4289E+01  0.3684E+03
     -2.995  0.5026E+01  0.3689E+03
     -2.899  0.5294E+01  0.3694E+03
     -2.802  0.5512E+01  0.3699E+03
     -2.705  0.6394E+01  0.3705E+03
     -2.608  0.7644E+01  0.3713E+03
     -2.512  0.7992E+01  0.3720E+03
     -2.415  0.6915E+01  0.3727E+03
     -2.318  0.5929E+01  0.3733E+03
     -2.221  0.6572E+01  0.3739E+03
     -2.125  0.7796E+01  0.3747E+03
     -2.028  0.7489E+01  0.3754E+03
     -1.931  0.6108E+01  0.3760E+03
     -1.834  0.6477E+01  0.3766E+03
     -1.738  0.1011E+02  0.3776E+03
     -1.641  0.1545E+02  0.3791E+03
     -1.544  0.1966E+02  0.3810E+03
     -1.447  0.2144E+02  0.3831E+03
     -1.351  0.2120E+02  0.3851E+03
     -1.254  0.1970E+02  0.3870E+03
     -1.157  0.1861E+02  0.3888E+03
     -1.060  0.1896E+02  0.3906E+03
     -0.964  0.1883E+02  0.3925E+03
     -0.867  0.1630E+02  0.3940E+03
     -0.770  0.1260E+02  0.3953E+03
     -0.673  0.1030E+02  0.3963E+03
     -0.577  0.1019E+02  0.3973E+03
     -0.480  0.1114E+02  0.3983E+03
     -0.383  0.1209E+02  0.3995E+03
     -0.286  0.1340E+02  0.4008E+03
     -0.190  0.1561E+02  0.4023E+03
     -0.093  0.1797E+02  0.4040E+03
      0.004  0.1939E+02  0.4059E+03
      0.101  0.2032E+02  0.4079E+03
      0.197  0.2163E+02  0.4100E+03
      0.294  0.2222E+02  0.4121E+03
      0.391  0.2050E+02  0.4141E+03
      0.488  0.1819E+02  0.4159E+03
      0.584  0.1895E+02  0.4177E+03
      0.681  0.2306E+02  0.4199E+03
      0.778  0.2742E+02  0.4226E+03
      0.875  0.3025E+02  0.4255E+03
      0.971  0.3255E+02  0.4287E+03
      1.068  0.3550E+02  0.4321E+03
      1.165  0.3930E+02  0.4359E+03
      1.262  0.4399E+02  0.4402E+03
      1.358  0.4870E+02  0.4449E+03
      1.455  0.5103E+02  0.4498E+03
      1.552  0.4856E+02  0.4545E+03
      1.649  0.4075E+02  0.4584E+03
      1.745  0.2930E+02  0.4613E+03
      1.842  0.1721E+02  0.4629E+03
      1.939  0.7734E+01  0.4637E+03
      2.036  0.2501E+01  0.4639E+03
      2.132  0.5578E+00  0.4640E+03
      2.229  0.8360E-01  0.4640E+03
      2.326  0.8294E-02  0.4640E+03
      2.423  0.5398E-03  0.4640E+03
      2.519  0.2290E-04  0.4640E+03
      2.616  0.6302E-06  0.4640E+03
      2.713  0.1120E-07  0.4640E+03
      2.810  0.1280E-09  0.4640E+03
      2.906  0.9392E-12  0.4640E+03
      3.003  0.3442E-14  0.4640E+03
      3.100  0.0000E+00  0.4640E+03
      3.197  0.0000E+00  0.4640E+03
      3.293  0.0000E+00  0.4640E+03
      3.390  0.0000E+00  0.4640E+03
      3.487  0.0000E+00  0.4640E+03
      3.584  0.0000E+00  0.4640E+03
      3.680  0.0000E+00  0.4640E+03
      3.777  0.0000E+00  0.4640E+03
