 vasp.6.5.0 16Dec24 (build Feb 19 2025 19:45:31) complex                         
 executed on              LinuxNV date 2025.10.25  14:43:59
 running    2 mpi-ranks, on    1 nodes
 distrk:  each k-point on    2 cores,    1 groups
 distr:  one band on NCORE=   1 cores,    2 groups
 Offloading initialized ...    2 GPUs detected


--------------------------------------------------------------------------------------------------------


 INCAR:
   ISTART = 0            (Not Read existing wavefunction
   ISPIN = 1            (Non-Spin polarised DFT, Default\=1)
   ICHARG = 2            (The initial guess charge density is generated by superposition of atomic charge density)
   LREAL = Auto         (Projection operators: automatic)
   ENCUT = 500          (Cut-off energy for plane wave basis set, in eV)
   LWAVE = .FALSE.       (Write WAVECAR or not)
   LCHARG = .FALSE.       (Write CHGCAR or not)
   PREC = Accurate   (Precision level)
   KGAMMA = .TRUE.
   ALGO = Normal
   NSW = 0           (Default: NSW \= 0)
   IBRION = -1           (Ions are not moved)
   ISMEAR = 0
   EDIFF = 1E-06        (SCF energy convergence
   NELM = 150          (Max electronic SCF steps)

 POTCAR:    PAW_PBE C 08Apr2002                   
 POTCAR:    PAW_PBE C 08Apr2002                   
   SHA256 =  253f7b50bb8d59471dbedb8285d89021f4a42ed1a2c5d38a03a736e69125dd95 C/POTCAR              
   COPYR  = (c) Copyright 08Apr2002 Georg Kresse                                                    
   COPYR  = This file is part of the software VASP. Any use, copying, and all other rights are regul
   COPYR  = If you do not have a valid VASP license, you may not use, copy or distribute this file. 
   VRHFIN =C: s2p2                                                                                  
   LEXCH  = PE                                                                                      
   EATOM  =   147.1560 eV,   10.8157 Ry                                                             
                                                                                                    
   TITEL  = PAW_PBE C 08Apr2002                                                                     
   LULTRA =        F    use ultrasoft PP ?                                                          
   IUNSCR =        1    unscreen: 0-lin 1-nonlin 2-no                                               
   RPACOR =    1.200    partial core radius                                                         
   POMASS =   12.011; ZVAL   =    4.000    mass and valenz                                          
   RCORE  =    1.500    outmost cutoff radius                                                       
   RWIGS  =    1.630; RWIGS  =    0.863    wigner-seitz radius (au A)                               
   ENMAX  =  400.000; ENMIN  =  300.000 eV                                                          
   ICORE  =        2    local potential                                                             
   LCOR   =        T    correct aug charges                                                         
   LPAW   =        T    paw PP                                                                      
   EAUG   =  644.873                                                                                
   DEXC   =    0.000                                                                                
   RMAX   =    1.529    core radius for proj-oper                                                   
   RAUG   =    1.300    factor for augmentation sphere                                              
   RDEP   =    1.501    radius for radial grids                                                     
   RDEPT  =    1.300    core radius for aug-charge                                                  
                                                                                                    
   Atomic configuration                                                                             
    4 entries                                                                                       
     n  l   j            E        occ.                                                              
     1  0  0.50      -273.3789   2.0000                                                             
     2  0  0.50       -13.7508   2.0000                                                             
     2  1  0.50        -5.2854   2.0000                                                             
     3  2  1.50        -5.4423   0.0000                                                             
   Description                                                                                      
     l       E           TYP  RCUT    TYP  RCUT                                                     
     0    -13.7508458     23  1.200                                                                 
     0     -8.2022199     23  1.200                                                                 
     1     -5.2854383     23  1.500                                                                 
     1     34.0145650     23  1.500                                                                 
     2     -5.4423304      7  1.500                                                                 
  local pseudopotential read in
  partial core-charges read in
  partial kinetic energy density read in
  atomic valenz-charges read in
  non local Contribution for L=            0  read in
    real space projection operators read in
  non local Contribution for L=            0  read in
    real space projection operators read in
  non local Contribution for L=            1  read in
    real space projection operators read in
  non local Contribution for L=            1  read in
    real space projection operators read in
    PAW grid and wavefunctions read in
 
   number of l-projection  operators is LMAX  =            4
   number of lm-projection operators is LMMAX =            8
 
 Optimization of the real space projectors (new method)

 maximal supplied QI-value         = 25.13
 optimisation between [QCUT,QGAM] = [ 11.31, 22.87] = [ 35.82,146.48] Ry 
 Optimized for a Real-space Cutoff    1.03 Angstroem

   l    n(q)    QCUT    max X(q) W(low)/X(q) W(high)/X(q)  e(spline) 
   0      7    11.310   115.676    0.20E-03    0.90E-03    0.20E-06
   0      7    11.310    87.132    0.20E-03    0.89E-03    0.19E-06
   1      6    11.310     4.429    0.16E-03    0.28E-03    0.12E-06
   1      6    11.310     2.733    0.12E-03    0.21E-03    0.99E-07
  PAW_PBE C 08Apr2002                   :
 energy of atom  1       EATOM= -147.1560
 kinetic energy error for atom=    0.0076 (will be added to EATOM!!)
 
 
 POSCAR:  C
  positions in cartesian coordinates
  No initial velocities read in


 exchange-correlation table for PE
   RHO(1)=    0.500       N(1)  =     2000
   RHO(2)=  100.500       N(2)  =     4000
 


--------------------------------------------------------------------------------------------------------


 ion  position               nearest neighbor table
   1  0.006  0.106  0.525-   2 1.40   3 1.41  45 1.45  46 1.95
   2  0.006  0.278  0.527-   4 1.36   1 1.40  46 1.41  45 2.03
   3  0.049  0.026  0.535-  50 1.36   5 1.40   1 1.41
   4  0.048  0.358  0.536-   2 1.36  49 1.41   6 1.42
   5  0.094  0.101  0.539-   3 1.40   6 1.40   7 1.42
   6  0.092  0.274  0.538-   8 1.37   5 1.40   4 1.42
   7  0.138  0.019  0.547-  54 1.36   9 1.39   5 1.42
   8  0.134  0.360  0.539-  53 1.36   6 1.37  10 1.42
   9  0.180  0.103  0.540-  10 1.39   7 1.39  11 1.45
  10  0.178  0.273  0.535-   9 1.39   8 1.42  12 1.44
  11  0.225  0.021  0.533-  58 1.38  13 1.41   9 1.45
  12  0.222  0.360  0.528-  57 1.35  14 1.40  10 1.44
  13  0.267  0.102  0.521-  14 1.41  11 1.41  15 1.47
  14  0.265  0.276  0.520-  12 1.40  13 1.41  16 1.50
  15  0.312  0.021  0.511-  62 1.39  17 1.41  13 1.47
  16  0.309  0.360  0.506-  61 1.37  18 1.48  14 1.50
  17  0.354  0.104  0.499-  18 1.36  19 1.41  15 1.41
  18  0.354  0.272  0.496-  17 1.36  20 1.42  16 1.48
  19  0.397  0.026  0.489-  66 1.40  21 1.41  17 1.41
  20  0.396  0.354  0.484-  65 1.36  18 1.42  22 1.45
  21  0.439  0.101  0.475-  22 1.37  19 1.41  23 1.41
  22  0.438  0.269  0.470-  21 1.37  24 1.44  20 1.45
  23  0.483  0.017  0.470-  70 1.33  21 1.41  25 1.43
  24  0.481  0.359  0.460-  69 1.39  26 1.42  22 1.44
  25  0.523  0.106  0.455-  26 1.38  23 1.43  27 1.43
  26  0.524  0.276  0.450-  25 1.38  28 1.42  24 1.42
  27  0.568  0.023  0.454-  74 1.39  29 1.42  25 1.43
  28  0.568  0.356  0.444-  73 1.39  26 1.42  30 1.46
  29  0.612  0.099  0.445-  30 1.39  27 1.42  31 1.45
  30  0.613  0.269  0.440-  32 1.38  29 1.39  28 1.46
  31  0.658  0.023  0.454-  33 1.39  78 1.41  29 1.45
  32  0.656  0.352  0.445-  77 1.37  30 1.38  34 1.46
  33  0.701  0.106  0.455-  34 1.36  31 1.39  35 1.46
  34  0.702  0.273  0.451-  33 1.36  36 1.45  32 1.46
  35  0.745  0.016  0.467-  37 1.37  82 1.39  33 1.46
  36  0.745  0.353  0.466-  81 1.38  38 1.39  34 1.45
  37  0.786  0.099  0.475-  35 1.37  38 1.39  39 1.45
  38  0.787  0.271  0.475-  37 1.39  36 1.39  40 1.44
  39  0.827  0.017  0.492-  86 1.37  41 1.44  37 1.45
  40  0.828  0.350  0.492-  42 1.37  85 1.39  38 1.44
  41  0.871  0.102  0.500-  42 1.35  43 1.43  39 1.44
  42  0.870  0.269  0.500-  41 1.35  40 1.37  44 1.44
  43  0.913  0.015  0.512-  90 1.35  45 1.41  41 1.43
  44  0.914  0.349  0.511-  46 1.37  89 1.42  42 1.44
  45  0.955  0.103  0.520-  46 1.39  43 1.41   1 1.45   2 2.03
  46  0.957  0.274  0.519-  44 1.37  45 1.39   2 1.41   1 1.95
  47  0.004  0.614  0.539-  49 1.35  48 1.39  91 1.46  92 1.95
  48  0.003  0.786  0.544-  47 1.39  50 1.40  92 1.45
  49  0.046  0.531  0.541-  47 1.35   4 1.41  51 1.41
  50  0.047  0.867  0.547-   3 1.36  48 1.40  52 1.41
  51  0.091  0.606  0.546-  53 1.40  52 1.40  49 1.41
  52  0.090  0.778  0.550-  51 1.40  50 1.41  54 1.46
  53  0.135  0.525  0.546-   8 1.36  51 1.40  55 1.46
  54  0.138  0.852  0.553-   7 1.36  56 1.39  52 1.46
  55  0.181  0.607  0.544-  57 1.37  56 1.37  53 1.46
  56  0.181  0.774  0.549-  55 1.37  54 1.39  58 1.48
  57  0.223  0.523  0.536-  12 1.35  55 1.37  59 1.46
  58  0.228  0.856  0.542-  11 1.38  60 1.44  56 1.48
  59  0.270  0.601  0.532-  60 1.38  61 1.41  57 1.46
  60  0.272  0.770  0.535-  59 1.38  58 1.44  62 1.44
  61  0.310  0.525  0.515-  16 1.37  59 1.41  63 1.44
  62  0.314  0.853  0.520-  15 1.39  60 1.44  64 1.44
  63  0.355  0.607  0.510-  64 1.36  61 1.44  65 1.46
  64  0.358  0.774  0.509-  63 1.36  66 1.44  62 1.44
  65  0.396  0.516  0.495-  20 1.36  67 1.44  63 1.46
  66  0.401  0.854  0.495-  68 1.38  19 1.40  64 1.44
  67  0.440  0.601  0.487-  68 1.36  69 1.42  65 1.44
  68  0.442  0.769  0.486-  67 1.36  66 1.38  70 1.44
  69  0.482  0.525  0.471-  24 1.39  71 1.40  67 1.42
  70  0.485  0.858  0.479-  23 1.33  72 1.39  68 1.44
  71  0.525  0.603  0.464-  72 1.39  73 1.40  69 1.40
  72  0.527  0.771  0.472-  70 1.39  71 1.39  74 1.41
  73  0.567  0.525  0.452-  75 1.39  28 1.39  71 1.40
  74  0.570  0.855  0.462-  76 1.36  27 1.39  72 1.41
  75  0.612  0.598  0.456-  76 1.37  77 1.38  73 1.39
  76  0.610  0.766  0.457-  74 1.36  75 1.37  78 1.45
  77  0.656  0.517  0.454-  32 1.37  75 1.38  79 1.42
  78  0.655  0.852  0.461-  80 1.39  31 1.41  76 1.45
  79  0.699  0.597  0.464-  81 1.42  77 1.42  80 1.45
  80  0.697  0.773  0.472-  78 1.39  82 1.41  79 1.45
  81  0.742  0.519  0.474-  36 1.38  79 1.42  83 1.45
  82  0.741  0.852  0.479-  35 1.39  80 1.41  84 1.43
  83  0.784  0.601  0.490-  84 1.34  85 1.40  81 1.45
  84  0.782  0.766  0.494-  83 1.34  86 1.40  82 1.43
  85  0.828  0.520  0.497-  40 1.39  83 1.40  87 1.45
  86  0.824  0.853  0.503-  39 1.37  84 1.40  88 1.43
  87  0.869  0.609  0.511-  88 1.35  89 1.41  85 1.45
  88  0.866  0.774  0.516-  87 1.35  90 1.42  86 1.43
  89  0.913  0.524  0.516-  91 1.39  87 1.41  44 1.42
  90  0.910  0.856  0.525-  43 1.35  92 1.42  88 1.42
  91  0.954  0.604  0.528-  92 1.39  89 1.39  47 1.46
  92  0.952  0.772  0.535-  91 1.39  90 1.42  48 1.45  47 1.95
 
  LATTYP: Found a simple orthorhombic cell.
 ALAT       =     8.1000000000
 B/A-ratio  =     3.4629629630
 C/A-ratio  =     4.1358024691
  
  Lattice vectors:
  
 A1 = (   0.0000000000,  -8.1000000000,   0.0000000000)
 A2 = (  28.0500000000,   0.0000000000,   0.0000000000)
 A3 = (   0.0000000000,   0.0000000000,  33.5000000000)


Analysis of symmetry for initial positions (statically):
=====================================================================
 Subroutine PRICEL returns:
 Original cell was already a primitive cell.
 

 Routine SETGRP: Setting up the symmetry group for a 
 simple orthorhombic supercell.


 Subroutine GETGRP returns: Found  1 space group operations
 (whereof  1 operations were pure point group operations)
 out of a pool of  8 trial point group operations.


The static configuration has the point symmetry C_1 .


Analysis of symmetry for dynamics (positions and initial velocities):
=====================================================================
 Subroutine PRICEL returns:
 Original cell was already a primitive cell.
 

 Routine SETGRP: Setting up the symmetry group for a 
 simple orthorhombic supercell.


 Subroutine GETGRP returns: Found  1 space group operations
 (whereof  1 operations were pure point group operations)
 out of a pool of  8 trial point group operations.


The dynamic configuration has the point symmetry C_1 .


 Subroutine INISYM returns: Found  1 space group operations
 (whereof  1 operations are pure point group operations),
 and found     1 'primitive' translations


----------------------------------------------------------------------------------------

                                     Primitive cell                                     

  volume of cell :    7611.3675

  direct lattice vectors                    reciprocal lattice vectors
    28.050000000  0.000000000  0.000000000     0.035650624  0.000000000  0.000000000
     0.000000000  8.100000000  0.000000000     0.000000000  0.123456790  0.000000000
     0.000000000  0.000000000 33.500000000     0.000000000  0.000000000  0.029850746

  length of vectors
    28.050000000  8.100000000 33.500000000     0.035650624  0.123456790  0.029850746

  position of ions in fractional coordinates (direct lattice)
     0.006439002  0.106257531  0.525274627
     0.006149340  0.278353086  0.527364179
     0.049452406  0.026125679  0.534573134
     0.047567201  0.357620988  0.535829851
     0.094039929  0.101006049  0.538731343
     0.092173975  0.274179012  0.537797015
     0.137816399  0.018889012  0.547101493
     0.134274866  0.359553086  0.539005970
     0.180059180  0.103408025  0.540167164
     0.177843494  0.273071605  0.534808955
     0.225104813  0.020918395  0.532934328
     0.221993939  0.359937037  0.527820896
     0.267086631  0.102261852  0.520704478
     0.264718360  0.275814815  0.519898507
     0.312378966  0.020897160  0.511182090
     0.309261319  0.360012346  0.506065672
     0.354309091  0.104212840  0.499394030
     0.353958645  0.272150617  0.496444776
     0.397294118  0.025542716  0.489059701
     0.396178253  0.353696296  0.484310448
     0.439151515  0.101039383  0.474931343
     0.438274510  0.268556790  0.470235821
     0.482737968  0.016728889  0.469889552
     0.480830660  0.358959259  0.460095522
     0.522791444  0.106291975  0.455200000
     0.523900178  0.275935802  0.450361194
     0.567586453  0.022898765  0.453662687
     0.568085561  0.356182716  0.443853731
     0.612292335  0.099099506  0.445373134
     0.613290553  0.268939506  0.440029851
     0.658014260  0.023003827  0.454331343
     0.655928699  0.352262963  0.444540299
     0.701365419  0.105547407  0.455471642
     0.702199643  0.272660494  0.450823881
     0.744588235  0.016303704  0.467143284
     0.744983957  0.353006173  0.465686567
     0.785957219  0.099415432  0.475110448
     0.786844920  0.270581481  0.475095522
     0.827023173  0.016569136  0.492074627
     0.828402852  0.350477778  0.491656716
     0.871158645  0.102185309  0.499731343
     0.869967914  0.268606173  0.500373134
     0.912919786  0.014633580  0.512408955
     0.913975045  0.349408642  0.511232836
     0.955130125  0.102972346  0.520382090
     0.956919786  0.273932099  0.518734328
     0.004451658  0.614453086  0.539292537
     0.002827961  0.785625926  0.543641791
     0.046033155  0.530661728  0.540802985
     0.046889483  0.866849383  0.547062687
     0.091039216  0.606033333  0.546441791
     0.090012121  0.778428395  0.550000000
     0.135011765  0.524862963  0.545746269
     0.137518717  0.852366667  0.552549254
     0.181445989  0.606567901  0.543982090
     0.181457754  0.774365432  0.549367164
     0.222850267  0.523146914  0.535934328
     0.227844920  0.855635802  0.542026866
     0.269514795  0.601188889  0.532402985
     0.271996791  0.770461728  0.535161194
     0.309850980  0.525360494  0.515122388
     0.313841355  0.853432099  0.520465672
     0.354884135  0.606628395  0.509507463
     0.357650624  0.774302469  0.508504478
     0.396285205  0.515518519  0.495122388
     0.400613191  0.854420988  0.495256716
     0.440128342  0.600982716  0.486853731
     0.441582888  0.769043210  0.486179104
     0.481518717  0.524923457  0.470773134
     0.485311943  0.857956790  0.479310448
     0.525258467  0.602708642  0.464271642
     0.526887701  0.770945679  0.471773134
     0.567336898  0.524656790  0.452468657
     0.569643494  0.855092593  0.462459701
     0.612117647  0.597700000  0.456483582
     0.610270945  0.766422222  0.457026866
     0.655515152  0.516997531  0.454391045
     0.655458111  0.851686420  0.460638806
     0.699048128  0.597487654  0.463773134
     0.697340463  0.772966667  0.471844776
     0.742278075  0.518838272  0.474414925
     0.741336898  0.851649383  0.478608955
     0.784270945  0.600854321  0.489692537
     0.782078431  0.765903704  0.493644776
     0.827757576  0.520279012  0.496638806
     0.823565062  0.853481481  0.503071642
     0.869147950  0.609083951  0.511056716
     0.866402852  0.774014815  0.515659701
     0.912791444  0.524301235  0.515519403
     0.909900178  0.856323457  0.524570149
     0.954067736  0.603922222  0.528149254
     0.952303030  0.772453086  0.535292537

  ion indices of the primitive-cell ions
   primitive index   ion index
                 1           1
                 2           2
                 3           3
                 4           4
                 5           5
                 6           6
                 7           7
                 8           8
                 9           9
                10          10
                11          11
                12          12
                13          13
                14          14
                15          15
                16          16
                17          17
                18          18
                19          19
                20          20
                21          21
                22          22
                23          23
                24          24
                25          25
                26          26
                27          27
                28          28
                29          29
                30          30
                31          31
                32          32
                33          33
                34          34
                35          35
                36          36
                37          37
                38          38
                39          39
                40          40
                41          41
                42          42
                43          43
                44          44
                45          45
                46          46
                47          47
                48          48
                49          49
                50          50
                51          51
                52          52
                53          53
                54          54
                55          55
                56          56
                57          57
                58          58
                59          59
                60          60
                61          61
                62          62
                63          63
                64          64
                65          65
                66          66
                67          67
                68          68
                69          69
                70          70
                71          71
                72          72
                73          73
                74          74
                75          75
                76          76
                77          77
                78          78
                79          79
                80          80
                81          81
                82          82
                83          83
                84          84
                85          85
                86          86
                87          87
                88          88
                89          89
                90          90
                91          91
                92          92

----------------------------------------------------------------------------------------

 
 
 KPOINTS: K-Spacing Value to Generate K-Mesh: 0.03

Automatic generation of k-mesh.
 Grid dimensions read from file:
 generate k-points for:    1    4    1

 Generating k-lattice:

  Cartesian coordinates                     Fractional coordinates (reciprocal lattice)
     0.035650624  0.000000000  0.000000000     1.000000000  0.000000000  0.000000000
     0.000000000  0.030864198  0.000000000     0.000000000  0.250000000  0.000000000
     0.000000000  0.000000000  0.029850746     0.000000000  0.000000000  1.000000000

  Length of vectors
     0.035650624  0.030864198  0.029850746

  Shift w.r.t. Gamma in fractional coordinates (k-lattice)
     0.000000000  0.000000000  0.000000000

 
 Subroutine IBZKPT returns following result:
 ===========================================
 
 Found      3 irreducible k-points:
 
 Following reciprocal coordinates:
            Coordinates               Weight
  0.000000  0.000000  0.000000      1.000000
  0.000000  0.250000  0.000000      2.000000
  0.000000  0.500000  0.000000      1.000000
 
 Following cartesian coordinates:
            Coordinates               Weight
  0.000000  0.000000  0.000000      1.000000
  0.000000  0.030864  0.000000      2.000000
  0.000000  0.061728  0.000000      1.000000
 


--------------------------------------------------------------------------------------------------------




 Dimension of arrays:
   k-points           NKPTS =      3   k-points in BZ     NKDIM =      3   number of bands    NBANDS=    232
   number of dos      NEDOS =    301   number of ions     NIONS =     92
   non local maximal  LDIM  =      4   non local SUM 2l+1 LMDIM =      8
   total plane-waves  NPLWV = ******
   max r-space proj   IRMAX =   1967   max aug-charges    IRDMAX=   5083
   dimension x,y,z NGX =   210 NGY =   60 NGZ =  250
   dimension x,y,z NGXF=   420 NGYF=  120 NGZF=  500
   support grid    NGXF=   420 NGYF=  120 NGZF=  500
   ions per type =              92
   NGX,Y,Z   is equivalent  to a cutoff of  12.45, 12.31, 12.41 a.u.
   NGXF,Y,Z  is equivalent  to a cutoff of  24.89, 24.63, 24.81 a.u.

 SYSTEM =  unknown system                          
 POSCAR =   C                                      

 Startparameter for this run:
   NWRITE =      2    write-flag & timer
   PREC   = accura    normal or accurate (medium, high low for compatibility)
   ISTART =      0    job   : 0-new  1-cont  2-samecut
   ICHARG =      2    charge: 1-file 2-atom 10-const
   ISPIN  =      1    spin polarized calculation?
   LNONCOLLINEAR =      F non collinear calculations
   LSORBIT =      F    spin-orbit coupling
   INIWAV =      1    electr: 0-lowe 1-rand  2-diag
   LASPH  =      F    aspherical Exc in radial PAW
 Electronic Relaxation 1
   ENCUT  =  500.0 eV  36.75 Ry    6.06 a.u.  51.14 14.77 61.08*2*pi/ulx,y,z
   ENINI  =  500.0     initial cutoff
   ENAUG  =  644.9 eV  augmentation charge cutoff
   NELM   =    150;   NELMIN=  2; NELMDL= -5     # of ELM steps 
   EDIFF  = 0.1E-05   stopping-criterion for ELM
   LREAL  =      T    real-space projection
   NLSPLINE    = F    spline interpolate recip. space projectors
   LCOMPAT=      F    compatible to vasp.4.4
   GGA_COMPAT  = T    GGA compatible to vasp.4.4-vasp.4.6
   LMAXPAW     = -100 max onsite density
   LMAXMIX     =    2 max onsite mixed and CHGCAR
   VOSKOWN=      0    Vosko Wilk Nusair interpolation
   ROPT   =   -0.00025
 Ionic relaxation
   EDIFFG = 0.1E-04   stopping-criterion for IOM
   NSW    =      0    number of steps for IOM
   NBLOCK =      1;   KBLOCK =      1    inner block; outer block 
   IBRION =     -1    ionic relax: 0-MD 1-quasi-New 2-CG
   NFREE  =      0    steps in history (QN), initial steepest desc. (CG)
   ISIF   =      2    stress and relaxation
   IWAVPR =     10    prediction:  0-non 1-charg 2-wave 3-comb
   ISYM   =      2    0-nonsym 1-usesym 2-fastsym
   LCORR  =      T    Harris-Foulkes like correction to forces

   POTIM  = 0.5000    time-step for ionic-motion
   TEIN   =    0.0    initial temperature
   TEBEG  =    0.0;   TEEND  =   0.0 temperature during run
   SMASS  =  -3.00    Nose mass-parameter (am)
   estimated Nose-frequenzy (Omega)   =  0.10E-29 period in steps = 0.13E+47 mass=  -0.180E-25a.u.
   SCALEE = 1.0000    scale energy and forces
   NPACO  =    256;   APACO  = 10.0  distance and # of slots for P.C.
   PSTRESS=    0.0 pullay stress

  Mass of Ions in am
   POMASS =  12.01
  Ionic Valenz
   ZVAL   =   4.00
  Atomic Wigner-Seitz radii
   RWIGS  =  -1.00
  virtual crystal weights 
   VCA    =   1.00
   NELECT =     368.0000    total number of electrons
   NUPDOWN=      -1.0000    fix difference up-down

 DOS related values:
   EMIN   =  10.00;   EMAX   =-10.00  energy-range for DOS
   EFERMI =   0.00;   METHOD = LEGACY      
   ISMEAR =     0;   SIGMA  =   0.20  broadening in eV -4-tet -1-fermi 0-gaus
   EFERMI_NEDOS =   21; number of points for ismear=-14 and -15

 Electronic relaxation 2 (details)
   IALGO  =     38    algorithm
   LDIAG  =      T    sub-space diagonalisation (order eigenvalues)
   LSUBROT=      F    optimize rotation matrix (better conditioning)
   TURBO    =      0    0=normal 1=particle mesh
   IRESTART =      0    0=no restart 2=restart with 2 vectors
   NREBOOT  =      0    no. of reboots
   NMIN     =      0    reboot dimension
   EREF     =   0.00    reference energy to select bands
   IMIX   =      4    mixing-type and parameters
     AMIX     =   0.40;   BMIX     =  1.00
     AMIX_MAG =   1.60;   BMIX_MAG =  1.00
     AMIN     =   0.10
     WC   =   100.;   INIMIX=   1;  MIXPRE=   1;  MAXMIX= -45

 Intra band minimization:
   WEIMIN = 0.0000     energy-eigenvalue tresh-hold
   EBREAK =  0.11E-08  absolut break condition
   DEPER  =   0.30     relativ break condition  

   TIME   =   0.40     timestep for ELM

  volume/ion in A,a.u.               =      82.73       558.30
  Fermi-wavevector in a.u.,A,eV,Ry     =   0.596398  1.127030  4.839472  0.355691
  Thomas-Fermi vector in A             =   1.646729
 
 Write flags
   LWAVE        =      F    write WAVECAR
   LDOWNSAMPLE  =      F    k-point downsampling of WAVECAR
   LCHARG       =      F    write CHGCAR
   LVTOT        =      F    write LOCPOT, total local potential
   LVHAR        =      F    write LOCPOT, Hartree potential only
   WRT_POTENTIAL= false  ! write potential to hdf5 file
   LELF         =      F    write electronic localiz. function (ELF)
   LORBIT       =      0    0 simple, 1 ext, 2 COOP (PROOUT), +10 PAW based schemes


 Python interface
   PLUGINS active      =      F    recompile with -DPLUGINS to activate
 
 Dipole corrections
   LMONO      =      F    monopole corrections only (constant potential shift)
   LDIPOL     =      F    correct potential (dipole corrections)
   IDIPOL     =      0    1-x, 2-y, 3-z, 4-all directions 
   EPSILON    =  1.0000000 bulk dielectric constant
   LVACPOTAV  =      F  vacuum potentials using an averaging scheme for the charge density
   VACPOTFLAT =  0.1000000 required flatness to determine vacuum potential
 
Coulomb truncation method
  LTRUNCATE          =      F  Coulomb kernel truncation to be used
  IDIMENSIONALITY    =      3  Dimensionality of cutoff (0 molecules / 2 surfaces)
  ISURFACE           =     -1  Direction of surface normal
  LCOARSEN           =      F  Coarsen the charge grid before padding, preferred

 
 Exchange correlation treatment:
   GGA     = PE    functional components
   XC_C    = 1    coefficients multiplying the functional components
   LIBXC   =     F    Libxc                    
   VOSKOWN =     0    Vosko Wilk Nusair interpolation
   LHFCALC =     F    Hartree Fock is set to
   LHFONE  =     F    Hartree Fock one center treatment
   AEXX    =    0.0000 exact exchange contribution

 Parameters of functionals:
   PE:
     No parameter
 
 Van der Waals corrections
   IVDW    =     0    specifies the selected vdW correction

 Linear response parameters
   LEPSILON=     F    determine dielectric tensor
   LRPA    =     F    only Hartree local field effects (RPA)
   LNABLA  =     F    use nabla operator in PAW spheres
   LVEL    =     F    velocity operator in full k-point grid
   CSHIFT  =0.1000    complex shift for real part using Kramers Kronig
   OMEGAMAX=  -1.0    maximum frequency
   DEG_THRESHOLD= 0.2000000E-02 threshold for treating states as degnerate
   RTIME   =   -0.100 relaxation time in fs
  (WPLASMAI=    0.000 imaginary part of plasma frequency in eV, 0.658/RTIME)
   DFIELD  = 0.0000000 0.0000000 0.0000000 field for delta impulse in time
 
  Optional k-point grid parameters
   LKPOINTS_OPT  =     F    use optional k-point grid
   KPOINTS_OPT_MODE=     1    mode for optional k-point grid
 
 Orbital magnetization related:
   ORBITALMAG=     F  switch on orbital magnetization
   LCHIMAG   =     F  perturbation theory with respect to B field
   DQ        =  0.001000  dq finite difference perturbation B field
   LLRAUG    =     F  two centre corrections for induced B field
   LBONE     =     F  B-component reconstruction in AE one-centre
   LVGVCALC  =     T  calculate vGv susceptibility
   LVGVAPPL  =     F  apply vGv susceptibility instead of pGv for G=0

 Random number generation:
   RANDOM_GENERATOR = DEFAULT
   PCG_SEED         = not used


--------------------------------------------------------------------------------------------------------


 Static calculation
 charge density and potential will be updated during run
 non-spin polarized calculation
 Variant of blocked Davidson
 Davidson routine will perform the subspace rotation
 perform sub-space diagonalisation
    after iterative eigenvector-optimisation
 modified Broyden-mixing scheme, WC =      100.0
 initial mixing is a Kerker type mixing with AMIX =  0.4000 and BMIX =      1.0000
 Hartree-type preconditioning will be used
 using additional bands            48
 real space projection scheme for non local part
 use partial core corrections
 calculate Harris-corrections to forces 
   (improved forces if not selfconsistent)
 use gradient corrections 
 use of overlap-Matrix (Vanderbilt PP)
 Gauss-broadening in eV      SIGMA  =   0.20


--------------------------------------------------------------------------------------------------------


  energy-cutoff  :      500.00
  volume of cell :     7611.37
      direct lattice vectors                 reciprocal lattice vectors
    28.050000000  0.000000000  0.000000000     0.035650624  0.000000000  0.000000000
     0.000000000  8.100000000  0.000000000     0.000000000  0.123456790  0.000000000
     0.000000000  0.000000000 33.500000000     0.000000000  0.000000000  0.029850746

  length of vectors
    28.050000000  8.100000000 33.500000000     0.035650624  0.123456790  0.029850746


 
 k-points in units of 2pi/SCALE and weight: K-Spacing Value to Generate K-Mesh: 0.03
   0.00000000  0.00000000  0.00000000       0.250
   0.00000000  0.03086420  0.00000000       0.500
   0.00000000  0.06172840  0.00000000       0.250
 
 k-points in reciprocal lattice and weights: K-Spacing Value to Generate K-Mesh: 0.03
   0.00000000  0.00000000  0.00000000       0.250
   0.00000000  0.25000000  0.00000000       0.500
   0.00000000  0.50000000  0.00000000       0.250
 
 position of ions in fractional coordinates (direct lattice) 
   0.00643900  0.10625753  0.52527463
   0.00614934  0.27835309  0.52736418
   0.04945241  0.02612568  0.53457313
   0.04756720  0.35762099  0.53582985
   0.09403993  0.10100605  0.53873134
   0.09217398  0.27417901  0.53779701
   0.13781640  0.01888901  0.54710149
   0.13427487  0.35955309  0.53900597
   0.18005918  0.10340802  0.54016716
   0.17784349  0.27307160  0.53480896
   0.22510481  0.02091840  0.53293433
   0.22199394  0.35993704  0.52782090
   0.26708663  0.10226185  0.52070448
   0.26471836  0.27581481  0.51989851
   0.31237897  0.02089716  0.51118209
   0.30926132  0.36001235  0.50606567
   0.35430909  0.10421284  0.49939403
   0.35395865  0.27215062  0.49644478
   0.39729412  0.02554272  0.48905970
   0.39617825  0.35369630  0.48431045
   0.43915152  0.10103938  0.47493134
   0.43827451  0.26855679  0.47023582
   0.48273797  0.01672889  0.46988955
   0.48083066  0.35895926  0.46009552
   0.52279144  0.10629198  0.45520000
   0.52390018  0.27593580  0.45036119
   0.56758645  0.02289877  0.45366269
   0.56808556  0.35618272  0.44385373
   0.61229234  0.09909951  0.44537313
   0.61329055  0.26893951  0.44002985
   0.65801426  0.02300383  0.45433134
   0.65592870  0.35226296  0.44454030
   0.70136542  0.10554741  0.45547164
   0.70219964  0.27266049  0.45082388
   0.74458824  0.01630370  0.46714328
   0.74498396  0.35300617  0.46568657
   0.78595722  0.09941543  0.47511045
   0.78684492  0.27058148  0.47509552
   0.82702317  0.01656914  0.49207463
   0.82840285  0.35047778  0.49165672
   0.87115865  0.10218531  0.49973134
   0.86996791  0.26860617  0.50037313
   0.91291979  0.01463358  0.51240896
   0.91397504  0.34940864  0.51123284
   0.95513012  0.10297235  0.52038209
   0.95691979  0.27393210  0.51873433
   0.00445166  0.61445309  0.53929254
   0.00282796  0.78562593  0.54364179
   0.04603316  0.53066173  0.54080299
   0.04688948  0.86684938  0.54706269
   0.09103922  0.60603333  0.54644179
   0.09001212  0.77842840  0.55000000
   0.13501176  0.52486296  0.54574627
   0.13751872  0.85236667  0.55254925
   0.18144599  0.60656790  0.54398209
   0.18145775  0.77436543  0.54936716
   0.22285027  0.52314691  0.53593433
   0.22784492  0.85563580  0.54202687
   0.26951480  0.60118889  0.53240299
   0.27199679  0.77046173  0.53516119
   0.30985098  0.52536049  0.51512239
   0.31384135  0.85343210  0.52046567
   0.35488414  0.60662840  0.50950746
   0.35765062  0.77430247  0.50850448
   0.39628520  0.51551852  0.49512239
   0.40061319  0.85442099  0.49525672
   0.44012834  0.60098272  0.48685373
   0.44158289  0.76904321  0.48617910
   0.48151872  0.52492346  0.47077313
   0.48531194  0.85795679  0.47931045
   0.52525847  0.60270864  0.46427164
   0.52688770  0.77094568  0.47177313
   0.56733690  0.52465679  0.45246866
   0.56964349  0.85509259  0.46245970
   0.61211765  0.59770000  0.45648358
   0.61027094  0.76642222  0.45702687
   0.65551515  0.51699753  0.45439104
   0.65545811  0.85168642  0.46063881
   0.69904813  0.59748765  0.46377313
   0.69734046  0.77296667  0.47184478
   0.74227807  0.51883827  0.47441493
   0.74133690  0.85164938  0.47860896
   0.78427094  0.60085432  0.48969254
   0.78207843  0.76590370  0.49364478
   0.82775758  0.52027901  0.49663881
   0.82356506  0.85348148  0.50307164
   0.86914795  0.60908395  0.51105672
   0.86640285  0.77401481  0.51565970
   0.91279144  0.52430123  0.51551940
   0.90990018  0.85632346  0.52457015
   0.95406774  0.60392222  0.52814925
   0.95230303  0.77245309  0.53529254
 
 position of ions in cartesian coordinates  (Angst):
   0.18061400  0.86068600 17.59670000
   0.17248900  2.25466000 17.66670000
   1.38714000  0.21161800 17.90820000
   1.33426000  2.89673000 17.95030000
   2.63782000  0.81814900 18.04750000
   2.58548000  2.22085000 18.01620000
   3.86575000  0.15300100 18.32790000
   3.76641000  2.91238000 18.05670000
   5.05066000  0.83760500 18.09560000
   4.98851000  2.21188000 17.91610000
   6.31419000  0.16943900 17.85330000
   6.22693000  2.91549000 17.68200000
   7.49178000  0.82832100 17.44360000
   7.42535000  2.23410000 17.41660000
   8.76223000  0.16926700 17.12460000
   8.67478000  2.91610000 16.95320000
   9.93837000  0.84412400 16.72970000
   9.92854000  2.20442000 16.63090000
  11.14410000  0.20689600 16.38350000
  11.11280000  2.86494000 16.22440000
  12.31820000  0.81841900 15.91020000
  12.29360000  2.17531000 15.75290000
  13.54080000  0.13550400 15.74130000
  13.48730000  2.90757000 15.41320000
  14.66430000  0.86096500 15.24920000
  14.69540000  2.23508000 15.08710000
  15.92080000  0.18548000 15.19770000
  15.93480000  2.88508000 14.86910000
  17.17480000  0.80270600 14.92000000
  17.20280000  2.17841000 14.74100000
  18.45730000  0.18633100 15.22010000
  18.39880000  2.85333000 14.89210000
  19.67330000  0.85493400 15.25830000
  19.69670000  2.20855000 15.10260000
  20.88570000  0.13206000 15.64930000
  20.89680000  2.85935000 15.60050000
  22.04610000  0.80526500 15.91620000
  22.07100000  2.19171000 15.91570000
  23.19800000  0.13421000 16.48450000
  23.23670000  2.83887000 16.47050000
  24.43600000  0.82770100 16.74100000
  24.40260000  2.17571000 16.76250000
  25.60740000  0.11853200 17.16570000
  25.63700000  2.83021000 17.12630000
  26.79140000  0.83407600 17.43280000
  26.84160000  2.21885000 17.37760000
   0.12486900  4.97707000 18.06630000
   0.07932430  6.36357000 18.21200000
   1.29123000  4.29836000 18.11690000
   1.31525000  7.02148000 18.32660000
   2.55365000  4.90887000 18.30580000
   2.52484000  6.30527000 18.42500000
   3.78708000  4.25139000 18.28250000
   3.85740000  6.90417000 18.51040000
   5.08956000  4.91320000 18.22340000
   5.08989000  6.27236000 18.40380000
   6.25095000  4.23749000 17.95380000
   6.39105000  6.93065000 18.15790000
   7.55989000  4.86963000 17.83550000
   7.62951000  6.24074000 17.92790000
   8.69132000  4.25542000 17.25660000
   8.80325000  6.91280000 17.43560000
   9.95450000  4.91369000 17.06850000
  10.03210000  6.27185000 17.03490000
  11.11580000  4.17570000 16.58660000
  11.23720000  6.92081000 16.59110000
  12.34560000  4.86796000 16.30960000
  12.38640000  6.22925000 16.28700000
  13.50660000  4.25188000 15.77090000
  13.61300000  6.94945000 16.05690000
  14.73350000  4.88194000 15.55310000
  14.77920000  6.24466000 15.80440000
  15.91380000  4.24972000 15.15770000
  15.97850000  6.92625000 15.49240000
  17.16990000  4.84137000 15.29220000
  17.11810000  6.20802000 15.31040000
  18.38720000  4.18768000 15.22210000
  18.38560000  6.89866000 15.43140000
  19.60830000  4.83965000 15.53640000
  19.56040000  6.26103000 15.80680000
  20.82090000  4.20259000 15.89290000
  20.79450000  6.89836000 16.03340000
  21.99880000  4.86692000 16.40470000
  21.93730000  6.20382000 16.53710000
  23.21860000  4.21426000 16.63740000
  23.10100000  6.91320000 16.85290000
  24.37960000  4.93358000 17.12040000
  24.30260000  6.26952000 17.27460000
  25.60380000  4.24684000 17.26990000
  25.52270000  6.93622000 17.57310000
  26.76160000  4.89177000 17.69300000
  26.71210000  6.25687000 17.93230000
 


--------------------------------------------------------------------------------------------------------


 k-point     1 :   0.0000 0.0000 0.0000  plane waves:  193173
 k-point     2 :   0.0000 0.2500 0.0000  plane waves:  193166
 k-point     3 :   0.0000 0.5000 0.0000  plane waves:  193226

 maximum and minimum number of plane-waves per node :    193226   193166

 maximum number of plane-waves:    193226
 maximum index in each direction: 
   IXMAX=   51   IYMAX=   14   IZMAX=   61
   IXMIN=  -51   IYMIN=  -15   IZMIN=  -61


 serial   3D FFT for wavefunctions
 parallel 3D FFT for charge:
    minimum data exchange during FFTs selected (reduces bandwidth)


 total amount of memory used by VASP MPI-rank0  2294524. kBytes
=======================================================================

   base                                    :      30000. kBytes
   nonlr-proj                              :      15090. kBytes
   fftplans                                :     436558. kBytes
   grid                                    :     732614. kBytes
   one-center                              :        282. kBytes
   wavefun                                 :    1079980. kBytes
 
     INWAV:  cpu time      0.0000: real time      0.0000
 Broyden mixing: mesh for mixing (old mesh)
   NGX =103   NGY = 29   NGZ =123
  (NGX  =420   NGY  =120   NGZ  =500)
  gives a total of 367401 points

 initial charge density was supplied:
 charge density of overlapping atoms calculated
 number of electron     368.0000000 magnetization 
 keeping initial charge density in first step


--------------------------------------------------------------------------------------------------------


 Maximum index for non-local projection operator          1873
 Maximum index for augmentation-charges          2388 (set IRDMAX)


--------------------------------------------------------------------------------------------------------


 First call to EWALD:  gamma=   0.090
 Maximum number of real-space cells   2x   6x   2
 Maximum number of reciprocal cells   4x   1x   4

    FEWALD:  cpu time      0.1580: real time      0.1580


--------------------------------------- Ionic step        1  -------------------------------------------




--------------------------------------- Iteration      1(   1)  ---------------------------------------


    POTLOK:  cpu time      0.4193: real time      0.4355
    SETDIJ:  cpu time      0.0397: real time      0.0397
     EDDAV:  cpu time     11.1933: real time     11.2004
       DOS:  cpu time      0.0008: real time      0.0008
    --------------------------------------------
      LOOP:  cpu time     11.6530: real time     11.6763

 eigenvalue-minimisations  :  1736
 total energy-change (2. order) : 0.3614681E+04  (-0.1197576E+05)
 number of electron     368.0000000 magnetization 
 augmentation part      368.0000000 magnetization 

 Free energy of the ion-electron system (eV)
  ---------------------------------------------------
  alpha Z        PSCENC =        91.34886789
  Ewald energy   TEWEN  =    119656.95291667
  -Hartree energ DENC   =   -128993.21072680
  -exchange      EXHF   =         0.00000000
  -V(xc)+E(xc)   XCENC  =      1220.81035869
  PAW double counting   =      9984.02826696   -10036.41360137
  entropy T*S    EENTRO =        -0.82679589
  eigenvalues    EBANDS =     -1845.66318656
  atomic energy  EATOM  =     13537.65479391
  Solvation  Ediel_sol  =         0.00000000
  ---------------------------------------------------
  free energy    TOTEN  =      3614.68089350 eV

  energy without entropy =     3615.50768939  energy(sigma->0) =     3615.09429145


--------------------------------------------------------------------------------------------------------




--------------------------------------- Iteration      1(   2)  ---------------------------------------


     EDDAV:  cpu time     13.0924: real time     13.0984
       DOS:  cpu time      0.0007: real time      0.0007
    --------------------------------------------
      LOOP:  cpu time     13.0931: real time     13.0990

 eigenvalue-minimisations  :  2136
 total energy-change (2. order) :-0.3443296E+04  (-0.3193599E+04)
 number of electron     368.0000000 magnetization 
 augmentation part      368.0000000 magnetization 

 Free energy of the ion-electron system (eV)
  ---------------------------------------------------
  alpha Z        PSCENC =        91.34886789
  Ewald energy   TEWEN  =    119656.95291667
  -Hartree energ DENC   =   -128993.21072680
  -exchange      EXHF   =         0.00000000
  -V(xc)+E(xc)   XCENC  =      1220.81035869
  PAW double counting   =      9984.02826696   -10036.41360137
  entropy T*S    EENTRO =        -0.18159475
  eigenvalues    EBANDS =     -5289.60394469
  atomic energy  EATOM  =     13537.65479391
  Solvation  Ediel_sol  =         0.00000000
  ---------------------------------------------------
  free energy    TOTEN  =       171.38533651 eV

  energy without entropy =      171.56693126  energy(sigma->0) =      171.47613389


--------------------------------------------------------------------------------------------------------




--------------------------------------- Iteration      1(   3)  ---------------------------------------


     EDDAV:  cpu time     11.2170: real time     11.2232
       DOS:  cpu time      0.0007: real time      0.0007
    --------------------------------------------
      LOOP:  cpu time     11.2176: real time     11.2239

 eigenvalue-minimisations  :  1776
 total energy-change (2. order) :-0.1003879E+04  (-0.9804029E+03)
 number of electron     368.0000000 magnetization 
 augmentation part      368.0000000 magnetization 

 Free energy of the ion-electron system (eV)
  ---------------------------------------------------
  alpha Z        PSCENC =        91.34886789
  Ewald energy   TEWEN  =    119656.95291667
  -Hartree energ DENC   =   -128993.21072680
  -exchange      EXHF   =         0.00000000
  -V(xc)+E(xc)   XCENC  =      1220.81035869
  PAW double counting   =      9984.02826696   -10036.41360137
  entropy T*S    EENTRO =        -0.02281537
  eigenvalues    EBANDS =     -6293.64221263
  atomic energy  EATOM  =     13537.65479391
  Solvation  Ediel_sol  =         0.00000000
  ---------------------------------------------------
  free energy    TOTEN  =      -832.49415204 eV

  energy without entropy =     -832.47133667  energy(sigma->0) =     -832.48274436


--------------------------------------------------------------------------------------------------------




--------------------------------------- Iteration      1(   4)  ---------------------------------------


     EDDAV:  cpu time     11.1066: real time     11.1108
       DOS:  cpu time      0.0006: real time      0.0007
    --------------------------------------------
      LOOP:  cpu time     11.1073: real time     11.1114

 eigenvalue-minimisations  :  1744
 total energy-change (2. order) :-0.6255724E+02  (-0.6140158E+02)
 number of electron     368.0000000 magnetization 
 augmentation part      368.0000000 magnetization 

 Free energy of the ion-electron system (eV)
  ---------------------------------------------------
  alpha Z        PSCENC =        91.34886789
  Ewald energy   TEWEN  =    119656.95291667
  -Hartree energ DENC   =   -128993.21072680
  -exchange      EXHF   =         0.00000000
  -V(xc)+E(xc)   XCENC  =      1220.81035869
  PAW double counting   =      9984.02826696   -10036.41360137
  entropy T*S    EENTRO =        -0.06010542
  eigenvalues    EBANDS =     -6356.16216015
  atomic energy  EATOM  =     13537.65479391
  Solvation  Ediel_sol  =         0.00000000
  ---------------------------------------------------
  free energy    TOTEN  =      -895.05138962 eV

  energy without entropy =     -894.99128420  energy(sigma->0) =     -895.02133691


--------------------------------------------------------------------------------------------------------




--------------------------------------- Iteration      1(   5)  ---------------------------------------


     EDDAV:  cpu time     11.1627: real time     11.1667
       DOS:  cpu time      0.0007: real time      0.0007
    CHARGE:  cpu time      1.2111: real time      1.2120
    MIXING:  cpu time      0.2752: real time      0.2752
    --------------------------------------------
      LOOP:  cpu time     12.6496: real time     12.6546

 eigenvalue-minimisations  :  1760
 total energy-change (2. order) :-0.1564618E+01  (-0.1540111E+01)
 number of electron     368.0000008 magnetization 
 augmentation part       10.1266998 magnetization 

 Broyden mixing:
  rms(total) = 0.45308E+01    rms(broyden)= 0.45302E+01
  rms(prec ) = 0.46476E+01
  weight for this iteration     100.00

 Free energy of the ion-electron system (eV)
  ---------------------------------------------------
  alpha Z        PSCENC =        91.34886789
  Ewald energy   TEWEN  =    119656.95291667
  -Hartree energ DENC   =   -128993.21072680
  -exchange      EXHF   =         0.00000000
  -V(xc)+E(xc)   XCENC  =      1220.81035869
  PAW double counting   =      9984.02826696   -10036.41360137
  entropy T*S    EENTRO =        -0.06116745
  eigenvalues    EBANDS =     -6357.72571660
  atomic energy  EATOM  =     13537.65479391
  Solvation  Ediel_sol  =         0.00000000
  ---------------------------------------------------
  free energy    TOTEN  =      -896.61600809 eV

  energy without entropy =     -896.55484064  energy(sigma->0) =     -896.58542437


--------------------------------------------------------------------------------------------------------




--------------------------------------- Iteration      1(   6)  ---------------------------------------


    POTLOK:  cpu time      0.3204: real time      0.3203
    SETDIJ:  cpu time      0.0405: real time      0.0405
     EDDAV:  cpu time     10.2939: real time     10.2976
       DOS:  cpu time      0.0007: real time      0.0007
    CHARGE:  cpu time      1.1605: real time      1.1622
    MIXING:  cpu time      0.2759: real time      0.2776
    --------------------------------------------
      LOOP:  cpu time     12.0919: real time     12.0990

 eigenvalue-minimisations  :  1584
 total energy-change (2. order) : 0.4910294E+02  (-0.4698697E+01)
 number of electron     368.0000008 magnetization 
 augmentation part        9.7048516 magnetization 

 Broyden mixing:
  rms(total) = 0.26605E+01    rms(broyden)= 0.26605E+01
  rms(prec ) = 0.27184E+01
  weight for this iteration     100.00

 eigenvalues of (default mixing * dielectric matrix)
  average eigenvalue GAMMA=   2.1834
  2.1834

 Free energy of the ion-electron system (eV)
  ---------------------------------------------------
  alpha Z        PSCENC =        91.34886789
  Ewald energy   TEWEN  =    119656.95291667
  -Hartree energ DENC   =   -129561.23652819
  -exchange      EXHF   =         0.00000000
  -V(xc)+E(xc)   XCENC  =      1244.04273915
  PAW double counting   =     18896.00049911   -18955.95706636
  entropy T*S    EENTRO =        -0.07191101
  eigenvalues    EBANDS =     -5756.24737631
  atomic energy  EATOM  =     13537.65479391
  Solvation  Ediel_sol  =         0.00000000
  ---------------------------------------------------
  free energy    TOTEN  =      -847.51306514 eV

  energy without entropy =     -847.44115413  energy(sigma->0) =     -847.47710964


--------------------------------------------------------------------------------------------------------




--------------------------------------- Iteration      1(   7)  ---------------------------------------


    POTLOK:  cpu time      0.3206: real time      0.3207
    SETDIJ:  cpu time      0.0402: real time      0.0402
     EDDAV:  cpu time     10.1211: real time     10.1271
       DOS:  cpu time      0.0007: real time      0.0007
    CHARGE:  cpu time      1.1546: real time      1.1564
    MIXING:  cpu time      0.2769: real time      0.2789
    --------------------------------------------
      LOOP:  cpu time     11.9142: real time     11.9241

 eigenvalue-minimisations  :  1552
 total energy-change (2. order) : 0.1826710E+02  (-0.6481889E+01)
 number of electron     368.0000008 magnetization 
 augmentation part        9.1526044 magnetization 

 Broyden mixing:
  rms(total) = 0.72949E+00    rms(broyden)= 0.72922E+00
  rms(prec ) = 0.73924E+00
  weight for this iteration     100.00

 eigenvalues of (default mixing * dielectric matrix)
  average eigenvalue GAMMA=   2.1981
  2.1981  2.1981

 Free energy of the ion-electron system (eV)
  ---------------------------------------------------
  alpha Z        PSCENC =        91.34886789
  Ewald energy   TEWEN  =    119656.95291667
  -Hartree energ DENC   =   -130322.32245138
  -exchange      EXHF   =         0.00000000
  -V(xc)+E(xc)   XCENC  =      1274.99790375
  PAW double counting   =     36410.11403677   -36476.93288122
  entropy T*S    EENTRO =        -0.08222414
  eigenvalues    EBANDS =     -5000.97692966
  atomic energy  EATOM  =     13537.65479391
  Solvation  Ediel_sol  =         0.00000000
  ---------------------------------------------------
  free energy    TOTEN  =      -829.24596740 eV

  energy without entropy =     -829.16374326  energy(sigma->0) =     -829.20485533


--------------------------------------------------------------------------------------------------------




--------------------------------------- Iteration      1(   8)  ---------------------------------------


    POTLOK:  cpu time      0.3203: real time      0.3203
    SETDIJ:  cpu time      0.0403: real time      0.0403
     EDDAV:  cpu time     10.3395: real time     10.3439
       DOS:  cpu time      0.0007: real time      0.0007
    CHARGE:  cpu time      1.1544: real time      1.1566
    MIXING:  cpu time      0.2803: real time      0.2822
    --------------------------------------------
      LOOP:  cpu time     12.1356: real time     12.1441

 eigenvalue-minimisations  :  1600
 total energy-change (2. order) : 0.2885471E+00  (-0.2407189E+00)
 number of electron     368.0000008 magnetization 
 augmentation part        9.1382141 magnetization 

 Broyden mixing:
  rms(total) = 0.99933E-01    rms(broyden)= 0.99900E-01
  rms(prec ) = 0.12208E+00
  weight for this iteration     100.00

 eigenvalues of (default mixing * dielectric matrix)
  average eigenvalue GAMMA=   1.8635
  1.2465  2.4416  1.9026

 Free energy of the ion-electron system (eV)
  ---------------------------------------------------
  alpha Z        PSCENC =        91.34886789
  Ewald energy   TEWEN  =    119656.95291667
  -Hartree energ DENC   =   -130414.59960114
  -exchange      EXHF   =         0.00000000
  -V(xc)+E(xc)   XCENC  =      1274.74649081
  PAW double counting   =     40623.68392207   -40687.83682828
  entropy T*S    EENTRO =        -0.07856408
  eigenvalues    EBANDS =     -4910.82941811
  atomic energy  EATOM  =     13537.65479391
  Solvation  Ediel_sol  =         0.00000000
  ---------------------------------------------------
  free energy    TOTEN  =      -828.95742027 eV

  energy without entropy =     -828.87885619  energy(sigma->0) =     -828.91813823


--------------------------------------------------------------------------------------------------------




--------------------------------------- Iteration      1(   9)  ---------------------------------------


    POTLOK:  cpu time      0.3197: real time      0.3197
    SETDIJ:  cpu time      0.0404: real time      0.0403
     EDDAV:  cpu time     10.5885: real time     10.5924
       DOS:  cpu time      0.0007: real time      0.0007
    CHARGE:  cpu time      1.1539: real time      1.1561
    MIXING:  cpu time      0.2846: real time      0.2865
    --------------------------------------------
      LOOP:  cpu time     12.3877: real time     12.3959

 eigenvalue-minimisations  :  1648
 total energy-change (2. order) : 0.1063341E+00  (-0.2775396E-01)
 number of electron     368.0000008 magnetization 
 augmentation part        9.1142990 magnetization 

 Broyden mixing:
  rms(total) = 0.56776E-01    rms(broyden)= 0.56767E-01
  rms(prec ) = 0.78069E-01
  weight for this iteration     100.00

 eigenvalues of (default mixing * dielectric matrix)
  average eigenvalue GAMMA=   1.6811
  2.1987  2.1987  1.0719  1.2550

 Free energy of the ion-electron system (eV)
  ---------------------------------------------------
  alpha Z        PSCENC =        91.34886789
  Ewald energy   TEWEN  =    119656.95291667
  -Hartree energ DENC   =   -130484.95916086
  -exchange      EXHF   =         0.00000000
  -V(xc)+E(xc)   XCENC  =      1276.19145584
  PAW double counting   =     41159.22512967   -41223.46281672
  entropy T*S    EENTRO =        -0.07904818
  eigenvalues    EBANDS =     -4841.72322437
  atomic energy  EATOM  =     13537.65479391
  Solvation  Ediel_sol  =         0.00000000
  ---------------------------------------------------
  free energy    TOTEN  =      -828.85108615 eV

  energy without entropy =     -828.77203797  energy(sigma->0) =     -828.81156206


--------------------------------------------------------------------------------------------------------




--------------------------------------- Iteration      1(  10)  ---------------------------------------


    POTLOK:  cpu time      0.3196: real time      0.3196
    SETDIJ:  cpu time      0.0402: real time      0.0402
     EDDAV:  cpu time     11.0524: real time     11.0566
       DOS:  cpu time      0.0007: real time      0.0007
    CHARGE:  cpu time      1.1544: real time      1.1553
    MIXING:  cpu time      0.2929: real time      0.2930
    --------------------------------------------
      LOOP:  cpu time     12.8602: real time     12.8654

 eigenvalue-minimisations  :  1744
 total energy-change (2. order) : 0.3540654E-01  (-0.4658987E-02)
 number of electron     368.0000008 magnetization 
 augmentation part        9.1045488 magnetization 

 Broyden mixing:
  rms(total) = 0.36214E-01    rms(broyden)= 0.36211E-01
  rms(prec ) = 0.55696E-01
  weight for this iteration     100.00

 eigenvalues of (default mixing * dielectric matrix)
  average eigenvalue GAMMA=   1.7380
  2.4893  2.4893  1.5762  1.3050  0.8300

 Free energy of the ion-electron system (eV)
  ---------------------------------------------------
  alpha Z        PSCENC =        91.34886789
  Ewald energy   TEWEN  =    119656.95291667
  -Hartree energ DENC   =   -130532.01516632
  -exchange      EXHF   =         0.00000000
  -V(xc)+E(xc)   XCENC  =      1276.48886879
  PAW double counting   =     40930.21439349   -40994.31656608
  entropy T*S    EENTRO =        -0.07925215
  eigenvalues    EBANDS =     -4795.06453580
  atomic energy  EATOM  =     13537.65479391
  Solvation  Ediel_sol  =         0.00000000
  ---------------------------------------------------
  free energy    TOTEN  =      -828.81567961 eV

  energy without entropy =     -828.73642746  energy(sigma->0) =     -828.77605353


--------------------------------------------------------------------------------------------------------




--------------------------------------- Iteration      1(  11)  ---------------------------------------


    POTLOK:  cpu time      0.3195: real time      0.3194
    SETDIJ:  cpu time      0.0404: real time      0.0404
     EDDAV:  cpu time     10.2079: real time     10.2116
       DOS:  cpu time      0.0007: real time      0.0007
    CHARGE:  cpu time      1.1659: real time      1.1665
    MIXING:  cpu time      0.2981: real time      0.2990
    --------------------------------------------
      LOOP:  cpu time     12.0325: real time     12.0377

 eigenvalue-minimisations  :  1576
 total energy-change (2. order) : 0.2945833E-01  (-0.2363409E-02)
 number of electron     368.0000008 magnetization 
 augmentation part        9.0996925 magnetization 

 Broyden mixing:
  rms(total) = 0.24409E-01    rms(broyden)= 0.24407E-01
  rms(prec ) = 0.37574E-01
  weight for this iteration     100.00

 eigenvalues of (default mixing * dielectric matrix)
  average eigenvalue GAMMA=   1.7780
  3.0043  2.5407  1.9148  0.9446  1.1318  1.1318

 Free energy of the ion-electron system (eV)
  ---------------------------------------------------
  alpha Z        PSCENC =        91.34886789
  Ewald energy   TEWEN  =    119656.95291667
  -Hartree energ DENC   =   -130598.94283586
  -exchange      EXHF   =         0.00000000
  -V(xc)+E(xc)   XCENC  =      1277.06462058
  PAW double counting   =     40840.83811421   -40904.82349968
  entropy T*S    EENTRO =        -0.07933067
  eigenvalues    EBANDS =     -4728.79986834
  atomic energy  EATOM  =     13537.65479391
  Solvation  Ediel_sol  =         0.00000000
  ---------------------------------------------------
  free energy    TOTEN  =      -828.78622128 eV

  energy without entropy =     -828.70689062  energy(sigma->0) =     -828.74655595


--------------------------------------------------------------------------------------------------------




--------------------------------------- Iteration      1(  12)  ---------------------------------------


    POTLOK:  cpu time      0.3216: real time      0.3216
    SETDIJ:  cpu time      0.0402: real time      0.0402
     EDDAV:  cpu time     10.1617: real time     10.1652
       DOS:  cpu time      0.0007: real time      0.0007
    CHARGE:  cpu time      1.1538: real time      1.1568
    MIXING:  cpu time      0.3065: real time      0.3072
    --------------------------------------------
      LOOP:  cpu time     11.9844: real time     11.9917

 eigenvalue-minimisations  :  1560
 total energy-change (2. order) : 0.3369681E-02  (-0.2166325E-02)
 number of electron     368.0000008 magnetization 
 augmentation part        9.0925321 magnetization 

 Broyden mixing:
  rms(total) = 0.15428E-01    rms(broyden)= 0.15424E-01
  rms(prec ) = 0.23424E-01
  weight for this iteration     100.00

 eigenvalues of (default mixing * dielectric matrix)
  average eigenvalue GAMMA=   2.0673
  4.8285  2.4313  2.0299  2.0299  0.9362  1.1076  1.1076

 Free energy of the ion-electron system (eV)
  ---------------------------------------------------
  alpha Z        PSCENC =        91.34886789
  Ewald energy   TEWEN  =    119656.95291667
  -Hartree energ DENC   =   -130659.66885706
  -exchange      EXHF   =         0.00000000
  -V(xc)+E(xc)   XCENC  =      1277.66673459
  PAW double counting   =     40904.06003606   -40968.03934584
  entropy T*S    EENTRO =        -0.07937741
  eigenvalues    EBANDS =     -4668.67862041
  atomic energy  EATOM  =     13537.65479391
  Solvation  Ediel_sol  =         0.00000000
  ---------------------------------------------------
  free energy    TOTEN  =      -828.78285160 eV

  energy without entropy =     -828.70347419  energy(sigma->0) =     -828.74316290


--------------------------------------------------------------------------------------------------------




--------------------------------------- Iteration      1(  13)  ---------------------------------------


    POTLOK:  cpu time      0.3203: real time      0.3201
    SETDIJ:  cpu time      0.0403: real time      0.0404
     EDDAV:  cpu time     10.1506: real time     10.1542
       DOS:  cpu time      0.0007: real time      0.0007
    CHARGE:  cpu time      1.1562: real time      1.1583
    MIXING:  cpu time      0.3136: real time      0.3144
    --------------------------------------------
      LOOP:  cpu time     11.9818: real time     11.9881

 eigenvalue-minimisations  :  1560
 total energy-change (2. order) :-0.1290759E-01  (-0.9040018E-03)
 number of electron     368.0000008 magnetization 
 augmentation part        9.0897796 magnetization 

 Broyden mixing:
  rms(total) = 0.84377E-02    rms(broyden)= 0.84355E-02
  rms(prec ) = 0.12004E-01
  weight for this iteration     100.00

 eigenvalues of (default mixing * dielectric matrix)
  average eigenvalue GAMMA=   2.0697
  5.3770  2.4549  2.4549  1.8787  1.1992  1.1992  0.8714  1.1224

 Free energy of the ion-electron system (eV)
  ---------------------------------------------------
  alpha Z        PSCENC =        91.34886789
  Ewald energy   TEWEN  =    119656.95291667
  -Hartree energ DENC   =   -130711.17877541
  -exchange      EXHF   =         0.00000000
  -V(xc)+E(xc)   XCENC  =      1277.87335376
  PAW double counting   =     40862.52282572   -40926.49715359
  entropy T*S    EENTRO =        -0.07932928
  eigenvalues    EBANDS =     -4617.39325886
  atomic energy  EATOM  =     13537.65479391
  Solvation  Ediel_sol  =         0.00000000
  ---------------------------------------------------
  free energy    TOTEN  =      -828.79575919 eV

  energy without entropy =     -828.71642991  energy(sigma->0) =     -828.75609455


--------------------------------------------------------------------------------------------------------




--------------------------------------- Iteration      1(  14)  ---------------------------------------


    POTLOK:  cpu time      0.3199: real time      0.3199
    SETDIJ:  cpu time      0.0404: real time      0.0403
     EDDAV:  cpu time     10.3987: real time     10.4025
       DOS:  cpu time      0.0007: real time      0.0007
    CHARGE:  cpu time      1.1544: real time      1.1574
    MIXING:  cpu time      0.3223: real time      0.3230
    --------------------------------------------
      LOOP:  cpu time     12.2365: real time     12.2440

 eigenvalue-minimisations  :  1608
 total energy-change (2. order) :-0.1566116E-01  (-0.1264969E-03)
 number of electron     368.0000008 magnetization 
 augmentation part        9.0888915 magnetization 

 Broyden mixing:
  rms(total) = 0.60922E-02    rms(broyden)= 0.60917E-02
  rms(prec ) = 0.82739E-02
  weight for this iteration     100.00

 eigenvalues of (default mixing * dielectric matrix)
  average eigenvalue GAMMA=   2.1938
  6.3129  2.7251  2.7251  1.7351  1.7351  1.4481  1.1759  0.9436  0.9436

 Free energy of the ion-electron system (eV)
  ---------------------------------------------------
  alpha Z        PSCENC =        91.34886789
  Ewald energy   TEWEN  =    119656.95291667
  -Hartree energ DENC   =   -130725.58341704
  -exchange      EXHF   =         0.00000000
  -V(xc)+E(xc)   XCENC  =      1277.89691867
  PAW double counting   =     40865.81788951   -40929.80275015
  entropy T*S    EENTRO =        -0.07932986
  eigenvalues    EBANDS =     -4603.01730993
  atomic energy  EATOM  =     13537.65479391
  Solvation  Ediel_sol  =         0.00000000
  ---------------------------------------------------
  free energy    TOTEN  =      -828.81142035 eV

  energy without entropy =     -828.73209049  energy(sigma->0) =     -828.77175542


--------------------------------------------------------------------------------------------------------




--------------------------------------- Iteration      1(  15)  ---------------------------------------


    POTLOK:  cpu time      0.3205: real time      0.3204
    SETDIJ:  cpu time      0.0401: real time      0.0401
     EDDAV:  cpu time     10.2076: real time     10.2111
       DOS:  cpu time      0.0007: real time      0.0007
    CHARGE:  cpu time      1.1541: real time      1.1566
    MIXING:  cpu time      0.3304: real time      0.3311
    --------------------------------------------
      LOOP:  cpu time     12.0534: real time     12.0601

 eigenvalue-minimisations  :  1576
 total energy-change (2. order) :-0.2021214E-01  (-0.1794523E-03)
 number of electron     368.0000008 magnetization 
 augmentation part        9.0885100 magnetization 

 Broyden mixing:
  rms(total) = 0.29931E-02    rms(broyden)= 0.29927E-02
  rms(prec ) = 0.41703E-02
  weight for this iteration     100.00

 eigenvalues of (default mixing * dielectric matrix)
  average eigenvalue GAMMA=   2.2345
  7.0205  3.4460  2.2504  2.2504  1.6341  1.3526  1.3526  0.9503  0.9503  1.1379

 Free energy of the ion-electron system (eV)
  ---------------------------------------------------
  alpha Z        PSCENC =        91.34886789
  Ewald energy   TEWEN  =    119656.95291667
  -Hartree energ DENC   =   -130736.55068026
  -exchange      EXHF   =         0.00000000
  -V(xc)+E(xc)   XCENC  =      1277.87840138
  PAW double counting   =     40870.81259765   -40934.79832081
  entropy T*S    EENTRO =        -0.07936183
  eigenvalues    EBANDS =     -4592.05084708
  atomic energy  EATOM  =     13537.65479391
  Solvation  Ediel_sol  =         0.00000000
  ---------------------------------------------------
  free energy    TOTEN  =      -828.83163249 eV

  energy without entropy =     -828.75227066  energy(sigma->0) =     -828.79195157


--------------------------------------------------------------------------------------------------------




--------------------------------------- Iteration      1(  16)  ---------------------------------------


    POTLOK:  cpu time      0.3200: real time      0.3200
    SETDIJ:  cpu time      0.0403: real time      0.0403
     EDDAV:  cpu time     10.4176: real time     10.4215
       DOS:  cpu time      0.0008: real time      0.0008
    CHARGE:  cpu time      1.1633: real time      1.1655
    MIXING:  cpu time      0.3417: real time      0.3417
    --------------------------------------------
      LOOP:  cpu time     12.2836: real time     12.2897

 eigenvalue-minimisations  :  1616
 total energy-change (2. order) :-0.8403755E-02  (-0.4599094E-04)
 number of electron     368.0000008 magnetization 
 augmentation part        9.0885326 magnetization 

 Broyden mixing:
  rms(total) = 0.23364E-02    rms(broyden)= 0.23363E-02
  rms(prec ) = 0.29065E-02
  weight for this iteration     100.00

 eigenvalues of (default mixing * dielectric matrix)
  average eigenvalue GAMMA=   2.3335
  7.8132  3.9585  2.3579  2.3579  1.8940  1.5952  1.5952  1.0957  1.0957  0.9525
  0.9525

 Free energy of the ion-electron system (eV)
  ---------------------------------------------------
  alpha Z        PSCENC =        91.34886789
  Ewald energy   TEWEN  =    119656.95291667
  -Hartree energ DENC   =   -130740.13703825
  -exchange      EXHF   =         0.00000000
  -V(xc)+E(xc)   XCENC  =      1277.85138440
  PAW double counting   =     40858.63395531   -40922.61728699
  entropy T*S    EENTRO =        -0.07936307
  eigenvalues    EBANDS =     -4588.44826611
  atomic energy  EATOM  =     13537.65479391
  Solvation  Ediel_sol  =         0.00000000
  ---------------------------------------------------
  free energy    TOTEN  =      -828.84003624 eV

  energy without entropy =     -828.76067317  energy(sigma->0) =     -828.80035471


--------------------------------------------------------------------------------------------------------




--------------------------------------- Iteration      1(  17)  ---------------------------------------


    POTLOK:  cpu time      0.3204: real time      0.3204
    SETDIJ:  cpu time      0.0403: real time      0.0403
     EDDAV:  cpu time     10.2870: real time     10.2908
       DOS:  cpu time      0.0007: real time      0.0007
    CHARGE:  cpu time      1.1537: real time      1.1559
    MIXING:  cpu time      0.3495: real time      0.3500
    --------------------------------------------
      LOOP:  cpu time     12.1517: real time     12.1581

 eigenvalue-minimisations  :  1592
 total energy-change (2. order) :-0.5442527E-02  (-0.3513727E-04)
 number of electron     368.0000008 magnetization 
 augmentation part        9.0883747 magnetization 

 Broyden mixing:
  rms(total) = 0.11815E-02    rms(broyden)= 0.11814E-02
  rms(prec ) = 0.14897E-02
  weight for this iteration     100.00

 eigenvalues of (default mixing * dielectric matrix)
  average eigenvalue GAMMA=   2.3636
  8.3905  4.4916  2.4323  2.4323  2.0315  1.4541  1.4541  1.3719  1.3719  0.9550
  0.9550  1.0228

 Free energy of the ion-electron system (eV)
  ---------------------------------------------------
  alpha Z        PSCENC =        91.34886789
  Ewald energy   TEWEN  =    119656.95291667
  -Hartree energ DENC   =   -130742.75869322
  -exchange      EXHF   =         0.00000000
  -V(xc)+E(xc)   XCENC  =      1277.85497554
  PAW double counting   =     40867.72139585   -40931.70283788
  entropy T*S    EENTRO =        -0.07936630
  eigenvalues    EBANDS =     -4585.83753123
  atomic energy  EATOM  =     13537.65479391
  Solvation  Ediel_sol  =         0.00000000
  ---------------------------------------------------
  free energy    TOTEN  =      -828.84547877 eV

  energy without entropy =     -828.76611247  energy(sigma->0) =     -828.80579562


--------------------------------------------------------------------------------------------------------




--------------------------------------- Iteration      1(  18)  ---------------------------------------


    POTLOK:  cpu time      0.3202: real time      0.3203
    SETDIJ:  cpu time      0.0403: real time      0.0403
     EDDAV:  cpu time     10.6069: real time     10.6109
       DOS:  cpu time      0.0007: real time      0.0007
    CHARGE:  cpu time      1.1554: real time      1.1557
    MIXING:  cpu time      0.3610: real time      0.3615
    --------------------------------------------
      LOOP:  cpu time     12.4845: real time     12.4894

 eigenvalue-minimisations  :  1656
 total energy-change (2. order) :-0.2065364E-02  (-0.8949513E-05)
 number of electron     368.0000008 magnetization 
 augmentation part        9.0883112 magnetization 

 Broyden mixing:
  rms(total) = 0.64028E-03    rms(broyden)= 0.64020E-03
  rms(prec ) = 0.83218E-03
  weight for this iteration     100.00

 eigenvalues of (default mixing * dielectric matrix)
  average eigenvalue GAMMA=   2.4102
  8.8046  4.9642  2.7915  2.6418  1.6721  1.6721  1.7269  1.7269  1.2137  1.2137
  0.9543  0.9543  0.9969

 Free energy of the ion-electron system (eV)
  ---------------------------------------------------
  alpha Z        PSCENC =        91.34886789
  Ewald energy   TEWEN  =    119656.95291667
  -Hartree energ DENC   =   -130743.50901727
  -exchange      EXHF   =         0.00000000
  -V(xc)+E(xc)   XCENC  =      1277.85273995
  PAW double counting   =     40864.98208483   -40928.96376865
  entropy T*S    EENTRO =        -0.07936509
  eigenvalues    EBANDS =     -4585.08679637
  atomic energy  EATOM  =     13537.65479391
  Solvation  Ediel_sol  =         0.00000000
  ---------------------------------------------------
  free energy    TOTEN  =      -828.84754413 eV

  energy without entropy =     -828.76817904  energy(sigma->0) =     -828.80786159


--------------------------------------------------------------------------------------------------------




--------------------------------------- Iteration      1(  19)  ---------------------------------------


    POTLOK:  cpu time      0.3205: real time      0.3206
    SETDIJ:  cpu time      0.0405: real time      0.0406
     EDDAV:  cpu time      9.8845: real time      9.8889
       DOS:  cpu time      0.0007: real time      0.0007
    CHARGE:  cpu time      1.1537: real time      1.1541
    MIXING:  cpu time      0.3708: real time      0.3718
    --------------------------------------------
      LOOP:  cpu time     11.7708: real time     11.7767

 eigenvalue-minimisations  :  1512
 total energy-change (2. order) :-0.1153135E-02  (-0.4390928E-05)
 number of electron     368.0000008 magnetization 
 augmentation part        9.0883444 magnetization 

 Broyden mixing:
  rms(total) = 0.37506E-03    rms(broyden)= 0.37503E-03
  rms(prec ) = 0.46166E-03
  weight for this iteration     100.00

 eigenvalues of (default mixing * dielectric matrix)
  average eigenvalue GAMMA=   2.3886
  8.9355  5.4154  3.0602  2.3233  2.3233  1.8926  1.5739  1.5739  1.2263  1.2263
  0.9114  0.9595  0.9595  1.0599

 Free energy of the ion-electron system (eV)
  ---------------------------------------------------
  alpha Z        PSCENC =        91.34886789
  Ewald energy   TEWEN  =    119656.95291667
  -Hartree energ DENC   =   -130743.86964876
  -exchange      EXHF   =         0.00000000
  -V(xc)+E(xc)   XCENC  =      1277.85026096
  PAW double counting   =     40863.77107126   -40927.75062964
  entropy T*S    EENTRO =        -0.07936176
  eigenvalues    EBANDS =     -4584.72696779
  atomic energy  EATOM  =     13537.65479391
  Solvation  Ediel_sol  =         0.00000000
  ---------------------------------------------------
  free energy    TOTEN  =      -828.84869727 eV

  energy without entropy =     -828.76933551  energy(sigma->0) =     -828.80901639


--------------------------------------------------------------------------------------------------------




--------------------------------------- Iteration      1(  20)  ---------------------------------------


    POTLOK:  cpu time      0.3220: real time      0.3219
    SETDIJ:  cpu time      0.0402: real time      0.0402
     EDDAV:  cpu time      9.3580: real time      9.3614
       DOS:  cpu time      0.0007: real time      0.0007
    CHARGE:  cpu time      1.1550: real time      1.1558
    MIXING:  cpu time      0.3862: real time      0.3862
    --------------------------------------------
      LOOP:  cpu time     11.2623: real time     11.2663

 eigenvalue-minimisations  :  1400
 total energy-change (2. order) :-0.3251696E-03  (-0.6142217E-06)
 number of electron     368.0000008 magnetization 
 augmentation part        9.0883129 magnetization 

 Broyden mixing:
  rms(total) = 0.27447E-03    rms(broyden)= 0.27446E-03
  rms(prec ) = 0.32526E-03
  weight for this iteration     100.00

 eigenvalues of (default mixing * dielectric matrix)
  average eigenvalue GAMMA=   2.4211
  9.1536  5.7184  3.5105  2.5673  2.3242  1.9106  1.6727  1.6727  1.3606  1.3606
  0.9528  0.9528  1.0691  1.0454  1.0454

 Free energy of the ion-electron system (eV)
  ---------------------------------------------------
  alpha Z        PSCENC =        91.34886789
  Ewald energy   TEWEN  =    119656.95291667
  -Hartree energ DENC   =   -130744.04581804
  -exchange      EXHF   =         0.00000000
  -V(xc)+E(xc)   XCENC  =      1277.85108831
  PAW double counting   =     40864.80730609   -40928.78749843
  entropy T*S    EENTRO =        -0.07936195
  eigenvalues    EBANDS =     -4584.55131689
  atomic energy  EATOM  =     13537.65479391
  Solvation  Ediel_sol  =         0.00000000
  ---------------------------------------------------
  free energy    TOTEN  =      -828.84902244 eV

  energy without entropy =     -828.76966049  energy(sigma->0) =     -828.80934147


--------------------------------------------------------------------------------------------------------




--------------------------------------- Iteration      1(  21)  ---------------------------------------


    POTLOK:  cpu time      0.3203: real time      0.3203
    SETDIJ:  cpu time      0.0402: real time      0.0402
     EDDAV:  cpu time      8.7495: real time      8.7526
       DOS:  cpu time      0.0007: real time      0.0007
    CHARGE:  cpu time      1.1640: real time      1.1674
    MIXING:  cpu time      0.3979: real time      0.3985
    --------------------------------------------
      LOOP:  cpu time     10.6727: real time     10.6798

 eigenvalue-minimisations  :  1280
 total energy-change (2. order) :-0.2376091E-03  (-0.3606864E-06)
 number of electron     368.0000008 magnetization 
 augmentation part        9.0883124 magnetization 

 Broyden mixing:
  rms(total) = 0.16902E-03    rms(broyden)= 0.16900E-03
  rms(prec ) = 0.19211E-03
  weight for this iteration     100.00

 eigenvalues of (default mixing * dielectric matrix)
  average eigenvalue GAMMA=   2.3939
  9.1661  6.1128  3.7195  2.4755  2.4755  2.0809  1.6150  1.6150  1.6839  1.2412
  1.1563  1.1563  0.9735  0.9735  0.9290  0.9290

 Free energy of the ion-electron system (eV)
  ---------------------------------------------------
  alpha Z        PSCENC =        91.34886789
  Ewald energy   TEWEN  =    119656.95291667
  -Hartree energ DENC   =   -130744.12489536
  -exchange      EXHF   =         0.00000000
  -V(xc)+E(xc)   XCENC  =      1277.85024168
  PAW double counting   =     40863.69775079   -40927.67839113
  entropy T*S    EENTRO =        -0.07936320
  eigenvalues    EBANDS =     -4584.47118130
  atomic energy  EATOM  =     13537.65479391
  Solvation  Ediel_sol  =         0.00000000
  ---------------------------------------------------
  free energy    TOTEN  =      -828.84926005 eV

  energy without entropy =     -828.76989685  energy(sigma->0) =     -828.80957845


[...]
   0.308E+02 -.166E+02 0.400E+02   -.316E+02 0.175E+02 -.398E+02   -.134E+01 0.279E+00 -.634E+00   0.363E-05 -.583E-05 -.294E-05
   0.219E+02 -.513E+01 0.403E+02   -.218E+02 0.443E+01 -.401E+02   0.421E+00 -.112E+01 0.479E+00   -.425E-05 0.116E-05 0.620E-06
   0.242E+02 0.686E+01 0.101E+03   -.238E+02 -.784E+01 -.102E+03   -.690E+00 -.240E+00 0.157E+01   -.405E-05 0.244E-06 -.245E-06
   0.257E+02 0.984E+01 0.957E+02   -.257E+02 -.103E+02 -.959E+02   -.596E+00 0.555E+00 0.119E+00   -.392E-06 -.207E-05 -.799E-06
   0.395E+02 -.163E+02 0.149E+03   -.389E+02 0.174E+02 -.150E+03   -.698E+00 0.105E+01 0.533E+00   -.374E-05 -.126E-05 -.723E-06
   0.117E+02 -.178E+02 0.729E+02   -.116E+02 0.199E+02 -.734E+02   -.278E+00 0.150E+01 -.182E+00   -.253E-05 -.393E-05 0.861E-06
   0.422E+02 0.246E+01 0.180E+03   -.428E+02 -.235E+01 -.181E+03   -.399E+00 -.661E+00 0.111E+01   -.147E-06 0.190E-05 -.477E-06
   0.265E+02 0.958E+01 0.167E+03   -.264E+02 -.100E+02 -.167E+03   0.141E+01 -.905E+00 0.844E+00   -.398E-05 -.367E-06 0.188E-05
   0.291E+02 -.646E+01 0.207E+03   -.289E+02 0.703E+01 -.207E+03   -.772E+00 -.779E+00 -.199E+00   -.123E-05 0.613E-06 0.719E-06
   0.967E+01 -.111E+02 0.137E+03   -.999E+01 0.118E+02 -.137E+03   0.933E+00 -.715E+00 -.320E+00   0.106E-05 -.273E-05 0.161E-05
   0.112E+02 0.866E+01 0.243E+03   -.106E+02 -.884E+01 -.243E+03   -.704E+00 -.174E+00 0.496E+00   0.134E-05 0.171E-05 0.261E-05
   -.366E+01 0.214E+02 0.216E+03   0.421E+01 -.220E+02 -.216E+03   0.242E+00 0.103E+01 0.927E+00   0.275E-05 0.336E-05 0.156E-05
   0.635E+01 -.361E+01 0.270E+03   -.776E+01 0.310E+01 -.271E+03   -.813E+00 0.722E+00 0.609E+00   0.368E-05 0.386E-08 0.241E-05
   -.662E+01 -.568E+01 0.125E+03   0.530E+01 0.520E+01 -.125E+03   -.139E+01 -.734E+00 -.119E+01   0.347E-05 0.259E-05 0.203E-06
   -.338E+02 0.620E+01 0.238E+03   0.354E+02 -.653E+01 -.238E+03   0.135E+01 0.108E+00 0.716E+00   -.240E-05 0.111E-05 0.109E-05
   -.352E+02 0.163E+02 0.161E+03   0.365E+02 -.170E+02 -.161E+03   0.467E-01 -.112E+01 0.487E-01   0.208E-05 -.506E-06 -.718E-06
   -.391E+02 -.219E+02 0.224E+03   0.391E+02 0.233E+02 -.224E+03   -.192E+00 -.450E+00 0.112E+01   0.130E-05 -.367E-05 -.397E-07
   -.178E+02 0.268E+01 0.138E+03   0.164E+02 -.292E+01 -.138E+03   -.692E+00 0.348E+00 0.946E+00   0.354E-06 0.237E-05 -.203E-05
   -.213E+02 0.512E+01 0.131E+03   0.205E+02 -.487E+01 -.131E+03   -.535E+00 -.117E-01 -.440E+00   0.346E-05 -.102E-05 -.144E-05
   -.449E+02 0.913E+01 0.120E+03   0.464E+02 -.914E+01 -.120E+03   0.104E+01 0.104E-02 0.717E+00   -.389E-05 0.216E-05 -.456E-05
   -.408E+02 -.116E+02 0.113E+03   0.419E+02 0.117E+02 -.113E+03   0.194E+00 -.333E+00 0.748E+00   -.734E-06 -.694E-06 -.308E-05
   -.156E+02 -.109E+02 0.367E+02   0.155E+02 0.119E+02 -.369E+02   0.410E-01 0.261E+00 0.126E+00   -.396E-06 0.596E-06 -.151E-05
   -.231E+01 0.487E+01 0.240E+02   0.764E+00 -.451E+01 -.242E+02   0.724E-01 0.519E+00 -.993E+00   0.246E-05 -.116E-05 -.139E-05
   -.220E+02 0.189E+02 0.486E+02   0.217E+02 -.204E+02 -.489E+02   -.554E+00 -.102E+01 0.388E+00   0.448E-05 0.504E-05 -.357E-06
   -.218E+02 -.172E+02 0.175E+02   0.231E+02 0.177E+02 -.175E+02   0.129E+01 -.186E+00 0.161E+00   0.105E-05 -.600E-06 -.153E-05
   -.222E+02 -.224E+01 0.150E+02   0.225E+02 0.326E+01 -.160E+02   0.450E+00 0.206E+01 0.176E+01   -.559E-06 -.296E-05 0.174E-05
   -.891E+01 -.694E+01 0.108E+01   0.819E+01 0.830E+01 -.109E+01   0.162E+00 0.129E+01 -.210E+00   0.264E-05 -.184E-05 -.998E-07
   0.100E+01 0.652E+02 -.366E+02   -.456E+01 -.668E+02 0.362E+02   0.218E+01 0.120E+01 -.962E+00   -.509E-06 0.410E-05 -.361E-08
   -.495E+01 -.663E+02 -.663E+01   0.755E+00 0.677E+02 0.541E+01   -.195E+00 -.205E+01 0.538E+00   0.253E-05 0.175E-05 0.109E-05
   0.258E+02 0.584E+02 -.124E+03   -.234E+02 -.590E+02 0.125E+03   -.128E+01 0.505E+00 -.917E+00   0.700E-05 -.324E-05 0.147E-05
   0.328E+02 -.679E+02 -.185E+03   -.299E+02 0.695E+02 0.186E+03   -.861E+00 -.296E+01 -.479E+00   0.497E-05 -.216E-05 0.181E-05
   0.193E+02 0.866E+01 -.103E+03   -.185E+02 -.987E+01 0.102E+03   0.806E+00 -.857E+00 0.281E+00   -.797E-05 -.236E-05 -.782E-06
   0.318E+02 -.752E+00 -.192E+03   -.323E+02 0.804E+00 0.193E+03   -.693E+00 -.188E+01 -.158E+01   -.531E-05 0.610E-05 -.250E-05
   0.790E+01 0.778E+01 -.135E+03   -.840E+01 -.664E+01 0.136E+03   -.399E+00 0.927E+00 0.432E+00   -.663E-05 -.399E-05 -.999E-06
   0.587E+01 -.855E+01 -.174E+03   -.497E+01 0.766E+01 0.174E+03   0.139E+01 -.432E+00 0.799E+00   -.533E-05 0.169E-05 -.302E-06
   -.910E+01 -.152E+02 -.148E+03   0.105E+02 0.164E+02 0.149E+03   0.634E-01 0.461E-01 -.127E+01   0.310E-05 -.424E-05 -.186E-05
   0.497E+01 0.170E+02 -.217E+03   -.649E+01 -.178E+02 0.217E+03   -.362E+00 0.973E+00 -.965E+00   0.341E-05 0.264E-05 -.704E-06
   -.977E+00 0.101E+02 -.131E+03   -.752E+00 -.991E+01 0.132E+03   -.978E+00 -.473E+00 0.786E+00   0.914E-05 -.166E-05 -.402E-06
   -.289E+02 -.144E+02 -.197E+03   0.305E+02 0.145E+02 0.197E+03   0.617E+00 -.417E+00 -.410E+00   0.484E-05 -.340E-05 -.137E-06
   -.239E+02 -.120E+02 -.105E+03   0.255E+02 0.129E+02 0.105E+03   0.127E+01 0.222E+00 -.515E+00   0.110E-05 -.107E-05 0.204E-06
   -.244E+02 0.105E+02 -.178E+03   0.241E+02 -.109E+02 0.178E+03   -.876E+00 -.210E+00 -.541E+00   0.309E-05 0.110E-05 0.875E-06
   -.219E+02 0.206E+02 -.152E+03   0.212E+02 -.214E+02 0.153E+03   -.145E+00 0.719E+00 -.136E+01   -.131E-05 0.752E-06 0.207E-05
   -.360E+02 -.175E+02 -.178E+03   0.359E+02 0.179E+02 0.178E+03   -.378E+00 0.652E+00 -.538E+00   0.197E-05 -.304E-05 0.274E-05
   -.265E+01 -.885E+01 -.290E+02   0.290E+01 0.911E+01 0.287E+02   0.916E+00 -.336E+00 0.631E+00   -.536E-06 0.503E-05 0.251E-05
   -.153E+02 0.503E+01 -.104E+03   0.156E+02 -.471E+01 0.104E+03   0.285E+00 0.351E+00 -.875E+00   0.469E-06 0.100E-05 0.156E-05
   -.161E+02 0.211E+02 -.844E+02   0.164E+02 -.221E+02 0.851E+02   0.584E+00 -.114E+01 -.169E+01   -.258E-05 0.143E-05 0.142E-05
   -.103E+02 -.194E+02 -.595E+02   0.105E+02 0.204E+02 0.594E+02   -.636E+00 -.664E+00 0.109E+01   -.242E-05 -.573E-06 0.235E-05
   0.492E+01 -.848E+01 -.354E+02   -.545E+01 0.992E+01 0.357E+02   0.138E+01 0.112E+01 -.831E+00   -.340E-05 -.318E-05 -.208E-06
   0.111E+02 0.183E+01 -.280E+02   -.119E+02 -.829E+00 0.285E+02   -.192E+01 0.215E-01 -.100E+00   -.271E-05 0.141E-05 0.192E-08
   0.138E+01 0.224E+02 -.370E+02   -.214E+01 -.236E+02 0.379E+02   0.807E+00 0.350E+00 -.152E+01   -.668E-06 -.242E-06 -.868E-06
   -.750E+00 -.545E+01 0.910E+00   0.178E+01 0.592E+01 -.143E+01   -.269E-01 0.797E+00 0.169E+01   -.243E-06 0.218E-05 -.667E-06
   0.224E+02 -.334E+01 0.566E+02   -.231E+02 0.273E+01 -.565E+02   0.428E+00 -.900E+00 -.731E+00   0.503E-06 -.261E-06 -.123E-05
   -.508E+00 0.699E+01 -.509E+02   0.101E+00 -.923E+01 0.520E+02   -.726E+00 -.116E+01 -.131E+01   -.684E-06 0.383E-05 -.293E-05
   0.132E+02 0.104E+02 0.759E+02   -.136E+02 -.100E+02 -.756E+02   0.146E+00 0.788E+00 0.464E+00   0.395E-06 -.801E-06 -.464E-06
   -.616E+01 -.183E+01 -.242E+02   0.696E+01 0.182E+01 0.244E+02   0.271E+00 0.290E+00 -.672E+00   -.108E-05 0.158E-05 -.115E-05
   0.169E+02 -.549E+01 0.160E+03   -.168E+02 0.453E+01 -.161E+03   0.424E+00 -.109E+01 0.634E+00   0.299E-05 0.220E-05 0.227E-05
   0.390E+01 -.104E+02 0.382E+02   -.549E+01 0.111E+02 -.378E+02   -.776E+00 -.415E+00 -.727E+00   0.185E-05 -.343E-05 -.483E-06
   -.787E+01 0.123E+02 0.815E+02   0.765E+01 -.123E+02 -.806E+02   -.827E+00 0.126E+01 -.165E+01   -.845E-06 0.120E-05 0.716E-07
   -.139E+02 -.996E+01 0.119E+03   0.158E+02 0.102E+02 -.120E+03   0.207E+01 0.897E+00 0.197E+01   -.338E-05 -.398E-05 0.177E-05
   -.227E+02 -.898E+01 0.126E+03   0.237E+02 0.879E+01 -.126E+03   0.216E+00 0.438E+00 -.422E+00   -.721E-05 -.346E-05 -.115E-05
   -.202E+01 0.204E+01 0.783E+02   0.129E+01 -.170E+01 -.789E+02   0.362E+00 0.717E+00 0.568E+00   -.295E-05 0.188E-05 -.116E-06
   -.210E+02 -.230E+00 0.104E+03   0.213E+02 0.158E+01 -.104E+03   -.393E+00 0.662E+00 0.232E+01   -.652E-06 -.168E-05 0.111E-06
   0.680E+00 0.279E+01 -.215E+02   -.822E+00 -.449E+01 0.222E+02   0.447E+00 -.111E+01 -.216E+01   0.180E-05 0.307E-05 0.108E-05
   -.103E+02 -.109E+02 0.282E+02   0.105E+02 0.112E+02 -.278E+02   0.128E+00 -.724E-01 -.124E+01   0.742E-05 -.293E-05 0.302E-06
   -.262E+01 0.299E+01 -.456E+01   0.299E+01 -.299E+01 0.458E+01   -.590E+00 0.252E+00 -.615E-01   0.475E-05 0.206E-05 0.521E-06
   0.946E+01 0.223E+02 -.269E+02   -.984E+01 -.241E+02 0.269E+02   -.875E+00 -.160E+00 -.203E+00   0.471E-06 0.314E-05 0.319E-06
   0.248E+02 -.124E+02 -.839E+02   -.254E+02 0.136E+02 0.843E+02   0.379E-01 0.115E+01 -.934E+00   0.114E-06 -.336E-05 0.231E-06
   -.150E+02 -.487E+01 -.691E+01   0.158E+02 0.515E+01 0.680E+01   -.816E+00 0.427E-01 0.825E+00   -.448E-06 0.122E-05 -.292E-06
   0.151E+02 -.181E+01 -.988E+02   -.150E+02 0.190E+01 0.991E+02   0.896E+00 0.199E-01 -.544E+00   -.455E-06 -.584E-05 0.170E-05
   0.795E+01 0.228E+02 -.672E+02   -.848E+01 -.241E+02 0.674E+02   -.387E+00 -.133E+01 -.716E+00   -.102E-05 0.323E-05 0.121E-05
   0.234E+02 -.170E+02 -.132E+03   -.236E+02 0.182E+02 0.132E+03   0.296E+00 -.359E+00 -.278E+00   0.696E-06 -.230E-05 0.194E-05
   -.141E+02 0.734E+01 -.213E+02   0.139E+02 -.890E+01 0.206E+02   0.987E+00 0.282E+00 0.104E+01   -.186E-05 -.253E-05 -.207E-06
   0.109E+02 -.563E+00 -.150E+03   -.108E+02 -.470E+00 0.151E+03   0.346E+00 -.497E+00 -.107E+01   -.287E-05 0.374E-05 0.209E-06
   -.218E+01 0.693E+02 -.684E+02   -.490E+00 -.710E+02 0.682E+02   0.104E+01 0.262E+01 0.889E+00   0.233E-05 -.176E-05 0.226E-05
   0.278E+02 -.609E+02 -.176E+03   -.321E+02 0.621E+02 0.175E+03   0.956E+00 -.315E+00 -.103E+01   -.685E-06 0.125E-05 0.177E-05
 -----------------------------------------------------------------------------------------------
   -.114E+00 -.141E-01 0.945E+00   0.306E-12 -.270E-12 0.199E-12   0.763E-02 0.160E+00 -.105E+01   0.166E-05 0.325E-05 0.146E-04
 
 
 POSITION                                       TOTAL-FORCE (eV/Angst)
 -----------------------------------------------------------------------------------
      0.18061      0.86069     17.59670         3.127544      0.040829      0.986419
      0.17249      2.25466     17.66670         2.244670     -1.483793     -0.234741
      1.38714      0.21162     17.90820        -1.163842      0.594573      0.548289
      1.33426      2.89673     17.95030        -0.055958      1.198091     -0.224417
      2.63782      0.81815     18.04750        -0.433304      1.894858      0.081964
      2.58548      2.22085     18.01620        -1.191778     -1.086008     -0.270426
      3.86575      0.15300     18.32790        -1.094600      1.312522     -0.516957
      3.76641      2.91238     18.05670         1.702082     -0.976674      0.263200
      5.05066      0.83760     18.09560         1.500344      0.532250     -1.051375
      4.98851      2.21188     17.91610         1.263053      0.346751     -0.208774
      6.31419      0.16944     17.85330        -0.168837      0.365031      1.157300
      6.22693      2.91549     17.68200        -0.901415     -2.398677      0.628824
      7.49178      0.82832     17.44360         0.799408      1.192254     -0.490977
      7.42535      2.23410     17.41660         2.612078     -0.671076     -2.158375
      8.76223      0.16927     17.12460        -2.065346      0.049402      1.703273
      8.67478      2.91610     16.95320        -0.598631     -1.959919      1.690489
      9.93837      0.84412     16.72970        -0.320569     -0.360006     -0.769356
      9.92854      2.20442     16.63090        -2.165186      1.212555     -0.459643
     11.14410      0.20690     16.38350         0.529175     -1.811443      0.637619
     11.11280      2.86494     16.22440        -0.336573     -1.220177      0.552896
     12.31820      0.81842     15.91020        -0.614998      0.044184     -0.125097
     12.29360      2.17531     15.75290        -0.100011      2.141831      0.099513
     13.54080      0.13550     15.74130        -0.161376      3.663461     -0.751275
     13.48730      2.90757     15.41320        -0.941943     -0.545183      0.938758
     14.66430      0.86097     15.24920         1.439664     -1.379095      0.326610
     14.69540      2.23508     15.08710        -0.608417     -0.204307     -0.412050
     15.92080      0.18548     15.19770         0.608913     -0.029480     -0.085515
     15.93480      2.88508     14.86910        -0.110759     -0.357607      0.215944
     17.17480      0.80271     14.92000         0.796368      0.370880      0.520825
     17.20280      2.17841     14.74100        -2.226804      0.202995      0.207930
     18.45730      0.18633     15.22010        -2.707349     -1.215037     -0.759560
     18.39880      2.85333     14.89210         2.931823     -0.226925      0.624017
     19.67330      0.85493     15.25830         1.365049     -1.849333      0.045267
     19.69670      2.20855     15.10260        -0.259548      0.965307      0.411787
     20.88570      0.13206     15.64930        -2.173415      0.112764      0.418925
     20.89680      2.85935     15.60050        -1.385064      0.232774     -0.843803
     22.04610      0.80527     15.91620         2.618675     -0.012924      0.904482
     22.07100      2.19171     15.91570         1.255009     -0.273146      0.579758
     23.19800      0.13421     16.48450        -0.091577      1.238630     -0.069149
     23.23670      2.83887     16.47050        -1.474124      0.871449     -1.212744
     24.43600      0.82770     16.74100        -0.787645     -2.521708      0.084264
     24.40260      2.17571     16.76250         2.666172      0.369785      0.190124
     25.60740      0.11853     17.16570         0.727948      3.075654      0.824783
     25.63700      2.83021     17.12630        -0.557286      2.642965     -0.216090
     26.79140      0.83408     17.43280        -1.379120     -0.387326     -1.360315
     26.84160      2.21885     17.37760        -4.391178     -0.573341     -0.675261
      0.12487      4.97707     18.06630         1.134799     -0.045423      0.343940
      0.07932      6.36357     18.21200         2.002390     -1.363887      0.611194
      1.29123      4.29836     18.11690         1.609707     -2.065299     -0.097940
      1.31525      7.02148     18.32660        -1.132829     -1.827657     -0.692653
      2.55365      4.90887     18.30580        -0.900233      2.067876      0.730635
      2.52484      6.30527     18.42500         2.300164     -1.323573      0.718660
      3.78708      4.25139     18.28250         1.491649      1.216414     -0.839797
      3.85740      6.90417     18.51040        -1.887175      0.177018     -0.483309
      5.08956      4.91320     18.22340        -2.706237     -0.316089      1.179794
      5.08989      6.27236     18.40380         2.261861     -0.249432     -0.191465
      6.25095      4.23749     17.95380         2.828529      1.178899     -0.591274
      6.39105      6.93065     18.15790        -1.254135     -0.568822     -0.040185
      7.55989      4.86963     17.83550        -0.879197     -0.095387     -0.612932
      7.62951      6.24074     17.92790        -0.467250      1.064181     -0.274461
      8.69132      4.25542     17.25660         1.169527     -0.074383      0.313828
      8.80325      6.91280     17.43560         0.634025      0.671993     -0.739069
      9.95450      4.91369     17.06850         0.890343     -2.136388     -1.040231
     10.03210      6.27185     17.03490        -0.493871      0.370957      1.014191
     11.11580      4.17570     16.58660         0.856398      2.559970     -0.534321
     11.23720      6.92081     16.59110        -2.663724      1.021883      0.390963
     12.34560      4.86796     16.30960         0.051108     -0.826889     -0.550335
     12.38640      6.22925     16.28700         1.003930      1.269557      1.166185
     13.50660      4.25188     15.77090        -0.260426     -1.512644     -0.655249
     13.61300      6.94945     16.05690        -1.131279     -3.398461     -0.173827
     14.73350      4.88194     15.55310        -0.226727      1.142354      0.777865
     14.77920      6.24466     15.80440         1.071390      0.271091     -0.505396
     15.91380      4.24972     15.15770         0.576050     -2.057385     -0.150300
     15.97850      6.92625     15.49240        -2.366745      0.327331     -0.285825
     17.16990      4.84137     15.29220        -1.045809      1.234894     -0.711569
     17.11810      6.20802     15.31040         3.889889      1.133862      1.341099
     18.38720      4.18768     15.22210         1.154576      0.250053     -0.438611
     18.38560      6.89866     15.43140        -0.360759      1.058983     -0.038180
     19.60830      4.83965     15.53640        -0.059197      2.010523      2.347983
     19.56040      6.26103     15.80680         0.306717     -2.809645     -1.497863
     20.82090      4.20259     15.89290         0.324028      0.244469     -0.836425
     20.79450      6.89836     16.03340        -0.224942      0.249008     -0.038746
     21.99880      4.86692     16.40470        -1.256313     -1.949580     -0.224011
     21.93730      6.20382     16.53710        -0.589719      2.416633     -0.552897
     23.21860      4.21426     16.63740         0.013651      0.317334      0.717952
     23.10100      6.91320     16.85290         1.010090      0.108386     -0.249552
     24.37960      4.93358     17.12040        -0.914771     -2.651438     -0.500593
     24.30260      6.26952     17.27460         0.161856      0.817872      0.238054
     25.60380      4.24684     17.26990         0.829237     -1.283714      0.330661
     25.52270      6.93622     17.57310         0.524840     -1.531906     -0.015684
     26.76160      4.89177     17.69300        -1.634011      0.935623      0.743971
     26.71210      6.25687     17.93230        -3.362723      0.842226     -1.151639
 -----------------------------------------------------------------------------------
    total drift:                               -0.106620      0.145570     -0.100823


--------------------------------------------------------------------------------------------------------



  FREE ENERGIE OF THE ION-ELECTRON SYSTEM (eV)
  ---------------------------------------------------
  free  energy   TOTEN  =      -828.84940459 eV

  energy  without entropy=     -828.77004093  energy(sigma->0) =     -828.80972276
 


--------------------------------------------------------------------------------------------------------


    POTLOK:  cpu time      0.4545: real time      0.4545


--------------------------------------------------------------------------------------------------------


     LOOP+:  cpu time    335.5005: real time    335.6977
    4ORBIT:  cpu time      0.0000: real time      0.0000

 total amount of memory used by VASP MPI-rank0  2294524. kBytes
=======================================================================

   base                                    :      30000. kBytes
   nonlr-proj                              :      15090. kBytes
   fftplans                                :     436558. kBytes
   grid                                    :     732614. kBytes
   one-center                              :        282. kBytes
   wavefun                                 :    1079980. kBytes
 
  
  
 General timing and accounting informations for this job:
 ========================================================
  
                  Total CPU time used (sec):      368.803
                            User time (sec):      360.366
                          System time (sec):        8.437
                         Elapsed time (sec):      369.115
  
                   Maximum memory used (kb):     3731724.
                   Average memory used (kb):          N/A
  
                          Minor page faults:      3178786
                          Major page faults:         5023
                 Voluntary context switches:        10421
