 vasp.6.5.0 16Dec24 (build Feb 19 2025 19:45:31) complex                         
 executed on              LinuxNV date 2025.10.25  18:14:16
 running    2 mpi-ranks, on    1 nodes
 distrk:  each k-point on    2 cores,    1 groups
 distr:  one band on NCORE=   1 cores,    2 groups
 Offloading initialized ...    2 GPUs detected


--------------------------------------------------------------------------------------------------------


 INCAR:
   ISTART = 0            (Not Read existing wavefunction
   ISPIN = 1            (Non-Spin polarised DFT, Default\=1)
   ICHARG = 2            (The initial guess charge density is generated by superposition of atomic charge density)
   LREAL = Auto         (Projection operators: automatic)
   ENCUT = 500          (Cut-off energy for plane wave basis set, in eV)
   LWAVE = .FALSE.       (Write WAVECAR or not)
   LCHARG = .FALSE.       (Write CHGCAR or not)
   PREC = Accurate   (Precision level)
   KGAMMA = .TRUE.
   ALGO = Normal
   NSW = 0           (Default: NSW \= 0)
   IBRION = -1           (Ions are not moved)
   ISMEAR = 0
   EDIFF = 1E-06        (SCF energy convergence
   NELM = 150          (Max electronic SCF steps)

 POTCAR:    PAW_PBE C 08Apr2002                   
 POTCAR:    PAW_PBE C 08Apr2002                   
   SHA256 =  253f7b50bb8d59471dbedb8285d89021f4a42ed1a2c5d38a03a736e69125dd95 C/POTCAR              
   COPYR  = (c) Copyright 08Apr2002 Georg Kresse                                                    
   COPYR  = This file is part of the software VASP. Any use, copying, and all other rights are regul
   COPYR  = If you do not have a valid VASP license, you may not use, copy or distribute this file. 
   VRHFIN =C: s2p2                                                                                  
   LEXCH  = PE                                                                                      
   EATOM  =   147.1560 eV,   10.8157 Ry                                                             
                                                                                                    
   TITEL  = PAW_PBE C 08Apr2002                                                                     
   LULTRA =        F    use ultrasoft PP ?                                                          
   IUNSCR =        1    unscreen: 0-lin 1-nonlin 2-no                                               
   RPACOR =    1.200    partial core radius                                                         
   POMASS =   12.011; ZVAL   =    4.000    mass and valenz                                          
   RCORE  =    1.500    outmost cutoff radius                                                       
   RWIGS  =    1.630; RWIGS  =    0.863    wigner-seitz radius (au A)                               
   ENMAX  =  400.000; ENMIN  =  300.000 eV                                                          
   ICORE  =        2    local potential                                                             
   LCOR   =        T    correct aug charges                                                         
   LPAW   =        T    paw PP                                                                      
   EAUG   =  644.873                                                                                
   DEXC   =    0.000                                                                                
   RMAX   =    1.529    core radius for proj-oper                                                   
   RAUG   =    1.300    factor for augmentation sphere                                              
   RDEP   =    1.501    radius for radial grids                                                     
   RDEPT  =    1.300    core radius for aug-charge                                                  
                                                                                                    
   Atomic configuration                                                                             
    4 entries                                                                                       
     n  l   j            E        occ.                                                              
     1  0  0.50      -273.3789   2.0000                                                             
     2  0  0.50       -13.7508   2.0000                                                             
     2  1  0.50        -5.2854   2.0000                                                             
     3  2  1.50        -5.4423   0.0000                                                             
   Description                                                                                      
     l       E           TYP  RCUT    TYP  RCUT                                                     
     0    -13.7508458     23  1.200                                                                 
     0     -8.2022199     23  1.200                                                                 
     1     -5.2854383     23  1.500                                                                 
     1     34.0145650     23  1.500                                                                 
     2     -5.4423304      7  1.500                                                                 
  local pseudopotential read in
  partial core-charges read in
  partial kinetic energy density read in
  atomic valenz-charges read in
  non local Contribution for L=            0  read in
    real space projection operators read in
  non local Contribution for L=            0  read in
    real space projection operators read in
  non local Contribution for L=            1  read in
    real space projection operators read in
  non local Contribution for L=            1  read in
    real space projection operators read in
    PAW grid and wavefunctions read in
 
   number of l-projection  operators is LMAX  =            4
   number of lm-projection operators is LMMAX =            8
 
 Optimization of the real space projectors (new method)

 maximal supplied QI-value         = 25.13
 optimisation between [QCUT,QGAM] = [ 11.31, 22.87] = [ 35.82,146.48] Ry 
 Optimized for a Real-space Cutoff    1.03 Angstroem

   l    n(q)    QCUT    max X(q) W(low)/X(q) W(high)/X(q)  e(spline) 
   0      7    11.310   115.676    0.20E-03    0.90E-03    0.20E-06
   0      7    11.310    87.132    0.20E-03    0.89E-03    0.19E-06
   1      6    11.310     4.429    0.16E-03    0.28E-03    0.12E-06
   1      6    11.310     2.733    0.12E-03    0.21E-03    0.99E-07
  PAW_PBE C 08Apr2002                   :
 energy of atom  1       EATOM= -147.1560
 kinetic energy error for atom=    0.0076 (will be added to EATOM!!)
 
 
 POSCAR:  C
  positions in cartesian coordinates
  No initial velocities read in


 exchange-correlation table for PE
   RHO(1)=    0.500       N(1)  =     2000
   RHO(2)=  100.500       N(2)  =     4000
 


--------------------------------------------------------------------------------------------------------


 ion  position               nearest neighbor table
   1  0.056  0.172  0.369-   3 1.35   2 1.40  45 1.49  46 2.03
   2  0.055  0.343  0.362-   4 1.37   1 1.40  46 1.49  45 2.07
   3  0.098  0.092  0.371-   1 1.35  50 1.35   5 1.40
   4  0.097  0.422  0.367-  49 1.34   2 1.37   6 1.47
   5  0.143  0.171  0.375-   6 1.37   3 1.40   7 1.42
   6  0.144  0.338  0.369-   5 1.37   8 1.42   4 1.47
   7  0.185  0.090  0.388-  54 1.39   9 1.40   5 1.42
   8  0.188  0.420  0.375-  53 1.39  10 1.41   6 1.42
   9  0.229  0.173  0.391-  10 1.36   7 1.40  11 1.42
  10  0.231  0.337  0.382-   9 1.36   8 1.41  12 1.42
  11  0.270  0.089  0.404-  58 1.38  13 1.40   9 1.42
  12  0.273  0.417  0.397-  57 1.41  10 1.42  14 1.44
  13  0.314  0.169  0.410-  14 1.39  11 1.40  15 1.43
  14  0.317  0.340  0.407-  13 1.39  12 1.44  16 1.44
  15  0.355  0.089  0.427-  62 1.38  17 1.41  13 1.43
  16  0.359  0.425  0.422-  61 1.36  18 1.39  14 1.44
  17  0.399  0.172  0.431-  18 1.39  15 1.41  19 1.43
  18  0.401  0.343  0.430-  17 1.39  16 1.39  20 1.41
  19  0.442  0.095  0.446-  66 1.33  21 1.43  17 1.43
  20  0.443  0.425  0.442-  65 1.36  18 1.41  22 1.46
  21  0.487  0.174  0.452-  22 1.36  23 1.41  19 1.43
  22  0.487  0.341  0.455-  21 1.36  24 1.39  20 1.46
  23  0.530  0.091  0.460-  70 1.38  25 1.39  21 1.41
  24  0.530  0.420  0.462-  69 1.37  22 1.39  26 1.43
  25  0.574  0.171  0.461-  26 1.33  23 1.39  27 1.45
  26  0.574  0.335  0.462-  25 1.33  24 1.43  28 1.43
  27  0.619  0.088  0.458-  29 1.35  74 1.40  25 1.45
  28  0.620  0.415  0.463-  30 1.37  73 1.39  26 1.43
  29  0.661  0.169  0.454-  27 1.35  30 1.36  31 1.45
  30  0.663  0.336  0.458-  29 1.36  28 1.37  32 1.39
  31  0.704  0.075  0.447-  78 1.32  33 1.42  29 1.45
  32  0.707  0.410  0.453-  30 1.39  77 1.39  34 1.42
  33  0.746  0.158  0.434-  34 1.38  31 1.42  35 1.44
  34  0.748  0.329  0.437-  33 1.38  36 1.42  32 1.42
  35  0.789  0.081  0.420-  82 1.39  37 1.41  33 1.44
  36  0.790  0.409  0.424-  81 1.36  34 1.42  38 1.43
  37  0.830  0.162  0.406-  38 1.36  39 1.39  35 1.41
  38  0.830  0.330  0.405-  37 1.36  36 1.43  40 1.44
  39  0.873  0.086  0.398-  37 1.39  86 1.39  41 1.44
  40  0.873  0.417  0.395-  85 1.37  42 1.43  38 1.44
  41  0.916  0.161  0.382-  42 1.38  43 1.41  39 1.44
  42  0.915  0.332  0.382-  41 1.38  40 1.43  44 1.45
  43  0.960  0.083  0.378-  90 1.35  45 1.39  41 1.41
  44  0.960  0.416  0.375-  89 1.37  46 1.38  42 1.45
  45  0.003  0.163  0.369-  43 1.39  46 1.42   1 1.49   2 2.07
  46  0.002  0.337  0.366-  44 1.38  45 1.42   2 1.49   1 2.03
  47  0.053  0.669  0.374-  49 1.40  48 1.41  91 1.46  92 2.01
  48  0.054  0.842  0.373-  50 1.38  47 1.41  92 1.46  91 2.03
  49  0.097  0.584  0.375-   4 1.34  47 1.40  51 1.41
  50  0.096  0.927  0.377-   3 1.35  48 1.38  52 1.42
  51  0.140  0.670  0.383-  49 1.41  52 1.41  53 1.44
  52  0.139  0.843  0.387-  54 1.41  51 1.41  50 1.42
  53  0.185  0.587  0.385-   8 1.39  51 1.44  55 1.45
  54  0.183  0.921  0.394-   7 1.39  52 1.41  56 1.43
  55  0.229  0.672  0.395-  56 1.32  57 1.40  53 1.45
  56  0.227  0.833  0.401-  55 1.32  54 1.43  58 1.44
  57  0.270  0.586  0.406-  55 1.40  12 1.41  59 1.44
  58  0.270  0.920  0.409-  11 1.38  60 1.40  56 1.44
  59  0.311  0.675  0.421-  60 1.35  57 1.44  61 1.48
  60  0.310  0.842  0.425-  59 1.35  58 1.40  62 1.41
  61  0.356  0.589  0.430-  16 1.36  63 1.44  59 1.48
  62  0.353  0.922  0.435-  15 1.38  60 1.41  64 1.48
  63  0.399  0.674  0.443-  64 1.36  65 1.41  61 1.44
  64  0.399  0.841  0.446-  63 1.36  66 1.40  62 1.48
  65  0.442  0.592  0.448-  20 1.36  63 1.41  67 1.48
  66  0.440  0.934  0.453-  19 1.33  64 1.40  68 1.44
  67  0.487  0.674  0.461-  69 1.37  68 1.41  65 1.48
  68  0.483  0.848  0.462-  67 1.41  70 1.41  66 1.44
  69  0.529  0.589  0.464-  24 1.37  67 1.37  71 1.45
  70  0.529  0.924  0.466-  23 1.38  68 1.41  72 1.48
  71  0.575  0.668  0.469-  72 1.35  73 1.43  69 1.45
  72  0.575  0.834  0.465-  71 1.35  74 1.41  70 1.48
  73  0.620  0.585  0.468-  28 1.39  75 1.39  71 1.43
  74  0.619  0.917  0.463-  27 1.40  72 1.41  76 1.42
  75  0.665  0.659  0.465-  76 1.39  73 1.39  77 1.43
  76  0.662  0.829  0.461-  75 1.39  74 1.42  78 1.47
  77  0.709  0.581  0.455-  79 1.36  32 1.39  75 1.43
  78  0.707  0.913  0.451-  31 1.32  80 1.43  76 1.47
  79  0.750  0.662  0.445-  77 1.36  80 1.38  81 1.47
  80  0.751  0.831  0.440-  79 1.38  82 1.41  78 1.43
  81  0.792  0.576  0.428-  36 1.36  83 1.43  79 1.47
  82  0.792  0.911  0.426-  35 1.39  84 1.41  80 1.41
  83  0.833  0.663  0.416-  84 1.36  81 1.43  85 1.47
  84  0.835  0.831  0.415-  83 1.36  86 1.40  82 1.41
  85  0.876  0.585  0.398-  40 1.37  87 1.37  83 1.47
  86  0.875  0.915  0.402-  39 1.39  88 1.40  84 1.40
  87  0.917  0.667  0.388-  88 1.37  85 1.37  89 1.43
  88  0.918  0.836  0.391-  87 1.37  90 1.40  86 1.40
  89  0.961  0.584  0.380-  44 1.37  91 1.37  87 1.43
  90  0.960  0.917  0.380-  43 1.35  92 1.38  88 1.40
  91  0.002  0.669  0.371-  89 1.37  92 1.39  47 1.46  48 2.03
  92  0.002  0.841  0.370-  90 1.38  91 1.39  48 1.46  47 2.01
 
  LATTYP: Found a simple orthorhombic cell.
 ALAT       =     8.1000000000
 B/A-ratio  =     3.4629629630
 C/A-ratio  =     4.1358024691
  
  Lattice vectors:
  
 A1 = (   0.0000000000,  -8.1000000000,   0.0000000000)
 A2 = (  28.0500000000,   0.0000000000,   0.0000000000)
 A3 = (   0.0000000000,   0.0000000000,  33.5000000000)


Analysis of symmetry for initial positions (statically):
=====================================================================
 Subroutine PRICEL returns:
 Original cell was already a primitive cell.
 

 Routine SETGRP: Setting up the symmetry group for a 
 simple orthorhombic supercell.


 Subroutine GETGRP returns: Found  1 space group operations
 (whereof  1 operations were pure point group operations)
 out of a pool of  8 trial point group operations.


The static configuration has the point symmetry C_1 .


Analysis of symmetry for dynamics (positions and initial velocities):
=====================================================================
 Subroutine PRICEL returns:
 Original cell was already a primitive cell.
 

 Routine SETGRP: Setting up the symmetry group for a 
 simple orthorhombic supercell.


 Subroutine GETGRP returns: Found  1 space group operations
 (whereof  1 operations were pure point group operations)
 out of a pool of  8 trial point group operations.


The dynamic configuration has the point symmetry C_1 .


 Subroutine INISYM returns: Found  1 space group operations
 (whereof  1 operations are pure point group operations),
 and found     1 'primitive' translations


----------------------------------------------------------------------------------------

                                     Primitive cell                                     

  volume of cell :    7611.3675

  direct lattice vectors                    reciprocal lattice vectors
    28.050000000  0.000000000  0.000000000     0.035650624  0.000000000  0.000000000
     0.000000000  8.100000000  0.000000000     0.000000000  0.123456790  0.000000000
     0.000000000  0.000000000 33.500000000     0.000000000  0.000000000  0.029850746

  length of vectors
    28.050000000  8.100000000 33.500000000     0.035650624  0.123456790  0.029850746

  position of ions in fractional coordinates (direct lattice)
     0.056171836  0.171996296  0.368638806
     0.054649554  0.342875309  0.362331343
     0.098454189  0.092288395  0.370522388
     0.097413191  0.421585185  0.367200000
     0.142680570  0.171024691  0.375200000
     0.143843137  0.338283951  0.369441791
     0.185160071  0.090432716  0.387605970
     0.188029947  0.420167901  0.375274627
     0.228627451  0.173302469  0.390770149
     0.231156150  0.336698765  0.382259701
     0.270303030  0.089310370  0.403916418
     0.272722995  0.416635802  0.397038806
     0.314170410  0.168733333  0.410098507
     0.317437077  0.339680247  0.406608955
     0.355209626  0.089247407  0.426656716
     0.358559715  0.424558025  0.421979104
     0.399333333  0.171533333  0.430644776
     0.401336898  0.342808642  0.429662687
     0.441721925  0.094534074  0.445743284
     0.443087344  0.425371605  0.442229851
     0.486538324  0.174237037  0.451528358
     0.486766488  0.341133333  0.454773134
     0.529903743  0.091420123  0.459519403
     0.529757576  0.420477778  0.461838806
     0.573707665  0.171060494  0.460671642
     0.574335116  0.335340741  0.462011940
     0.619372549  0.088243457  0.457719403
     0.619946524  0.414664198  0.463313433
     0.661244207  0.169007407  0.453782090
     0.662784314  0.336123457  0.457614925
     0.704317291  0.074966914  0.447011940
     0.707187166  0.409579012  0.452877612
     0.745939394  0.158401235  0.433952239
     0.747729055  0.328520988  0.436570149
     0.789197861  0.080976790  0.420477612
     0.789853832  0.409361728  0.423707463
     0.830032086  0.162253086  0.405749254
     0.829696970  0.330276543  0.405417910
     0.873201426  0.085959506  0.397716418
     0.872727273  0.417329630  0.394543284
     0.915625668  0.160990123  0.381668657
     0.914837790  0.331804938  0.382489552
     0.960167558  0.083009753  0.377740299
     0.959664884  0.416167901  0.374949254
     0.003017604  0.162639506  0.369298507
     0.001888346  0.337154321  0.365797015
     0.053475579  0.668611111  0.374307463
     0.053721925  0.842102469  0.373444776
     0.096995722  0.584491358  0.374811940
     0.096314082  0.927085185  0.376608955
     0.139657398  0.670244444  0.382779104
     0.138994652  0.843416049  0.387313433
     0.184971480  0.586770370  0.385080597
     0.183295900  0.920581481  0.393602985
     0.228678431  0.671683951  0.395068657
     0.226680570  0.832524691  0.400805970
     0.270137968  0.586187654  0.405916418
     0.269989661  0.920124691  0.409364179
     0.310950446  0.675307407  0.420940299
     0.310499822  0.841682716  0.424644776
     0.356179323  0.588571605  0.429967164
     0.353316578  0.921960494  0.434898507
     0.398680927  0.673917284  0.442764179
     0.398531194  0.841040741  0.445982090
     0.442499109  0.592006173  0.448214925
     0.439800357  0.933651852  0.453235821
     0.486844920  0.674470370  0.461107463
     0.483354724  0.847925926  0.462104478
     0.528877005  0.588972840  0.463626866
     0.528549020  0.923553086  0.466307463
     0.574930481  0.667713580  0.468522388
     0.574556150  0.833797531  0.465214925
     0.620106952  0.585377778  0.467546269
     0.618759358  0.917012346  0.463068657
     0.664809269  0.658691358  0.464561194
     0.662463458  0.829206173  0.461414925
     0.709297683  0.581225926  0.454865672
     0.707262032  0.912850617  0.450668657
     0.749942959  0.661854321  0.444534328
     0.750641711  0.830844444  0.439928358
     0.791729055  0.575702469  0.428349254
     0.792099822  0.911295062  0.425964179
     0.833126560  0.663388889  0.415665672
     0.834516934  0.830698765  0.414614925
     0.875771836  0.585040741  0.398429851
     0.875190731  0.915265432  0.401561194
     0.916930481  0.666667901  0.388211940
     0.917597148  0.835512346  0.390859701
     0.960673797  0.584002469  0.379889552
     0.959778966  0.916908642  0.380361194
     0.001649929  0.669079012  0.371388060
     0.001852528  0.840554321  0.369788060

  ion indices of the primitive-cell ions
   primitive index   ion index
                 1           1
                 2           2
                 3           3
                 4           4
                 5           5
                 6           6
                 7           7
                 8           8
                 9           9
                10          10
                11          11
                12          12
                13          13
                14          14
                15          15
                16          16
                17          17
                18          18
                19          19
                20          20
                21          21
                22          22
                23          23
                24          24
                25          25
                26          26
                27          27
                28          28
                29          29
                30          30
                31          31
                32          32
                33          33
                34          34
                35          35
                36          36
                37          37
                38          38
                39          39
                40          40
                41          41
                42          42
                43          43
                44          44
                45          45
                46          46
                47          47
                48          48
                49          49
                50          50
                51          51
                52          52
                53          53
                54          54
                55          55
                56          56
                57          57
                58          58
                59          59
                60          60
                61          61
                62          62
                63          63
                64          64
                65          65
                66          66
                67          67
                68          68
                69          69
                70          70
                71          71
                72          72
                73          73
                74          74
                75          75
                76          76
                77          77
                78          78
                79          79
                80          80
                81          81
                82          82
                83          83
                84          84
                85          85
                86          86
                87          87
                88          88
                89          89
                90          90
                91          91
                92          92

----------------------------------------------------------------------------------------

 
 
 KPOINTS: K-Spacing Value to Generate K-Mesh: 0.03

Automatic generation of k-mesh.
 Grid dimensions read from file:
 generate k-points for:    1    4    1

 Generating k-lattice:

  Cartesian coordinates                     Fractional coordinates (reciprocal lattice)
     0.035650624  0.000000000  0.000000000     1.000000000  0.000000000  0.000000000
     0.000000000  0.030864198  0.000000000     0.000000000  0.250000000  0.000000000
     0.000000000  0.000000000  0.029850746     0.000000000  0.000000000  1.000000000

  Length of vectors
     0.035650624  0.030864198  0.029850746

  Shift w.r.t. Gamma in fractional coordinates (k-lattice)
     0.000000000  0.000000000  0.000000000

 
 Subroutine IBZKPT returns following result:
 ===========================================
 
 Found      3 irreducible k-points:
 
 Following reciprocal coordinates:
            Coordinates               Weight
  0.000000  0.000000  0.000000      1.000000
  0.000000  0.250000  0.000000      2.000000
  0.000000  0.500000  0.000000      1.000000
 
 Following cartesian coordinates:
            Coordinates               Weight
  0.000000  0.000000  0.000000      1.000000
  0.000000  0.030864  0.000000      2.000000
  0.000000  0.061728  0.000000      1.000000
 


--------------------------------------------------------------------------------------------------------




 Dimension of arrays:
   k-points           NKPTS =      3   k-points in BZ     NKDIM =      3   number of bands    NBANDS=    232
   number of dos      NEDOS =    301   number of ions     NIONS =     92
   non local maximal  LDIM  =      4   non local SUM 2l+1 LMDIM =      8
   total plane-waves  NPLWV = ******
   max r-space proj   IRMAX =   1967   max aug-charges    IRDMAX=   5083
   dimension x,y,z NGX =   210 NGY =   60 NGZ =  250
   dimension x,y,z NGXF=   420 NGYF=  120 NGZF=  500
   support grid    NGXF=   420 NGYF=  120 NGZF=  500
   ions per type =              92
   NGX,Y,Z   is equivalent  to a cutoff of  12.45, 12.31, 12.41 a.u.
   NGXF,Y,Z  is equivalent  to a cutoff of  24.89, 24.63, 24.81 a.u.

 SYSTEM =  unknown system                          
 POSCAR =   C                                      

 Startparameter for this run:
   NWRITE =      2    write-flag & timer
   PREC   = accura    normal or accurate (medium, high low for compatibility)
   ISTART =      0    job   : 0-new  1-cont  2-samecut
   ICHARG =      2    charge: 1-file 2-atom 10-const
   ISPIN  =      1    spin polarized calculation?
   LNONCOLLINEAR =      F non collinear calculations
   LSORBIT =      F    spin-orbit coupling
   INIWAV =      1    electr: 0-lowe 1-rand  2-diag
   LASPH  =      F    aspherical Exc in radial PAW
 Electronic Relaxation 1
   ENCUT  =  500.0 eV  36.75 Ry    6.06 a.u.  51.14 14.77 61.08*2*pi/ulx,y,z
   ENINI  =  500.0     initial cutoff
   ENAUG  =  644.9 eV  augmentation charge cutoff
   NELM   =    150;   NELMIN=  2; NELMDL= -5     # of ELM steps 
   EDIFF  = 0.1E-05   stopping-criterion for ELM
   LREAL  =      T    real-space projection
   NLSPLINE    = F    spline interpolate recip. space projectors
   LCOMPAT=      F    compatible to vasp.4.4
   GGA_COMPAT  = T    GGA compatible to vasp.4.4-vasp.4.6
   LMAXPAW     = -100 max onsite density
   LMAXMIX     =    2 max onsite mixed and CHGCAR
   VOSKOWN=      0    Vosko Wilk Nusair interpolation
   ROPT   =   -0.00025
 Ionic relaxation
   EDIFFG = 0.1E-04   stopping-criterion for IOM
   NSW    =      0    number of steps for IOM
   NBLOCK =      1;   KBLOCK =      1    inner block; outer block 
   IBRION =     -1    ionic relax: 0-MD 1-quasi-New 2-CG
   NFREE  =      0    steps in history (QN), initial steepest desc. (CG)
   ISIF   =      2    stress and relaxation
   IWAVPR =     10    prediction:  0-non 1-charg 2-wave 3-comb
   ISYM   =      2    0-nonsym 1-usesym 2-fastsym
   LCORR  =      T    Harris-Foulkes like correction to forces

   POTIM  = 0.5000    time-step for ionic-motion
   TEIN   =    0.0    initial temperature
   TEBEG  =    0.0;   TEEND  =   0.0 temperature during run
   SMASS  =  -3.00    Nose mass-parameter (am)
   estimated Nose-frequenzy (Omega)   =  0.10E-29 period in steps = 0.13E+47 mass=  -0.180E-25a.u.
   SCALEE = 1.0000    scale energy and forces
   NPACO  =    256;   APACO  = 10.0  distance and # of slots for P.C.
   PSTRESS=    0.0 pullay stress

  Mass of Ions in am
   POMASS =  12.01
  Ionic Valenz
   ZVAL   =   4.00
  Atomic Wigner-Seitz radii
   RWIGS  =  -1.00
  virtual crystal weights 
   VCA    =   1.00
   NELECT =     368.0000    total number of electrons
   NUPDOWN=      -1.0000    fix difference up-down

 DOS related values:
   EMIN   =  10.00;   EMAX   =-10.00  energy-range for DOS
   EFERMI =   0.00;   METHOD = LEGACY      
   ISMEAR =     0;   SIGMA  =   0.20  broadening in eV -4-tet -1-fermi 0-gaus
   EFERMI_NEDOS =   21; number of points for ismear=-14 and -15

 Electronic relaxation 2 (details)
   IALGO  =     38    algorithm
   LDIAG  =      T    sub-space diagonalisation (order eigenvalues)
   LSUBROT=      F    optimize rotation matrix (better conditioning)
   TURBO    =      0    0=normal 1=particle mesh
   IRESTART =      0    0=no restart 2=restart with 2 vectors
   NREBOOT  =      0    no. of reboots
   NMIN     =      0    reboot dimension
   EREF     =   0.00    reference energy to select bands
   IMIX   =      4    mixing-type and parameters
     AMIX     =   0.40;   BMIX     =  1.00
     AMIX_MAG =   1.60;   BMIX_MAG =  1.00
     AMIN     =   0.10
     WC   =   100.;   INIMIX=   1;  MIXPRE=   1;  MAXMIX= -45

 Intra band minimization:
   WEIMIN = 0.0000     energy-eigenvalue tresh-hold
   EBREAK =  0.11E-08  absolut break condition
   DEPER  =   0.30     relativ break condition  

   TIME   =   0.40     timestep for ELM

  volume/ion in A,a.u.               =      82.73       558.30
  Fermi-wavevector in a.u.,A,eV,Ry     =   0.596398  1.127030  4.839472  0.355691
  Thomas-Fermi vector in A             =   1.646729
 
 Write flags
   LWAVE        =      F    write WAVECAR
   LDOWNSAMPLE  =      F    k-point downsampling of WAVECAR
   LCHARG       =      F    write CHGCAR
   LVTOT        =      F    write LOCPOT, total local potential
   LVHAR        =      F    write LOCPOT, Hartree potential only
   WRT_POTENTIAL= false  ! write potential to hdf5 file
   LELF         =      F    write electronic localiz. function (ELF)
   LORBIT       =      0    0 simple, 1 ext, 2 COOP (PROOUT), +10 PAW based schemes


 Python interface
   PLUGINS active      =      F    recompile with -DPLUGINS to activate
 
 Dipole corrections
   LMONO      =      F    monopole corrections only (constant potential shift)
   LDIPOL     =      F    correct potential (dipole corrections)
   IDIPOL     =      0    1-x, 2-y, 3-z, 4-all directions 
   EPSILON    =  1.0000000 bulk dielectric constant
   LVACPOTAV  =      F  vacuum potentials using an averaging scheme for the charge density
   VACPOTFLAT =  0.1000000 required flatness to determine vacuum potential
 
Coulomb truncation method
  LTRUNCATE          =      F  Coulomb kernel truncation to be used
  IDIMENSIONALITY    =      3  Dimensionality of cutoff (0 molecules / 2 surfaces)
  ISURFACE           =     -1  Direction of surface normal
  LCOARSEN           =      F  Coarsen the charge grid before padding, preferred

 
 Exchange correlation treatment:
   GGA     = PE    functional components
   XC_C    = 1    coefficients multiplying the functional components
   LIBXC   =     F    Libxc                    
   VOSKOWN =     0    Vosko Wilk Nusair interpolation
   LHFCALC =     F    Hartree Fock is set to
   LHFONE  =     F    Hartree Fock one center treatment
   AEXX    =    0.0000 exact exchange contribution

 Parameters of functionals:
   PE:
     No parameter
 
 Van der Waals corrections
   IVDW    =     0    specifies the selected vdW correction

 Linear response parameters
   LEPSILON=     F    determine dielectric tensor
   LRPA    =     F    only Hartree local field effects (RPA)
   LNABLA  =     F    use nabla operator in PAW spheres
   LVEL    =     F    velocity operator in full k-point grid
   CSHIFT  =0.1000    complex shift for real part using Kramers Kronig
   OMEGAMAX=  -1.0    maximum frequency
   DEG_THRESHOLD= 0.2000000E-02 threshold for treating states as degnerate
   RTIME   =   -0.100 relaxation time in fs
  (WPLASMAI=    0.000 imaginary part of plasma frequency in eV, 0.658/RTIME)
   DFIELD  = 0.0000000 0.0000000 0.0000000 field for delta impulse in time
 
  Optional k-point grid parameters
   LKPOINTS_OPT  =     F    use optional k-point grid
   KPOINTS_OPT_MODE=     1    mode for optional k-point grid
 
 Orbital magnetization related:
   ORBITALMAG=     F  switch on orbital magnetization
   LCHIMAG   =     F  perturbation theory with respect to B field
   DQ        =  0.001000  dq finite difference perturbation B field
   LLRAUG    =     F  two centre corrections for induced B field
   LBONE     =     F  B-component reconstruction in AE one-centre
   LVGVCALC  =     T  calculate vGv susceptibility
   LVGVAPPL  =     F  apply vGv susceptibility instead of pGv for G=0

 Random number generation:
   RANDOM_GENERATOR = DEFAULT
   PCG_SEED         = not used


--------------------------------------------------------------------------------------------------------


 Static calculation
 charge density and potential will be updated during run
 non-spin polarized calculation
 Variant of blocked Davidson
 Davidson routine will perform the subspace rotation
 perform sub-space diagonalisation
    after iterative eigenvector-optimisation
 modified Broyden-mixing scheme, WC =      100.0
 initial mixing is a Kerker type mixing with AMIX =  0.4000 and BMIX =      1.0000
 Hartree-type preconditioning will be used
 using additional bands            48
 real space projection scheme for non local part
 use partial core corrections
 calculate Harris-corrections to forces 
   (improved forces if not selfconsistent)
 use gradient corrections 
 use of overlap-Matrix (Vanderbilt PP)
 Gauss-broadening in eV      SIGMA  =   0.20


--------------------------------------------------------------------------------------------------------


  energy-cutoff  :      500.00
  volume of cell :     7611.37
      direct lattice vectors                 reciprocal lattice vectors
    28.050000000  0.000000000  0.000000000     0.035650624  0.000000000  0.000000000
     0.000000000  8.100000000  0.000000000     0.000000000  0.123456790  0.000000000
     0.000000000  0.000000000 33.500000000     0.000000000  0.000000000  0.029850746

  length of vectors
    28.050000000  8.100000000 33.500000000     0.035650624  0.123456790  0.029850746


 
 k-points in units of 2pi/SCALE and weight: K-Spacing Value to Generate K-Mesh: 0.03
   0.00000000  0.00000000  0.00000000       0.250
   0.00000000  0.03086420  0.00000000       0.500
   0.00000000  0.06172840  0.00000000       0.250
 
 k-points in reciprocal lattice and weights: K-Spacing Value to Generate K-Mesh: 0.03
   0.00000000  0.00000000  0.00000000       0.250
   0.00000000  0.25000000  0.00000000       0.500
   0.00000000  0.50000000  0.00000000       0.250
 
 position of ions in fractional coordinates (direct lattice) 
   0.05617184  0.17199630  0.36863881
   0.05464955  0.34287531  0.36233134
   0.09845419  0.09228840  0.37052239
   0.09741319  0.42158519  0.36720000
   0.14268057  0.17102469  0.37520000
   0.14384314  0.33828395  0.36944179
   0.18516007  0.09043272  0.38760597
   0.18802995  0.42016790  0.37527463
   0.22862745  0.17330247  0.39077015
   0.23115615  0.33669877  0.38225970
   0.27030303  0.08931037  0.40391642
   0.27272299  0.41663580  0.39703881
   0.31417041  0.16873333  0.41009851
   0.31743708  0.33968025  0.40660896
   0.35520963  0.08924741  0.42665672
   0.35855971  0.42455802  0.42197910
   0.39933333  0.17153333  0.43064478
   0.40133690  0.34280864  0.42966269
   0.44172193  0.09453407  0.44574328
   0.44308734  0.42537160  0.44222985
   0.48653832  0.17423704  0.45152836
   0.48676649  0.34113333  0.45477313
   0.52990374  0.09142012  0.45951940
   0.52975758  0.42047778  0.46183881
   0.57370766  0.17106049  0.46067164
   0.57433512  0.33534074  0.46201194
   0.61937255  0.08824346  0.45771940
   0.61994652  0.41466420  0.46331343
   0.66124421  0.16900741  0.45378209
   0.66278431  0.33612346  0.45761493
   0.70431729  0.07496691  0.44701194
   0.70718717  0.40957901  0.45287761
   0.74593939  0.15840123  0.43395224
   0.74772906  0.32852099  0.43657015
   0.78919786  0.08097679  0.42047761
   0.78985383  0.40936173  0.42370746
   0.83003209  0.16225309  0.40574925
   0.82969697  0.33027654  0.40541791
   0.87320143  0.08595951  0.39771642
   0.87272727  0.41732963  0.39454328
   0.91562567  0.16099012  0.38166866
   0.91483779  0.33180494  0.38248955
   0.96016756  0.08300975  0.37774030
   0.95966488  0.41616790  0.37494925
   0.00301760  0.16263951  0.36929851
   0.00188835  0.33715432  0.36579701
   0.05347558  0.66861111  0.37430746
   0.05372193  0.84210247  0.37344478
   0.09699572  0.58449136  0.37481194
   0.09631408  0.92708519  0.37660896
   0.13965740  0.67024444  0.38277910
   0.13899465  0.84341605  0.38731343
   0.18497148  0.58677037  0.38508060
   0.18329590  0.92058148  0.39360299
   0.22867843  0.67168395  0.39506866
   0.22668057  0.83252469  0.40080597
   0.27013797  0.58618765  0.40591642
   0.26998966  0.92012469  0.40936418
   0.31095045  0.67530741  0.42094030
   0.31049982  0.84168272  0.42464478
   0.35617932  0.58857160  0.42996716
   0.35331658  0.92196049  0.43489851
   0.39868093  0.67391728  0.44276418
   0.39853119  0.84104074  0.44598209
   0.44249911  0.59200617  0.44821493
   0.43980036  0.93365185  0.45323582
   0.48684492  0.67447037  0.46110746
   0.48335472  0.84792593  0.46210448
   0.52887701  0.58897284  0.46362687
   0.52854902  0.92355309  0.46630746
   0.57493048  0.66771358  0.46852239
   0.57455615  0.83379753  0.46521493
   0.62010695  0.58537778  0.46754627
   0.61875936  0.91701235  0.46306866
   0.66480927  0.65869136  0.46456119
   0.66246346  0.82920617  0.46141493
   0.70929768  0.58122593  0.45486567
   0.70726203  0.91285062  0.45066866
   0.74994296  0.66185432  0.44453433
   0.75064171  0.83084444  0.43992836
   0.79172906  0.57570247  0.42834925
   0.79209982  0.91129506  0.42596418
   0.83312656  0.66338889  0.41566567
   0.83451693  0.83069877  0.41461493
   0.87577184  0.58504074  0.39842985
   0.87519073  0.91526543  0.40156119
   0.91693048  0.66666790  0.38821194
   0.91759715  0.83551235  0.39085970
   0.96067380  0.58400247  0.37988955
   0.95977897  0.91690864  0.38036119
   0.00164993  0.66907901  0.37138806
   0.00185253  0.84055432  0.36978806
 
 position of ions in cartesian coordinates  (Angst):
   1.57562000  1.39317000 12.34940000
   1.53292000  2.77729000 12.13810000
   2.76164000  0.74753600 12.41250000
   2.73244000  3.41484000 12.30120000
   4.00219000  1.38530000 12.56920000
   4.03480000  2.74010000 12.37630000
   5.19374000  0.73250500 12.98480000
   5.27424000  3.40336000 12.57170000
   6.41300000  1.40375000 13.09080000
   6.48393000  2.72726000 12.80570000
   7.58200000  0.72341400 13.53120000
   7.64988000  3.37475000 13.30080000
   8.81248000  1.36674000 13.73830000
   8.90411000  2.75141000 13.62140000
   9.96363000  0.72290400 14.29300000
  10.05760000  3.43892000 14.13630000
  11.20130000  1.38942000 14.42660000
  11.25750000  2.77675000 14.39370000
  12.39030000  0.76572600 14.93240000
  12.42860000  3.44551000 14.81470000
  13.64740000  1.41132000 15.12620000
  13.65380000  2.76318000 15.23490000
  14.86380000  0.74050300 15.39390000
  14.85970000  3.40587000 15.47160000
  16.09250000  1.38559000 15.43250000
  16.11010000  2.71626000 15.47740000
  17.37340000  0.71477200 15.33360000
  17.38950000  3.35878000 15.52100000
  18.54790000  1.36896000 15.20170000
  18.59110000  2.72260000 15.33010000
  19.75610000  0.60723200 14.97490000
  19.83660000  3.31759000 15.17140000
  20.92360000  1.28305000 14.53740000
  20.97380000  2.66102000 14.62510000
  22.13700000  0.65591200 14.08600000
  22.15540000  3.31583000 14.19420000
  23.28240000  1.31425000 13.59260000
  23.27300000  2.67524000 13.58150000
  24.49330000  0.69627200 13.32350000
  24.48000000  3.38037000 13.21720000
  25.68330000  1.30402000 12.78590000
  25.66120000  2.68762000 12.81340000
  26.93270000  0.67237900 12.65430000
  26.91860000  3.37096000 12.56080000
   0.08464380  1.31738000 12.37150000
   0.05296810  2.73095000 12.25420000
   1.49999000  5.41575000 12.53930000
   1.50690000  6.82103000 12.51040000
   2.72073000  4.73438000 12.55620000
   2.70161000  7.50939000 12.61640000
   3.91739000  5.42898000 12.82310000
   3.89880000  6.83167000 12.97500000
   5.18845000  4.75284000 12.90020000
   5.14145000  7.45671000 13.18570000
   6.41443000  5.44064000 13.23480000
   6.35839000  6.74345000 13.42700000
   7.57737000  4.74812000 13.59820000
   7.57321000  7.45301000 13.71370000
   8.72216000  5.46999000 14.10150000
   8.70952000  6.81763000 14.22560000
   9.99083000  4.76743000 14.40390000
   9.91053000  7.46788000 14.56910000
  11.18300000  5.45873000 14.83260000
  11.17880000  6.81243000 14.94040000
  12.41210000  4.79525000 15.01520000
  12.33640000  7.56258000 15.18340000
  13.65600000  5.46321000 15.44710000
  13.55810000  6.86820000 15.48050000
  14.83500000  4.77068000 15.53150000
  14.82580000  7.48078000 15.62130000
  16.12680000  5.40848000 15.69550000
  16.11630000  6.75376000 15.58470000
  17.39400000  4.74156000 15.66280000
  17.35620000  7.42780000 15.51280000
  18.64790000  5.33540000 15.56280000
  18.58210000  6.71657000 15.45740000
  19.89580000  4.70793000 15.23800000
  19.83870000  7.39409000 15.09740000
  21.03590000  5.36102000 14.89190000
  21.05550000  6.72984000 14.73760000
  22.20800000  4.66319000 14.34970000
  22.21840000  7.38149000 14.26980000
  23.36920000  5.37345000 13.92480000
  23.40820000  6.72866000 13.88960000
  24.56540000  4.73883000 13.34740000
  24.54910000  7.41365000 13.45230000
  25.71990000  5.40001000 13.00510000
  25.73860000  6.76765000 13.09380000
  26.94690000  4.73042000 12.72630000
  26.92180000  7.42696000 12.74210000
   0.04628050  5.41954000 12.44150000
   0.05196340  6.80849000 12.38790000
 


--------------------------------------------------------------------------------------------------------


 k-point     1 :   0.0000 0.0000 0.0000  plane waves:  193173
 k-point     2 :   0.0000 0.2500 0.0000  plane waves:  193166
 k-point     3 :   0.0000 0.5000 0.0000  plane waves:  193226

 maximum and minimum number of plane-waves per node :    193226   193166

 maximum number of plane-waves:    193226
 maximum index in each direction: 
   IXMAX=   51   IYMAX=   14   IZMAX=   61
   IXMIN=  -51   IYMIN=  -15   IZMIN=  -61


 serial   3D FFT for wavefunctions
 parallel 3D FFT for charge:
    minimum data exchange during FFTs selected (reduces bandwidth)


 total amount of memory used by VASP MPI-rank0  2294502. kBytes
=======================================================================

   base                                    :      30000. kBytes
   nonlr-proj                              :      15068. kBytes
   fftplans                                :     436558. kBytes
   grid                                    :     732614. kBytes
   one-center                              :        282. kBytes
   wavefun                                 :    1079980. kBytes
 
     INWAV:  cpu time      0.0000: real time      0.0000
 Broyden mixing: mesh for mixing (old mesh)
   NGX =103   NGY = 29   NGZ =123
  (NGX  =420   NGY  =120   NGZ  =500)
  gives a total of 367401 points

 initial charge density was supplied:
 charge density of overlapping atoms calculated
 number of electron     368.0000000 magnetization 
 keeping initial charge density in first step


--------------------------------------------------------------------------------------------------------


 Maximum index for non-local projection operator          1871
 Maximum index for augmentation-charges          2387 (set IRDMAX)


--------------------------------------------------------------------------------------------------------


 First call to EWALD:  gamma=   0.090
 Maximum number of real-space cells   2x   6x   2
 Maximum number of reciprocal cells   4x   1x   4

    FEWALD:  cpu time      0.1632: real time      0.1632


--------------------------------------- Ionic step        1  -------------------------------------------




--------------------------------------- Iteration      1(   1)  ---------------------------------------


    POTLOK:  cpu time      0.4202: real time      0.4452
    SETDIJ:  cpu time      0.0417: real time      0.0417
     EDDAV:  cpu time     11.2188: real time     11.2246
       DOS:  cpu time      0.0008: real time      0.0009
    --------------------------------------------
      LOOP:  cpu time     11.6816: real time     11.7124

 eigenvalue-minimisations  :  1736
 total energy-change (2. order) : 0.3600018E+04  (-0.1201610E+05)
 number of electron     368.0000000 magnetization 
 augmentation part      368.0000000 magnetization 

 Free energy of the ion-electron system (eV)
  ---------------------------------------------------
  alpha Z        PSCENC =        91.34886789
  Ewald energy   TEWEN  =    119619.51851487
  -Hartree energ DENC   =   -128940.75759198
  -exchange      EXHF   =         0.00000000
  -V(xc)+E(xc)   XCENC  =      1221.72433893
  PAW double counting   =      9984.02826696   -10036.41360137
  entropy T*S    EENTRO =        -0.87341803
  eigenvalues    EBANDS =     -1876.21234970
  atomic energy  EATOM  =     13537.65479391
  Solvation  Ediel_sol  =         0.00000000
  ---------------------------------------------------
  free energy    TOTEN  =      3600.01782148 eV

  energy without entropy =     3600.89123951  energy(sigma->0) =     3600.45453050


--------------------------------------------------------------------------------------------------------




--------------------------------------- Iteration      1(   2)  ---------------------------------------


     EDDAV:  cpu time     13.0517: real time     13.0585
       DOS:  cpu time      0.0007: real time      0.0007
    --------------------------------------------
      LOOP:  cpu time     13.0524: real time     13.0592

 eigenvalue-minimisations  :  2128
 total energy-change (2. order) :-0.3433524E+04  (-0.3173636E+04)
 number of electron     368.0000000 magnetization 
 augmentation part      368.0000000 magnetization 

 Free energy of the ion-electron system (eV)
  ---------------------------------------------------
  alpha Z        PSCENC =        91.34886789
  Ewald energy   TEWEN  =    119619.51851487
  -Hartree energ DENC   =   -128940.75759198
  -exchange      EXHF   =         0.00000000
  -V(xc)+E(xc)   XCENC  =      1221.72433893
  PAW double counting   =      9984.02826696   -10036.41360137
  entropy T*S    EENTRO =        -0.25255067
  eigenvalues    EBANDS =     -5310.35717385
  atomic energy  EATOM  =     13537.65479391
  Solvation  Ediel_sol  =         0.00000000
  ---------------------------------------------------
  free energy    TOTEN  =       166.49386469 eV

  energy without entropy =      166.74641536  energy(sigma->0) =      166.62014002


--------------------------------------------------------------------------------------------------------




--------------------------------------- Iteration      1(   3)  ---------------------------------------


     EDDAV:  cpu time     11.2722: real time     11.2763
       DOS:  cpu time      0.0007: real time      0.0007
    --------------------------------------------
      LOOP:  cpu time     11.2730: real time     11.2771

 eigenvalue-minimisations  :  1784
 total energy-change (2. order) :-0.1000434E+04  (-0.9762106E+03)
 number of electron     368.0000000 magnetization 
 augmentation part      368.0000000 magnetization 

 Free energy of the ion-electron system (eV)
  ---------------------------------------------------
  alpha Z        PSCENC =        91.34886789
  Ewald energy   TEWEN  =    119619.51851487
  -Hartree energ DENC   =   -128940.75759198
  -exchange      EXHF   =         0.00000000
  -V(xc)+E(xc)   XCENC  =      1221.72433893
  PAW double counting   =      9984.02826696   -10036.41360137
  entropy T*S    EENTRO =        -0.05275399
  eigenvalues    EBANDS =     -6310.99061093
  atomic energy  EATOM  =     13537.65479391
  Solvation  Ediel_sol  =         0.00000000
  ---------------------------------------------------
  free energy    TOTEN  =      -833.93977572 eV

  energy without entropy =     -833.88702172  energy(sigma->0) =     -833.91339872


--------------------------------------------------------------------------------------------------------




--------------------------------------- Iteration      1(   4)  ---------------------------------------


     EDDAV:  cpu time     10.9589: real time     10.9628
       DOS:  cpu time      0.0007: real time      0.0007
    --------------------------------------------
      LOOP:  cpu time     10.9595: real time     10.9635

 eigenvalue-minimisations  :  1720
 total energy-change (2. order) :-0.6287807E+02  (-0.6170814E+02)
 number of electron     368.0000000 magnetization 
 augmentation part      368.0000000 magnetization 

 Free energy of the ion-electron system (eV)
  ---------------------------------------------------
  alpha Z        PSCENC =        91.34886789
  Ewald energy   TEWEN  =    119619.51851487
  -Hartree energ DENC   =   -128940.75759198
  -exchange      EXHF   =         0.00000000
  -V(xc)+E(xc)   XCENC  =      1221.72433893
  PAW double counting   =      9984.02826696   -10036.41360137
  entropy T*S    EENTRO =        -0.05635363
  eigenvalues    EBANDS =     -6373.86508575
  atomic energy  EATOM  =     13537.65479391
  Solvation  Ediel_sol  =         0.00000000
  ---------------------------------------------------
  free energy    TOTEN  =      -896.81785017 eV

  energy without entropy =     -896.76149654  energy(sigma->0) =     -896.78967335


--------------------------------------------------------------------------------------------------------




--------------------------------------- Iteration      1(   5)  ---------------------------------------


     EDDAV:  cpu time     11.2187: real time     11.2234
       DOS:  cpu time      0.0007: real time      0.0007
    CHARGE:  cpu time      1.2038: real time      1.2080
    MIXING:  cpu time      0.2740: real time      0.2741
    --------------------------------------------
      LOOP:  cpu time     12.6972: real time     12.7062

 eigenvalue-minimisations  :  1776
 total energy-change (2. order) :-0.1598911E+01  (-0.1572027E+01)
 number of electron     368.0000007 magnetization 
 augmentation part       10.1721638 magnetization 

 Broyden mixing:
  rms(total) = 0.45626E+01    rms(broyden)= 0.45620E+01
  rms(prec ) = 0.46801E+01
  weight for this iteration     100.00

 Free energy of the ion-electron system (eV)
  ---------------------------------------------------
  alpha Z        PSCENC =        91.34886789
  Ewald energy   TEWEN  =    119619.51851487
  -Hartree energ DENC   =   -128940.75759198
  -exchange      EXHF   =         0.00000000
  -V(xc)+E(xc)   XCENC  =      1221.72433893
  PAW double counting   =      9984.02826696   -10036.41360137
  entropy T*S    EENTRO =        -0.05652776
  eigenvalues    EBANDS =     -6375.46382280
  atomic energy  EATOM  =     13537.65479391
  Solvation  Ediel_sol  =         0.00000000
  ---------------------------------------------------
  free energy    TOTEN  =      -898.41676135 eV

  energy without entropy =     -898.36023359  energy(sigma->0) =     -898.38849747


--------------------------------------------------------------------------------------------------------




--------------------------------------- Iteration      1(   6)  ---------------------------------------


    POTLOK:  cpu time      0.3216: real time      0.3216
    SETDIJ:  cpu time      0.0403: real time      0.0403
     EDDAV:  cpu time     10.2318: real time     10.2354
       DOS:  cpu time      0.0008: real time      0.0008
    CHARGE:  cpu time      1.1583: real time      1.1597
    MIXING:  cpu time      0.2779: real time      0.2779
    --------------------------------------------
      LOOP:  cpu time     12.0307: real time     12.0356

 eigenvalue-minimisations  :  1576
 total energy-change (2. order) : 0.4985896E+02  (-0.4767573E+01)
 number of electron     368.0000006 magnetization 
 augmentation part        9.7456546 magnetization 

 Broyden mixing:
  rms(total) = 0.26800E+01    rms(broyden)= 0.26799E+01
  rms(prec ) = 0.27382E+01
  weight for this iteration     100.00

 eigenvalues of (default mixing * dielectric matrix)
  average eigenvalue GAMMA=   2.1813
  2.1813

 Free energy of the ion-electron system (eV)
  ---------------------------------------------------
  alpha Z        PSCENC =        91.34886789
  Ewald energy   TEWEN  =    119619.51851487
  -Hartree energ DENC   =   -129512.25572825
  -exchange      EXHF   =         0.00000000
  -V(xc)+E(xc)   XCENC  =      1245.11116694
  PAW double counting   =     18965.04566468   -19025.07641061
  entropy T*S    EENTRO =        -0.06398340
  eigenvalues    EBANDS =     -5769.84068795
  atomic energy  EATOM  =     13537.65479391
  Solvation  Ediel_sol  =         0.00000000
  ---------------------------------------------------
  free energy    TOTEN  =      -848.55780194 eV

  energy without entropy =     -848.49381854  energy(sigma->0) =     -848.52581024


--------------------------------------------------------------------------------------------------------




--------------------------------------- Iteration      1(   7)  ---------------------------------------


    POTLOK:  cpu time      0.3207: real time      0.3207
    SETDIJ:  cpu time      0.0405: real time      0.0405
     EDDAV:  cpu time     10.1430: real time     10.1483
       DOS:  cpu time      0.0008: real time      0.0008
    CHARGE:  cpu time      1.1526: real time      1.1535
    MIXING:  cpu time      0.2767: real time      0.2787
    --------------------------------------------
      LOOP:  cpu time     11.9341: real time     11.9424

 eigenvalue-minimisations  :  1560
 total energy-change (2. order) : 0.1857804E+02  (-0.6562388E+01)
 number of electron     368.0000006 magnetization 
 augmentation part        9.1905742 magnetization 

 Broyden mixing:
  rms(total) = 0.73601E+00    rms(broyden)= 0.73573E+00
  rms(prec ) = 0.74579E+00
  weight for this iteration     100.00

 eigenvalues of (default mixing * dielectric matrix)
  average eigenvalue GAMMA=   2.1917
  2.1917  2.1917

 Free energy of the ion-electron system (eV)
  ---------------------------------------------------
  alpha Z        PSCENC =        91.34886789
  Ewald energy   TEWEN  =    119619.51851487
  -Hartree energ DENC   =   -130278.54488179
  -exchange      EXHF   =         0.00000000
  -V(xc)+E(xc)   XCENC  =      1276.26950034
  PAW double counting   =     36644.95415051   -36711.90937219
  entropy T*S    EENTRO =        -0.07098450
  eigenvalues    EBANDS =     -5009.20035337
  atomic energy  EATOM  =     13537.65479391
  Solvation  Ediel_sol  =         0.00000000
  ---------------------------------------------------
  free energy    TOTEN  =      -829.97976434 eV

  energy without entropy =     -829.90877985  energy(sigma->0) =     -829.94427210


--------------------------------------------------------------------------------------------------------




--------------------------------------- Iteration      1(   8)  ---------------------------------------


    POTLOK:  cpu time      0.3208: real time      0.3208
    SETDIJ:  cpu time      0.0402: real time      0.0402
     EDDAV:  cpu time     10.3099: real time     10.3137
       DOS:  cpu time      0.0008: real time      0.0008
    CHARGE:  cpu time      1.1511: real time      1.1540
    MIXING:  cpu time      0.2804: real time      0.2821
    --------------------------------------------
      LOOP:  cpu time     12.1032: real time     12.1116

 eigenvalue-minimisations  :  1592
 total energy-change (2. order) : 0.2957384E+00  (-0.2404277E+00)
 number of electron     368.0000006 magnetization 
 augmentation part        9.1742286 magnetization 

 Broyden mixing:
  rms(total) = 0.10099E+00    rms(broyden)= 0.10095E+00
  rms(prec ) = 0.12332E+00
  weight for this iteration     100.00

 eigenvalues of (default mixing * dielectric matrix)
  average eigenvalue GAMMA=   1.8594
  1.2259  2.4361  1.9163

 Free energy of the ion-electron system (eV)
  ---------------------------------------------------
  alpha Z        PSCENC =        91.34886789
  Ewald energy   TEWEN  =    119619.51851487
  -Hartree energ DENC   =   -130373.89236453
  -exchange      EXHF   =         0.00000000
  -V(xc)+E(xc)   XCENC  =      1276.09676679
  PAW double counting   =     40923.41697860   -40987.72371194
  entropy T*S    EENTRO =        -0.06808684
  eigenvalues    EBANDS =     -4916.03578473
  atomic energy  EATOM  =     13537.65479391
  Solvation  Ediel_sol  =         0.00000000
  ---------------------------------------------------
  free energy    TOTEN  =      -829.68402598 eV

  energy without entropy =     -829.61593914  energy(sigma->0) =     -829.64998256


--------------------------------------------------------------------------------------------------------




--------------------------------------- Iteration      1(   9)  ---------------------------------------


    POTLOK:  cpu time      0.3210: real time      0.3210
    SETDIJ:  cpu time      0.0400: real time      0.0400
     EDDAV:  cpu time     10.7184: real time     10.7222
       DOS:  cpu time      0.0007: real time      0.0007
    CHARGE:  cpu time      1.1543: real time      1.1550
    MIXING:  cpu time      0.2866: real time      0.2867
    --------------------------------------------
      LOOP:  cpu time     12.5212: real time     12.5256

 eigenvalue-minimisations  :  1672
 total energy-change (2. order) : 0.1089307E+00  (-0.2689162E-01)
 number of electron     368.0000006 magnetization 
 augmentation part        9.1503947 magnetization 

 Broyden mixing:
  rms(total) = 0.57713E-01    rms(broyden)= 0.57704E-01
  rms(prec ) = 0.79296E-01
  weight for this iteration     100.00

 eigenvalues of (default mixing * dielectric matrix)
  average eigenvalue GAMMA=   1.6850
  2.2014  2.2014  1.0415  1.2959

 Free energy of the ion-electron system (eV)
  ---------------------------------------------------
  alpha Z        PSCENC =        91.34886789
  Ewald energy   TEWEN  =    119619.51851487
  -Hartree energ DENC   =   -130444.14955847
  -exchange      EXHF   =         0.00000000
  -V(xc)+E(xc)   XCENC  =      1277.50984885
  PAW double counting   =     41475.09630872   -41539.45852509
  entropy T*S    EENTRO =        -0.06868395
  eigenvalues    EBANDS =     -4847.02666199
  atomic energy  EATOM  =     13537.65479391
  Solvation  Ediel_sol  =         0.00000000
  ---------------------------------------------------
  free energy    TOTEN  =      -829.57509527 eV

  energy without entropy =     -829.50641133  energy(sigma->0) =     -829.54075330


--------------------------------------------------------------------------------------------------------




--------------------------------------- Iteration      1(  10)  ---------------------------------------


    POTLOK:  cpu time      0.3220: real time      0.3219
    SETDIJ:  cpu time      0.0403: real time      0.0403
     EDDAV:  cpu time     11.2334: real time     11.2394
       DOS:  cpu time      0.0007: real time      0.0007
    CHARGE:  cpu time      1.1577: real time      1.1593
    MIXING:  cpu time      0.2911: real time      0.2920
    --------------------------------------------
      LOOP:  cpu time     13.0452: real time     13.0538

 eigenvalue-minimisations  :  1776
 total energy-change (2. order) : 0.3873498E-01  (-0.4493321E-02)
 number of electron     368.0000006 magnetization 
 augmentation part        9.1412182 magnetization 

 Broyden mixing:
  rms(total) = 0.36805E-01    rms(broyden)= 0.36802E-01
  rms(prec ) = 0.56509E-01
  weight for this iteration     100.00

 eigenvalues of (default mixing * dielectric matrix)
  average eigenvalue GAMMA=   1.7169
  2.4623  2.4623  1.5797  1.2680  0.8121

 Free energy of the ion-electron system (eV)
  ---------------------------------------------------
  alpha Z        PSCENC =        91.34886789
  Ewald energy   TEWEN  =    119619.51851487
  -Hartree energ DENC   =   -130492.64697919
  -exchange      EXHF   =         0.00000000
  -V(xc)+E(xc)   XCENC  =      1277.83245486
  PAW double counting   =     41253.14639307   -41317.37400536
  entropy T*S    EENTRO =        -0.06868313
  eigenvalues    EBANDS =     -4798.94771720
  atomic energy  EATOM  =     13537.65479391
  Solvation  Ediel_sol  =         0.00000000
  ---------------------------------------------------
  free energy    TOTEN  =      -829.53636029 eV

  energy without entropy =     -829.46767716  energy(sigma->0) =     -829.50201873


--------------------------------------------------------------------------------------------------------




--------------------------------------- Iteration      1(  11)  ---------------------------------------


    POTLOK:  cpu time      0.3219: real time      0.3220
    SETDIJ:  cpu time      0.0403: real time      0.0403
     EDDAV:  cpu time     10.1339: real time     10.1417
       DOS:  cpu time      0.0007: real time      0.0007
    CHARGE:  cpu time      1.1632: real time      1.1648
    MIXING:  cpu time      0.2975: real time      0.2981
    --------------------------------------------
      LOOP:  cpu time     11.9575: real time     11.9676

 eigenvalue-minimisations  :  1560
 total energy-change (2. order) : 0.3053328E-01  (-0.2092814E-02)
 number of electron     368.0000006 magnetization 
 augmentation part        9.1367513 magnetization 

 Broyden mixing:
  rms(total) = 0.24796E-01    rms(broyden)= 0.24794E-01
  rms(prec ) = 0.38726E-01
  weight for this iteration     100.00

 eigenvalues of (default mixing * dielectric matrix)
  average eigenvalue GAMMA=   1.7868
  3.0629  2.5012  1.9301  0.9308  1.1480  1.1480

 Free energy of the ion-electron system (eV)
  ---------------------------------------------------
  alpha Z        PSCENC =        91.34886789
  Ewald energy   TEWEN  =    119619.51851487
  -Hartree energ DENC   =   -130556.41920916
  -exchange      EXHF   =         0.00000000
  -V(xc)+E(xc)   XCENC  =      1278.38033440
  PAW double counting   =     41174.91176995   -41239.02753248
  entropy T*S    EENTRO =        -0.06862226
  eigenvalues    EBANDS =     -4735.80474412
  atomic energy  EATOM  =     13537.65479391
  Solvation  Ediel_sol  =         0.00000000
  ---------------------------------------------------
  free energy    TOTEN  =      -829.50582701 eV

  energy without entropy =     -829.43720475  energy(sigma->0) =     -829.47151588


--------------------------------------------------------------------------------------------------------




--------------------------------------- Iteration      1(  12)  ---------------------------------------


    POTLOK:  cpu time      0.3219: real time      0.3220
    SETDIJ:  cpu time      0.0401: real time      0.0401
     EDDAV:  cpu time     10.0370: real time     10.0421
       DOS:  cpu time      0.0007: real time      0.0007
    CHARGE:  cpu time      1.1553: real time      1.1555
    MIXING:  cpu time      0.3064: real time      0.3064
    --------------------------------------------
      LOOP:  cpu time     11.8615: real time     11.8668

 eigenvalue-minimisations  :  1544
 total energy-change (2. order) : 0.5203543E-02  (-0.2546591E-02)
 number of electron     368.0000006 magnetization 
 augmentation part        9.1292339 magnetization 

 Broyden mixing:
  rms(total) = 0.15274E-01    rms(broyden)= 0.15270E-01
  rms(prec ) = 0.23321E-01
  weight for this iteration     100.00

 eigenvalues of (default mixing * dielectric matrix)
  average eigenvalue GAMMA=   2.0582
  4.8203  2.3280  2.2134  1.9318  0.9661  1.0739  1.0739

 Free energy of the ion-electron system (eV)
  ---------------------------------------------------
  alpha Z        PSCENC =        91.34886789
  Ewald energy   TEWEN  =    119619.51851487
  -Hartree energ DENC   =   -130623.72063374
  -exchange      EXHF   =         0.00000000
  -V(xc)+E(xc)   XCENC  =      1279.03599344
  PAW double counting   =     41231.49033270   -41295.59298150
  entropy T*S    EENTRO =        -0.06881195
  eigenvalues    EBANDS =     -4669.16669909
  atomic energy  EATOM  =     13537.65479391
  Solvation  Ediel_sol  =         0.00000000
  ---------------------------------------------------
  free energy    TOTEN  =      -829.50062347 eV

  energy without entropy =     -829.43181152  energy(sigma->0) =     -829.46621749


--------------------------------------------------------------------------------------------------------




--------------------------------------- Iteration      1(  13)  ---------------------------------------


    POTLOK:  cpu time      0.3226: real time      0.3226
    SETDIJ:  cpu time      0.0403: real time      0.0404
     EDDAV:  cpu time     10.0857: real time     10.0893
       DOS:  cpu time      0.0008: real time      0.0008
    CHARGE:  cpu time      1.1530: real time      1.1550
    MIXING:  cpu time      0.3126: real time      0.3139
    --------------------------------------------
      LOOP:  cpu time     11.9150: real time     11.9219

 eigenvalue-minimisations  :  1552
 total energy-change (2. order) :-0.1208905E-01  (-0.8885169E-03)
 number of electron     368.0000006 magnetization 
 augmentation part        9.1264190 magnetization 

 Broyden mixing:
  rms(total) = 0.86107E-02    rms(broyden)= 0.86085E-02
  rms(prec ) = 0.12195E-01
  weight for this iteration     100.00

 eigenvalues of (default mixing * dielectric matrix)
  average eigenvalue GAMMA=   2.0726
  5.4529  2.4218  2.4218  1.9448  1.2059  1.2059  1.0522  0.8760

 Free energy of the ion-electron system (eV)
  ---------------------------------------------------
  alpha Z        PSCENC =        91.34886789
  Ewald energy   TEWEN  =    119619.51851487
  -Hartree energ DENC   =   -130674.90193740
  -exchange      EXHF   =         0.00000000
  -V(xc)+E(xc)   XCENC  =      1279.24291186
  PAW double counting   =     41186.42049688   -41250.52214685
  entropy T*S    EENTRO =        -0.06872121
  eigenvalues    EBANDS =     -4618.20549246
  atomic energy  EATOM  =     13537.65479391
  Solvation  Ediel_sol  =         0.00000000
  ---------------------------------------------------
  free energy    TOTEN  =      -829.51271252 eV

  energy without entropy =     -829.44399131  energy(sigma->0) =     -829.47835192


--------------------------------------------------------------------------------------------------------




--------------------------------------- Iteration      1(  14)  ---------------------------------------


    POTLOK:  cpu time      0.3229: real time      0.3229
    SETDIJ:  cpu time      0.0401: real time      0.0401
     EDDAV:  cpu time     10.3367: real time     10.3403
       DOS:  cpu time      0.0007: real time      0.0007
    CHARGE:  cpu time      1.1558: real time      1.1561
    MIXING:  cpu time      0.3224: real time      0.3225
    --------------------------------------------
      LOOP:  cpu time     12.1786: real time     12.1827

 eigenvalue-minimisations  :  1600
 total energy-change (2. order) :-0.1668544E-01  (-0.1121213E-03)
 number of electron     368.0000006 magnetization 
 augmentation part        9.1257176 magnetization 

 Broyden mixing:
  rms(total) = 0.58888E-02    rms(broyden)= 0.58884E-02
  rms(prec ) = 0.81575E-02
  weight for this iteration     100.00

 eigenvalues of (default mixing * dielectric matrix)
  average eigenvalue GAMMA=   2.1775
  6.3239  2.6958  2.6958  1.8284  1.6535  1.3760  1.1403  0.9421  0.9421

 Free energy of the ion-electron system (eV)
  ---------------------------------------------------
  alpha Z        PSCENC =        91.34886789
  Ewald energy   TEWEN  =    119619.51851487
  -Hartree energ DENC   =   -130689.23149474
  -exchange      EXHF   =         0.00000000
  -V(xc)+E(xc)   XCENC  =      1279.25004453
  PAW double counting   =     41182.40553660   -41246.51307661
  entropy T*S    EENTRO =        -0.06871063
  eigenvalues    EBANDS =     -4603.89387379
  atomic energy  EATOM  =     13537.65479391
  Solvation  Ediel_sol  =         0.00000000
  ---------------------------------------------------
  free energy    TOTEN  =      -829.52939797 eV

  energy without entropy =     -829.46068734  energy(sigma->0) =     -829.49504266


--------------------------------------------------------------------------------------------------------




--------------------------------------- Iteration      1(  15)  ---------------------------------------


    POTLOK:  cpu time      0.3226: real time      0.3226
    SETDIJ:  cpu time      0.0402: real time      0.0402
     EDDAV:  cpu time     10.1364: real time     10.1401
       DOS:  cpu time      0.0008: real time      0.0008
    CHARGE:  cpu time      1.1535: real time      1.1563
    MIXING:  cpu time      0.3312: real time      0.3312
    --------------------------------------------
      LOOP:  cpu time     11.9847: real time     11.9912

 eigenvalue-minimisations  :  1560
 total energy-change (2. order) :-0.2072717E-01  (-0.1813664E-03)
 number of electron     368.0000006 magnetization 
 augmentation part        9.1253042 magnetization 

 Broyden mixing:
  rms(total) = 0.30328E-02    rms(broyden)= 0.30324E-02
  rms(prec ) = 0.42381E-02
  weight for this iteration     100.00

 eigenvalues of (default mixing * dielectric matrix)
  average eigenvalue GAMMA=   2.2406
  7.0592  3.5032  2.2427  2.2427  1.6932  1.3393  1.3393  1.0994  0.9435  0.9435

 Free energy of the ion-electron system (eV)
  ---------------------------------------------------
  alpha Z        PSCENC =        91.34886789
  Ewald energy   TEWEN  =    119619.51851487
  -Hartree energ DENC   =   -130700.16423225
  -exchange      EXHF   =         0.00000000
  -V(xc)+E(xc)   XCENC  =      1279.23546236
  PAW double counting   =     41192.72778079   -41256.83742283
  entropy T*S    EENTRO =        -0.06879007
  eigenvalues    EBANDS =     -4592.96509979
  atomic energy  EATOM  =     13537.65479391
  Solvation  Ediel_sol  =         0.00000000
  ---------------------------------------------------
  free energy    TOTEN  =      -829.55012513 eV

  energy without entropy =     -829.48133506  energy(sigma->0) =     -829.51573010


--------------------------------------------------------------------------------------------------------




--------------------------------------- Iteration      1(  16)  ---------------------------------------


    POTLOK:  cpu time      0.3228: real time      0.3229
    SETDIJ:  cpu time      0.0400: real time      0.0400
     EDDAV:  cpu time     10.2539: real time     10.2575
       DOS:  cpu time      0.0008: real time      0.0008
    CHARGE:  cpu time      1.1639: real time      1.1657
    MIXING:  cpu time      0.3378: real time      0.3397
    --------------------------------------------
      LOOP:  cpu time     12.1192: real time     12.1267

 eigenvalue-minimisations  :  1584
 total energy-change (2. order) :-0.9230352E-02  (-0.5417225E-04)
 number of electron     368.0000006 magnetization 
 augmentation part        9.1252431 magnetization 

 Broyden mixing:
  rms(total) = 0.22063E-02    rms(broyden)= 0.22062E-02
  rms(prec ) = 0.27772E-02
  weight for this iteration     100.00

 eigenvalues of (default mixing * dielectric matrix)
  average eigenvalue GAMMA=   2.3383
  7.9115  4.0439  2.4009  2.4009  1.9021  1.4984  1.4984  0.9541  0.9541  1.0786
  1.0786

 Free energy of the ion-electron system (eV)
  ---------------------------------------------------
  alpha Z        PSCENC =        91.34886789
  Ewald energy   TEWEN  =    119619.51851487
  -Hartree energ DENC   =   -130704.24864822
  -exchange      EXHF   =         0.00000000
  -V(xc)+E(xc)   XCENC  =      1279.21315612
  PAW double counting   =     41182.89516773   -41247.00361186
  entropy T*S    EENTRO =        -0.06876972
  eigenvalues    EBANDS =     -4588.86882619
  atomic energy  EATOM  =     13537.65479391
  Solvation  Ediel_sol  =         0.00000000
  ---------------------------------------------------
  free energy    TOTEN  =      -829.55935549 eV

  energy without entropy =     -829.49058577  energy(sigma->0) =     -829.52497063


--------------------------------------------------------------------------------------------------------




--------------------------------------- Iteration      1(  17)  ---------------------------------------


    POTLOK:  cpu time      0.3214: real time      0.3216
    SETDIJ:  cpu time      0.0404: real time      0.0404
     EDDAV:  cpu time     10.1230: real time     10.1295
       DOS:  cpu time      0.0008: real time      0.0008
    CHARGE:  cpu time      1.1526: real time      1.1570
    MIXING:  cpu time      0.3488: real time      0.3510
    --------------------------------------------
      LOOP:  cpu time     11.9869: real time     12.0002

 eigenvalue-minimisations  :  1560
 total energy-change (2. order) :-0.5187826E-02  (-0.3152502E-04)
 number of electron     368.0000006 magnetization 
 augmentation part        9.1251223 magnetization 

 Broyden mixing:
  rms(total) = 0.11788E-02    rms(broyden)= 0.11787E-02
  rms(prec ) = 0.14880E-02
  weight for this iteration     100.00

 eigenvalues of (default mixing * dielectric matrix)
  average eigenvalue GAMMA=   2.3659
  8.3878  4.5751  2.4677  2.4677  2.0097  1.5356  1.3700  1.3700  1.2471  0.9629
  0.9629  1.0343

 Free energy of the ion-electron system (eV)
  ---------------------------------------------------
  alpha Z        PSCENC =        91.34886789
  Ewald energy   TEWEN  =    119619.51851487
  -Hartree energ DENC   =   -130706.66275809
  -exchange      EXHF   =         0.00000000
  -V(xc)+E(xc)   XCENC  =      1279.21460896
  PAW double counting   =     41189.84440960   -41253.94983748
  entropy T*S    EENTRO =        -0.06876678
  eigenvalues    EBANDS =     -4586.46437618
  atomic energy  EATOM  =     13537.65479391
  Solvation  Ediel_sol  =         0.00000000
  ---------------------------------------------------
  free energy    TOTEN  =      -829.56454331 eV

  energy without entropy =     -829.49577653  energy(sigma->0) =     -829.53015992


--------------------------------------------------------------------------------------------------------




--------------------------------------- Iteration      1(  18)  ---------------------------------------


    POTLOK:  cpu time      0.3209: real time      0.3211
    SETDIJ:  cpu time      0.0402: real time      0.0402
     EDDAV:  cpu time     10.3264: real time     10.3301
       DOS:  cpu time      0.0008: real time      0.0008
    CHARGE:  cpu time      1.1535: real time      1.1561
    MIXING:  cpu time      0.3618: real time      0.3619
    --------------------------------------------
      LOOP:  cpu time     12.2036: real time     12.2101

 eigenvalue-minimisations  :  1600
 total energy-change (2. order) :-0.2127354E-02  (-0.8956553E-05)
 number of electron     368.0000006 magnetization 
 augmentation part        9.1250607 magnetization 

 Broyden mixing:
  rms(total) = 0.61044E-03    rms(broyden)= 0.61035E-03
  rms(prec ) = 0.80017E-03
  weight for this iteration     100.00

 eigenvalues of (default mixing * dielectric matrix)
  average eigenvalue GAMMA=   2.4002
  8.8386  4.9730  2.8195  2.5978  1.8706  1.8706  1.5112  1.5112  0.9437  0.9437
  1.1178  1.1023  1.1023

 Free energy of the ion-electron system (eV)
  ---------------------------------------------------
  alpha Z        PSCENC =        91.34886789
  Ewald energy   TEWEN  =    119619.51851487
  -Hartree energ DENC   =   -130707.46582749
  -exchange      EXHF   =         0.00000000
  -V(xc)+E(xc)   XCENC  =      1279.21288538
  PAW double counting   =     41187.06046907   -41251.16621545
  entropy T*S    EENTRO =        -0.06876937
  eigenvalues    EBANDS =     -4585.66138946
  atomic energy  EATOM  =     13537.65479391
  Solvation  Ediel_sol  =         0.00000000
  ---------------------------------------------------
  free energy    TOTEN  =      -829.56667067 eV

  energy without entropy =     -829.49790129  energy(sigma->0) =     -829.53228598


--------------------------------------------------------------------------------------------------------




--------------------------------------- Iteration      1(  19)  ---------------------------------------


    POTLOK:  cpu time      0.3227: real time      0.3228
    SETDIJ:  cpu time      0.0402: real time      0.0402
     EDDAV:  cpu time      9.2652: real time      9.2708
       DOS:  cpu time      0.0008: real time      0.0008
    CHARGE:  cpu time      1.1530: real time      1.1540
    MIXING:  cpu time      0.3733: real time      0.3736
    --------------------------------------------
      LOOP:  cpu time     11.1553: real time     11.1621

 eigenvalue-minimisations  :  1384
 total energy-change (2. order) :-0.1090823E-02  (-0.3753596E-05)
 number of electron     368.0000006 magnetization 
 augmentation part        9.1250742 magnetization 

 Broyden mixing:
  rms(total) = 0.39095E-03    rms(broyden)= 0.39092E-03
  rms(prec ) = 0.47427E-03
  weight for this iteration     100.00

 eigenvalues of (default mixing * dielectric matrix)
  average eigenvalue GAMMA=   2.4081
  8.9733  5.5116  3.1423  2.3833  2.3833  1.9102  1.5388  1.5388  1.2108  1.2108
  0.9398  1.0089  0.9808  0.9808

 Free energy of the ion-electron system (eV)
  ---------------------------------------------------
  alpha Z        PSCENC =        91.34886789
  Ewald energy   TEWEN  =    119619.51851487
  -Hartree energ DENC   =   -130707.81282437
  -exchange      EXHF   =         0.00000000
  -V(xc)+E(xc)   XCENC  =      1279.21110567
  PAW double counting   =     41186.41631948   -41250.52065827
  entropy T*S    EENTRO =        -0.06876849
  eigenvalues    EBANDS =     -4585.31511218
  atomic energy  EATOM  =     13537.65479391
  Solvation  Ediel_sol  =         0.00000000
  ---------------------------------------------------
  free energy    TOTEN  =      -829.56776149 eV

  energy without entropy =     -829.49899300  energy(sigma->0) =     -829.53337724


--------------------------------------------------------------------------------------------------------




--------------------------------------- Iteration      1(  20)  ---------------------------------------


    POTLOK:  cpu time      0.3208: real time      0.3208
    SETDIJ:  cpu time      0.0404: real time      0.0405
     EDDAV:  cpu time      9.1972: real time      9.2006
       DOS:  cpu time      0.0008: real time      0.0008
    CHARGE:  cpu time      1.1539: real time      1.1551
    MIXING:  cpu time      0.3838: real time      0.3841
    --------------------------------------------
      LOOP:  cpu time     11.0968: real time     11.1018

 eigenvalue-minimisations  :  1368
 total energy-change (2. order) :-0.3627126E-03  (-0.6375862E-06)
 number of electron     368.0000006 magnetization 
 augmentation part        9.1250572 magnetization 

 Broyden mixing:
  rms(total) = 0.24733E-03    rms(broyden)= 0.24732E-03
  rms(prec ) = 0.29489E-03
  weight for this iteration     100.00

 eigenvalues of (default mixing * dielectric matrix)
  average eigenvalue GAMMA=   2.4357
  9.1975  5.8008  3.6203  2.5468  2.3725  1.9310  1.6211  1.6211  1.3847  1.3847
  0.9555  0.9555  1.0646  1.0394  1.0394

 Free energy of the ion-electron system (eV)
  ---------------------------------------------------
  alpha Z        PSCENC =        91.34886789
  Ewald energy   TEWEN  =    119619.51851487
  -Hartree energ DENC   =   -130707.98625630
  -exchange      EXHF   =         0.00000000
  -V(xc)+E(xc)   XCENC  =      1279.21115507
  PAW double counting   =     41187.20793355   -41251.31254791
  entropy T*S    EENTRO =        -0.06876819
  eigenvalues    EBANDS =     -4585.14181708
  atomic energy  EATOM  =     13537.65479391
  Solvation  Ediel_sol  =         0.00000000
  ---------------------------------------------------
  free energy    TOTEN  =      -829.56812420 eV

  energy without entropy =     -829.49935601  energy(sigma->0) =     -829.53374010


--------------------------------------------------------------------------------------------------------




--------------------------------------- Iteration      1(  21)  ---------------------------------------


    POTLOK:  cpu time      0.3213: real time      0.3209
    SETDIJ:  cpu time      0.0401: real time      0.0401
     EDDAV:  cpu time      8.5963: real time      8.6008
       DOS:  cpu time      0.0007: real time      0.0007
    CHARGE:  cpu time      1.1604: real time      1.1617
    MIXING:  cpu time      0.3952: real time      0.3954
    --------------------------------------------
      LOOP:  cpu time     10.5141: real time     10.5196

 eigenvalue-minimisations  :  1248
 total energy-change (2. order) :-0.2117540E-03  (-0.2359841E-06)
 number of electron     368.0000006 magnetization 
 augmentation part        9.1250570 magnetization 

 Broyden mixing:
  rms(total) = 0.11358E-03    rms(broyden)= 0.11357E-03
  rms(prec ) = 0.13941E-03
  weight for this iteration     100.00

 eigenvalues of (default mixing * dielectric matrix)
  average eigenvalue GAMMA=   2.4185
  9.2014  6.1873  3.8542  2.5004  2.5004  2.1455  1.7748  1.6040  1.6040  1.1863
  1.1863  1.1032  0.9893  0.9893  0.9348  0.9348

 Free energy of the ion-electron system (eV)
  ---------------------------------------------------
  alpha Z        PSCENC =        91.34886789
  Ewald energy   TEWEN  =    119619.51851487
  -Hartree energ DENC   =   -130708.07178556
  -exchange      EXHF   =         0.00000000
  -V(xc)+E(xc)   XCENC  =      1279.21039121
  PAW double counting   =     41186.09770904   -41250.20268794
  entropy T*S    EENTRO =        -0.06876923
  eigenvalues    EBANDS =     -4585.05537014
  atomic energy  EATOM  =     13537.65479391
  Solvation  Ediel_sol  =         0.00000000
  ---------------------------------------------------
  free energy    TOTEN  =      -829.56833596 eV

  energy without entropy =     -829.49956673  energy(sigma->0) =     -829.53395134


[...]
   -.159E+02 -.719E+01 0.422E+02   0.162E+02 0.679E+01 -.424E+02   -.995E-01 -.248E+00 0.150E+00   0.153E-04 -.941E-05 0.630E-05
   0.116E+02 -.211E+02 -.513E+02   -.120E+02 0.234E+02 0.508E+02   0.186E+00 -.395E+00 -.420E+00   0.187E-06 0.193E-04 0.496E-05
   -.466E+01 0.114E+02 -.853E+01   0.566E+01 -.120E+02 0.857E+01   0.363E+00 -.368E+00 0.997E+00   0.144E-04 0.674E-05 0.128E-04
   0.967E+01 0.160E+02 -.395E+02   -.960E+01 -.165E+02 0.388E+02   -.429E+00 -.265E+00 0.135E+01   0.284E-05 0.526E-05 0.759E-05
   0.292E+02 -.168E+02 -.106E+03   -.306E+02 0.176E+02 0.106E+03   -.269E+00 -.711E-01 -.187E+01   -.104E-04 0.581E-05 0.543E-05
   0.897E+01 -.699E+00 -.923E+02   -.949E+01 -.627E-01 0.923E+02   -.222E+00 -.157E+00 0.417E+00   0.109E-04 -.318E-04 0.120E-04
   0.311E+01 0.629E+01 -.130E+03   -.248E+01 -.651E+01 0.130E+03   -.989E-01 0.148E+00 -.464E+00   0.133E-04 -.158E-05 0.953E-05
   -.552E+01 0.236E+02 -.982E+02   0.663E+01 -.252E+02 0.982E+02   0.444E+00 -.193E+00 -.598E+00   0.114E-04 -.852E-05 0.666E-05
   0.151E+01 -.246E+02 -.107E+03   -.120E+01 0.263E+02 0.107E+03   0.556E-01 0.671E+00 0.508E+00   0.150E-04 0.155E-04 0.847E-05
   0.112E+02 0.513E+01 -.653E+02   -.129E+02 -.578E+01 0.652E+02   -.130E+01 -.734E+00 0.107E+01   -.127E-04 -.244E-04 0.683E-05
   0.399E+01 0.424E+01 -.133E+03   -.552E+01 -.327E+01 0.134E+03   -.552E+00 0.374E+00 -.346E-01   -.166E-04 0.197E-04 0.115E-04
   -.216E+02 0.105E+02 -.652E+02   0.232E+02 -.110E+02 0.649E+02   0.528E+00 -.121E+01 0.465E-01   -.615E-05 -.120E-04 0.446E-05
   -.185E+02 -.975E+01 -.116E+03   0.189E+02 0.100E+02 0.116E+03   0.257E+00 -.108E+01 -.655E-01   -.432E-06 0.193E-04 0.874E-05
   -.708E+01 -.156E+02 -.686E+02   0.652E+01 0.177E+02 0.686E+02   0.941E+00 0.173E+01 -.675E+00   0.127E-04 0.322E-05 -.127E-05
   -.368E+02 0.110E+02 -.141E+03   0.380E+02 -.104E+02 0.142E+03   0.961E-01 0.857E+00 -.129E+01   0.139E-04 -.661E-05 0.569E-05
   -.440E+01 0.120E+02 -.768E+01   0.446E+01 -.123E+02 0.737E+01   0.118E+01 0.569E+00 -.213E+00   0.100E-04 0.853E-05 -.181E-05
   -.132E+02 -.110E+02 -.416E+02   0.128E+02 0.108E+02 0.413E+02   0.141E-02 -.216E+00 0.515E+00   -.115E-04 -.146E-04 0.851E-05
   0.121E+02 -.984E+01 0.300E+02   -.130E+02 0.953E+01 -.298E+02   -.762E-01 -.523E+00 0.445E+00   -.301E-04 0.486E-06 0.975E-05
   -.659E+01 0.128E+02 -.701E+01   0.698E+01 -.136E+02 0.691E+01   -.353E+00 0.366E+00 -.330E+00   -.147E-04 0.612E-05 0.932E-05
   0.229E+02 0.111E+02 0.819E+02   -.235E+02 -.112E+02 -.822E+02   0.259E+00 0.403E+00 0.649E+00   -.403E-05 -.724E-05 -.362E-05
   0.192E+02 -.209E+02 0.910E+02   -.190E+02 0.221E+02 -.915E+02   0.212E+00 0.659E+00 0.885E+00   0.108E-04 0.146E-04 -.102E-04
   -.225E+01 -.134E+02 0.491E+02   0.334E+01 0.129E+02 -.489E+02   0.206E+00 -.138E+01 -.153E+01   0.182E-04 0.565E-06 -.105E-04
   0.219E+02 0.113E+02 0.926E+02   -.222E+02 -.121E+02 -.925E+02   0.277E+00 -.856E+00 -.293E+00   0.211E-04 -.409E-06 -.133E-04
   0.273E+02 0.114E+02 0.155E+03   -.280E+02 -.110E+02 -.156E+03   -.264E+00 0.118E+01 0.219E+01   -.205E-04 0.383E-04 -.613E-05
   0.161E+02 -.141E+02 0.129E+03   -.159E+02 0.140E+02 -.129E+03   0.660E+00 0.481E+00 -.581E+00   -.699E-06 -.364E-05 -.896E-05
   -.587E+01 -.151E+02 0.992E+02   0.617E+01 0.158E+02 -.985E+02   -.513E-02 0.550E+00 -.982E+00   0.232E-04 0.434E-04 -.154E-04
   0.105E+02 0.732E+01 0.134E+03   -.116E+02 -.785E+01 -.134E+03   0.327E+00 -.128E+00 -.771E-02   0.112E-04 -.218E-04 -.126E-04
   -.494E+01 0.582E+02 0.150E+03   0.300E+01 -.583E+02 -.151E+03   0.922E+00 0.229E+01 0.728E+00   0.163E-04 0.185E-04 -.151E-04
   0.442E+01 -.558E+02 0.201E+03   -.690E+01 0.554E+02 -.201E+03   0.144E+01 -.145E+01 0.105E+01   -.661E-05 -.262E-05 -.897E-05
   0.520E+01 0.605E+02 0.765E+02   -.216E+01 -.614E+02 -.761E+02   -.865E+00 0.200E+01 -.616E+00   -.781E-05 -.185E-04 -.726E-05
   0.606E+01 -.567E+02 0.101E+03   -.312E+01 0.570E+02 -.100E+03   -.135E+01 -.161E+01 -.146E+00   -.110E-05 0.228E-04 -.772E-05
   0.725E+01 -.658E+01 0.825E+02   -.728E+01 0.780E+01 -.827E+02   -.766E+00 0.124E+01 0.380E+00   0.349E-04 0.119E-04 -.138E-05
   0.797E+01 0.807E+01 0.787E+02   -.770E+01 -.878E+01 -.787E+02   -.247E+00 -.114E+01 0.760E+00   0.162E-04 -.324E-04 0.582E-05
   -.309E+01 0.719E+01 0.425E+02   0.369E+01 -.673E+01 -.424E+02   0.550E+00 -.201E+00 0.460E+00   0.440E-04 0.147E-04 0.144E-05
   0.124E+02 -.227E+01 -.145E+02   -.127E+02 0.157E+01 0.150E+02   0.449E+00 -.101E+01 -.122E+01   0.345E-04 -.294E-04 0.337E-05
   -.202E+01 -.110E+02 0.669E+02   0.199E+01 0.114E+02 -.666E+02   0.256E+00 0.430E+00 -.118E+01   -.497E-04 -.950E-06 -.194E-04
   0.564E+01 0.685E+01 -.175E+02   -.511E+01 -.697E+01 0.175E+02   -.241E+00 0.378E+00 -.515E-01   -.368E-04 -.759E-05 -.896E-05
   -.541E+01 0.194E+02 0.720E+02   0.484E+01 -.221E+02 -.729E+02   -.116E+01 -.857E+00 0.158E+01   -.383E-04 -.235E-04 -.150E-04
   0.100E+02 -.192E+02 -.139E+02   -.102E+02 0.216E+02 0.149E+02   0.161E+00 0.170E+01 -.747E+00   -.344E-04 0.279E-04 -.345E-05
   -.676E+01 0.309E+01 -.323E+01   0.753E+01 -.382E+01 0.345E+01   0.601E+00 0.632E+00 -.108E+01   0.311E-04 -.185E-04 0.630E-05
   0.748E+01 0.577E+01 -.518E+01   -.829E+01 -.562E+01 0.470E+01   -.703E+00 0.457E+00 0.987E+00   0.358E-05 0.960E-05 0.315E-05
   0.813E+01 0.263E+02 -.512E+02   -.744E+01 -.285E+02 0.513E+02   0.571E+00 -.146E+01 0.490E+00   0.164E-04 -.142E-04 0.101E-04
   0.208E+02 -.103E+02 -.998E+02   -.207E+02 0.110E+02 0.101E+03   0.236E+00 -.501E+00 -.109E+01   0.213E-04 -.892E-05 0.129E-04
   0.225E+02 -.168E+02 -.596E+02   -.236E+02 0.185E+02 0.596E+02   -.109E+00 0.743E+00 -.328E+00   -.245E-04 0.178E-04 0.435E-05
   0.188E+02 0.110E+02 -.118E+03   -.173E+02 -.114E+02 0.118E+03   0.880E-01 0.552E+00 -.398E+00   0.723E-06 0.687E-06 0.116E-04
   0.274E+02 0.145E+02 -.924E+02   -.279E+02 -.155E+02 0.925E+02   0.544E-01 -.968E-01 -.173E+00   -.509E-05 -.193E-05 0.119E-04
   0.350E+02 -.111E+02 -.128E+03   -.364E+02 0.122E+02 0.128E+03   -.171E+01 0.753E+00 -.370E+00   -.266E-04 -.502E-06 0.977E-05
   0.297E+01 -.173E+02 -.728E+02   -.176E+01 0.181E+02 0.731E+02   -.121E+00 -.209E+00 0.431E+00   0.147E-04 -.303E-05 0.151E-04
   0.232E+02 0.143E+02 -.142E+03   -.229E+02 -.159E+02 0.143E+03   0.886E+00 -.218E+01 0.461E-01   0.116E-04 -.175E-04 0.193E-04
   0.307E+02 0.440E+01 -.152E+03   -.330E+02 -.366E+01 0.152E+03   -.164E+01 -.839E-01 -.144E+01   -.605E-05 0.208E-04 0.140E-04
   0.289E+02 -.436E+01 -.165E+03   -.288E+02 0.424E+01 0.165E+03   0.130E+01 -.100E+01 0.518E+00   0.354E-04 -.126E-04 0.208E-04
   0.242E+01 -.127E+02 -.130E+03   -.701E+00 0.129E+02 0.129E+03   0.995E+00 0.214E+00 0.124E+01   -.477E-06 0.826E-05 0.116E-04
   0.156E+01 0.152E+02 -.186E+03   -.964E+00 -.158E+02 0.187E+03   0.367E+00 0.190E-01 -.191E+01   -.361E-06 -.129E-04 0.979E-05
   0.425E+01 0.184E+02 -.180E+03   -.478E+01 -.195E+02 0.180E+03   0.164E+00 0.912E-01 -.121E+01   0.139E-04 -.136E-05 0.119E-04
   0.123E+02 -.195E+02 -.122E+03   -.133E+02 0.207E+02 0.122E+03   -.338E+00 0.111E+01 0.164E+01   -.715E-05 0.186E-04 0.812E-05
   0.979E+00 -.112E+02 -.179E+03   -.172E+01 0.106E+02 0.179E+03   -.153E+00 -.853E+00 0.454E-01   -.343E-05 -.111E-04 0.935E-05
   -.585E+01 0.439E+01 -.133E+03   0.590E+01 -.420E+01 0.133E+03   0.380E+00 -.294E+00 -.798E+00   0.503E-05 0.134E-05 0.485E-05
   -.331E+02 0.705E+01 -.191E+03   0.339E+02 -.652E+01 0.192E+03   -.692E+00 0.146E+01 -.788E+00   -.125E-04 0.147E-04 0.128E-04
   -.222E+02 -.143E+02 -.150E+03   0.231E+02 0.143E+02 0.150E+03   0.109E+01 0.707E+00 -.201E+00   -.110E-04 0.737E-06 0.981E-05
   -.240E+02 -.803E+01 -.149E+03   0.227E+02 0.696E+01 0.149E+03   -.118E+01 -.359E+00 0.112E+01   -.297E-05 -.521E-05 0.131E-04
   -.191E+02 0.253E+02 -.113E+03   0.183E+02 -.279E+02 0.113E+03   -.702E+00 -.200E+00 -.325E+00   -.793E-05 -.146E-04 0.927E-05
   -.467E+02 0.721E+01 -.127E+03   0.491E+02 -.700E+01 0.127E+03   0.746E+00 -.210E+00 -.149E+01   0.675E-05 0.516E-05 0.850E-05
   -.170E+02 -.113E+02 -.701E+02   0.169E+02 0.115E+02 0.699E+02   -.546E+00 -.121E+00 0.117E+01   -.302E-06 0.377E-05 0.715E-05
   -.168E+02 -.144E+02 -.574E+02   0.161E+02 0.156E+02 0.576E+02   0.367E+00 0.928E+00 0.392E+00   0.104E-04 0.857E-05 0.363E-05
   -.104E+02 0.796E+01 -.391E+02   0.107E+02 -.743E+01 0.392E+02   -.850E+00 0.282E+00 -.343E+00   -.169E-04 0.100E-04 0.790E-05
   -.131E+02 0.227E+02 -.304E+02   0.138E+02 -.241E+02 0.305E+02   0.751E+00 -.317E+00 -.103E+01   -.470E-05 -.159E-04 0.567E-05
   -.896E+01 -.970E+01 -.188E+02   0.885E+01 0.102E+02 0.190E+02   -.750E+00 0.201E+00 0.516E+00   -.722E-06 -.109E-04 0.361E-05
   0.180E+02 -.862E+01 0.468E+02   -.200E+02 0.896E+01 -.459E+02   -.116E+01 -.666E+00 0.468E+00   0.124E-06 -.927E-05 -.317E-05
   -.189E+01 0.376E+01 0.140E+02   0.184E+01 -.309E+01 -.142E+02   0.661E-01 -.917E-01 0.237E+00   0.105E-04 0.534E-05 -.585E-05
   0.433E+01 0.124E+02 0.841E+02   -.316E+01 -.122E+02 -.848E+02   0.249E+00 -.304E-01 0.984E+00   -.159E-04 -.102E-04 -.135E-05
   -.665E+00 -.961E+01 0.380E+02   0.670E+00 0.956E+01 -.376E+02   -.118E-01 -.267E+00 -.649E+00   -.323E-04 -.106E-04 0.529E-05
   -.432E+01 0.417E+01 0.692E+02   0.386E+01 -.419E+01 -.683E+02   -.385E+00 0.603E+00 -.173E+01   0.974E-05 -.214E-04 -.105E-04
   -.292E+01 0.536E+01 0.764E+02   0.315E+01 -.600E+01 -.757E+02   0.508E+00 -.896E-01 -.114E+01   0.919E-05 -.675E-05 -.834E-05
   -.179E+01 0.610E+02 0.158E+03   -.569E+00 -.617E+02 -.159E+03   0.173E+01 0.121E+01 0.999E+00   -.592E-05 -.330E-04 -.127E-04
   -.135E+01 -.601E+02 0.192E+03   -.148E+01 0.610E+02 -.193E+03   0.107E+01 -.244E+01 0.205E+01   0.155E-04 0.145E-04 -.178E-04
 -----------------------------------------------------------------------------------------------
   0.647E+00 -.257E+00 -.309E+01   0.364E-13 -.135E-12 0.111E-11   -.700E+00 0.274E+00 0.306E+01   -.145E-04 0.132E-07 0.697E-04
 
 
 POSITION                                       TOTAL-FORCE (eV/Angst)
 -----------------------------------------------------------------------------------
      1.57562      1.39317     12.34940        -0.679921      1.447699     -1.898927
      1.53292      2.77729     12.13810         0.547068     -1.926326      0.793082
      2.76164      0.74754     12.41250         0.119637      0.030732      1.125507
      2.73244      3.41484     12.30120         1.676262     -1.262651     -0.560453
      4.00219      1.38530     12.56920         0.565324      0.183651     -0.514380
      4.03480      2.74010     12.37630        -1.041973      0.460298      0.105676
      5.19374      0.73251     12.98480        -0.623242     -0.484082     -0.408213
      5.27424      3.40336     12.57170        -1.088769      0.977634      0.527486
      6.41300      1.40375     13.09080         0.609852     -1.914819     -0.300444
      6.48393      2.72726     12.80570         0.525911      1.147167      0.939935
      7.58200      0.72341     13.53120         0.118617     -0.055246     -0.135029
      7.64988      3.37475     13.30080         1.410176      1.809750      0.129279
      8.81248      1.36674     13.73830         1.300836      0.544852      0.585639
      8.90411      2.75141     13.62140        -1.305409     -0.142716      0.334840
      9.96363      0.72290     14.29300        -0.014062     -0.149682     -0.654116
     10.05760      3.43892     14.13630        -0.987160     -0.656849     -0.955761
     11.20130      1.38942     14.42660         1.115001      0.445569      1.145349
     11.25750      2.77675     14.39370         0.269527     -0.649355     -0.039352
     12.39030      0.76573     14.93240        -0.216633      1.941673     -0.844230
     12.42860      3.44551     14.81470         1.366201     -0.962332      1.031811
     13.64740      1.41132     15.12620        -0.359797     -0.766248      0.634165
     13.65380      2.76318     15.23490        -1.701494      0.720583     -1.972303
     14.86380      0.74050     15.39390        -0.736570     -0.918543      0.340690
     14.85970      3.40587     15.47160         0.523372     -0.074896     -0.149350
     16.09250      1.38559     15.43250         1.561453     -1.810908     -0.615990
     16.11010      2.71626     15.47740         0.366204      2.404168      0.216392
     17.37340      0.71477     15.33360        -3.056704     -1.385393      1.041970
     17.38950      3.35878     15.52100        -2.077857      1.339131      0.379939
     18.54790      1.36896     15.20170         2.164886     -1.684706     -0.237293
     18.59110      2.72260     15.33010         0.645758     -0.786195     -0.205614
     19.75610      0.60723     14.97490         0.379744      3.772306     -0.654105
     19.83660      3.31759     15.17140         1.311118      1.515005     -0.905350
     20.92360      1.28305     14.53740         1.238491      0.305871     -0.515429
     20.97380      2.66102     14.62510        -0.375280     -0.428435      0.198631
     22.13700      0.65591     14.08600        -0.942862     -0.829922      0.707688
     22.15540      3.31583     14.19420         0.039064     -0.489170     -0.426319
     23.28240      1.31425     13.59260        -0.327375      0.300169      0.308752
     23.27300      2.67524     13.58150         0.381952      1.851490      0.352696
     24.49330      0.69627     13.32350         1.294435     -1.824457     -1.381925
     24.48000      3.38037     13.21720        -0.053445     -1.646108     -0.120725
     25.68330      1.30402     12.78590        -1.004018      1.628832      1.467448
     25.66120      2.68762     12.81340         0.917336      0.447771     -0.578864
     26.93270      0.67238     12.65430         0.295159      1.276384     -0.274688
     26.91860      3.37096     12.56080        -0.768147     -0.660419      0.166798
      0.08464      1.31738     12.37150        -1.018785      2.214702     -0.091789
      0.05297      2.73095     12.25420        -1.039465     -1.882726      0.397834
      1.49999      5.41575     12.53930         2.179951      1.099567     -0.188008
      1.50690      6.82103     12.51040         1.590022     -1.261455      0.034699
      2.72073      4.73438     12.55620        -0.786780      2.459401      0.138875
      2.70161      7.50939     12.61640         0.019647     -1.857196      0.750437
      3.91739      5.42898     12.82310         1.148707      0.255922      0.508772
      3.89880      6.83167     12.97500         0.102983     -1.711323     -0.718046
      5.18845      4.75284     12.90020         0.226481      0.836224     -0.836943
      5.14145      7.45671     13.18570         0.291934      0.259208     -0.059274
      6.41443      5.44064     13.23480        -1.727964     -3.473940      0.639265
      6.35839      6.74345     13.42700        -0.003904      4.132774      0.252913
      7.57737      4.74812     13.59820         1.368955     -0.104997     -0.865148
      7.57321      7.45301     13.71370        -1.515668      0.599624      0.510553
      8.72216      5.46999     14.10150         1.261078     -3.639324      0.532556
      8.70952      6.81763     14.22560         0.325282      0.254859     -0.326083
      9.99083      4.76743     14.40390        -1.189298      2.472625     -0.309331
      9.91053      7.46788     14.56910         1.578409      0.147185      0.219514
     11.18300      5.45873     14.83260        -0.383321     -1.101950     -0.138672
     11.17880      6.81243     14.94040        -3.093269      1.766865     -0.483904
     12.41210      4.79525     15.01520         1.085942      0.617848      0.757490
     12.33640      7.56258     15.18340         1.187085     -3.754662      0.523628
     13.65600      5.46321     15.44710        -3.949575      0.658035     -1.207197
     13.55810      6.86820     15.48050         1.308714     -1.118621      0.518274
     14.83500      4.77068     15.53150         2.716533      0.423956      1.064236
     14.82580      7.48078     15.62130         0.964321     -0.550453     -1.388538
     16.12680      5.40848     15.69550        -0.356505     -0.998579     -0.508751
     16.11630      6.75376     15.58470        -1.347344      2.369482      1.239497
     17.39400      4.74156     15.66280        -0.898004     -1.515588      0.012102
     17.35620      7.42780     15.51280         0.430911     -0.100771     -0.626658
     18.64790      5.33540     15.56280         0.126646      1.986809     -0.404922
     18.58210      6.71657     15.45740         1.958487      0.786593     -0.372936
     19.89580      4.70793     15.23800        -2.484533     -1.425636      1.276562
     19.83870      7.39409     15.09740        -1.465144     -2.861133      0.219651
     21.03590      5.36102     14.89190         3.100906      0.005398     -1.672210
     21.05550      6.72984     14.73760        -0.648884      0.156932      1.016843
     22.20800      4.66319     14.34970        -0.315292      2.120212      0.638607
     22.21840      7.38149     14.26980        -0.634579      0.804671     -0.290415
     23.36920      5.37345     13.92480         1.496195     -1.739059     -1.005084
     23.40820      6.72866     13.88960        -0.858748      0.659576      0.681119
     24.56540      4.73883     13.34740        -3.086594     -0.324542      1.313346
     24.54910      7.41365     13.45230         0.016673      0.585907      0.037752
     25.71990      5.40001     13.00510         1.428274      0.147265      0.342424
     25.73860      6.76765     13.09380        -0.006352     -0.317989     -0.258482
     26.94690      4.73042     12.72630        -0.842419      0.578798     -0.858358
     26.92180      7.42696     12.74210         0.736429     -0.734074     -0.390137
      0.04628      5.41954     12.44150        -0.622542      0.562514      0.231163
      0.05196      6.80849     12.38790        -1.758263     -1.530208      0.957855
 -----------------------------------------------------------------------------------
    total drift:                               -0.053192      0.016258     -0.034371


--------------------------------------------------------------------------------------------------------



  FREE ENERGIE OF THE ION-ELECTRON SYSTEM (eV)
  ---------------------------------------------------
  free  energy   TOTEN  =      -829.56845660 eV

  energy  without entropy=     -829.49968712  energy(sigma->0) =     -829.53407186
 


--------------------------------------------------------------------------------------------------------


    POTLOK:  cpu time      0.4544: real time      0.4544


--------------------------------------------------------------------------------------------------------


     LOOP+:  cpu time    315.1757: real time    315.3796
    4ORBIT:  cpu time      0.0000: real time      0.0000

 total amount of memory used by VASP MPI-rank0  2294502. kBytes
=======================================================================

   base                                    :      30000. kBytes
   nonlr-proj                              :      15068. kBytes
   fftplans                                :     436558. kBytes
   grid                                    :     732614. kBytes
   one-center                              :        282. kBytes
   wavefun                                 :    1079980. kBytes
 
  
  
 General timing and accounting informations for this job:
 ========================================================
  
                  Total CPU time used (sec):      348.538
                            User time (sec):      340.467
                          System time (sec):        8.070
                         Elapsed time (sec):      348.828
  
                   Maximum memory used (kb):     3734668.
                   Average memory used (kb):          N/A
  
                          Minor page faults:      3005661
                          Major page faults:         6776
                 Voluntary context switches:        10286
