unknown system                          
            1
    28.050000    0.000000    0.000000
     0.000000    8.100000    0.000000
     0.000000    0.000000   33.500000
   C 
    92
Direct configuration=     1
   0.05617184  0.17199630  0.36863881
   0.05464955  0.34287531  0.36233134
   0.09845419  0.09228840  0.37052239
   0.09741319  0.42158519  0.36720000
   0.14268057  0.17102469  0.37520000
   0.14384314  0.33828395  0.36944179
   0.18516007  0.09043272  0.38760597
   0.18802995  0.42016790  0.37527463
   0.22862745  0.17330247  0.39077015
   0.23115615  0.33669877  0.38225970
   0.27030303  0.08931037  0.40391642
   0.27272299  0.41663580  0.39703881
   0.31417041  0.16873333  0.41009851
   0.31743708  0.33968025  0.40660896
   0.35520963  0.08924741  0.42665672
   0.35855971  0.42455802  0.42197910
   0.39933333  0.17153333  0.43064478
   0.40133690  0.34280864  0.42966269
   0.44172193  0.09453407  0.44574328
   0.44308734  0.42537160  0.44222985
   0.48653832  0.17423704  0.45152836
   0.48676649  0.34113333  0.45477313
   0.52990374  0.09142012  0.45951940
   0.52975758  0.42047778  0.46183881
   0.57370766  0.17106049  0.46067164
   0.57433512  0.33534074  0.46201194
   0.61937255  0.08824346  0.45771940
   0.61994652  0.41466420  0.46331343
   0.66124421  0.16900741  0.45378209
   0.66278431  0.33612346  0.45761493
   0.70431729  0.07496691  0.44701194
   0.70718717  0.40957901  0.45287761
   0.74593939  0.15840123  0.43395224
   0.74772906  0.32852099  0.43657015
   0.78919786  0.08097679  0.42047761
   0.78985383  0.40936173  0.42370746
   0.83003209  0.16225309  0.40574925
   0.82969697  0.33027654  0.40541791
   0.87320143  0.08595951  0.39771642
   0.87272727  0.41732963  0.39454328
   0.91562567  0.16099012  0.38166866
   0.91483779  0.33180494  0.38248955
   0.96016756  0.08300975  0.37774030
   0.95966488  0.41616790  0.37494925
   0.00301760  0.16263951  0.36929851
   0.00188835  0.33715432  0.36579701
   0.05347558  0.66861111  0.37430746
   0.05372193  0.84210247  0.37344478
   0.09699572  0.58449136  0.37481194
   0.09631408  0.92708519  0.37660896
   0.13965740  0.67024444  0.38277910
   0.13899465  0.84341605  0.38731343
   0.18497148  0.58677037  0.38508060
   0.18329590  0.92058148  0.39360299
   0.22867843  0.67168395  0.39506866
   0.22668057  0.83252469  0.40080597
   0.27013797  0.58618765  0.40591642
   0.26998966  0.92012469  0.40936418
   0.31095045  0.67530741  0.42094030
   0.31049982  0.84168272  0.42464478
   0.35617932  0.58857160  0.42996716
   0.35331658  0.92196049  0.43489851
   0.39868093  0.67391728  0.44276418
   0.39853119  0.84104074  0.44598209
   0.44249911  0.59200617  0.44821493
   0.43980036  0.93365185  0.45323582
   0.48684492  0.67447037  0.46110746
   0.48335472  0.84792593  0.46210448
   0.52887701  0.58897284  0.46362687
   0.52854902  0.92355309  0.46630746
   0.57493048  0.66771358  0.46852239
   0.57455615  0.83379753  0.46521493
   0.62010695  0.58537778  0.46754627
   0.61875936  0.91701235  0.46306866
   0.66480927  0.65869136  0.46456119
   0.66246346  0.82920617  0.46141493
   0.70929768  0.58122593  0.45486567
   0.70726203  0.91285062  0.45066866
   0.74994296  0.66185432  0.44453433
   0.75064171  0.83084444  0.43992836
   0.79172906  0.57570247  0.42834925
   0.79209982  0.91129506  0.42596418
   0.83312656  0.66338889  0.41566567
   0.83451693  0.83069877  0.41461493
   0.87577184  0.58504074  0.39842985
   0.87519073  0.91526543  0.40156119
   0.91693048  0.66666790  0.38821194
   0.91759715  0.83551235  0.39085970
   0.96067380  0.58400247  0.37988955
   0.95977897  0.91690864  0.38036119
   0.00164993  0.66907901  0.37138806
   0.00185253  0.84055432  0.36978806
