 vasp.6.5.0 16Dec24 (build Feb 19 2025 19:45:31) complex                         
 executed on              LinuxNV date 2025.10.25  19:47:02
 running    2 mpi-ranks, on    1 nodes
 distrk:  each k-point on    2 cores,    1 groups
 distr:  one band on NCORE=   1 cores,    2 groups
 Offloading initialized ...    2 GPUs detected


--------------------------------------------------------------------------------------------------------


 INCAR:
   ISTART = 0            (Not Read existing wavefunction
   ISPIN = 1            (Non-Spin polarised DFT, Default\=1)
   ICHARG = 2            (The initial guess charge density is generated by superposition of atomic charge density)
   LREAL = Auto         (Projection operators: automatic)
   ENCUT = 500          (Cut-off energy for plane wave basis set, in eV)
   LWAVE = .FALSE.       (Write WAVECAR or not)
   LCHARG = .FALSE.       (Write CHGCAR or not)
   PREC = Accurate   (Precision level)
   KGAMMA = .TRUE.
   ALGO = Normal
   NSW = 0           (Default: NSW \= 0)
   IBRION = -1           (Ions are not moved)
   ISMEAR = 0
   EDIFF = 1E-06        (SCF energy convergence
   NELM = 150          (Max electronic SCF steps)

 POTCAR:    PAW_PBE C 08Apr2002                   
 POTCAR:    PAW_PBE C 08Apr2002                   
   SHA256 =  253f7b50bb8d59471dbedb8285d89021f4a42ed1a2c5d38a03a736e69125dd95 C/POTCAR              
   COPYR  = (c) Copyright 08Apr2002 Georg Kresse                                                    
   COPYR  = This file is part of the software VASP. Any use, copying, and all other rights are regul
   COPYR  = If you do not have a valid VASP license, you may not use, copy or distribute this file. 
   VRHFIN =C: s2p2                                                                                  
   LEXCH  = PE                                                                                      
   EATOM  =   147.1560 eV,   10.8157 Ry                                                             
                                                                                                    
   TITEL  = PAW_PBE C 08Apr2002                                                                     
   LULTRA =        F    use ultrasoft PP ?                                                          
   IUNSCR =        1    unscreen: 0-lin 1-nonlin 2-no                                               
   RPACOR =    1.200    partial core radius                                                         
   POMASS =   12.011; ZVAL   =    4.000    mass and valenz                                          
   RCORE  =    1.500    outmost cutoff radius                                                       
   RWIGS  =    1.630; RWIGS  =    0.863    wigner-seitz radius (au A)                               
   ENMAX  =  400.000; ENMIN  =  300.000 eV                                                          
   ICORE  =        2    local potential                                                             
   LCOR   =        T    correct aug charges                                                         
   LPAW   =        T    paw PP                                                                      
   EAUG   =  644.873                                                                                
   DEXC   =    0.000                                                                                
   RMAX   =    1.529    core radius for proj-oper                                                   
   RAUG   =    1.300    factor for augmentation sphere                                              
   RDEP   =    1.501    radius for radial grids                                                     
   RDEPT  =    1.300    core radius for aug-charge                                                  
                                                                                                    
   Atomic configuration                                                                             
    4 entries                                                                                       
     n  l   j            E        occ.                                                              
     1  0  0.50      -273.3789   2.0000                                                             
     2  0  0.50       -13.7508   2.0000                                                             
     2  1  0.50        -5.2854   2.0000                                                             
     3  2  1.50        -5.4423   0.0000                                                             
   Description                                                                                      
     l       E           TYP  RCUT    TYP  RCUT                                                     
     0    -13.7508458     23  1.200                                                                 
     0     -8.2022199     23  1.200                                                                 
     1     -5.2854383     23  1.500                                                                 
     1     34.0145650     23  1.500                                                                 
     2     -5.4423304      7  1.500                                                                 
  local pseudopotential read in
  partial core-charges read in
  partial kinetic energy density read in
  atomic valenz-charges read in
  non local Contribution for L=            0  read in
    real space projection operators read in
  non local Contribution for L=            0  read in
    real space projection operators read in
  non local Contribution for L=            1  read in
    real space projection operators read in
  non local Contribution for L=            1  read in
    real space projection operators read in
    PAW grid and wavefunctions read in
 
   number of l-projection  operators is LMAX  =            4
   number of lm-projection operators is LMMAX =            8
 
 Optimization of the real space projectors (new method)

 maximal supplied QI-value         = 25.13
 optimisation between [QCUT,QGAM] = [ 11.31, 22.87] = [ 35.82,146.48] Ry 
 Optimized for a Real-space Cutoff    1.03 Angstroem

   l    n(q)    QCUT    max X(q) W(low)/X(q) W(high)/X(q)  e(spline) 
   0      7    11.310   115.676    0.20E-03    0.90E-03    0.20E-06
   0      7    11.310    87.132    0.20E-03    0.89E-03    0.19E-06
   1      6    11.310     4.429    0.16E-03    0.28E-03    0.12E-06
   1      6    11.310     2.733    0.12E-03    0.21E-03    0.99E-07
  PAW_PBE C 08Apr2002                   :
 energy of atom  1       EATOM= -147.1560
 kinetic energy error for atom=    0.0076 (will be added to EATOM!!)
 
 
 POSCAR:  C
  positions in cartesian coordinates
  No initial velocities read in


 exchange-correlation table for PE
   RHO(1)=    0.500       N(1)  =     2000
   RHO(2)=  100.500       N(2)  =     4000
 


--------------------------------------------------------------------------------------------------------


 ion  position               nearest neighbor table
   1  0.559  0.925  0.098-   2 1.37   3 1.42  45 1.47  46 2.06
   2  0.560  0.093  0.092-   1 1.37   4 1.40  46 1.54  45 2.01
   3  0.601  0.840  0.108-  50 1.36   5 1.40   1 1.42
   4  0.603  0.173  0.101-  49 1.36   2 1.40   6 1.42
   5  0.645  0.923  0.112-   6 1.37   3 1.40   7 1.43
   6  0.647  0.090  0.106-   5 1.37   4 1.42   8 1.43
   7  0.686  0.841  0.127-  54 1.37   9 1.40   5 1.43
   8  0.690  0.173  0.116-  53 1.38  10 1.39   6 1.43
   9  0.729  0.921  0.135-  10 1.38   7 1.40  11 1.45
  10  0.731  0.088  0.127-   9 1.38   8 1.39  12 1.45
  11  0.773  0.842  0.148-  58 1.38  13 1.40   9 1.45
  12  0.775  0.173  0.137-  57 1.36  14 1.43  10 1.45
  13  0.816  0.924  0.155-  14 1.33  11 1.40  15 1.41
  14  0.816  0.088  0.152-  13 1.33  12 1.43  16 1.46
  15  0.857  0.844  0.170-  62 1.37  13 1.41  17 1.43
  16  0.860  0.177  0.163-  61 1.35  18 1.38  14 1.46
  17  0.902  0.926  0.172-  18 1.39  19 1.42  15 1.43
  18  0.902  0.098  0.170-  20 1.38  16 1.38  17 1.39
  19  0.943  0.844  0.186-  66 1.36  17 1.42  21 1.44
  20  0.944  0.182  0.177-  65 1.37  18 1.38  22 1.42
  21  0.988  0.929  0.186-  22 1.39  23 1.42  19 1.44
  22  0.988  0.098  0.179-  21 1.39  20 1.42  24 1.45
  23  0.034  0.849  0.185-  70 1.38  21 1.42  25 1.43
  24  0.033  0.185  0.177-  69 1.37  26 1.43  22 1.45
  25  0.078  0.927  0.177-  26 1.39  27 1.39  23 1.43
  26  0.077  0.097  0.172-  25 1.39  28 1.42  24 1.43
  27  0.122  0.847  0.175-  74 1.38  25 1.39  29 1.44
  28  0.121  0.181  0.165-  73 1.37  30 1.40  26 1.42
  29  0.164  0.928  0.160-  30 1.36  31 1.43  27 1.44
  30  0.161  0.093  0.153-  29 1.36  28 1.40  32 1.43
  31  0.208  0.845  0.152-  78 1.39  33 1.42  29 1.43
  32  0.205  0.178  0.144-  77 1.40  34 1.41  30 1.43
  33  0.248  0.927  0.135-  34 1.38  35 1.41  31 1.42
  34  0.246  0.095  0.130-  33 1.38  36 1.40  32 1.41
  35  0.290  0.840  0.124-  82 1.37  33 1.41  37 1.43
  36  0.288  0.174  0.119-  81 1.37  34 1.40  38 1.44
  37  0.331  0.924  0.110-  38 1.39  39 1.42  35 1.43
  38  0.329  0.092  0.102-  37 1.39  40 1.43  36 1.44
  39  0.375  0.840  0.106-  86 1.36  41 1.41  37 1.42
  40  0.374  0.175  0.095-  85 1.38  38 1.43  42 1.45
  41  0.419  0.917  0.097-  39 1.41  42 1.41  43 1.45
  42  0.419  0.089  0.090-  44 1.40  41 1.41  40 1.45
  43  0.465  0.837  0.099-  90 1.36  45 1.39  41 1.45
  44  0.462  0.171  0.084-  46 1.38  89 1.38  42 1.40
  45  0.507  0.926  0.091-  46 1.36  43 1.39   1 1.47   2 2.01
  46  0.505  0.092  0.085-  45 1.36  44 1.38   2 1.54   1 2.06
  47  0.558  0.423  0.101-  48 1.37  49 1.44  91 1.51  92 1.97
  48  0.558  0.591  0.105-  47 1.37  50 1.38  92 1.47
  49  0.603  0.340  0.105-   4 1.36  51 1.43  47 1.44
  50  0.600  0.675  0.114-   3 1.36  48 1.38  52 1.44
  51  0.645  0.422  0.118-  52 1.37  53 1.39  49 1.43
  52  0.643  0.589  0.123-  51 1.37  54 1.42  50 1.44
  53  0.689  0.342  0.123-   8 1.38  51 1.39  55 1.44
  54  0.686  0.673  0.133-   7 1.37  56 1.41  52 1.42
  55  0.732  0.422  0.136-  56 1.35  57 1.39  53 1.44
  56  0.728  0.587  0.142-  55 1.35  54 1.41  58 1.44
  57  0.774  0.338  0.144-  12 1.36  55 1.39  59 1.44
  58  0.770  0.674  0.155-  11 1.38  60 1.41  56 1.44
  59  0.815  0.426  0.158-  60 1.36  61 1.41  57 1.44
  60  0.814  0.592  0.164-  59 1.36  58 1.41  62 1.43
  61  0.858  0.342  0.167-  16 1.35  59 1.41  63 1.44
  62  0.856  0.677  0.176-  15 1.37  64 1.39  60 1.43
  63  0.900  0.429  0.180-  64 1.35  65 1.42  61 1.44
  64  0.898  0.595  0.184-  63 1.35  62 1.39  66 1.43
  65  0.945  0.350  0.181-  20 1.37  63 1.42  67 1.43
  66  0.942  0.677  0.191-  19 1.36  64 1.43  68 1.46
  67  0.990  0.431  0.189-  68 1.37  69 1.39  65 1.43
  68  0.989  0.600  0.192-  67 1.37  70 1.41  66 1.46
  69  0.033  0.352  0.182-  24 1.37  67 1.39  71 1.39
  70  0.034  0.681  0.191-  23 1.38  68 1.41  72 1.41
  71  0.078  0.429  0.182-  72 1.38  69 1.39  73 1.44
  72  0.078  0.598  0.188-  71 1.38  70 1.41  74 1.45
  73  0.122  0.347  0.173-  28 1.37  75 1.41  71 1.44
  74  0.123  0.680  0.183-  27 1.38  72 1.45  76 1.45
  75  0.167  0.426  0.170-  76 1.38  73 1.41  77 1.42
  76  0.167  0.595  0.173-  75 1.38  78 1.40  74 1.45
  77  0.208  0.343  0.157-  32 1.40  79 1.40  75 1.42
  78  0.208  0.678  0.160-  31 1.39  76 1.40  80 1.43
  79  0.251  0.423  0.147-  80 1.39  77 1.40  81 1.46
  80  0.252  0.595  0.150-  79 1.39  78 1.43  82 1.45
  81  0.290  0.340  0.127-  36 1.37  83 1.40  79 1.46
  82  0.292  0.674  0.132-  35 1.37  84 1.41  80 1.45
  83  0.333  0.419  0.118-  81 1.40  84 1.40  85 1.41
  84  0.333  0.591  0.117-  83 1.40  82 1.41  86 1.44
  85  0.374  0.344  0.102-  40 1.38  87 1.39  83 1.41
  86  0.378  0.675  0.112-  39 1.36  88 1.43  84 1.44
  87  0.418  0.423  0.097-  88 1.38  85 1.39  89 1.43
  88  0.422  0.589  0.106-  87 1.38  90 1.39  86 1.43
  89  0.462  0.340  0.090-  91 1.36  44 1.38  87 1.43
  90  0.465  0.670  0.102-  43 1.36  92 1.37  88 1.39
  91  0.505  0.419  0.094-  89 1.36  92 1.38  47 1.51
  92  0.507  0.589  0.095-  90 1.37  91 1.38  48 1.47  47 1.97
 
  LATTYP: Found a simple orthorhombic cell.
 ALAT       =     8.1000000000
 B/A-ratio  =     3.4629629630
 C/A-ratio  =     4.1358024691
  
  Lattice vectors:
  
 A1 = (   0.0000000000,  -8.1000000000,   0.0000000000)
 A2 = (  28.0500000000,   0.0000000000,   0.0000000000)
 A3 = (   0.0000000000,   0.0000000000,  33.5000000000)


Analysis of symmetry for initial positions (statically):
=====================================================================
 Subroutine PRICEL returns:
 Original cell was already a primitive cell.
 

 Routine SETGRP: Setting up the symmetry group for a 
 simple orthorhombic supercell.


 Subroutine GETGRP returns: Found  1 space group operations
 (whereof  1 operations were pure point group operations)
 out of a pool of  8 trial point group operations.


The static configuration has the point symmetry C_1 .


Analysis of symmetry for dynamics (positions and initial velocities):
=====================================================================
 Subroutine PRICEL returns:
 Original cell was already a primitive cell.
 

 Routine SETGRP: Setting up the symmetry group for a 
 simple orthorhombic supercell.


 Subroutine GETGRP returns: Found  1 space group operations
 (whereof  1 operations were pure point group operations)
 out of a pool of  8 trial point group operations.


The dynamic configuration has the point symmetry C_1 .


 Subroutine INISYM returns: Found  1 space group operations
 (whereof  1 operations are pure point group operations),
 and found     1 'primitive' translations


----------------------------------------------------------------------------------------

                                     Primitive cell                                     

  volume of cell :    7611.3675

  direct lattice vectors                    reciprocal lattice vectors
    28.050000000  0.000000000  0.000000000     0.035650624  0.000000000  0.000000000
     0.000000000  8.100000000  0.000000000     0.000000000  0.123456790  0.000000000
     0.000000000  0.000000000 33.500000000     0.000000000  0.000000000  0.029850746

  length of vectors
    28.050000000  8.100000000 33.500000000     0.035650624  0.123456790  0.029850746

  position of ions in fractional coordinates (direct lattice)
     0.558798574  0.925497531  0.097761194
     0.559547237  0.093208272  0.092268657
     0.601433155  0.840475309  0.107582090
     0.602666667  0.172833333  0.101044776
     0.644787879  0.923449383  0.111910448
     0.647030303  0.090262222  0.105850746
     0.686217469  0.841087654  0.127104478
     0.690488414  0.173277778  0.115910448
     0.729344029  0.920891358  0.134985075
     0.731422460  0.087831481  0.126746269
     0.772759358  0.841725926  0.148268657
     0.775140820  0.173103704  0.136805970
     0.816142602  0.924188889  0.154597015
     0.816203209  0.088483210  0.151552239
     0.856752228  0.844395062  0.170179104
     0.859504456  0.176700000  0.162686567
     0.901832442  0.926206173  0.172477612
     0.902192513  0.097740000  0.170268657
     0.943397504  0.843958025  0.186238806
     0.943989305  0.182296296  0.176805970
     0.988420677  0.928737037  0.186298507
     0.988449198  0.098152346  0.179074627
     0.033540713  0.849093827  0.184895522
     0.033447023  0.184620988  0.176985075
     0.078486631  0.927497531  0.177343284
     0.077243850  0.097385062  0.172089552
     0.122420321  0.847462963  0.175283582
     0.121007487  0.181304938  0.164865672
     0.164154367  0.928482716  0.160089552
     0.161460963  0.093333210  0.153164179
     0.207906952  0.845458025  0.151791045
     0.204819608  0.178416049  0.144208955
     0.247614260  0.926872840  0.134716418
     0.245560071  0.095457284  0.129641791
     0.289593583  0.840474074  0.124149254
     0.288180036  0.174016049  0.118656716
     0.331345455  0.923654321  0.110179104
     0.329312299  0.091971358  0.102029851
     0.375483066  0.840330864  0.105970149
     0.373518717  0.175154321  0.094865672
     0.419147950  0.917014815  0.096895522
     0.418545455  0.089073580  0.090328358
     0.465426025  0.836971605  0.098716418
     0.461768271  0.170759259  0.084149254
     0.506805704  0.926020988  0.091373134
     0.505162210  0.091736173  0.084985075
     0.557846702  0.422945679  0.100686567
     0.558196078  0.590966667  0.104955224
     0.602837790  0.340067901  0.105462687
     0.599743316  0.675281481  0.114029851
     0.645490196  0.422060494  0.118119403
     0.643450980  0.589233333  0.123402985
     0.688919786  0.341698765  0.122626866
     0.686171123  0.673253086  0.133164179
     0.731525847  0.422390123  0.136208955
     0.728456328  0.587397531  0.141910448
     0.773860963  0.338285185  0.143582090
     0.770499109  0.673848148  0.155343284
     0.815069519  0.425961728  0.158029851
     0.813761141  0.591838272  0.164119403
     0.858057041  0.342227160  0.166656716
     0.855789661  0.677103704  0.176298507
     0.900014260  0.428838272  0.180149254
     0.898042781  0.594792593  0.184179104
     0.945426025  0.350487654  0.181283582
     0.942210339  0.677486420  0.190746269
     0.989839572  0.431140741  0.188746269
     0.989297683  0.600113580  0.191671642
     0.033148128  0.352160494  0.182447761
     0.033875330  0.680834568  0.190597015
     0.077547237  0.429141975  0.181582090
     0.078137611  0.597769136  0.188208955
     0.121983244  0.347313580  0.172626866
     0.123442068  0.680285185  0.183014925
     0.166673797  0.425525926  0.169791045
     0.167188235  0.594814815  0.172835821
     0.208263458  0.342593827  0.156567164
     0.208278788  0.677995062  0.160358209
     0.250976114  0.423185185  0.147014925
     0.251806417  0.594653086  0.150388060
     0.290088414  0.340361728  0.126567164
     0.292268093  0.674224691  0.131820896
     0.333045989  0.419011111  0.117611940
     0.332804635  0.591354321  0.117402985
     0.374199643  0.343534568  0.102000000
     0.377675579  0.674755556  0.112298507
     0.417982175  0.422600000  0.097492537
     0.421750446  0.588651852  0.106149254
     0.462174688  0.339655556  0.090059701
     0.465115865  0.670071605  0.101820896
     0.504541889  0.418850617  0.094059701
     0.507112299  0.589096296  0.095074627

  ion indices of the primitive-cell ions
   primitive index   ion index
                 1           1
                 2           2
                 3           3
                 4           4
                 5           5
                 6           6
                 7           7
                 8           8
                 9           9
                10          10
                11          11
                12          12
                13          13
                14          14
                15          15
                16          16
                17          17
                18          18
                19          19
                20          20
                21          21
                22          22
                23          23
                24          24
                25          25
                26          26
                27          27
                28          28
                29          29
                30          30
                31          31
                32          32
                33          33
                34          34
                35          35
                36          36
                37          37
                38          38
                39          39
                40          40
                41          41
                42          42
                43          43
                44          44
                45          45
                46          46
                47          47
                48          48
                49          49
                50          50
                51          51
                52          52
                53          53
                54          54
                55          55
                56          56
                57          57
                58          58
                59          59
                60          60
                61          61
                62          62
                63          63
                64          64
                65          65
                66          66
                67          67
                68          68
                69          69
                70          70
                71          71
                72          72
                73          73
                74          74
                75          75
                76          76
                77          77
                78          78
                79          79
                80          80
                81          81
                82          82
                83          83
                84          84
                85          85
                86          86
                87          87
                88          88
                89          89
                90          90
                91          91
                92          92

----------------------------------------------------------------------------------------

 
 
 KPOINTS: K-Spacing Value to Generate K-Mesh: 0.03

Automatic generation of k-mesh.
 Grid dimensions read from file:
 generate k-points for:    1    4    1

 Generating k-lattice:

  Cartesian coordinates                     Fractional coordinates (reciprocal lattice)
     0.035650624  0.000000000  0.000000000     1.000000000  0.000000000  0.000000000
     0.000000000  0.030864198  0.000000000     0.000000000  0.250000000  0.000000000
     0.000000000  0.000000000  0.029850746     0.000000000  0.000000000  1.000000000

  Length of vectors
     0.035650624  0.030864198  0.029850746

  Shift w.r.t. Gamma in fractional coordinates (k-lattice)
     0.000000000  0.000000000  0.000000000

 
 Subroutine IBZKPT returns following result:
 ===========================================
 
 Found      3 irreducible k-points:
 
 Following reciprocal coordinates:
            Coordinates               Weight
  0.000000  0.000000  0.000000      1.000000
  0.000000  0.250000  0.000000      2.000000
  0.000000  0.500000  0.000000      1.000000
 
 Following cartesian coordinates:
            Coordinates               Weight
  0.000000  0.000000  0.000000      1.000000
  0.000000  0.030864  0.000000      2.000000
  0.000000  0.061728  0.000000      1.000000
 


--------------------------------------------------------------------------------------------------------




 Dimension of arrays:
   k-points           NKPTS =      3   k-points in BZ     NKDIM =      3   number of bands    NBANDS=    232
   number of dos      NEDOS =    301   number of ions     NIONS =     92
   non local maximal  LDIM  =      4   non local SUM 2l+1 LMDIM =      8
   total plane-waves  NPLWV = ******
   max r-space proj   IRMAX =   1967   max aug-charges    IRDMAX=   5083
   dimension x,y,z NGX =   210 NGY =   60 NGZ =  250
   dimension x,y,z NGXF=   420 NGYF=  120 NGZF=  500
   support grid    NGXF=   420 NGYF=  120 NGZF=  500
   ions per type =              92
   NGX,Y,Z   is equivalent  to a cutoff of  12.45, 12.31, 12.41 a.u.
   NGXF,Y,Z  is equivalent  to a cutoff of  24.89, 24.63, 24.81 a.u.

 SYSTEM =  unknown system                          
 POSCAR =   C                                      

 Startparameter for this run:
   NWRITE =      2    write-flag & timer
   PREC   = accura    normal or accurate (medium, high low for compatibility)
   ISTART =      0    job   : 0-new  1-cont  2-samecut
   ICHARG =      2    charge: 1-file 2-atom 10-const
   ISPIN  =      1    spin polarized calculation?
   LNONCOLLINEAR =      F non collinear calculations
   LSORBIT =      F    spin-orbit coupling
   INIWAV =      1    electr: 0-lowe 1-rand  2-diag
   LASPH  =      F    aspherical Exc in radial PAW
 Electronic Relaxation 1
   ENCUT  =  500.0 eV  36.75 Ry    6.06 a.u.  51.14 14.77 61.08*2*pi/ulx,y,z
   ENINI  =  500.0     initial cutoff
   ENAUG  =  644.9 eV  augmentation charge cutoff
   NELM   =    150;   NELMIN=  2; NELMDL= -5     # of ELM steps 
   EDIFF  = 0.1E-05   stopping-criterion for ELM
   LREAL  =      T    real-space projection
   NLSPLINE    = F    spline interpolate recip. space projectors
   LCOMPAT=      F    compatible to vasp.4.4
   GGA_COMPAT  = T    GGA compatible to vasp.4.4-vasp.4.6
   LMAXPAW     = -100 max onsite density
   LMAXMIX     =    2 max onsite mixed and CHGCAR
   VOSKOWN=      0    Vosko Wilk Nusair interpolation
   ROPT   =   -0.00025
 Ionic relaxation
   EDIFFG = 0.1E-04   stopping-criterion for IOM
   NSW    =      0    number of steps for IOM
   NBLOCK =      1;   KBLOCK =      1    inner block; outer block 
   IBRION =     -1    ionic relax: 0-MD 1-quasi-New 2-CG
   NFREE  =      0    steps in history (QN), initial steepest desc. (CG)
   ISIF   =      2    stress and relaxation
   IWAVPR =     10    prediction:  0-non 1-charg 2-wave 3-comb
   ISYM   =      2    0-nonsym 1-usesym 2-fastsym
   LCORR  =      T    Harris-Foulkes like correction to forces

   POTIM  = 0.5000    time-step for ionic-motion
   TEIN   =    0.0    initial temperature
   TEBEG  =    0.0;   TEEND  =   0.0 temperature during run
   SMASS  =  -3.00    Nose mass-parameter (am)
   estimated Nose-frequenzy (Omega)   =  0.10E-29 period in steps = 0.13E+47 mass=  -0.180E-25a.u.
   SCALEE = 1.0000    scale energy and forces
   NPACO  =    256;   APACO  = 10.0  distance and # of slots for P.C.
   PSTRESS=    0.0 pullay stress

  Mass of Ions in am
   POMASS =  12.01
  Ionic Valenz
   ZVAL   =   4.00
  Atomic Wigner-Seitz radii
   RWIGS  =  -1.00
  virtual crystal weights 
   VCA    =   1.00
   NELECT =     368.0000    total number of electrons
   NUPDOWN=      -1.0000    fix difference up-down

 DOS related values:
   EMIN   =  10.00;   EMAX   =-10.00  energy-range for DOS
   EFERMI =   0.00;   METHOD = LEGACY      
   ISMEAR =     0;   SIGMA  =   0.20  broadening in eV -4-tet -1-fermi 0-gaus
   EFERMI_NEDOS =   21; number of points for ismear=-14 and -15

 Electronic relaxation 2 (details)
   IALGO  =     38    algorithm
   LDIAG  =      T    sub-space diagonalisation (order eigenvalues)
   LSUBROT=      F    optimize rotation matrix (better conditioning)
   TURBO    =      0    0=normal 1=particle mesh
   IRESTART =      0    0=no restart 2=restart with 2 vectors
   NREBOOT  =      0    no. of reboots
   NMIN     =      0    reboot dimension
   EREF     =   0.00    reference energy to select bands
   IMIX   =      4    mixing-type and parameters
     AMIX     =   0.40;   BMIX     =  1.00
     AMIX_MAG =   1.60;   BMIX_MAG =  1.00
     AMIN     =   0.10
     WC   =   100.;   INIMIX=   1;  MIXPRE=   1;  MAXMIX= -45

 Intra band minimization:
   WEIMIN = 0.0000     energy-eigenvalue tresh-hold
   EBREAK =  0.11E-08  absolut break condition
   DEPER  =   0.30     relativ break condition  

   TIME   =   0.40     timestep for ELM

  volume/ion in A,a.u.               =      82.73       558.30
  Fermi-wavevector in a.u.,A,eV,Ry     =   0.596398  1.127030  4.839472  0.355691
  Thomas-Fermi vector in A             =   1.646729
 
 Write flags
   LWAVE        =      F    write WAVECAR
   LDOWNSAMPLE  =      F    k-point downsampling of WAVECAR
   LCHARG       =      F    write CHGCAR
   LVTOT        =      F    write LOCPOT, total local potential
   LVHAR        =      F    write LOCPOT, Hartree potential only
   WRT_POTENTIAL= false  ! write potential to hdf5 file
   LELF         =      F    write electronic localiz. function (ELF)
   LORBIT       =      0    0 simple, 1 ext, 2 COOP (PROOUT), +10 PAW based schemes


 Python interface
   PLUGINS active      =      F    recompile with -DPLUGINS to activate
 
 Dipole corrections
   LMONO      =      F    monopole corrections only (constant potential shift)
   LDIPOL     =      F    correct potential (dipole corrections)
   IDIPOL     =      0    1-x, 2-y, 3-z, 4-all directions 
   EPSILON    =  1.0000000 bulk dielectric constant
   LVACPOTAV  =      F  vacuum potentials using an averaging scheme for the charge density
   VACPOTFLAT =  0.1000000 required flatness to determine vacuum potential
 
Coulomb truncation method
  LTRUNCATE          =      F  Coulomb kernel truncation to be used
  IDIMENSIONALITY    =      3  Dimensionality of cutoff (0 molecules / 2 surfaces)
  ISURFACE           =     -1  Direction of surface normal
  LCOARSEN           =      F  Coarsen the charge grid before padding, preferred

 
 Exchange correlation treatment:
   GGA     = PE    functional components
   XC_C    = 1    coefficients multiplying the functional components
   LIBXC   =     F    Libxc                    
   VOSKOWN =     0    Vosko Wilk Nusair interpolation
   LHFCALC =     F    Hartree Fock is set to
   LHFONE  =     F    Hartree Fock one center treatment
   AEXX    =    0.0000 exact exchange contribution

 Parameters of functionals:
   PE:
     No parameter
 
 Van der Waals corrections
   IVDW    =     0    specifies the selected vdW correction

 Linear response parameters
   LEPSILON=     F    determine dielectric tensor
   LRPA    =     F    only Hartree local field effects (RPA)
   LNABLA  =     F    use nabla operator in PAW spheres
   LVEL    =     F    velocity operator in full k-point grid
   CSHIFT  =0.1000    complex shift for real part using Kramers Kronig
   OMEGAMAX=  -1.0    maximum frequency
   DEG_THRESHOLD= 0.2000000E-02 threshold for treating states as degnerate
   RTIME   =   -0.100 relaxation time in fs
  (WPLASMAI=    0.000 imaginary part of plasma frequency in eV, 0.658/RTIME)
   DFIELD  = 0.0000000 0.0000000 0.0000000 field for delta impulse in time
 
  Optional k-point grid parameters
   LKPOINTS_OPT  =     F    use optional k-point grid
   KPOINTS_OPT_MODE=     1    mode for optional k-point grid
 
 Orbital magnetization related:
   ORBITALMAG=     F  switch on orbital magnetization
   LCHIMAG   =     F  perturbation theory with respect to B field
   DQ        =  0.001000  dq finite difference perturbation B field
   LLRAUG    =     F  two centre corrections for induced B field
   LBONE     =     F  B-component reconstruction in AE one-centre
   LVGVCALC  =     T  calculate vGv susceptibility
   LVGVAPPL  =     F  apply vGv susceptibility instead of pGv for G=0

 Random number generation:
   RANDOM_GENERATOR = DEFAULT
   PCG_SEED         = not used


--------------------------------------------------------------------------------------------------------


 Static calculation
 charge density and potential will be updated during run
 non-spin polarized calculation
 Variant of blocked Davidson
 Davidson routine will perform the subspace rotation
 perform sub-space diagonalisation
    after iterative eigenvector-optimisation
 modified Broyden-mixing scheme, WC =      100.0
 initial mixing is a Kerker type mixing with AMIX =  0.4000 and BMIX =      1.0000
 Hartree-type preconditioning will be used
 using additional bands            48
 real space projection scheme for non local part
 use partial core corrections
 calculate Harris-corrections to forces 
   (improved forces if not selfconsistent)
 use gradient corrections 
 use of overlap-Matrix (Vanderbilt PP)
 Gauss-broadening in eV      SIGMA  =   0.20


--------------------------------------------------------------------------------------------------------


  energy-cutoff  :      500.00
  volume of cell :     7611.37
      direct lattice vectors                 reciprocal lattice vectors
    28.050000000  0.000000000  0.000000000     0.035650624  0.000000000  0.000000000
     0.000000000  8.100000000  0.000000000     0.000000000  0.123456790  0.000000000
     0.000000000  0.000000000 33.500000000     0.000000000  0.000000000  0.029850746

  length of vectors
    28.050000000  8.100000000 33.500000000     0.035650624  0.123456790  0.029850746


 
 k-points in units of 2pi/SCALE and weight: K-Spacing Value to Generate K-Mesh: 0.03
   0.00000000  0.00000000  0.00000000       0.250
   0.00000000  0.03086420  0.00000000       0.500
   0.00000000  0.06172840  0.00000000       0.250
 
 k-points in reciprocal lattice and weights: K-Spacing Value to Generate K-Mesh: 0.03
   0.00000000  0.00000000  0.00000000       0.250
   0.00000000  0.25000000  0.00000000       0.500
   0.00000000  0.50000000  0.00000000       0.250
 
 position of ions in fractional coordinates (direct lattice) 
   0.55879857  0.92549753  0.09776119
   0.55954724  0.09320827  0.09226866
   0.60143316  0.84047531  0.10758209
   0.60266667  0.17283333  0.10104478
   0.64478788  0.92344938  0.11191045
   0.64703030  0.09026222  0.10585075
   0.68621747  0.84108765  0.12710448
   0.69048841  0.17327778  0.11591045
   0.72934403  0.92089136  0.13498507
   0.73142246  0.08783148  0.12674627
   0.77275936  0.84172593  0.14826866
   0.77514082  0.17310370  0.13680597
   0.81614260  0.92418889  0.15459701
   0.81620321  0.08848321  0.15155224
   0.85675223  0.84439506  0.17017910
   0.85950446  0.17670000  0.16268657
   0.90183244  0.92620617  0.17247761
   0.90219251  0.09774000  0.17026866
   0.94339750  0.84395802  0.18623881
   0.94398930  0.18229630  0.17680597
   0.98842068  0.92873704  0.18629851
   0.98844920  0.09815235  0.17907463
   0.03354071  0.84909383  0.18489552
   0.03344702  0.18462099  0.17698507
   0.07848663  0.92749753  0.17734328
   0.07724385  0.09738506  0.17208955
   0.12242032  0.84746296  0.17528358
   0.12100749  0.18130494  0.16486567
   0.16415437  0.92848272  0.16008955
   0.16146096  0.09333321  0.15316418
   0.20790695  0.84545802  0.15179104
   0.20481961  0.17841605  0.14420896
   0.24761426  0.92687284  0.13471642
   0.24556007  0.09545728  0.12964179
   0.28959358  0.84047407  0.12414925
   0.28818004  0.17401605  0.11865672
   0.33134545  0.92365432  0.11017910
   0.32931230  0.09197136  0.10202985
   0.37548307  0.84033086  0.10597015
   0.37351872  0.17515432  0.09486567
   0.41914795  0.91701481  0.09689552
   0.41854545  0.08907358  0.09032836
   0.46542602  0.83697160  0.09871642
   0.46176827  0.17075926  0.08414925
   0.50680570  0.92602099  0.09137313
   0.50516221  0.09173617  0.08498507
   0.55784670  0.42294568  0.10068657
   0.55819608  0.59096667  0.10495522
   0.60283779  0.34006790  0.10546269
   0.59974332  0.67528148  0.11402985
   0.64549020  0.42206049  0.11811940
   0.64345098  0.58923333  0.12340299
   0.68891979  0.34169877  0.12262687
   0.68617112  0.67325309  0.13316418
   0.73152585  0.42239012  0.13620896
   0.72845633  0.58739753  0.14191045
   0.77386096  0.33828519  0.14358209
   0.77049911  0.67384815  0.15534328
   0.81506952  0.42596173  0.15802985
   0.81376114  0.59183827  0.16411940
   0.85805704  0.34222716  0.16665672
   0.85578966  0.67710370  0.17629851
   0.90001426  0.42883827  0.18014925
   0.89804278  0.59479259  0.18417910
   0.94542602  0.35048765  0.18128358
   0.94221034  0.67748642  0.19074627
   0.98983957  0.43114074  0.18874627
   0.98929768  0.60011358  0.19167164
   0.03314813  0.35216049  0.18244776
   0.03387533  0.68083457  0.19059701
   0.07754724  0.42914198  0.18158209
   0.07813761  0.59776914  0.18820896
   0.12198324  0.34731358  0.17262687
   0.12344207  0.68028519  0.18301493
   0.16667380  0.42552593  0.16979104
   0.16718824  0.59481481  0.17283582
   0.20826346  0.34259383  0.15656716
   0.20827879  0.67799506  0.16035821
   0.25097611  0.42318519  0.14701493
   0.25180642  0.59465309  0.15038806
   0.29008841  0.34036173  0.12656716
   0.29226809  0.67422469  0.13182090
   0.33304599  0.41901111  0.11761194
   0.33280463  0.59135432  0.11740299
   0.37419964  0.34353457  0.10200000
   0.37767558  0.67475556  0.11229851
   0.41798217  0.42260000  0.09749254
   0.42175045  0.58865185  0.10614925
   0.46217469  0.33965556  0.09005970
   0.46511586  0.67007160  0.10182090
   0.50454189  0.41885062  0.09405970
   0.50711230  0.58909630  0.09507463
 
 position of ions in cartesian coordinates  (Angst):
  15.67430000  7.49653000  3.27500000
  15.69530000  0.75498700  3.09100000
  16.87020000  6.80785000  3.60400000
  16.90480000  1.39995000  3.38500000
  18.08630000  7.47994000  3.74900000
  18.14920000  0.73112400  3.54600000
  19.24840000  6.81281000  4.25800000
  19.36820000  1.40355000  3.88300000
  20.45810000  7.45922000  4.52200000
  20.51640000  0.71143500  4.24600000
  21.67590000  6.81798000  4.96700000
  21.74270000  1.40214000  4.58300000
  22.89280000  7.48593000  5.17900000
  22.89450000  0.71671400  5.07700000
  24.03190000  6.83960000  5.70100000
  24.10910000  1.43127000  5.45000000
  25.29640000  7.50227000  5.77800000
  25.30650000  0.79169400  5.70400000
  26.46230000  6.83606000  6.23900000
  26.47890000  1.47660000  5.92300000
  27.72520000  7.52277000  6.24100000
  27.72600000  0.79503400  5.99900000
   0.94081700  6.87766000  6.19400000
   0.93818900  1.49543000  5.92900000
   2.20155000  7.51273000  5.94100000
   2.16669000  0.78881900  5.76500000
   3.43389000  6.86445000  5.87200000
   3.39426000  1.46857000  5.52300000
   4.60453000  7.52071000  5.36300000
   4.52898000  0.75599900  5.13100000
   5.83179000  6.84821000  5.08500000
   5.74519000  1.44517000  4.83100000
   6.94558000  7.50767000  4.51300000
   6.88796000  0.77320400  4.34300000
   8.12310000  6.80784000  4.15900000
   8.08345000  1.40953000  3.97500000
   9.29424000  7.48160000  3.69100000
   9.23721000  0.74496800  3.41800000
  10.53230000  6.80668000  3.55000000
  10.47720000  1.41875000  3.17800000
  11.75710000  7.42782000  3.24600000
  11.74020000  0.72149600  3.02600000
  13.05520000  6.77947000  3.30700000
  12.95260000  1.38315000  2.81900000
  14.21590000  7.50077000  3.06100000
  14.16980000  0.74306300  2.84700000
  15.64760000  3.42586000  3.37300000
  15.65740000  4.78683000  3.51600000
  16.90960000  2.75455000  3.53300000
  16.82280000  5.46978000  3.82000000
  18.10600000  3.41869000  3.95700000
  18.04880000  4.77279000  4.13400000
  19.32420000  2.76776000  4.10800000
  19.24710000  5.45335000  4.46100000
  20.51930000  3.42136000  4.56300000
  20.43320000  4.75792000  4.75400000
  21.70680000  2.74011000  4.81000000
  21.61250000  5.45817000  5.20400000
  22.86270000  3.45029000  5.29400000
  22.82600000  4.79389000  5.49800000
  24.06850000  2.77204000  5.58300000
  24.00490000  5.48454000  5.90600000
  25.24540000  3.47359000  6.03500000
  25.19010000  4.81782000  6.17000000
  26.51920000  2.83895000  6.07300000
  26.42900000  5.48764000  6.39000000
  27.76500000  3.49224000  6.32300000
  27.74980000  4.86092000  6.42100000
   0.92980500  2.85250000  6.11200000
   0.95020300  5.51476000  6.38500000
   2.17520000  3.47605000  6.08300000
   2.19176000  4.84193000  6.30500000
   3.42163000  2.81324000  5.78300000
   3.46255000  5.51031000  6.13100000
   4.67520000  3.44676000  5.68800000
   4.68963000  4.81800000  5.79000000
   5.84179000  2.77501000  5.24500000
   5.84222000  5.49176000  5.37200000
   7.03988000  3.42780000  4.92500000
   7.06317000  4.81669000  5.03800000
   8.13698000  2.75693000  4.24000000
   8.19812000  5.46122000  4.41600000
   9.34194000  3.39399000  3.94000000
   9.33517000  4.78997000  3.93300000
  10.49630000  2.78263000  3.41700000
  10.59380000  5.46552000  3.76200000
  11.72440000  3.42306000  3.26600000
  11.83010000  4.76808000  3.55600000
  12.96400000  2.75121000  3.01700000
  13.04650000  5.42758000  3.41100000
  14.15240000  3.39269000  3.15100000
  14.22450000  4.77168000  3.18500000
 


--------------------------------------------------------------------------------------------------------


 k-point     1 :   0.0000 0.0000 0.0000  plane waves:  193173
 k-point     2 :   0.0000 0.2500 0.0000  plane waves:  193166
 k-point     3 :   0.0000 0.5000 0.0000  plane waves:  193226

 maximum and minimum number of plane-waves per node :    193226   193166

 maximum number of plane-waves:    193226
 maximum index in each direction: 
   IXMAX=   51   IYMAX=   14   IZMAX=   61
   IXMIN=  -51   IYMIN=  -15   IZMIN=  -61


 serial   3D FFT for wavefunctions
 parallel 3D FFT for charge:
    minimum data exchange during FFTs selected (reduces bandwidth)


 total amount of memory used by VASP MPI-rank0  2294501. kBytes
=======================================================================

   base                                    :      30000. kBytes
   nonlr-proj                              :      15067. kBytes
   fftplans                                :     436558. kBytes
   grid                                    :     732614. kBytes
   one-center                              :        282. kBytes
   wavefun                                 :    1079980. kBytes
 
     INWAV:  cpu time      0.0000: real time      0.0000
 Broyden mixing: mesh for mixing (old mesh)
   NGX =103   NGY = 29   NGZ =123
  (NGX  =420   NGY  =120   NGZ  =500)
  gives a total of 367401 points

 initial charge density was supplied:
 charge density of overlapping atoms calculated
 number of electron     368.0000000 magnetization 
 keeping initial charge density in first step


--------------------------------------------------------------------------------------------------------


 Maximum index for non-local projection operator          1872
 Maximum index for augmentation-charges          2391 (set IRDMAX)


--------------------------------------------------------------------------------------------------------


 First call to EWALD:  gamma=   0.090
 Maximum number of real-space cells   2x   6x   2
 Maximum number of reciprocal cells   4x   1x   4

    FEWALD:  cpu time      0.1648: real time      0.1648


--------------------------------------- Ionic step        1  -------------------------------------------




--------------------------------------- Iteration      1(   1)  ---------------------------------------


    POTLOK:  cpu time      0.4239: real time      0.4389
    SETDIJ:  cpu time      0.0416: real time      0.0417
     EDDAV:  cpu time     11.1465: real time     11.1524
       DOS:  cpu time      0.0008: real time      0.0008
    --------------------------------------------
      LOOP:  cpu time     11.6130: real time     11.6337

 eigenvalue-minimisations  :  1728
 total energy-change (2. order) : 0.3655501E+04  (-0.1193725E+05)
 number of electron     368.0000000 magnetization 
 augmentation part      368.0000000 magnetization 

 Free energy of the ion-electron system (eV)
  ---------------------------------------------------
  alpha Z        PSCENC =        91.34886789
  Ewald energy   TEWEN  =    119684.21953634
  -Hartree energ DENC   =   -129013.66174541
  -exchange      EXHF   =         0.00000000
  -V(xc)+E(xc)   XCENC  =      1221.24074437
  PAW double counting   =      9984.02826696   -10036.41360137
  entropy T*S    EENTRO =        -0.83934860
  eigenvalues    EBANDS =     -1812.07608487
  atomic energy  EATOM  =     13537.65479391
  Solvation  Ediel_sol  =         0.00000000
  ---------------------------------------------------
  free energy    TOTEN  =      3655.50142921 eV

  energy without entropy =     3656.34077781  energy(sigma->0) =     3655.92110351


--------------------------------------------------------------------------------------------------------




--------------------------------------- Iteration      1(   2)  ---------------------------------------


     EDDAV:  cpu time     13.0525: real time     13.0597
       DOS:  cpu time      0.0007: real time      0.0007
    --------------------------------------------
      LOOP:  cpu time     13.0532: real time     13.0604

 eigenvalue-minimisations  :  2128
 total energy-change (2. order) :-0.3483014E+04  (-0.3221895E+04)
 number of electron     368.0000000 magnetization 
 augmentation part      368.0000000 magnetization 

 Free energy of the ion-electron system (eV)
  ---------------------------------------------------
  alpha Z        PSCENC =        91.34886789
  Ewald energy   TEWEN  =    119684.21953634
  -Hartree energ DENC   =   -129013.66174541
  -exchange      EXHF   =         0.00000000
  -V(xc)+E(xc)   XCENC  =      1221.24074437
  PAW double counting   =      9984.02826696   -10036.41360137
  entropy T*S    EENTRO =        -0.18988268
  eigenvalues    EBANDS =     -5295.73926711
  atomic energy  EATOM  =     13537.65479391
  Solvation  Ediel_sol  =         0.00000000
  ---------------------------------------------------
  free energy    TOTEN  =       172.48771290 eV

  energy without entropy =      172.67759558  energy(sigma->0) =      172.58265424


--------------------------------------------------------------------------------------------------------




--------------------------------------- Iteration      1(   3)  ---------------------------------------


     EDDAV:  cpu time     11.3375: real time     11.3433
       DOS:  cpu time      0.0007: real time      0.0007
    --------------------------------------------
      LOOP:  cpu time     11.3382: real time     11.3440

 eigenvalue-minimisations  :  1800
 total energy-change (2. order) :-0.1008948E+04  (-0.9868221E+03)
 number of electron     368.0000000 magnetization 
 augmentation part      368.0000000 magnetization 

 Free energy of the ion-electron system (eV)
  ---------------------------------------------------
  alpha Z        PSCENC =        91.34886789
  Ewald energy   TEWEN  =    119684.21953634
  -Hartree energ DENC   =   -129013.66174541
  -exchange      EXHF   =         0.00000000
  -V(xc)+E(xc)   XCENC  =      1221.24074437
  PAW double counting   =      9984.02826696   -10036.41360137
  entropy T*S    EENTRO =        -0.04599702
  eigenvalues    EBANDS =     -6304.83130734
  atomic energy  EATOM  =     13537.65479391
  Solvation  Ediel_sol  =         0.00000000
  ---------------------------------------------------
  free energy    TOTEN  =      -836.46044168 eV

  energy without entropy =     -836.41444466  energy(sigma->0) =     -836.43744317


--------------------------------------------------------------------------------------------------------




--------------------------------------- Iteration      1(   4)  ---------------------------------------


     EDDAV:  cpu time     10.9203: real time     10.9272
       DOS:  cpu time      0.0007: real time      0.0007
    --------------------------------------------
      LOOP:  cpu time     10.9210: real time     10.9279

 eigenvalue-minimisations  :  1720
 total energy-change (2. order) :-0.6113118E+02  (-0.6015855E+02)
 number of electron     368.0000000 magnetization 
 augmentation part      368.0000000 magnetization 

 Free energy of the ion-electron system (eV)
  ---------------------------------------------------
  alpha Z        PSCENC =        91.34886789
  Ewald energy   TEWEN  =    119684.21953634
  -Hartree energ DENC   =   -129013.66174541
  -exchange      EXHF   =         0.00000000
  -V(xc)+E(xc)   XCENC  =      1221.24074437
  PAW double counting   =      9984.02826696   -10036.41360137
  entropy T*S    EENTRO =        -0.05859978
  eigenvalues    EBANDS =     -6365.94988709
  atomic energy  EATOM  =     13537.65479391
  Solvation  Ediel_sol  =         0.00000000
  ---------------------------------------------------
  free energy    TOTEN  =      -897.59162418 eV

  energy without entropy =     -897.53302440  energy(sigma->0) =     -897.56232429


--------------------------------------------------------------------------------------------------------




--------------------------------------- Iteration      1(   5)  ---------------------------------------


     EDDAV:  cpu time     11.2604: real time     11.2679
       DOS:  cpu time      0.0007: real time      0.0007
    CHARGE:  cpu time      1.2085: real time      1.2114
    MIXING:  cpu time      0.2740: real time      0.2741
    --------------------------------------------
      LOOP:  cpu time     12.7436: real time     12.7541

 eigenvalue-minimisations  :  1792
 total energy-change (2. order) :-0.1502955E+01  (-0.1482946E+01)
 number of electron     368.0000012 magnetization 
 augmentation part       10.1509846 magnetization 

 Broyden mixing:
  rms(total) = 0.45448E+01    rms(broyden)= 0.45442E+01
  rms(prec ) = 0.46618E+01
  weight for this iteration     100.00

 Free energy of the ion-electron system (eV)
  ---------------------------------------------------
  alpha Z        PSCENC =        91.34886789
  Ewald energy   TEWEN  =    119684.21953634
  -Hartree energ DENC   =   -129013.66174541
  -exchange      EXHF   =         0.00000000
  -V(xc)+E(xc)   XCENC  =      1221.24074437
  PAW double counting   =      9984.02826696   -10036.41360137
  entropy T*S    EENTRO =        -0.05895039
  eigenvalues    EBANDS =     -6367.45249183
  atomic energy  EATOM  =     13537.65479391
  Solvation  Ediel_sol  =         0.00000000
  ---------------------------------------------------
  free energy    TOTEN  =      -899.09457954 eV

  energy without entropy =     -899.03562915  energy(sigma->0) =     -899.06510434


--------------------------------------------------------------------------------------------------------




--------------------------------------- Iteration      1(   6)  ---------------------------------------


    POTLOK:  cpu time      0.3219: real time      0.3220
    SETDIJ:  cpu time      0.0403: real time      0.0402
     EDDAV:  cpu time     10.2009: real time     10.2076
       DOS:  cpu time      0.0007: real time      0.0007
    CHARGE:  cpu time      1.1631: real time      1.1647
    MIXING:  cpu time      0.2759: real time      0.2784
    --------------------------------------------
      LOOP:  cpu time     12.0027: real time     12.0136

 eigenvalue-minimisations  :  1576
 total energy-change (2. order) : 0.4939801E+02  (-0.4708009E+01)
 number of electron     368.0000011 magnetization 
 augmentation part        9.7268785 magnetization 

 Broyden mixing:
  rms(total) = 0.26692E+01    rms(broyden)= 0.26691E+01
  rms(prec ) = 0.27272E+01
  weight for this iteration     100.00

 eigenvalues of (default mixing * dielectric matrix)
  average eigenvalue GAMMA=   2.1847
  2.1847

 Free energy of the ion-electron system (eV)
  ---------------------------------------------------
  alpha Z        PSCENC =        91.34886789
  Ewald energy   TEWEN  =    119684.21953634
  -Hartree energ DENC   =   -129583.41639956
  -exchange      EXHF   =         0.00000000
  -V(xc)+E(xc)   XCENC  =      1244.55109356
  PAW double counting   =     18929.85758600   -18989.84572339
  entropy T*S    EENTRO =        -0.05817268
  eigenvalues    EBANDS =     -5764.00815345
  atomic energy  EATOM  =     13537.65479391
  Solvation  Ediel_sol  =         0.00000000
  ---------------------------------------------------
  free energy    TOTEN  =      -849.69657140 eV

  energy without entropy =     -849.63839871  energy(sigma->0) =     -849.66748505


--------------------------------------------------------------------------------------------------------




--------------------------------------- Iteration      1(   7)  ---------------------------------------


    POTLOK:  cpu time      0.3214: real time      0.3215
    SETDIJ:  cpu time      0.0401: real time      0.0401
     EDDAV:  cpu time     10.1032: real time     10.1073
       DOS:  cpu time      0.0007: real time      0.0007
    CHARGE:  cpu time      1.1605: real time      1.1622
    MIXING:  cpu time      0.2788: real time      0.2789
    --------------------------------------------
      LOOP:  cpu time     11.9047: real time     11.9107

 eigenvalue-minimisations  :  1552
 total energy-change (2. order) : 0.1843701E+02  (-0.6494558E+01)
 number of electron     368.0000011 magnetization 
 augmentation part        9.1720534 magnetization 

 Broyden mixing:
  rms(total) = 0.72883E+00    rms(broyden)= 0.72855E+00
  rms(prec ) = 0.73859E+00
  weight for this iteration     100.00

 eigenvalues of (default mixing * dielectric matrix)
  average eigenvalue GAMMA=   2.2145
  2.2145  2.2145

 Free energy of the ion-electron system (eV)
  ---------------------------------------------------
  alpha Z        PSCENC =        91.34886789
  Ewald energy   TEWEN  =    119684.21953634
  -Hartree energ DENC   =   -130348.14889652
  -exchange      EXHF   =         0.00000000
  -V(xc)+E(xc)   XCENC  =      1275.65686863
  PAW double counting   =     36547.69113588   -36614.57920065
  entropy T*S    EENTRO =        -0.05961292
  eigenvalues    EBANDS =     -5005.04304971
  atomic energy  EATOM  =     13537.65479391
  Solvation  Ediel_sol  =         0.00000000
  ---------------------------------------------------
  free energy    TOTEN  =      -831.25955717 eV

  energy without entropy =     -831.19994425  energy(sigma->0) =     -831.22975071


--------------------------------------------------------------------------------------------------------




--------------------------------------- Iteration      1(   8)  ---------------------------------------


    POTLOK:  cpu time      0.3199: real time      0.3200
    SETDIJ:  cpu time      0.0401: real time      0.0401
     EDDAV:  cpu time     10.3486: real time     10.3556
       DOS:  cpu time      0.0007: real time      0.0007
    CHARGE:  cpu time      1.1617: real time      1.1623
    MIXING:  cpu time      0.2826: real time      0.2855
    --------------------------------------------
      LOOP:  cpu time     12.1536: real time     12.1642

 eigenvalue-minimisations  :  1600
 total energy-change (2. order) : 0.2887744E+00  (-0.2446309E+00)
 number of electron     368.0000011 magnetization 
 augmentation part        9.1573326 magnetization 

 Broyden mixing:
  rms(total) = 0.95341E-01    rms(broyden)= 0.95311E-01
  rms(prec ) = 0.11822E+00
  weight for this iteration     100.00

 eigenvalues of (default mixing * dielectric matrix)
  average eigenvalue GAMMA=   1.8627
  1.2302  2.4404  1.9175

 Free energy of the ion-electron system (eV)
  ---------------------------------------------------
  alpha Z        PSCENC =        91.34886789
  Ewald energy   TEWEN  =    119684.21953634
  -Hartree energ DENC   =   -130442.91077470
  -exchange      EXHF   =         0.00000000
  -V(xc)+E(xc)   XCENC  =      1275.41578184
  PAW double counting   =     40832.37803237   -40896.54761719
  entropy T*S    EENTRO =        -0.05883731
  eigenvalues    EBANDS =     -4912.47056595
  atomic energy  EATOM  =     13537.65479391
  Solvation  Ediel_sol  =         0.00000000
  ---------------------------------------------------
  free energy    TOTEN  =      -830.97078281 eV

  energy without entropy =     -830.91194550  energy(sigma->0) =     -830.94136415


--------------------------------------------------------------------------------------------------------




--------------------------------------- Iteration      1(   9)  ---------------------------------------


    POTLOK:  cpu time      0.3200: real time      0.3201
    SETDIJ:  cpu time      0.0402: real time      0.0402
     EDDAV:  cpu time     10.5983: real time     10.6022
       DOS:  cpu time      0.0008: real time      0.0008
    CHARGE:  cpu time      1.1636: real time      1.1643
    MIXING:  cpu time      0.2862: real time      0.2861
    --------------------------------------------
      LOOP:  cpu time     12.4091: real time     12.4136

 eigenvalue-minimisations  :  1648
 total energy-change (2. order) : 0.1047970E+00  (-0.2597413E-01)
 number of electron     368.0000011 magnetization 
 augmentation part        9.1330264 magnetization 

 Broyden mixing:
  rms(total) = 0.56706E-01    rms(broyden)= 0.56696E-01
  rms(prec ) = 0.78173E-01
  weight for this iteration     100.00

 eigenvalues of (default mixing * dielectric matrix)
  average eigenvalue GAMMA=   1.7159
  2.2207  2.2207  1.0945  1.3276

 Free energy of the ion-electron system (eV)
  ---------------------------------------------------
  alpha Z        PSCENC =        91.34886789
  Ewald energy   TEWEN  =    119684.21953634
  -Hartree energ DENC   =   -130511.49520686
  -exchange      EXHF   =         0.00000000
  -V(xc)+E(xc)   XCENC  =      1276.84857573
  PAW double counting   =     41305.08300683   -41369.37167866
  entropy T*S    EENTRO =        -0.05891891
  eigenvalues    EBANDS =     -4845.09496205
  atomic energy  EATOM  =     13537.65479391
  Solvation  Ediel_sol  =         0.00000000
  ---------------------------------------------------
  free energy    TOTEN  =      -830.86598578 eV

  energy without entropy =     -830.80706686  energy(sigma->0) =     -830.83652632


--------------------------------------------------------------------------------------------------------




--------------------------------------- Iteration      1(  10)  ---------------------------------------


    POTLOK:  cpu time      0.3202: real time      0.3203
    SETDIJ:  cpu time      0.0401: real time      0.0401
     EDDAV:  cpu time     10.9477: real time     10.9515
       DOS:  cpu time      0.0007: real time      0.0007
    CHARGE:  cpu time      1.1611: real time      1.1648
    MIXING:  cpu time      0.2919: real time      0.2921
    --------------------------------------------
      LOOP:  cpu time     12.7618: real time     12.7696

 eigenvalue-minimisations  :  1720
 total energy-change (2. order) : 0.3997979E-01  (-0.4850319E-02)
 number of electron     368.0000011 magnetization 
 augmentation part        9.1237255 magnetization 

 Broyden mixing:
  rms(total) = 0.35108E-01    rms(broyden)= 0.35105E-01
  rms(prec ) = 0.54255E-01
  weight for this iteration     100.00

 eigenvalues of (default mixing * dielectric matrix)
  average eigenvalue GAMMA=   1.7363
  2.4887  2.4887  1.6272  1.2486  0.8282

 Free energy of the ion-electron system (eV)
  ---------------------------------------------------
  alpha Z        PSCENC =        91.34886789
  Ewald energy   TEWEN  =    119684.21953634
  -Hartree energ DENC   =   -130564.54915360
  -exchange      EXHF   =         0.00000000
  -V(xc)+E(xc)   XCENC  =      1277.19119846
  PAW double counting   =     41059.02340408   -41123.16138217
  entropy T*S    EENTRO =        -0.05885794
  eigenvalues    EBANDS =     -4792.49441295
  atomic energy  EATOM  =     13537.65479391
  Solvation  Ediel_sol  =         0.00000000
  ---------------------------------------------------
  free energy    TOTEN  =      -830.82600598 eV

  energy without entropy =     -830.76714805  energy(sigma->0) =     -830.79657702


--------------------------------------------------------------------------------------------------------




--------------------------------------- Iteration      1(  11)  ---------------------------------------


    POTLOK:  cpu time      0.3192: real time      0.3192
    SETDIJ:  cpu time      0.0402: real time      0.0402
     EDDAV:  cpu time     10.2310: real time     10.2349
       DOS:  cpu time      0.0007: real time      0.0007
    CHARGE:  cpu time      1.1711: real time      1.1729
    MIXING:  cpu time      0.2990: real time      0.2990
    --------------------------------------------
      LOOP:  cpu time     12.0612: real time     12.0669

 eigenvalue-minimisations  :  1576
 total energy-change (2. order) : 0.2689303E-01  (-0.2110993E-02)
 number of electron     368.0000011 magnetization 
 augmentation part        9.1187006 magnetization 

 Broyden mixing:
  rms(total) = 0.23917E-01    rms(broyden)= 0.23915E-01
  rms(prec ) = 0.37296E-01
  weight for this iteration     100.00

 eigenvalues of (default mixing * dielectric matrix)
  average eigenvalue GAMMA=   1.7913
  3.0163  2.5222  1.9307  0.9225  1.1781  1.1781

 Free energy of the ion-electron system (eV)
  ---------------------------------------------------
  alpha Z        PSCENC =        91.34886789
  Ewald energy   TEWEN  =    119684.21953634
  -Hartree energ DENC   =   -130627.00152680
  -exchange      EXHF   =         0.00000000
  -V(xc)+E(xc)   XCENC  =      1277.75342547
  PAW double counting   =     41010.67249883   -41074.71454410
  entropy T*S    EENTRO =        -0.05886391
  eigenvalues    EBANDS =     -4730.67330057
  atomic energy  EATOM  =     13537.65479391
  Solvation  Ediel_sol  =         0.00000000
  ---------------------------------------------------
  free energy    TOTEN  =      -830.79911295 eV

  energy without entropy =     -830.74024904  energy(sigma->0) =     -830.76968099


--------------------------------------------------------------------------------------------------------




--------------------------------------- Iteration      1(  12)  ---------------------------------------


    POTLOK:  cpu time      0.3192: real time      0.3192
    SETDIJ:  cpu time      0.0403: real time      0.0403
     EDDAV:  cpu time     10.0228: real time     10.0265
       DOS:  cpu time      0.0008: real time      0.0008
    CHARGE:  cpu time      1.1604: real time      1.1630
    MIXING:  cpu time      0.3069: real time      0.3072
    --------------------------------------------
      LOOP:  cpu time     11.8505: real time     11.8570

 eigenvalue-minimisations  :  1536
 total energy-change (2. order) : 0.2605895E-02  (-0.2221686E-02)
 number of electron     368.0000011 magnetization 
 augmentation part        9.1116175 magnetization 

 Broyden mixing:
  rms(total) = 0.14805E-01    rms(broyden)= 0.14801E-01
  rms(prec ) = 0.22780E-01
  weight for this iteration     100.00

 eigenvalues of (default mixing * dielectric matrix)
  average eigenvalue GAMMA=   2.0752
  4.9126  2.2820  2.2820  1.9021  0.9827  1.0824  1.0824

 Free energy of the ion-electron system (eV)
  ---------------------------------------------------
  alpha Z        PSCENC =        91.34886789
  Ewald energy   TEWEN  =    119684.21953634
  -Hartree energ DENC   =   -130689.69811170
  -exchange      EXHF   =         0.00000000
  -V(xc)+E(xc)   XCENC  =      1278.35090623
  PAW double counting   =     41063.02537975   -41127.05823220
  entropy T*S    EENTRO =        -0.05894362
  eigenvalues    EBANDS =     -4668.58070365
  atomic energy  EATOM  =     13537.65479391
  Solvation  Ediel_sol  =         0.00000000
  ---------------------------------------------------
  free energy    TOTEN  =      -830.79650706 eV

  energy without entropy =     -830.73756344  energy(sigma->0) =     -830.76703525


--------------------------------------------------------------------------------------------------------




--------------------------------------- Iteration      1(  13)  ---------------------------------------


    POTLOK:  cpu time      0.3208: real time      0.3208
    SETDIJ:  cpu time      0.0402: real time      0.0402
     EDDAV:  cpu time     10.1002: real time     10.1049
       DOS:  cpu time      0.0008: real time      0.0008
    CHARGE:  cpu time      1.1637: real time      1.1645
    MIXING:  cpu time      0.3138: real time      0.3138
    --------------------------------------------
      LOOP:  cpu time     11.9394: real time     11.9450

 eigenvalue-minimisations  :  1552
 total energy-change (2. order) :-0.1153161E-01  (-0.8762179E-03)
 number of electron     368.0000011 magnetization 
 augmentation part        9.1088996 magnetization 

 Broyden mixing:
  rms(total) = 0.85213E-02    rms(broyden)= 0.85194E-02
  rms(prec ) = 0.11977E-01
  weight for this iteration     100.00

 eigenvalues of (default mixing * dielectric matrix)
  average eigenvalue GAMMA=   2.0847
  5.4506  2.4443  2.4443  1.9162  1.2411  1.2411  1.0528  0.8872

 Free energy of the ion-electron system (eV)
  ---------------------------------------------------
  alpha Z        PSCENC =        91.34886789
  Ewald energy   TEWEN  =    119684.21953634
  -Hartree energ DENC   =   -130740.64197381
  -exchange      EXHF   =         0.00000000
  -V(xc)+E(xc)   XCENC  =      1278.56212220
  PAW double counting   =     41020.43542859   -41084.46417547
  entropy T*S    EENTRO =        -0.05893389
  eigenvalues    EBANDS =     -4617.86370442
  atomic energy  EATOM  =     13537.65479391
  Solvation  Ediel_sol  =         0.00000000
  ---------------------------------------------------
  free energy    TOTEN  =      -830.80803866 eV

  energy without entropy =     -830.74910478  energy(sigma->0) =     -830.77857172


--------------------------------------------------------------------------------------------------------




--------------------------------------- Iteration      1(  14)  ---------------------------------------


    POTLOK:  cpu time      0.3195: real time      0.3196
    SETDIJ:  cpu time      0.0400: real time      0.0400
     EDDAV:  cpu time     10.2704: real time     10.2741
       DOS:  cpu time      0.0007: real time      0.0007
    CHARGE:  cpu time      1.1619: real time      1.1644
    MIXING:  cpu time      0.3232: real time      0.3232
    --------------------------------------------
      LOOP:  cpu time     12.1158: real time     12.1221

 eigenvalue-minimisations  :  1584
 total energy-change (2. order) :-0.1767267E-01  (-0.1130159E-03)
 number of electron     368.0000011 magnetization 
 augmentation part        9.1081436 magnetization 

 Broyden mixing:
  rms(total) = 0.53920E-02    rms(broyden)= 0.53915E-02
  rms(prec ) = 0.76557E-02
  weight for this iteration     100.00

 eigenvalues of (default mixing * dielectric matrix)
  average eigenvalue GAMMA=   2.2494
  6.6170  3.0564  2.5111  1.8969  1.8443  1.2005  1.2005  0.9589  0.9589

 Free energy of the ion-electron system (eV)
  ---------------------------------------------------
  alpha Z        PSCENC =        91.34886789
  Ewald energy   TEWEN  =    119684.21953634
  -Hartree energ DENC   =   -130754.69140730
  -exchange      EXHF   =         0.00000000
  -V(xc)+E(xc)   XCENC  =      1278.56685441
  PAW double counting   =     41020.11674955   -41084.15285905
  entropy T*S    EENTRO =        -0.05890253
  eigenvalues    EBANDS =     -4603.82934455
  atomic energy  EATOM  =     13537.65479391
  Solvation  Ediel_sol  =         0.00000000
  ---------------------------------------------------
  free energy    TOTEN  =      -830.82571133 eV

  energy without entropy =     -830.76680880  energy(sigma->0) =     -830.79626007


--------------------------------------------------------------------------------------------------------




--------------------------------------- Iteration      1(  15)  ---------------------------------------


    POTLOK:  cpu time      0.3220: real time      0.3220
    SETDIJ:  cpu time      0.0402: real time      0.0402
     EDDAV:  cpu time     10.1990: real time     10.2025
       DOS:  cpu time      0.0007: real time      0.0007
    CHARGE:  cpu time      1.1618: real time      1.1641
    MIXING:  cpu time      0.3311: real time      0.3320
    --------------------------------------------
      LOOP:  cpu time     12.0549: real time     12.0615

 eigenvalue-minimisations  :  1568
 total energy-change (2. order) :-0.2158539E-01  (-0.1989667E-03)
 number of electron     368.0000011 magnetization 
 augmentation part        9.1078410 magnetization 

 Broyden mixing:
  rms(total) = 0.31114E-02    rms(broyden)= 0.31110E-02
  rms(prec ) = 0.40611E-02
  weight for this iteration     100.00

 eigenvalues of (default mixing * dielectric matrix)
  average eigenvalue GAMMA=   2.2623
  7.0781  3.5914  2.2562  2.2562  1.6594  1.3740  1.3740  0.9597  0.9597  1.1139

 Free energy of the ion-electron system (eV)
  ---------------------------------------------------
  alpha Z        PSCENC =        91.34886789
  Ewald energy   TEWEN  =    119684.21953634
  -Hartree energ DENC   =   -130765.99397613
  -exchange      EXHF   =         0.00000000
  -V(xc)+E(xc)   XCENC  =      1278.54098273
  PAW double counting   =     41022.24060093   -41086.27935106
  entropy T*S    EENTRO =        -0.05891686
  eigenvalues    EBANDS =     -4592.51983446
  atomic energy  EATOM  =     13537.65479391
  Solvation  Ediel_sol  =         0.00000000
  ---------------------------------------------------
  free energy    TOTEN  =      -830.84729672 eV

  energy without entropy =     -830.78837986  energy(sigma->0) =     -830.81783829


--------------------------------------------------------------------------------------------------------




--------------------------------------- Iteration      1(  16)  ---------------------------------------


    POTLOK:  cpu time      0.3222: real time      0.3222
    SETDIJ:  cpu time      0.0401: real time      0.0402
     EDDAV:  cpu time     10.5639: real time     10.5678
       DOS:  cpu time      0.0007: real time      0.0007
    CHARGE:  cpu time      1.1694: real time      1.1721
    MIXING:  cpu time      0.3404: real time      0.3409
    --------------------------------------------
      LOOP:  cpu time     12.4368: real time     12.4438

 eigenvalue-minimisations  :  1640
 total energy-change (2. order) :-0.7441034E-02  (-0.4096350E-04)
 number of electron     368.0000011 magnetization 
 augmentation part        9.1077320 magnetization 

 Broyden mixing:
  rms(total) = 0.20132E-02    rms(broyden)= 0.20131E-02
  rms(prec ) = 0.25518E-02
  weight for this iteration     100.00

 eigenvalues of (default mixing * dielectric matrix)
  average eigenvalue GAMMA=   2.3600
  8.0300  4.0777  2.4268  2.4268  1.8653  1.5367  1.5367  0.9511  0.9705  1.0692
  1.0692

 Free energy of the ion-electron system (eV)
  ---------------------------------------------------
  alpha Z        PSCENC =        91.34886789
  Ewald energy   TEWEN  =    119684.21953634
  -Hartree energ DENC   =   -130769.13659429
  -exchange      EXHF   =         0.00000000
  -V(xc)+E(xc)   XCENC  =      1278.52647571
  PAW double counting   =     41018.25389235   -41082.29056356
  entropy T*S    EENTRO =        -0.05892570
  eigenvalues    EBANDS =     -4589.37222040
  atomic energy  EATOM  =     13537.65479391
  Solvation  Ediel_sol  =         0.00000000
  ---------------------------------------------------
  free energy    TOTEN  =      -830.85473775 eV

  energy without entropy =     -830.79581206  energy(sigma->0) =     -830.82527491


--------------------------------------------------------------------------------------------------------




--------------------------------------- Iteration      1(  17)  ---------------------------------------


    POTLOK:  cpu time      0.3214: real time      0.3214
    SETDIJ:  cpu time      0.0401: real time      0.0401
     EDDAV:  cpu time     10.0704: real time     10.0740
       DOS:  cpu time      0.0007: real time      0.0007
    CHARGE:  cpu time      1.1634: real time      1.1637
    MIXING:  cpu time      0.3520: real time      0.3521
    --------------------------------------------
      LOOP:  cpu time     11.9480: real time     11.9521

 eigenvalue-minimisations  :  1544
 total energy-change (2. order) :-0.4751580E-02  (-0.2903909E-04)
 number of electron     368.0000011 magnetization 
 augmentation part        9.1076553 magnetization 

 Broyden mixing:
  rms(total) = 0.10058E-02    rms(broyden)= 0.10057E-02
  rms(prec ) = 0.13123E-02
  weight for this iteration     100.00

 eigenvalues of (default mixing * dielectric matrix)
  average eigenvalue GAMMA=   2.3839
  8.3198  4.7064  2.4568  2.4568  2.1104  1.4381  1.4381  1.4202  1.2634  0.9774
  1.0095  1.0095

 Free energy of the ion-electron system (eV)
  ---------------------------------------------------
  alpha Z        PSCENC =        91.34886789
  Ewald energy   TEWEN  =    119684.21953634
  -Hartree energ DENC   =   -130771.24615270
  -exchange      EXHF   =         0.00000000
  -V(xc)+E(xc)   XCENC  =      1278.52591725
  PAW double counting   =     41021.24223475   -41085.27615677
  entropy T*S    EENTRO =        -0.05892369
  eigenvalues    EBANDS =     -4587.26960631
  atomic energy  EATOM  =     13537.65479391
  Solvation  Ediel_sol  =         0.00000000
  ---------------------------------------------------
  free energy    TOTEN  =      -830.85948933 eV

  energy without entropy =     -830.80056564  energy(sigma->0) =     -830.83002749


--------------------------------------------------------------------------------------------------------




--------------------------------------- Iteration      1(  18)  ---------------------------------------


    POTLOK:  cpu time      0.3202: real time      0.3202
    SETDIJ:  cpu time      0.0402: real time      0.0402
     EDDAV:  cpu time     10.2382: real time     10.2420
       DOS:  cpu time      0.0007: real time      0.0007
    CHARGE:  cpu time      1.1610: real time      1.1631
    MIXING:  cpu time      0.3616: real time      0.3626
    --------------------------------------------
      LOOP:  cpu time     12.1219: real time     12.1289

 eigenvalue-minimisations  :  1576
 total energy-change (2. order) :-0.1914485E-02  (-0.7843256E-05)
 number of electron     368.0000011 magnetization 
 augmentation part        9.1075525 magnetization 

 Broyden mixing:
  rms(total) = 0.56937E-03    rms(broyden)= 0.56931E-03
  rms(prec ) = 0.74485E-03
  weight for this iteration     100.00

 eigenvalues of (default mixing * dielectric matrix)
  average eigenvalue GAMMA=   2.4306
  8.8800  5.0951  2.8811  2.5749  1.9799  1.9799  1.5132  1.5132  1.1425  1.1425
  0.9490  0.9490  0.9982

 Free energy of the ion-electron system (eV)
  ---------------------------------------------------
  alpha Z        PSCENC =        91.34886789
  Ewald energy   TEWEN  =    119684.21953634
  -Hartree energ DENC   =   -130772.05609864
  -exchange      EXHF   =         0.00000000
  -V(xc)+E(xc)   XCENC  =      1278.52795072
  PAW double counting   =     41022.15359340   -41086.18756881
  entropy T*S    EENTRO =        -0.05892485
  eigenvalues    EBANDS =     -4586.46355378
  atomic energy  EATOM  =     13537.65479391
  Solvation  Ediel_sol  =         0.00000000
  ---------------------------------------------------
  free energy    TOTEN  =      -830.86140382 eV

  energy without entropy =     -830.80247897  energy(sigma->0) =     -830.83194139


--------------------------------------------------------------------------------------------------------




--------------------------------------- Iteration      1(  19)  ---------------------------------------


    POTLOK:  cpu time      0.3200: real time      0.3201
    SETDIJ:  cpu time      0.0400: real time      0.0400
     EDDAV:  cpu time      9.3702: real time      9.3737
       DOS:  cpu time      0.0007: real time      0.0007
    CHARGE:  cpu time      1.1602: real time      1.1640
    MIXING:  cpu time      0.3721: real time      0.3737
    --------------------------------------------
      LOOP:  cpu time     11.2634: real time     11.2723

 eigenvalue-minimisations  :  1400
 total energy-change (2. order) :-0.9828672E-03  (-0.3220171E-05)
 number of electron     368.0000011 magnetization 
 augmentation part        9.1075924 magnetization 

 Broyden mixing:
  rms(total) = 0.37146E-03    rms(broyden)= 0.37144E-03
  rms(prec ) = 0.44784E-03
  weight for this iteration     100.00

 eigenvalues of (default mixing * dielectric matrix)
  average eigenvalue GAMMA=   2.4102
  8.9132  5.5335  3.1241  2.3621  2.3621  1.7685  1.3865  1.3865  1.4334  1.4334
  0.9592  1.0282  1.0261  1.0261

 Free energy of the ion-electron system (eV)
  ---------------------------------------------------
  alpha Z        PSCENC =        91.34886789
  Ewald energy   TEWEN  =    119684.21953634
  -Hartree energ DENC   =   -130772.33378127
  -exchange      EXHF   =         0.00000000
  -V(xc)+E(xc)   XCENC  =      1278.52410295
  PAW double counting   =     41019.98479791   -41084.01747603
  entropy T*S    EENTRO =        -0.05892241
  eigenvalues    EBANDS =     -4586.18430597
  atomic energy  EATOM  =     13537.65479391
  Solvation  Ediel_sol  =         0.00000000
  ---------------------------------------------------
  free energy    TOTEN  =      -830.86238669 eV

  energy without entropy =     -830.80346427  energy(sigma->0) =     -830.83292548


--------------------------------------------------------------------------------------------------------




--------------------------------------- Iteration      1(  20)  ---------------------------------------


    POTLOK:  cpu time      0.3213: real time      0.3214
    SETDIJ:  cpu time      0.0402: real time      0.0403
     EDDAV:  cpu time      9.2629: real time      9.2664
       DOS:  cpu time      0.0007: real time      0.0008
    CHARGE:  cpu time      1.1638: real time      1.1645
    MIXING:  cpu time      0.3848: real time      0.3855
    --------------------------------------------
      LOOP:  cpu time     11.1737: real time     11.1789

 eigenvalue-minimisations  :  1376
 total energy-change (2. order) :-0.3028660E-03  (-0.4442199E-06)
 number of electron     368.0000011 magnetization 
 augmentation part        9.1075651 magnetization 

 Broyden mixing:
  rms(total) = 0.21048E-03    rms(broyden)= 0.21047E-03
  rms(prec ) = 0.26107E-03
  weight for this iteration     100.00

 eigenvalues of (default mixing * dielectric matrix)
  average eigenvalue GAMMA=   2.4626
  9.1913  5.9406  3.7113  2.5169  2.5169  1.9827  1.5553  1.5553  1.4458  1.4458
  1.0817  1.0817  0.9587  0.9587  0.9962

 Free energy of the ion-electron system (eV)
  ---------------------------------------------------
  alpha Z        PSCENC =        91.34886789
  Ewald energy   TEWEN  =    119684.21953634
  -Hartree energ DENC   =   -130772.48159512
  -exchange      EXHF   =         0.00000000
  -V(xc)+E(xc)   XCENC  =      1278.52493341
  PAW double counting   =     41020.86708241   -41084.90024193
  entropy T*S    EENTRO =        -0.05892268
  eigenvalues    EBANDS =     -4586.03714378
  atomic energy  EATOM  =     13537.65479391
  Solvation  Ediel_sol  =         0.00000000
  ---------------------------------------------------
  free energy    TOTEN  =      -830.86268955 eV

  energy without entropy =     -830.80376687  energy(sigma->0) =     -830.83322821


--------------------------------------------------------------------------------------------------------




--------------------------------------- Iteration      1(  21)  ---------------------------------------


    POTLOK:  cpu time      0.3216: real time      0.3216
    SETDIJ:  cpu time      0.0402: real time      0.0403
     EDDAV:  cpu time      8.4444: real time      8.4506
       DOS:  cpu time      0.0008: real time      0.0008
    CHARGE:  cpu time      1.1730: real time      1.1738
    MIXING:  cpu time      0.3965: real time      0.3978
    --------------------------------------------
      LOOP:  cpu time     10.3766: real time     10.3849

 eigenvalue-minimisations  :  1216
 total energy-change (2. order) :-0.2214653E-03  (-0.3016221E-06)
 number of electron     368.0000011 magnetization 
 augmentation part        9.1075741 magnetization 

 Broyden mixing:
  rms(total) = 0.10278E-03    rms(broyden)= 0.10277E-03
  rms(prec ) = 0.12650E-03
  weight for this iteration     100.00

 eigenvalues of (default mixing * dielectric matrix)
  average eigenvalue GAMMA=   2.4337
  9.2081  6.2048  3.8815  2.5437  2.5437  2.1039  1.4448  1.4448  1.6269  1.4398
  1.4398  1.0743  1.0743  1.0302  0.9391  0.9391

 Free energy of the ion-electron system (eV)
  ---------------------------------------------------
  alpha Z        PSCENC =        91.34886789
  Ewald energy   TEWEN  =    119684.21953634
  -Hartree energ DENC   =   -130772.56383501
  -exchange      EXHF   =         0.00000000
  -V(xc)+E(xc)   XCENC  =      1278.52357002
  PAW double counting   =     41019.99241132   -41084.02575292
  entropy T*S    EENTRO =        -0.05892342
  eigenvalues    EBANDS =     -4585.95357915
  atomic energy  EATOM  =     13537.65479391
  Solvation  Ediel_sol  =         0.00000000
  ---------------------------------------------------
  free energy    TOTEN  =      -830.86291102 eV

  energy without entropy =     -830.80398760  energy(sigma->0) =     -830.83344931


[...]
   0.200E+01 0.252E+01 -.332E+02   -.233E+01 -.336E+01 0.332E+02   -.898E-01 -.555E+00 -.338E+00   0.208E-05 -.348E-07 -.673E-06
   0.838E+01 -.192E+02 -.164E+03   -.848E+01 0.200E+02 0.165E+03   0.489E+00 0.756E+00 -.108E+01   0.294E-05 0.238E-05 -.134E-05
   -.288E+01 0.682E+01 -.620E+02   0.408E+01 -.680E+01 0.623E+02   0.114E+01 -.258E+00 -.239E+00   0.498E-05 0.321E-06 -.919E-06
   0.187E+01 0.535E+01 -.155E+03   -.194E+01 -.512E+01 0.155E+03   0.362E+00 0.350E+00 -.133E+01   0.204E-05 0.195E-05 -.205E-05
   -.582E+01 -.449E+01 -.594E+02   0.618E+01 0.444E+01 0.591E+02   0.221E+00 0.508E-01 0.674E+00   0.320E-05 0.645E-06 -.175E-05
   -.697E+01 -.172E+02 -.118E+03   0.714E+01 0.176E+02 0.118E+03   0.211E+00 -.261E+00 0.825E+00   0.254E-05 0.120E-05 -.235E-05
   -.200E+00 0.150E+02 -.436E+02   -.153E+00 -.162E+02 0.435E+02   -.463E+00 -.966E+00 0.877E-01   0.248E-05 0.723E-06 -.172E-05
   -.601E+00 0.931E+01 -.834E+02   -.299E+00 -.914E+01 0.833E+02   -.791E+00 0.775E+00 0.155E+00   0.550E-05 0.120E-05 -.199E-05
   0.451E+01 -.528E+01 -.283E+02   -.455E+01 0.556E+01 0.282E+02   -.144E+00 0.292E+00 0.109E+00   0.449E-05 0.127E-05 -.140E-05
   -.256E+02 -.102E+02 -.119E+03   0.265E+02 0.100E+02 0.119E+03   -.163E+00 -.215E-02 -.268E+00   0.292E-05 0.128E-05 -.169E-05
   0.433E+01 0.335E+01 -.728E+01   -.498E+01 -.367E+01 0.747E+01   -.840E+00 -.442E+00 0.366E-01   0.378E-05 0.403E-06 -.508E-06
   -.663E+01 0.191E+02 -.390E+02   0.690E+01 -.205E+02 0.390E+02   -.525E+00 -.112E+00 -.224E+00   0.983E-06 0.249E-05 -.334E-06
   0.133E+02 -.752E+01 0.594E+02   -.127E+02 0.828E+01 -.603E+02   0.785E+00 0.783E+00 0.110E+01   -.370E-06 -.606E-06 0.141E-05
   -.113E+02 -.581E+01 -.346E+02   0.112E+02 0.609E+01 0.347E+02   -.100E+01 -.195E-01 0.362E+00   -.166E-05 0.298E-06 0.880E-06
   0.137E+02 -.113E+01 0.528E+02   -.141E+02 0.134E+01 -.528E+02   0.498E-01 -.160E+00 0.493E+00   -.261E-05 -.327E-07 0.176E-05
   0.742E+01 0.134E+02 0.387E+02   -.732E+01 -.138E+02 -.388E+02   -.615E+00 -.625E+00 -.242E+00   -.489E-05 0.127E-05 0.222E-05
   0.286E+02 -.883E+01 0.106E+03   -.290E+02 0.904E+01 -.106E+03   0.303E+00 -.492E+00 0.919E+00   -.391E-05 -.165E-05 0.196E-05
   0.129E+02 -.661E+01 0.678E+02   -.127E+02 0.710E+01 -.681E+02   0.416E+00 0.660E+00 0.754E+00   -.331E-05 0.246E-06 0.156E-05
   0.156E+02 0.824E+01 0.111E+03   -.150E+02 -.850E+01 -.111E+03   -.598E+00 0.569E+00 -.828E+00   -.377E-05 -.197E-05 0.104E-05
   0.163E+02 0.850E+01 0.105E+03   -.167E+02 -.848E+01 -.104E+03   -.382E-01 -.444E+00 -.996E+00   -.479E-06 -.632E-06 0.718E-06
   0.430E+02 -.772E+01 0.217E+03   -.430E+02 0.793E+01 -.218E+03   0.305E+00 -.182E-01 0.253E+01   -.211E-05 -.247E-06 0.367E-06
   0.836E+01 -.157E+02 0.845E+02   -.875E+01 0.165E+02 -.845E+02   0.657E+00 -.460E-01 0.248E+00   0.522E-06 -.886E-06 0.681E-06
   0.213E+02 0.121E+02 0.202E+03   -.212E+02 -.126E+02 -.202E+03   -.194E+00 -.396E+00 0.357E+00   -.830E-06 0.304E-06 0.864E-06
   -.139E+01 0.781E+01 0.124E+03   0.227E+01 -.719E+01 -.124E+03   0.212E+00 0.121E+01 0.376E+00   -.966E-06 -.287E-05 0.156E-05
   0.187E+02 -.117E+01 0.181E+03   -.196E+02 0.617E-01 -.180E+03   -.556E+00 -.106E+00 -.811E+00   0.765E-06 0.814E-06 0.135E-05
   -.132E+02 -.120E+02 0.602E+02   0.126E+02 0.133E+02 -.594E+02   -.927E+00 0.104E+01 -.126E+01   -.347E-05 -.333E-05 0.236E-05
   -.676E+01 -.742E+00 0.237E+03   0.636E+01 0.113E+01 -.238E+03   0.920E+00 0.116E+00 0.122E+01   -.633E-05 0.230E-05 0.255E-05
   -.181E+02 0.640E+02 0.152E+03   0.157E+02 -.662E+02 -.154E+03   0.110E+01 0.620E+00 0.161E+01   0.613E-05 -.295E-05 0.364E-05
   -.335E+02 -.634E+02 0.225E+03   0.322E+02 0.645E+02 -.226E+03   0.200E+01 -.129E+01 0.874E+00   0.267E-05 -.181E-05 0.290E-05
   -.828E+00 0.726E+02 0.981E+02   0.430E+01 -.746E+02 -.975E+02   -.589E+00 0.808E+00 0.779E-01   0.895E-05 0.429E-05 0.293E-05
   0.488E+01 -.608E+02 0.468E+02   -.277E+01 0.618E+02 -.462E+02   -.160E+01 -.157E+01 -.883E+00   0.647E-05 0.563E-06 0.199E-05
   0.734E+01 -.119E+02 0.943E+02   -.786E+01 0.128E+02 -.948E+02   -.114E+01 0.338E+00 0.612E+00   0.688E-05 -.216E-05 0.168E-05
   0.174E+02 0.467E+01 -.683E+01   -.165E+02 -.545E+01 0.760E+01   -.398E+00 -.904E+00 -.603E+00   0.358E-05 0.224E-05 -.233E-06
   0.136E+02 0.131E+02 0.287E+02   -.145E+02 -.133E+02 -.286E+02   -.646E+00 -.102E-01 -.566E+00   0.234E-06 0.946E-06 -.227E-06
   0.240E+02 -.108E+02 -.284E+02   -.243E+02 0.115E+02 0.285E+02   -.399E+00 0.245E+00 -.223E+00   0.810E-06 -.127E-05 -.107E-05
   -.900E+01 -.899E+01 0.581E+02   0.102E+02 0.903E+01 -.580E+02   0.106E+00 -.415E+00 -.627E-01   -.315E-05 0.133E-05 -.209E-06
   0.197E+02 0.458E+01 -.542E+02   -.202E+02 -.487E+01 0.545E+02   -.570E+00 -.312E+00 -.762E+00   -.197E-05 -.182E-05 -.137E-05
   0.569E+01 0.119E+02 0.133E+02   -.635E+01 -.130E+02 -.135E+02   -.115E+01 -.134E-01 -.219E+00   -.182E-05 0.238E-06 -.445E-06
   0.140E+02 -.122E+02 -.511E+02   -.131E+02 0.134E+02 0.515E+02   0.259E+00 0.841E+00 0.862E+00   -.194E-05 0.401E-06 -.901E-06
   -.781E+01 -.103E+02 0.998E+01   0.864E+01 0.111E+02 -.957E+01   0.131E+00 0.982E+00 -.555E+00   -.425E-05 -.203E-05 -.139E-05
   0.382E+02 0.692E+01 -.118E+03   -.389E+02 -.712E+01 0.119E+03   0.462E+00 -.190E-01 -.167E+01   -.364E-05 0.123E-05 -.140E-05
   0.150E+02 0.129E+02 -.353E+02   -.152E+02 -.140E+02 0.352E+02   0.105E+00 -.629E+00 0.233E+00   -.716E-05 0.367E-06 -.231E-05
   0.239E+02 -.936E+01 -.104E+03   -.239E+02 0.102E+02 0.104E+03   -.476E+00 -.643E-01 0.501E+00   -.812E-05 0.580E-06 -.230E-05
   0.929E+01 -.147E+02 -.586E+02   -.902E+01 0.161E+02 0.585E+02   0.153E+00 0.556E+00 0.468E+00   -.278E-05 0.267E-05 -.978E-06
   0.385E+02 0.487E+01 -.166E+03   -.394E+02 -.496E+01 0.167E+03   -.260E+00 -.135E+00 -.953E+00   -.576E-05 -.232E-05 -.103E-05
   0.209E+02 0.191E+02 -.141E+03   -.211E+02 -.205E+02 0.141E+03   0.175E+00 -.308E+00 -.119E+01   0.289E-06 -.258E-05 -.930E-06
   0.189E+02 -.953E+01 -.178E+03   -.183E+02 0.101E+02 0.178E+03   0.816E+00 0.226E+00 0.583E+00   0.692E-06 -.522E-06 -.711E-06
   0.156E+01 -.147E+02 -.969E+02   -.156E+01 0.156E+02 0.964E+02   -.762E+00 -.542E+00 0.114E+01   0.237E-05 -.123E-05 -.185E-05
   0.105E+02 0.165E+02 -.209E+03   -.100E+02 -.176E+02 0.209E+03   0.104E+01 0.323E+00 -.637E+00   0.290E-05 -.221E-06 -.119E-05
   0.836E+01 0.144E+02 -.175E+03   -.920E+01 -.143E+02 0.176E+03   -.501E+00 -.128E+00 -.175E+01   0.398E-05 -.128E-05 -.215E-05
   0.933E+01 -.171E+02 -.185E+03   -.103E+02 0.175E+02 0.185E+03   -.533E+00 -.607E+00 0.617E+00   0.365E-05 -.448E-06 -.221E-05
   -.451E+01 -.599E+01 -.997E+02   0.467E+01 0.599E+01 0.993E+02   0.544E+00 -.892E+00 0.192E+00   0.307E-05 -.195E-05 -.209E-05
   -.963E+01 0.562E+01 -.185E+03   0.974E+01 -.529E+01 0.185E+03   -.206E+00 -.167E+00 -.335E+00   0.332E-05 -.152E-05 -.232E-05
   -.224E+02 0.107E+02 -.114E+03   0.233E+02 -.106E+02 0.114E+03   0.512E+00 0.363E+00 0.361E+00   0.291E-05 -.156E-05 -.196E-05
   -.263E+02 -.103E+02 -.196E+03   0.270E+02 0.103E+02 0.196E+03   0.482E+00 0.106E+00 -.472E+00   0.293E-05 -.558E-07 -.209E-05
   -.655E+01 -.145E+02 -.915E+02   0.605E+01 0.151E+02 0.915E+02   -.183E+00 -.292E+00 -.428E-01   0.445E-05 -.288E-05 -.178E-05
   -.339E+02 0.107E+02 -.206E+03   0.340E+02 -.115E+02 0.206E+03   -.940E-01 -.168E+00 -.119E+01   0.339E-05 0.915E-06 -.239E-05
   -.291E+02 0.131E+02 -.137E+03   0.292E+02 -.133E+02 0.138E+03   -.192E+00 0.168E+00 -.328E+00   0.912E-06 -.944E-06 -.138E-05
   -.254E+02 -.119E+02 -.159E+03   0.243E+02 0.124E+02 0.159E+03   0.226E-01 0.348E+00 0.421E+00   0.226E-05 -.795E-06 -.188E-05
   -.248E+02 0.705E+00 -.102E+03   0.248E+02 -.113E+01 0.102E+03   -.281E+00 -.244E+00 -.122E+01   -.303E-05 0.216E-06 0.719E-06
   -.317E+02 0.247E+01 -.115E+03   0.324E+02 -.239E+01 0.115E+03   0.130E+01 0.221E-01 -.165E+00   -.221E-05 0.228E-06 0.165E-06
   -.382E+02 0.129E+02 -.848E+02   0.390E+02 -.127E+02 0.849E+02   0.145E+00 -.217E-01 -.515E+00   -.557E-05 0.547E-07 0.181E-05
   -.412E+02 -.132E+02 -.125E+03   0.414E+02 0.135E+02 0.126E+03   0.189E+00 -.575E+00 -.142E+01   -.452E-05 0.355E-06 0.143E-05
   0.150E+02 -.141E+02 0.301E+02   -.160E+02 0.145E+02 -.303E+02   0.590E+00 -.417E-01 0.106E+01   -.447E-05 -.233E-06 0.169E-05
   -.413E+01 0.109E+02 -.249E+02   0.365E+01 -.113E+02 0.257E+02   -.579E+00 0.218E+00 -.624E+00   -.283E-05 -.123E-06 0.145E-05
   -.390E+01 0.882E+01 0.221E+02   0.413E+01 -.813E+01 -.211E+02   -.211E+00 0.942E+00 -.192E+01   -.421E-06 0.636E-06 0.594E-06
   0.900E+01 -.731E+01 0.708E+02   -.835E+01 0.701E+01 -.716E+02   0.876E+00 -.221E+00 0.265E+01   -.161E-05 0.171E-05 0.486E-06
   0.164E+02 -.905E+01 0.123E+03   -.171E+02 0.864E+01 -.123E+03   0.415E+00 -.645E+00 0.429E-01   -.324E-06 -.746E-06 0.659E-06
   -.769E+01 0.127E+02 0.324E+01   0.754E+01 -.139E+02 -.245E+01   -.719E+00 -.559E+00 -.128E+01   -.544E-06 0.271E-05 0.603E-06
   0.429E+01 0.845E+01 0.131E+03   -.371E+01 -.820E+01 -.131E+03   0.939E+00 0.342E+00 0.761E+00   0.161E-05 -.599E-06 0.820E-06
   -.291E+01 -.616E+01 0.117E+02   0.215E+01 0.588E+01 -.110E+02   -.107E+01 0.342E+00 -.863E+00   0.286E-05 0.222E-05 0.998E-06
   -.568E+01 -.112E+01 0.167E+03   0.424E+01 0.670E+00 -.168E+03   0.425E+00 0.371E+00 0.344E+00   -.549E-05 -.117E-05 0.194E-05
   -.151E+02 -.317E+01 0.361E+02   0.155E+02 0.281E+01 -.352E+02   0.863E-01 0.241E+00 -.987E+00   -.155E-05 0.402E-07 0.199E-05
   -.309E+02 0.651E+02 0.127E+03   0.299E+02 -.655E+02 -.127E+03   0.262E+01 0.156E+01 -.866E+00   0.122E-05 0.343E-05 0.314E-05
   -.272E+02 -.615E+02 0.156E+03   0.250E+02 0.629E+02 -.158E+03   0.786E+00 -.174E+01 0.292E+01   0.251E-05 0.266E-05 0.367E-05
 -----------------------------------------------------------------------------------------------
   0.724E+00 -.394E+00 -.916E+00   0.242E-12 -.234E-12 -.711E-12   -.782E+00 0.421E+00 0.994E+00   0.588E-07 -.788E-06 -.713E-06
 
 
 POSITION                                       TOTAL-FORCE (eV/Angst)
 -----------------------------------------------------------------------------------
     15.67430      7.49653      3.27500         1.631085     -0.243540     -0.397847
     15.69530      0.75499      3.09100         0.805593     -0.176202      0.133732
     16.87020      6.80785      3.60400        -1.675071      1.528284     -0.017762
     16.90480      1.39995      3.38500         0.032862     -0.065166     -1.154574
     18.08630      7.47994      3.74900         1.099753     -0.773030      0.349149
     18.14920      0.73112      3.54600        -0.220763      0.464254      0.708999
     19.24840      6.81281      4.25800         0.032423      0.116821      0.189706
     19.36820      1.40355      3.88300        -1.180309      0.003984     -0.258232
     20.45810      7.45922      4.52200         1.430059      0.357625     -0.568766
     20.51640      0.71143      4.24600         1.850776      0.549469      0.432080
     21.67590      6.81798      4.96700        -1.770454     -0.157418      0.215141
     21.74270      1.40214      4.58300        -0.171469     -1.748627      0.891757
     22.89280      7.48593      5.17900        -0.415137     -1.637560      0.738019
     22.89450      0.71671      5.07700         1.027987      3.048337     -0.933243
     24.03190      6.83960      5.70100         1.143188      0.614442     -0.557713
     24.10910      1.43127      5.45000        -1.822002     -1.328374     -0.777744
     25.29640      7.50227      5.77800        -0.580554     -0.159942      1.475725
     25.30650      0.79169      5.70400        -0.412429     -1.397921     -0.254433
     26.46230      6.83606      6.23900         0.381384      1.626197     -0.729812
     26.47890      1.47660      5.92300         2.343740     -0.240160      0.020556
     27.72520      7.52277      6.24100         0.293480      0.579432     -1.205915
     27.72600      0.79503      5.99900         0.588275      0.004292      0.363152
      0.94082      6.87766      6.19400         0.382937      0.202792      0.809601
      0.93819      1.49543      5.92900        -0.815263     -2.147622     -0.035511
      2.20155      7.51273      5.94100        -1.690273      0.947916     -0.012991
      2.16669      0.78882      5.76500        -0.178524      0.571078     -0.049857
      3.43389      6.86445      5.87200         0.770569     -0.168531     -0.258773
      3.39426      1.46857      5.52300        -1.484346     -0.761448      0.226095
      4.60453      7.52071      5.36300        -0.257031     -1.498392     -0.197783
      4.52898      0.75600      5.13100         1.321665      1.543652      0.201942
      5.83179      6.84821      5.08500        -1.127205      0.259811      0.493271
      5.74519      1.44517      4.83100        -0.398099      0.050119      0.500073
      6.94558      7.50767      4.51300        -0.512977     -1.074472     -0.371978
      6.88796      0.77320      4.34300        -0.018638     -0.279868      0.404229
      8.12310      6.80784      4.15900         0.604813      1.150825      0.428342
      8.08345      1.40953      3.97500         0.044381      0.314095     -0.883697
      9.29424      7.48160      3.69100        -0.388897     -0.427246     -0.927045
      9.23721      0.74497      3.41800         0.275302      0.184090      1.535614
     10.53230      6.80668      3.55000         0.267491      0.753416      0.236362
     10.47720      1.41875      3.17800        -0.070500     -0.914410      0.245191
     11.75710      7.42782      3.24600         1.091986      1.836508     -0.081384
     11.74020      0.72150      3.02600        -1.459136     -1.214415     -0.359251
     13.05520      6.77947      3.30700        -1.523022      2.357547     -0.492814
     12.95260      1.38315      2.81900         0.519556      0.505173      0.543881
     14.21590      7.50077      3.06100        -1.272750     -1.570346      0.477248
     14.16980      0.74306      2.84700         0.677396     -0.113623     -0.036246
     15.64760      3.42586      3.37300         2.879942     -1.215705      0.684565
     15.65740      4.78683      3.51600         0.510144     -0.512102     -0.283237
     16.90960      2.75455      3.53300        -1.661036      1.245715      0.067732
     16.82280      5.46978      3.82000         0.506774     -1.681441      0.169272
     18.10600      3.41869      3.95700        -1.485778     -0.182503     -0.503345
     18.04880      4.77279      4.13400        -0.693506      0.994800     -0.108124
     19.32420      2.76776      4.10800         1.258610     -0.375839     -0.011581
     19.24710      5.45335      4.46100        -1.084835     -0.604023     -0.479548
     20.51930      3.42136      4.56300        -1.807961     -1.120600     -0.387653
     20.43320      4.75792      4.75400         1.102702      2.093806      1.245639
     21.70680      2.74011      4.81000         0.964044      1.758180     -0.147175
     21.61250      5.45817      5.20400        -0.275403     -0.218061     -1.214809
     22.86270      3.45029      5.29400        -0.108548     -1.702561      0.191704
     22.82600      4.79389      5.49800        -0.548449      0.765531      0.582930
     24.06850      2.77204      5.58300         0.422539      1.951626      0.382017
     24.00490      5.48454      5.90600        -1.124572     -0.221189     -0.600244
     25.24540      3.47359      6.03500        -0.017774     -1.766037     -0.886406
     25.19010      4.81782      6.17000         1.416670      0.783335      0.721506
     26.51920      2.83895      6.07300        -0.763894      0.327486      0.687805
     26.42900      5.48764      6.39000         1.514722     -0.770824     -0.155605
     27.76500      3.49224      6.32300        -1.343999     -0.004576     -0.743594
     27.74980      4.86092      6.42100        -1.487776     -0.152707      0.646106
      0.92981      2.85250      6.11200         0.695137     -0.893945     -0.254113
      0.95020      5.51476      6.38500        -0.092205      0.164445      0.031171
      2.17520      3.47605      6.08300         1.394603      0.522244      0.453249
      2.19176      4.84193      6.30500         1.217897      0.124060     -0.268752
      3.42163      2.81324      5.78300        -0.686805      0.358059      0.005132
      3.46255      5.51031      6.13100         0.018726     -0.902014     -0.788152
      4.67520      3.44676      5.68800        -0.126126     -0.026589      0.048344
      4.68963      4.81800      5.79000        -1.028498      0.775096      0.916432
      5.84179      2.77501      5.24500        -0.309389     -0.673865     -1.158165
      5.84222      5.49176      5.37200         1.954529      0.110788     -0.270587
      7.03988      3.42780      4.92500         0.912717      0.117584     -0.425698
      7.06317      4.81669      5.03800         0.394736     -0.345734     -1.095982
      8.13698      2.75693      4.24000        -0.456494      0.328885      0.853349
      8.19812      5.46122      4.41600        -1.059595     -0.204008      0.236371
      9.34194      3.39399      3.94000         0.020556      1.631434     -0.907058
      9.33517      4.78997      3.93300         1.531045     -0.521292      1.867295
     10.49630      2.78263      3.41700        -0.196925     -1.048011     -0.306073
     10.59380      5.46552      3.76200        -0.868318     -1.704327     -0.496026
     11.72440      3.42306      3.26600         1.515754      0.588642      0.509898
     11.83010      4.76808      3.55600        -1.826303      0.060135     -0.249638
     12.96400      2.75121      3.01700        -1.013582     -0.075933     -0.279701
     13.04650      5.42758      3.41100         0.455153     -0.119078     -0.068588
     14.15240      3.39269      3.15100         1.582509      1.142691     -0.710898
     14.22450      4.77168      3.18500        -1.373591     -0.273427      1.443740
 -----------------------------------------------------------------------------------
    total drift:                               -0.058399      0.026785      0.077567


--------------------------------------------------------------------------------------------------------



  FREE ENERGIE OF THE ION-ELECTRON SYSTEM (eV)
  ---------------------------------------------------
  free  energy   TOTEN  =      -830.86301747 eV

  energy  without entropy=     -830.80409414  energy(sigma->0) =     -830.83355580
 


--------------------------------------------------------------------------------------------------------


    POTLOK:  cpu time      0.4518: real time      0.4517


--------------------------------------------------------------------------------------------------------


     LOOP+:  cpu time    333.2508: real time    333.4686
    4ORBIT:  cpu time      0.0000: real time      0.0000

 total amount of memory used by VASP MPI-rank0  2294501. kBytes
=======================================================================

   base                                    :      30000. kBytes
   nonlr-proj                              :      15067. kBytes
   fftplans                                :     436558. kBytes
   grid                                    :     732614. kBytes
   one-center                              :        282. kBytes
   wavefun                                 :    1079980. kBytes
 
  
  
 General timing and accounting informations for this job:
 ========================================================
  
                  Total CPU time used (sec):      366.373
                            User time (sec):      357.866
                          System time (sec):        8.508
                         Elapsed time (sec):      366.698
  
                   Maximum memory used (kb):     3732784.
                   Average memory used (kb):          N/A
  
                          Minor page faults:      3178648
                          Major page faults:         6659
                 Voluntary context switches:         9985
