<?xml version="1.0" encoding="ISO-8859-1"?>
<modeling>
 <generator>
  <i name="program" type="string">vasp </i>
  <i name="version" type="string">6.5.0  </i>
  <i name="subversion" type="string">16Dec24 (build Feb 19 2025 19:45:31) complex                          parallel </i>
  <i name="platform" type="string">LinuxNV </i>
  <i name="date" type="string">2025 10 25 </i>
  <i name="time" type="string">19:47:02 </i>
 </generator>
 <incar>
  <i type="int" name="ISTART">     0</i>
  <i type="string" name="PREC">Accurate   (Precision level)</i>
  <i type="string" name="ALGO">Normal</i>
  <i type="int" name="ISPIN">     1</i>
  <i type="int" name="ICHARG">     2</i>
  <i type="int" name="NELM">   150</i>
  <i type="int" name="IBRION">    -1</i>
  <i name="EDIFF">      0.00000100</i>
  <i type="int" name="NSW">     0</i>
  <i name="ENCUT">    500.00000000</i>
  <i type="string" name="LREAL">Auto         (Projection operators: automatic)</i>
  <i type="int" name="ISMEAR">     0</i>
  <i type="logical" name="KGAMMA"> T  </i>
  <i type="logical" name="LWAVE"> F  </i>
  <i type="logical" name="LCHARG"> F  </i>
 </incar>
 <primitive_cell>
  <structure name="primitive_cell" >
   <crystal>
    <varray name="basis" >
     <v>      28.05000000       0.00000000       0.00000000 </v>
     <v>       0.00000000       8.10000000       0.00000000 </v>
     <v>       0.00000000       0.00000000      33.50000000 </v>
    </varray>
    <i name="volume">   7611.36750000 </i>
    <varray name="rec_basis" >
     <v>       0.03565062       0.00000000       0.00000000 </v>
     <v>       0.00000000       0.12345679       0.00000000 </v>
     <v>       0.00000000       0.00000000       0.02985075 </v>
    </varray>
   </crystal>
   <varray name="positions" >
    <v>       0.55879857       0.92549753       0.09776119 </v>
    <v>       0.55954724       0.09320827       0.09226866 </v>
    <v>       0.60143316       0.84047531       0.10758209 </v>
    <v>       0.60266667       0.17283333       0.10104478 </v>
    <v>       0.64478788       0.92344938       0.11191045 </v>
    <v>       0.64703030       0.09026222       0.10585075 </v>
    <v>       0.68621747       0.84108765       0.12710448 </v>
    <v>       0.69048841       0.17327778       0.11591045 </v>
    <v>       0.72934403       0.92089136       0.13498507 </v>
    <v>       0.73142246       0.08783148       0.12674627 </v>
    <v>       0.77275936       0.84172593       0.14826866 </v>
    <v>       0.77514082       0.17310370       0.13680597 </v>
    <v>       0.81614260       0.92418889       0.15459701 </v>
    <v>       0.81620321       0.08848321       0.15155224 </v>
    <v>       0.85675223       0.84439506       0.17017910 </v>
    <v>       0.85950446       0.17670000       0.16268657 </v>
    <v>       0.90183244       0.92620617       0.17247761 </v>
    <v>       0.90219251       0.09774000       0.17026866 </v>
    <v>       0.94339750       0.84395802       0.18623881 </v>
    <v>       0.94398930       0.18229630       0.17680597 </v>
    <v>       0.98842068       0.92873704       0.18629851 </v>
    <v>       0.98844920       0.09815235       0.17907463 </v>
    <v>       0.03354071       0.84909383       0.18489552 </v>
    <v>       0.03344702       0.18462099       0.17698507 </v>
    <v>       0.07848663       0.92749753       0.17734328 </v>
    <v>       0.07724385       0.09738506       0.17208955 </v>
    <v>       0.12242032       0.84746296       0.17528358 </v>
    <v>       0.12100749       0.18130494       0.16486567 </v>
    <v>       0.16415437       0.92848272       0.16008955 </v>
    <v>       0.16146096       0.09333321       0.15316418 </v>
    <v>       0.20790695       0.84545802       0.15179104 </v>
    <v>       0.20481961       0.17841605       0.14420896 </v>
    <v>       0.24761426       0.92687284       0.13471642 </v>
    <v>       0.24556007       0.09545728       0.12964179 </v>
    <v>       0.28959358       0.84047407       0.12414925 </v>
    <v>       0.28818004       0.17401605       0.11865672 </v>
    <v>       0.33134545       0.92365432       0.11017910 </v>
    <v>       0.32931230       0.09197136       0.10202985 </v>
    <v>       0.37548307       0.84033086       0.10597015 </v>
    <v>       0.37351872       0.17515432       0.09486567 </v>
    <v>       0.41914795       0.91701481       0.09689552 </v>
    <v>       0.41854545       0.08907358       0.09032836 </v>
    <v>       0.46542602       0.83697160       0.09871642 </v>
    <v>       0.46176827       0.17075926       0.08414925 </v>
    <v>       0.50680570       0.92602099       0.09137313 </v>
    <v>       0.50516221       0.09173617       0.08498507 </v>
    <v>       0.55784670       0.42294568       0.10068657 </v>
    <v>       0.55819608       0.59096667       0.10495522 </v>
    <v>       0.60283779       0.34006790       0.10546269 </v>
    <v>       0.59974332       0.67528148       0.11402985 </v>
    <v>       0.64549020       0.42206049       0.11811940 </v>
    <v>       0.64345098       0.58923333       0.12340299 </v>
    <v>       0.68891979       0.34169877       0.12262687 </v>
    <v>       0.68617112       0.67325309       0.13316418 </v>
    <v>       0.73152585       0.42239012       0.13620896 </v>
    <v>       0.72845633       0.58739753       0.14191045 </v>
    <v>       0.77386096       0.33828519       0.14358209 </v>
    <v>       0.77049911       0.67384815       0.15534328 </v>
    <v>       0.81506952       0.42596173       0.15802985 </v>
    <v>       0.81376114       0.59183827       0.16411940 </v>
    <v>       0.85805704       0.34222716       0.16665672 </v>
    <v>       0.85578966       0.67710370       0.17629851 </v>
    <v>       0.90001426       0.42883827       0.18014925 </v>
    <v>       0.89804278       0.59479259       0.18417910 </v>
    <v>       0.94542602       0.35048765       0.18128358 </v>
    <v>       0.94221034       0.67748642       0.19074627 </v>
    <v>       0.98983957       0.43114074       0.18874627 </v>
    <v>       0.98929768       0.60011358       0.19167164 </v>
    <v>       0.03314813       0.35216049       0.18244776 </v>
    <v>       0.03387533       0.68083457       0.19059701 </v>
    <v>       0.07754724       0.42914198       0.18158209 </v>
    <v>       0.07813761       0.59776914       0.18820896 </v>
    <v>       0.12198324       0.34731358       0.17262687 </v>
    <v>       0.12344207       0.68028519       0.18301493 </v>
    <v>       0.16667380       0.42552593       0.16979104 </v>
    <v>       0.16718824       0.59481481       0.17283582 </v>
    <v>       0.20826346       0.34259383       0.15656716 </v>
    <v>       0.20827879       0.67799506       0.16035821 </v>
    <v>       0.25097611       0.42318519       0.14701493 </v>
    <v>       0.25180642       0.59465309       0.15038806 </v>
    <v>       0.29008841       0.34036173       0.12656716 </v>
    <v>       0.29226809       0.67422469       0.13182090 </v>
    <v>       0.33304599       0.41901111       0.11761194 </v>
    <v>       0.33280463       0.59135432       0.11740299 </v>
    <v>       0.37419964       0.34353457       0.10200000 </v>
    <v>       0.37767558       0.67475556       0.11229851 </v>
    <v>       0.41798217       0.42260000       0.09749254 </v>
    <v>       0.42175045       0.58865185       0.10614925 </v>
    <v>       0.46217469       0.33965556       0.09005970 </v>
    <v>       0.46511586       0.67007160       0.10182090 </v>
    <v>       0.50454189       0.41885062       0.09405970 </v>
    <v>       0.50711230       0.58909630       0.09507463 </v>
   </varray>
  </structure>
  <varray name="primitive_index" >
   <v type="int" >        1 </v>
   <v type="int" >        2 </v>
   <v type="int" >        3 </v>
   <v type="int" >        4 </v>
   <v type="int" >        5 </v>
   <v type="int" >        6 </v>
   <v type="int" >        7 </v>
   <v type="int" >        8 </v>
   <v type="int" >        9 </v>
   <v type="int" >       10 </v>
   <v type="int" >       11 </v>
   <v type="int" >       12 </v>
   <v type="int" >       13 </v>
   <v type="int" >       14 </v>
   <v type="int" >       15 </v>
   <v type="int" >       16 </v>
   <v type="int" >       17 </v>
   <v type="int" >       18 </v>
   <v type="int" >       19 </v>
   <v type="int" >       20 </v>
   <v type="int" >       21 </v>
   <v type="int" >       22 </v>
   <v type="int" >       23 </v>
   <v type="int" >       24 </v>
   <v type="int" >       25 </v>
   <v type="int" >       26 </v>
   <v type="int" >       27 </v>
   <v type="int" >       28 </v>
   <v type="int" >       29 </v>
   <v type="int" >       30 </v>
   <v type="int" >       31 </v>
   <v type="int" >       32 </v>
   <v type="int" >       33 </v>
   <v type="int" >       34 </v>
   <v type="int" >       35 </v>
   <v type="int" >       36 </v>
   <v type="int" >       37 </v>
   <v type="int" >       38 </v>
   <v type="int" >       39 </v>
   <v type="int" >       40 </v>
   <v type="int" >       41 </v>
   <v type="int" >       42 </v>
   <v type="int" >       43 </v>
   <v type="int" >       44 </v>
   <v type="int" >       45 </v>
   <v type="int" >       46 </v>
   <v type="int" >       47 </v>
   <v type="int" >       48 </v>
   <v type="int" >       49 </v>
   <v type="int" >       50 </v>
   <v type="int" >       51 </v>
   <v type="int" >       52 </v>
   <v type="int" >       53 </v>
   <v type="int" >       54 </v>
   <v type="int" >       55 </v>
   <v type="int" >       56 </v>
   <v type="int" >       57 </v>
   <v type="int" >       58 </v>
   <v type="int" >       59 </v>
   <v type="int" >       60 </v>
   <v type="int" >       61 </v>
   <v type="int" >       62 </v>
   <v type="int" >       63 </v>
   <v type="int" >       64 </v>
   <v type="int" >       65 </v>
   <v type="int" >       66 </v>
   <v type="int" >       67 </v>
   <v type="int" >       68 </v>
   <v type="int" >       69 </v>
   <v type="int" >       70 </v>
   <v type="int" >       71 </v>
   <v type="int" >       72 </v>
   <v type="int" >       73 </v>
   <v type="int" >       74 </v>
   <v type="int" >       75 </v>
   <v type="int" >       76 </v>
   <v type="int" >       77 </v>
   <v type="int" >       78 </v>
   <v type="int" >       79 </v>
   <v type="int" >       80 </v>
   <v type="int" >       81 </v>
   <v type="int" >       82 </v>
   <v type="int" >       83 </v>
   <v type="int" >       84 </v>
   <v type="int" >       85 </v>
   <v type="int" >       86 </v>
   <v type="int" >       87 </v>
   <v type="int" >       88 </v>
   <v type="int" >       89 </v>
   <v type="int" >       90 </v>
   <v type="int" >       91 </v>
   <v type="int" >       92 </v>
  </varray>
 </primitive_cell>
 <kpoints>
  <generation param="Gamma">
   <v type="int" name="divisions">       1        4        1 </v>
   <v name="usershift">      0.00000000       0.00000000       0.00000000 </v>
   <v name="genvec1">      1.00000000       0.00000000       0.00000000 </v>
   <v name="genvec2">      0.00000000       0.25000000       0.00000000 </v>
   <v name="genvec3">      0.00000000       0.00000000       1.00000000 </v>
   <v name="shift">      0.00000000       0.00000000       0.00000000 </v>
  </generation>
  <varray name="kpointlist" >
   <v>       0.00000000       0.00000000       0.00000000 </v>
   <v>       0.00000000       0.25000000       0.00000000 </v>
   <v>       0.00000000       0.50000000       0.00000000 </v>
  </varray>
  <varray name="weights" >
   <v>       0.25000000 </v>
   <v>       0.50000000 </v>
   <v>       0.25000000 </v>
  </varray>
 </kpoints>
 <parameters>
  <separator name="general" >
   <i type="string" name="SYSTEM">unknown system</i>
   <i type="logical" name="LCOMPAT"> F  </i>
  </separator>
  <separator name="electronic" >
   <i type="string" name="PREC">accura</i>
   <i name="ENMAX">    500.00000000</i>
   <i name="ENAUG">    644.87300000</i>
   <i name="EDIFF">      0.00000100</i>
   <i type="int" name="IALGO">    38</i>
   <i type="int" name="IWAVPR">    10</i>
   <i type="int" name="NBANDS">   232</i>
   <i type="int" name="NBANDSLOW">    -1</i>
   <i type="int" name="NBANDSHIGH">    -1</i>
   <i name="NELECT">    368.00000000</i>
   <i type="int" name="TURBO">     0</i>
   <i type="int" name="IRESTART">     0</i>
   <i type="int" name="NREBOOT">     0</i>
   <i type="int" name="NMIN">     0</i>
   <i name="EREF">      0.00000000</i>
   <separator name="electronic smearing" >
    <i type="int" name="ISMEAR">     0</i>
    <i name="SIGMA">      0.20000000</i>
    <i name="KSPACING">      0.50000000</i>
    <i type="logical" name="KGAMMA"> T  </i>
    <i type="logical" name="KBLOWUP"> T  </i>
   </separator>
   <separator name="electronic projectors" >
    <i type="logical" name="LREAL"> T  </i>
    <v name="ROPT">     -0.00025000</v>
    <i type="int" name="LMAXPAW">  -100</i>
    <i type="int" name="LMAXMIX">     2</i>
    <i type="logical" name="NLSPLINE"> F  </i>
   </separator>
   <separator name="electronic startup" >
    <i type="int" name="ISTART">     0</i>
    <i type="int" name="ICHARG">     2</i>
    <i type="int" name="INIWAV">     1</i>
   </separator>
   <separator name="electronic spin" >
    <i type="int" name="ISPIN">     1</i>
    <i type="logical" name="LNONCOLLINEAR"> F  </i>
    <v name="MAGMOM">      1.00000000      1.00000000      1.00000000      1.00000000      1.00000000      1.00000000      1.00000000      1.00000000      1.00000000      1.00000000      1.00000000      1.00000000      1.00000000      1.00000000      1.00000000      1.00000000      1.00000000      1.00000000      1.00000000      1.00000000
      1.00000000      1.00000000      1.00000000      1.00000000      1.00000000      1.00000000      1.00000000      1.00000000      1.00000000      1.00000000      1.00000000      1.00000000      1.00000000      1.00000000      1.00000000      1.00000000      1.00000000      1.00000000      1.00000000      1.00000000
      1.00000000      1.00000000      1.00000000      1.00000000      1.00000000      1.00000000      1.00000000      1.00000000      1.00000000      1.00000000      1.00000000      1.00000000      1.00000000      1.00000000      1.00000000      1.00000000      1.00000000      1.00000000      1.00000000      1.00000000
      1.00000000      1.00000000      1.00000000      1.00000000      1.00000000      1.00000000      1.00000000      1.00000000      1.00000000      1.00000000      1.00000000      1.00000000      1.00000000      1.00000000      1.00000000      1.00000000      1.00000000      1.00000000      1.00000000      1.00000000
      1.00000000      1.00000000      1.00000000      1.00000000      1.00000000      1.00000000      1.00000000      1.00000000      1.00000000      1.00000000      1.00000000      1.00000000</v>
    <i name="NUPDOWN">     -1.00000000</i>
    <i type="logical" name="LSORBIT"> F  </i>
    <v name="SAXIS">      0.00000000      0.00000000      1.00000000</v>
    <i type="logical" name="LSPIRAL"> F  </i>
    <v name="QSPIRAL">      0.00000000      0.00000000      0.00000000</v>
    <i type="logical" name="LZEROZ"> F  </i>
   </separator>
   <separator name="electronic exchange-correlation" >
    <i type="logical" name="LASPH"> F  </i>
   </separator>
   <separator name="electronic convergence" >
    <i type="int" name="NELM">   150</i>
    <i type="int" name="NELMDL">    -5</i>
    <i type="int" name="NELMIN">     2</i>
    <i name="ENINI">    500.00000000</i>
    <separator name="electronic convergence detail" >
     <i type="logical" name="LDIAG"> T  </i>
     <i type="logical" name="LSUBROT"> F  </i>
     <i name="WEIMIN">      0.00000000</i>
     <i name="EBREAK">      0.00000000</i>
     <i name="DEPER">      0.30000000</i>
     <i type="int" name="NRMM">     4</i>
     <i name="TIME">      0.40000000</i>
    </separator>
   </separator>
   <separator name="electronic mixer" >
    <i name="AMIX">      0.40000000</i>
    <i name="BMIX">      1.00000000</i>
    <i name="AMIN">      0.10000000</i>
    <i name="AMIX_MAG">      1.60000000</i>
    <i name="BMIX_MAG">      1.00000000</i>
    <separator name="electronic mixer details" >
     <i type="int" name="IMIX">     4</i>
     <i type="logical" name="MIXFIRST"> F  </i>
     <i type="int" name="MAXMIX">   -45</i>
     <i name="WC">    100.00000000</i>
     <i type="int" name="INIMIX">     1</i>
     <i type="int" name="MIXPRE">     1</i>
     <i type="int" name="MREMOVE">     5</i>
    </separator>
   </separator>
   <separator name="electronic dipolcorrection" >
    <i type="logical" name="LDIPOL"> F  </i>
    <i type="logical" name="LMONO"> F  </i>
    <i type="int" name="IDIPOL">     0</i>
    <i name="EPSILON">      1.00000000</i>
    <v name="DIPOL">   -100.00000000   -100.00000000   -100.00000000</v>
    <i name="EFIELD">      0.00000000</i>
    <i type="logical" name="LVACPOTAV"> F  </i>
   </separator>
  </separator>
  <separator name="grids" >
   <i type="int" name="NGX">   210</i>
   <i type="int" name="NGY">    60</i>
   <i type="int" name="NGZ">   250</i>
   <i type="int" name="NGXF">   420</i>
   <i type="int" name="NGYF">   120</i>
   <i type="int" name="NGZF">   500</i>
   <i type="logical" name="ADDGRID"> F  </i>
  </separator>
  <separator name="ionic" >
   <i type="int" name="NSW">     0</i>
   <i type="int" name="IBRION">    -1</i>
   <i type="int" name="MDALGO">     0</i>
   <i type="int" name="ISIF">     2</i>
   <i name="PSTRESS">      0.00000000</i>
   <i name="EDIFFG">      0.00001000</i>
   <i type="int" name="NFREE">     0</i>
   <i name="POTIM">      0.50000000</i>
   <i name="SMASS">     -3.00000000</i>
   <i name="SCALEE">      1.00000000</i>
  </separator>
  <separator name="ionic md" >
   <i name="TEBEG">      0.00010000</i>
   <i name="TEEND">      0.00010000</i>
   <i type="int" name="NBLOCK">     1</i>
   <i type="int" name="KBLOCK">     1</i>
   <i type="int" name="NPACO">   256</i>
   <i name="APACO">     10.00000000</i>
  </separator>
  <separator name="symmetry" >
   <i type="int" name="ISYM">     2</i>
   <i name="SYMPREC">      0.00001000</i>
  </separator>
  <separator name="dos" >
   <i type="int" name="LORBIT">     0</i>
   <v name="RWIGS">     -1.00000000</v>
   <i type="int" name="NEDOS">   301</i>
   <i name="EMIN">     10.00000000</i>
   <i name="EMAX">    -10.00000000</i>
   <i name="EFERMI">      0.00000000</i>
  </separator>
  <separator name="writing" >
   <i type="int" name="NWRITE">     2</i>
   <i type="logical" name="LWAVE"> F  </i>
   <i type="logical" name="LDOWNSAMPLE"> F  </i>
   <i type="logical" name="LCHARG"> F  </i>
   <i type="logical" name="LPARD"> F  </i>
   <i type="logical" name="LVTOT"> F  </i>
   <i type="logical" name="LVHAR"> F  </i>
   <i type="logical" name="LELF"> F  </i>
   <i type="logical" name="LOPTICS"> F  </i>
   <v name="STM">      0.00000000      0.00000000      0.00000000      0.00000000      0.00000000      0.00000000      0.00000000</v>
  </separator>
  <separator name="performance" >
   <i type="int" name="NPAR">     2</i>
   <i type="int" name="NSIM">     4</i>
   <i type="int" name="NBLK">    -1</i>
   <i type="logical" name="LPLANE"> T  </i>
   <i type="logical" name="LSCALAPACK"> T  </i>
   <i type="logical" name="LSCAAWARE"> F  </i>
   <i type="logical" name="LSCALU"> F  </i>
   <i type="logical" name="LASYNC"> F  </i>
   <i type="logical" name="LORBITALREAL"> F  </i>
  </separator>
  <separator name="miscellaneous" >
   <i type="int" name="IDIOT">     3</i>
   <i type="int" name="PHON_NSTRUCT">    -1</i>
   <i type="logical" name="LMUSIC"> F  </i>
   <v name="POMASS">     12.01100000</v>
   <v name="DARWINR">      0.00000000</v>
   <v name="DARWINV">      1.00000000</v>
   <i type="logical" name="LCORR"> T  </i>
  </separator>
  <i type="logical" name="GGA_COMPAT"> T  </i>
  <i type="logical" name="LBERRY"> F  </i>
  <i type="int" name="ICORELEVEL">     0</i>
  <i type="logical" name="LDAU"> F  </i>
  <i type="int" name="I_CONSTRAINED_M">     0</i>
  <separator name="electronic exchange-correlation" >
   <i type="string" name="GGA    ">PE</i>
   <i type="string" name="XC_C">1</i>
   <i type="int" name="VOSKOWN">     0</i>
   <i type="logical" name="LHFCALC"> F  </i>
   <i type="string" name="PRECFOCK"></i>
   <i type="logical" name="LSYMGRAD"> F  </i>
   <i type="logical" name="LHFONE"> F  </i>
   <i type="logical" name="LRHFCALC"> F  </i>
   <i type="logical" name="LTHOMAS"> F  </i>
   <i type="logical" name="LMODELHF"> F  </i>
   <i type="logical" name="LFOCKACE"> F  </i>
   <i name="ENCUT4O">     -1.00000000</i>
   <i type="int" name="EXXOEP">     0</i>
   <i type="int" name="FOURORBIT">     0</i>
   <i name="AEXX">      0.00000000</i>
   <i name="HFALPHA">      0.00000000</i>
   <i name="MCALPHA">      0.00000000</i>
   <i name="ALDAX">      1.00000000</i>
   <i name="AGGAX">      1.00000000</i>
   <i name="AMGGAX">      1.00000000</i>
   <i name="ALDAC">      1.00000000</i>
   <i name="AGGAC">      1.00000000</i>
   <i name="AMGGAC">      1.00000000</i>
   <i type="int" name="NKREDX">     1</i>
   <i type="int" name="NKREDY">     1</i>
   <i type="int" name="NKREDZ">     1</i>
   <i type="logical" name="SHIFTRED"> F  </i>
   <i type="logical" name="ODDONLY"> F  </i>
   <i type="logical" name="EVENONLY"> F  </i>
   <i type="int" name="LMAXFOCK">     0</i>
   <i type="int" name="NMAXFOCKAE">     0</i>
   <i type="logical" name="LFOCKAEDFT"> F  </i>
   <i name="HFSCREEN">      0.00000000</i>
   <i name="HFSCREENC">      0.00000000</i>
   <i type="int" name="NBANDSGWLOW">     0</i>
  </separator>
  <separator name="vdW DFT" >
   <i type="logical" name="LUSE_VDW"> F  </i>
   <i type="int" name="IVDW_NL">    -1</i>
   <i type="logical" name="LSPIN_VDW"> F  </i>
   <i name="ZAB_VDW">     -0.84910000</i>
   <i name="GAMMA_VDW">      1.39626340</i>
   <i name="ALPHA_VDW">      0.00000000</i>
   <i name="PARAM1">      0.12340000</i>
   <i name="PARAM2">      1.00000000</i>
   <i name="BPARAM">      6.30000000</i>
   <i name="CPARAM">      0.00930000</i>
  </separator>
  <separator name="model GW" >
   <i type="int" name="MODEL_GW">     0</i>
   <i name="MODEL_EPS0">     49.63935326</i>
   <i name="MODEL_ALPHA">      1.00000000</i>
  </separator>
  <separator name="linear response parameters" >
   <i type="logical" name="LEPSILON"> F  </i>
   <i type="logical" name="LRPA"> F  </i>
   <i type="logical" name="LNABLA"> F  </i>
   <i type="logical" name="LVEL"> F  </i>
   <i name="CSHIFT">      0.10000000</i>
   <i name="OMEGAMAX">     -1.00000000</i>
   <i name="DEG_THRESHOLD">      0.00200000</i>
   <i name="RTIME">     -0.10000000</i>
   <i name="WPLASMAI">      0.00000000</i>
   <v name="DFIELD">      0.00000000      0.00000000      0.00000000</v>
   <v name="WPLASMA">      0.00000000      0.00000000      0.00000000      0.00000000      0.00000000      0.00000000      0.00000000      0.00000000      0.00000000</v>
  </separator>
  <separator name="orbital magnetization" >
   <i type="logical" name="NUCIND"> F  </i>
   <v name="MAGPOS">      0.00000000      0.00000000      0.00000000</v>
   <i type="logical" name="LNICSALL"> T  </i>
   <i type="logical" name="ORBITALMAG"> F  </i>
   <i type="logical" name="LMAGBLOCH"> F  </i>
   <i type="logical" name="LCHIMAG"> F  </i>
   <i type="logical" name="LGAUGE"> T  </i>
   <i type="int" name="MAGATOM">     0</i>
   <v name="MAGDIPOL">      0.00000000      0.00000000      0.00000000</v>
   <v name="AVECCONST">      0.00000000      0.00000000      0.00000000</v>
  </separator>
  <separator name="response functions" >
   <i type="logical" name="LALL_IN_ONE"> F  </i>
   <i type="int" name="IALL_IN_ONE">    -1</i>
   <i type="int" name="NBANDS_WAVE">    -1</i>
   <i type="logical" name="LFINITE_TEMPERATURE"> F  </i>
   <i type="logical" name="LADDER"> F  </i>
   <i type="logical" name="LRPAFORCE"> F  </i>
   <i type="logical" name="LFXC"> F  </i>
   <i type="logical" name="LHARTREE"> T  </i>
   <i type="int" name="IBSE">     2</i>
   <v type="int" name="KPOINT">    -1     0     0     0</v>
   <i type="logical" name="LTCTC"> F  </i>
   <i type="logical" name="LTCTE"> F  </i>
   <i type="logical" name="LTETE"> F  </i>
   <i type="logical" name="LTRIPLET"> F  </i>
   <i type="logical" name="LFXCEPS"> F  </i>
   <i type="logical" name="LFXHEG"> F  </i>
   <i type="int" name="NATURALO">     2</i>
   <i type="logical" name="LHOLEGF"> F  </i>
   <i type="logical" name="L2ORDER"> F  </i>
   <i type="logical" name="LDMP1"> F  </i>
   <i type="logical" name="LMP2LT"> F  </i>
   <i type="logical" name="LSMP2LT"> F  </i>
   <i type="logical" name="LGWLF"> F  </i>
   <i name="ENCUTGW">     -1.60000002</i>
   <i name="ENCUTGWSOFT">     -1.60000002</i>
   <i name="ENCUTLF">     -1.00000000</i>
   <i type="logical" name="ESF_SPLINES"> F  </i>
   <i name="ESF_CONV">      0.01000000</i>
   <i type="int" name="ESF_NINTER">    15</i>
   <i type="int" name="LMAXMP2">    -1</i>
   <i name="SCISSOR">      0.00000000</i>
   <i type="int" name="NOMEGA">     0</i>
   <i type="int" name="NOMEGAR">     0</i>
   <i type="int" name="NBANDSGW">    -1</i>
   <i type="int" name="NBANDSO">    -1</i>
   <i type="int" name="NBANDSV">    -1</i>
   <i type="int" name="NELMGW">     1</i>
   <i type="int" name="NELMHF">     1</i>
   <i type="int" name="DIM">     3</i>
   <i type="int" name="IESPILON">     4</i>
   <i type="int" name="ANTIRES">     0</i>
   <i name="OMEGAMAX">    -30.00000000</i>
   <i name="OMEGAMIN">    -30.00000000</i>
   <i name="OMEGATL">   -200.00000000</i>
   <i type="int" name="OMEGAGRID">     0</i>
   <i name="CSHIFT">     -0.10000000</i>
   <i type="logical" name="LSELFENERGY"> F  </i>
   <i type="logical" name="LSPECTRAL"> F  </i>
   <i type="logical" name="LSPECTRALGW"> F  </i>
   <i type="logical" name="LSINGLES"> F  </i>
   <i type="logical" name="LFERMIGW"> F  </i>
   <i type="logical" name="ODDONLYGW"> F  </i>
   <i type="logical" name="EVENONLYGW"> F  </i>
   <i type="int" name="NKREDLFX">     1</i>
   <i type="int" name="NKREDLFY">     1</i>
   <i type="int" name="NKREDLFZ">     1</i>
   <i type="int" name="MAXMEM">  2800</i>
   <i type="int" name="TELESCOPE">     0</i>
   <i type="int" name="NTAUPAR">    -1</i>
   <i type="int" name="NOMEGAPAR">    -1</i>
   <i name="DAMP_NEWTON">      0.80000001</i>
   <i name="LAMBDA">      1.00000000</i>
  </separator>
  <separator name="External order field" >
   <i name="OFIELD_KAPPA">      0.00000000</i>
   <v name="OFIELD_K">      0.00000000      0.00000000      0.00000000</v>
   <i name="OFIELD_Q6_NEAR">      0.00000000</i>
   <i name="OFIELD_Q6_FAR">      0.00000000</i>
   <i name="OFIELD_A">      0.00000000</i>
  </separator>
  <separator name="optional k-points parameters" >
   <i type="int" name="KPOINTS_OPT_MODE">     1</i>
   <i type="logical" name="LKPOINTS_OPT"> F  </i>
  </separator>
 </parameters>
 <atominfo>
  <atoms>      92 </atoms>
  <types>       1 </types>
  <array name="atoms" >
   <dimension dim="1">ion</dimension>
   <field type="string">element</field>
   <field type="int">atomtype</field>
   <set>
    <rc><c>C </c><c>   1</c></rc>
    <rc><c>C </c><c>   1</c></rc>
    <rc><c>C </c><c>   1</c></rc>
    <rc><c>C </c><c>   1</c></rc>
    <rc><c>C </c><c>   1</c></rc>
    <rc><c>C </c><c>   1</c></rc>
    <rc><c>C </c><c>   1</c></rc>
    <rc><c>C </c><c>   1</c></rc>
    <rc><c>C </c><c>   1</c></rc>
    <rc><c>C </c><c>   1</c></rc>
    <rc><c>C </c><c>   1</c></rc>
    <rc><c>C </c><c>   1</c></rc>
    <rc><c>C </c><c>   1</c></rc>
    <rc><c>C </c><c>   1</c></rc>
    <rc><c>C </c><c>   1</c></rc>
    <rc><c>C </c><c>   1</c></rc>
    <rc><c>C </c><c>   1</c></rc>
    <rc><c>C </c><c>   1</c></rc>
    <rc><c>C </c><c>   1</c></rc>
    <rc><c>C </c><c>   1</c></rc>
    <rc><c>C </c><c>   1</c></rc>
    <rc><c>C </c><c>   1</c></rc>
    <rc><c>C </c><c>   1</c></rc>
    <rc><c>C </c><c>   1</c></rc>
    <rc><c>C </c><c>   1</c></rc>
    <rc><c>C </c><c>   1</c></rc>
    <rc><c>C </c><c>   1</c></rc>
    <rc><c>C </c><c>   1</c></rc>
    <rc><c>C </c><c>   1</c></rc>
    <rc><c>C </c><c>   1</c></rc>
    <rc><c>C </c><c>   1</c></rc>
    <rc><c>C </c><c>   1</c></rc>
    <rc><c>C </c><c>   1</c></rc>
    <rc><c>C </c><c>   1</c></rc>
    <rc><c>C </c><c>   1</c></rc>
    <rc><c>C </c><c>   1</c></rc>
    <rc><c>C </c><c>   1</c></rc>
    <rc><c>C </c><c>   1</c></rc>
    <rc><c>C </c><c>   1</c></rc>
    <rc><c>C </c><c>   1</c></rc>
    <rc><c>C </c><c>   1</c></rc>
    <rc><c>C </c><c>   1</c></rc>
    <rc><c>C </c><c>   1</c></rc>
    <rc><c>C </c><c>   1</c></rc>
    <rc><c>C </c><c>   1</c></rc>
    <rc><c>C </c><c>   1</c></rc>
    <rc><c>C </c><c>   1</c></rc>
    <rc><c>C </c><c>   1</c></rc>
    <rc><c>C </c><c>   1</c></rc>
    <rc><c>C </c><c>   1</c></rc>
    <rc><c>C </c><c>   1</c></rc>
    <rc><c>C </c><c>   1</c></rc>
    <rc><c>C </c><c>   1</c></rc>
    <rc><c>C </c><c>   1</c></rc>
    <rc><c>C </c><c>   1</c></rc>
    <rc><c>C </c><c>   1</c></rc>
    <rc><c>C </c><c>   1</c></rc>
    <rc><c>C </c><c>   1</c></rc>
    <rc><c>C </c><c>   1</c></rc>
    <rc><c>C </c><c>   1</c></rc>
    <rc><c>C </c><c>   1</c></rc>
    <rc><c>C </c><c>   1</c></rc>
    <rc><c>C </c><c>   1</c></rc>
    <rc><c>C </c><c>   1</c></rc>
    <rc><c>C </c><c>   1</c></rc>
    <rc><c>C </c><c>   1</c></rc>
    <rc><c>C </c><c>   1</c></rc>
    <rc><c>C </c><c>   1</c></rc>
    <rc><c>C </c><c>   1</c></rc>
    <rc><c>C </c><c>   1</c></rc>
    <rc><c>C </c><c>   1</c></rc>
    <rc><c>C </c><c>   1</c></rc>
    <rc><c>C </c><c>   1</c></rc>
    <rc><c>C </c><c>   1</c></rc>
    <rc><c>C </c><c>   1</c></rc>
    <rc><c>C </c><c>   1</c></rc>
    <rc><c>C </c><c>   1</c></rc>
    <rc><c>C </c><c>   1</c></rc>
    <rc><c>C </c><c>   1</c></rc>
    <rc><c>C </c><c>   1</c></rc>
    <rc><c>C </c><c>   1</c></rc>
    <rc><c>C </c><c>   1</c></rc>
    <rc><c>C </c><c>   1</c></rc>
    <rc><c>C </c><c>   1</c></rc>
    <rc><c>C </c><c>   1</c></rc>
    <rc><c>C </c><c>   1</c></rc>
    <rc><c>C </c><c>   1</c></rc>
    <rc><c>C </c><c>   1</c></rc>
    <rc><c>C </c><c>   1</c></rc>
    <rc><c>C </c><c>   1</c></rc>
    <rc><c>C </c><c>   1</c></rc>
    <rc><c>C </c><c>   1</c></rc>
   </set>
  </array>
  <array name="atomtypes" >
   <dimension dim="1">type</dimension>
   <field type="int">atomspertype</field>
   <field type="string">element</field>
   <field>mass</field>
   <field>valence</field>
   <field type="string">pseudopotential</field>
   <set>
    <rc><c>  92</c><c>C </c><c>     12.01100000</c><c>      4.00000000</c><c>  PAW_PBE C 08Apr2002                   </c></rc>
   </set>
  </array>
 </atominfo>
 <structure name="initialpos" >
  <crystal>
   <varray name="basis" >
    <v>      28.05000000       0.00000000       0.00000000 </v>
    <v>       0.00000000       8.10000000       0.00000000 </v>
    <v>       0.00000000       0.00000000      33.50000000 </v>
   </varray>
   <i name="volume">   7611.36750000 </i>
   <varray name="rec_basis" >
    <v>       0.03565062       0.00000000       0.00000000 </v>
    <v>       0.00000000       0.12345679       0.00000000 </v>
    <v>       0.00000000       0.00000000       0.02985075 </v>
   </varray>
  </crystal>
  <varray name="positions" >
   <v>       0.55879857       0.92549753       0.09776119 </v>
   <v>       0.55954724       0.09320827       0.09226866 </v>
   <v>       0.60143316       0.84047531       0.10758209 </v>
   <v>       0.60266667       0.17283333       0.10104478 </v>
   <v>       0.64478788       0.92344938       0.11191045 </v>
   <v>       0.64703030       0.09026222       0.10585075 </v>
   <v>       0.68621747       0.84108765       0.12710448 </v>
   <v>       0.69048841       0.17327778       0.11591045 </v>
   <v>       0.72934403       0.92089136       0.13498507 </v>
   <v>       0.73142246       0.08783148       0.12674627 </v>
   <v>       0.77275936       0.84172593       0.14826866 </v>
   <v>       0.77514082       0.17310370       0.13680597 </v>
   <v>       0.81614260       0.92418889       0.15459701 </v>
   <v>       0.81620321       0.08848321       0.15155224 </v>
   <v>       0.85675223       0.84439506       0.17017910 </v>
   <v>       0.85950446       0.17670000       0.16268657 </v>
   <v>       0.90183244       0.92620617       0.17247761 </v>
   <v>       0.90219251       0.09774000       0.17026866 </v>
   <v>       0.94339750       0.84395802       0.18623881 </v>
   <v>       0.94398930       0.18229630       0.17680597 </v>
   <v>       0.98842068       0.92873704       0.18629851 </v>
   <v>       0.98844920       0.09815235       0.17907463 </v>
   <v>       0.03354071       0.84909383       0.18489552 </v>
   <v>       0.03344702       0.18462099       0.17698507 </v>
   <v>       0.07848663       0.92749753       0.17734328 </v>
   <v>       0.07724385       0.09738506       0.17208955 </v>
   <v>       0.12242032       0.84746296       0.17528358 </v>
   <v>       0.12100749       0.18130494       0.16486567 </v>
   <v>       0.16415437       0.92848272       0.16008955 </v>
   <v>       0.16146096       0.09333321       0.15316418 </v>
   <v>       0.20790695       0.84545802       0.15179104 </v>
   <v>       0.20481961       0.17841605       0.14420896 </v>
   <v>       0.24761426       0.92687284       0.13471642 </v>
   <v>       0.24556007       0.09545728       0.12964179 </v>
   <v>       0.28959358       0.84047407       0.12414925 </v>
   <v>       0.28818004       0.17401605       0.11865672 </v>
   <v>       0.33134545       0.92365432       0.11017910 </v>
   <v>       0.32931230       0.09197136       0.10202985 </v>
   <v>       0.37548307       0.84033086       0.10597015 </v>
   <v>       0.37351872       0.17515432       0.09486567 </v>
   <v>       0.41914795       0.91701481       0.09689552 </v>
   <v>       0.41854545       0.08907358       0.09032836 </v>
   <v>       0.46542602       0.83697160       0.09871642 </v>
   <v>       0.46176827       0.17075926       0.08414925 </v>
   <v>       0.50680570       0.92602099       0.09137313 </v>
   <v>       0.50516221       0.09173617       0.08498507 </v>
   <v>       0.55784670       0.42294568       0.10068657 </v>
   <v>       0.55819608       0.59096667       0.10495522 </v>
   <v>       0.60283779       0.34006790       0.10546269 </v>
   <v>       0.59974332       0.67528148       0.11402985 </v>
   <v>       0.64549020       0.42206049       0.11811940 </v>
   <v>       0.64345098       0.58923333       0.12340299 </v>
   <v>       0.68891979       0.34169877       0.12262687 </v>
   <v>       0.68617112       0.67325309       0.13316418 </v>
   <v>       0.73152585       0.42239012       0.13620896 </v>
   <v>       0.72845633       0.58739753       0.14191045 </v>
   <v>       0.77386096       0.33828519       0.14358209 </v>
   <v>       0.77049911       0.67384815       0.15534328 </v>
   <v>       0.81506952       0.42596173       0.15802985 </v>
   <v>       0.81376114       0.59183827       0.16411940 </v>
   <v>       0.85805704       0.34222716       0.16665672 </v>
   <v>       0.85578966       0.67710370       0.17629851 </v>
   <v>       0.90001426       0.42883827       0.18014925 </v>
   <v>       0.89804278       0.59479259       0.18417910 </v>
   <v>       0.94542602       0.35048765       0.18128358 </v>
   <v>       0.94221034       0.67748642       0.19074627 </v>
   <v>       0.98983957       0.43114074       0.18874627 </v>
   <v>       0.98929768       0.60011358       0.19167164 </v>
   <v>       0.03314813       0.35216049       0.18244776 </v>
   <v>       0.03387533       0.68083457       0.19059701 </v>
   <v>       0.07754724       0.42914198       0.18158209 </v>
   <v>       0.07813761       0.59776914       0.18820896 </v>
   <v>       0.12198324       0.34731358       0.17262687 </v>
   <v>       0.12344207       0.68028519       0.18301493 </v>
   <v>       0.16667380       0.42552593       0.16979104 </v>
   <v>       0.16718824       0.59481481       0.17283582 </v>
   <v>       0.20826346       0.34259383       0.15656716 </v>
   <v>       0.20827879       0.67799506       0.16035821 </v>
   <v>       0.25097611       0.42318519       0.14701493 </v>
   <v>       0.25180642       0.59465309       0.15038806 </v>
   <v>       0.29008841       0.34036173       0.12656716 </v>
   <v>       0.29226809       0.67422469       0.13182090 </v>
   <v>       0.33304599       0.41901111       0.11761194 </v>
   <v>       0.33280463       0.59135432       0.11740299 </v>
   <v>       0.37419964       0.34353457       0.10200000 </v>
   <v>       0.37767558       0.67475556       0.11229851 </v>
   <v>       0.41798217       0.42260000       0.09749254 </v>
   <v>       0.42175045       0.58865185       0.10614925 </v>
   <v>       0.46217469       0.33965556       0.09005970 </v>
   <v>       0.46511586       0.67007160       0.10182090 </v>
   <v>       0.50454189       0.41885062       0.09405970 </v>
   <v>       0.50711230       0.58909630       0.09507463 </v>
  </varray>
 </structure>
 <calculation>
  <scstep>
   <time name="dav">   11.15   11.15</time>
   <time name="total">   11.61   11.63</time>
   <energy>
    <i name="alphaZ">     91.34886789 </i>
    <i name="ewald"> 119684.21953634 </i>
    <i name="hartreedc">-129013.66174541 </i>
    <i name="XCdc">   1221.24074437 </i>
    <i name="pawpsdc">   9984.02826696 </i>
    <i name="pawaedc"> -10036.41360137 </i>
    <i name="eentropy">     -0.83934860 </i>
    <i name="bandstr">  -1812.07608487 </i>
    <i name="atom">  13537.65479391 </i>
    <i name="e_fr_energy">   3655.50142921 </i>
    <i name="e_wo_entrp">   3656.34077781 </i>
    <i name="e_0_energy">   3655.92110351 </i>
   </energy>
  </scstep>
  <scstep>
   <time name="dav">   13.05   13.06</time>
   <time name="total">   13.05   13.06</time>
   <energy>
    <i name="e_fr_energy">    172.48771290 </i>
    <i name="e_wo_entrp">    172.67759558 </i>
    <i name="e_0_energy">    172.58265424 </i>
   </energy>
  </scstep>
  <scstep>
   <time name="dav">   11.34   11.34</time>
   <time name="total">   11.34   11.34</time>
   <energy>
    <i name="e_fr_energy">   -836.46044168 </i>
    <i name="e_wo_entrp">   -836.41444466 </i>
    <i name="e_0_energy">   -836.43744317 </i>
   </energy>
  </scstep>
  <scstep>
   <time name="dav">   10.92   10.93</time>
   <time name="total">   10.92   10.93</time>
   <energy>
    <i name="e_fr_energy">   -897.59162418 </i>
    <i name="e_wo_entrp">   -897.53302440 </i>
    <i name="e_0_energy">   -897.56232429 </i>
   </energy>
  </scstep>
  <scstep>
   <time name="dav">   11.26   11.27</time>
   <time name="total">   12.74   12.75</time>
   <energy>
    <i name="e_fr_energy">   -899.09457954 </i>
    <i name="e_wo_entrp">   -899.03562915 </i>
    <i name="e_0_energy">   -899.06510434 </i>
   </energy>
  </scstep>
  <scstep>
   <time name="dav">   10.20   10.21</time>
   <time name="total">   12.00   12.01</time>
   <energy>
    <i name="e_fr_energy">   -849.69657140 </i>
    <i name="e_wo_entrp">   -849.63839871 </i>
    <i name="e_0_energy">   -849.66748505 </i>
   </energy>
  </scstep>
  <scstep>
   <time name="dav">   10.10   10.11</time>
   <time name="total">   11.90   11.91</time>
   <energy>
    <i name="e_fr_energy">   -831.25955717 </i>
    <i name="e_wo_entrp">   -831.19994425 </i>
    <i name="e_0_energy">   -831.22975071 </i>
   </energy>
  </scstep>
  <scstep>
   <time name="dav">   10.35   10.36</time>
   <time name="total">   12.15   12.16</time>
   <energy>
    <i name="e_fr_energy">   -830.97078281 </i>
    <i name="e_wo_entrp">   -830.91194550 </i>
    <i name="e_0_energy">   -830.94136415 </i>
   </energy>
  </scstep>
  <scstep>
   <time name="dav">   10.60   10.60</time>
   <time name="total">   12.41   12.41</time>
   <energy>
    <i name="e_fr_energy">   -830.86598578 </i>
    <i name="e_wo_entrp">   -830.80706686 </i>
    <i name="e_0_energy">   -830.83652632 </i>
   </energy>
  </scstep>
  <scstep>
   <time name="dav">   10.95   10.95</time>
   <time name="total">   12.76   12.77</time>
   <energy>
    <i name="e_fr_energy">   -830.82600598 </i>
    <i name="e_wo_entrp">   -830.76714805 </i>
    <i name="e_0_energy">   -830.79657702 </i>
   </energy>
  </scstep>
  <scstep>
   <time name="dav">   10.23   10.23</time>
   <time name="total">   12.06   12.07</time>
   <energy>
    <i name="e_fr_energy">   -830.79911295 </i>
    <i name="e_wo_entrp">   -830.74024904 </i>
    <i name="e_0_energy">   -830.76968099 </i>
   </energy>
  </scstep>
  <scstep>
   <time name="dav">   10.02   10.03</time>
   <time name="total">   11.85   11.86</time>
   <energy>
    <i name="e_fr_energy">   -830.79650706 </i>
    <i name="e_wo_entrp">   -830.73756344 </i>
    <i name="e_0_energy">   -830.76703525 </i>
   </energy>
  </scstep>
  <scstep>
   <time name="dav">   10.10   10.10</time>
   <time name="total">   11.94   11.94</time>
   <energy>
    <i name="e_fr_energy">   -830.80803866 </i>
    <i name="e_wo_entrp">   -830.74910478 </i>
    <i name="e_0_energy">   -830.77857172 </i>
   </energy>
  </scstep>
  <scstep>
   <time name="dav">   10.27   10.27</time>
   <time name="total">   12.12   12.12</time>
   <energy>
    <i name="e_fr_energy">   -830.82571133 </i>
    <i name="e_wo_entrp">   -830.76680880 </i>
    <i name="e_0_energy">   -830.79626007 </i>
   </energy>
  </scstep>
  <scstep>
   <time name="dav">   10.20   10.20</time>
   <time name="total">   12.05   12.06</time>
   <energy>
    <i name="e_fr_energy">   -830.84729672 </i>
    <i name="e_wo_entrp">   -830.78837986 </i>
    <i name="e_0_energy">   -830.81783829 </i>
   </energy>
  </scstep>
  <scstep>
   <time name="dav">   10.56   10.57</time>
   <time name="total">   12.44   12.44</time>
   <energy>
    <i name="e_fr_energy">   -830.85473775 </i>
    <i name="e_wo_entrp">   -830.79581206 </i>
    <i name="e_0_energy">   -830.82527491 </i>
   </energy>
  </scstep>
  <scstep>
   <time name="dav">   10.07   10.07</time>
   <time name="total">   11.95   11.95</time>
   <energy>
    <i name="e_fr_energy">   -830.85948933 </i>
    <i name="e_wo_entrp">   -830.80056564 </i>
    <i name="e_0_energy">   -830.83002749 </i>
   </energy>
  </scstep>
  <scstep>
   <time name="dav">   10.24   10.24</time>
   <time name="total">   12.12   12.13</time>
   <energy>
    <i name="e_fr_energy">   -830.86140382 </i>
    <i name="e_wo_entrp">   -830.80247897 </i>
    <i name="e_0_energy">   -830.83194139 </i>
   </energy>
  </scstep>
  <scstep>
   <time name="dav">    9.37    9.37</time>
   <time name="total">   11.26   11.27</time>
   <energy>
    <i name="e_fr_energy">   -830.86238669 </i>
    <i name="e_wo_entrp">   -830.80346427 </i>
    <i name="e_0_energy">   -830.83292548 </i>
   </energy>
  </scstep>
  <scstep>
   <time name="dav">    9.26    9.27</time>
   <time name="total">   11.17   11.18</time>
   <energy>
    <i name="e_fr_energy">   -830.86268955 </i>
    <i name="e_wo_entrp">   -830.80376687 </i>
    <i name="e_0_energy">   -830.83322821 </i>
   </energy>
  </scstep>
  <scstep>
   <time name="dav">    8.44    8.45</time>
   <time name="total">   10.38   10.38</time>
   <energy>
    <i name="e_fr_energy">   -830.86291102 </i>
    <i name="e_wo_entrp">   -830.80398760 </i>
    <i name="e_0_energy">   -830.83344931 </i>
   </energy>
  </scstep>
  <scstep>
   <time name="dav">    7.66    7.66</time>
   <time name="total">    9.59    9.60</time>
   <energy>
    <i name="e_fr_energy">   -830.86296094 </i>
    <i name="e_wo_entrp">   -830.80403756 </i>
    <i name="e_0_energy">   -830.83349925 </i>
   </energy>
  </scstep>
  <scstep>
   <time name="dav">    7.03    7.03</time>
   <time name="total">    8.98    8.98</time>
   <energy>
    <i name="e_fr_energy">   -830.86299520 </i>
    <i name="e_wo_entrp">   -830.80407180 </i>
    <i name="e_0_energy">   -830.83353350 </i>
   </energy>
  </scstep>
  <scstep>
   <time name="dav">    7.33    7.33</time>
   <time name="total">    9.29    9.30</time>
   <energy>
    <i name="e_fr_energy">   -830.86300363 </i>
    <i name="e_wo_entrp">   -830.80408034 </i>
    <i name="e_0_energy">   -830.83354199 </i>
   </energy>
  </scstep>
  <scstep>
   <time name="dav">    6.91    6.91</time>
   <time name="total">    8.89    8.89</time>
   <energy>
    <i name="e_fr_energy">   -830.86301051 </i>
    <i name="e_wo_entrp">   -830.80408723 </i>
    <i name="e_0_energy">   -830.83354887 </i>
   </energy>
  </scstep>
  <scstep>
   <time name="dav">    7.03    7.04</time>
   <time name="total">    9.03    9.04</time>
   <energy>
    <i name="e_fr_energy">   -830.86301359 </i>
    <i name="e_wo_entrp">   -830.80409024 </i>
    <i name="e_0_energy">   -830.83355192 </i>
   </energy>
  </scstep>
  <scstep>
   <time name="dav">    7.17    7.17</time>
   <time name="total">    9.17    9.18</time>
   <energy>
    <i name="e_fr_energy">   -830.86301545 </i>
    <i name="e_wo_entrp">   -830.80409213 </i>
    <i name="e_0_energy">   -830.83355379 </i>
   </energy>
  </scstep>
  <scstep>
   <time name="dav">    7.12    7.12</time>
   <time name="total">    9.14    9.15</time>
   <energy>
    <i name="e_fr_energy">   -830.86301686 </i>
    <i name="e_wo_entrp">   -830.80409354 </i>
    <i name="e_0_energy">   -830.83355520 </i>
   </energy>
  </scstep>
  <scstep>
   <time name="dav">    7.00    7.01</time>
   <time name="total">    7.36    7.37</time>
   <energy>
    <i name="alphaZ">     91.34886789 </i>
    <i name="ewald"> 119684.21953634 </i>
    <i name="hartreedc">-130772.66788466 </i>
    <i name="XCdc">   1278.52393732 </i>
    <i name="pawpsdc">  41020.19450986 </i>
    <i name="pawaedc"> -41084.22786295 </i>
    <i name="eentropy">     -0.05892333 </i>
    <i name="bandstr">  -4585.84999185 </i>
    <i name="atom">  13537.65479391 </i>
    <i name="e_fr_energy">   -830.86301747 </i>
    <i name="e_wo_entrp">   -830.80409414 </i>
    <i name="e_0_energy">   -830.83355580 </i>
   </energy>
  </scstep>
  <structure>
   <crystal>
    <varray name="basis" >
     <v>      28.05000000       0.00000000       0.00000000 </v>
     <v>       0.00000000       8.10000000       0.00000000 </v>
     <v>       0.00000000       0.00000000      33.50000000 </v>
    </varray>
    <i name="volume">   7611.36750000 </i>
    <varray name="rec_basis" >
     <v>       0.03565062       0.00000000       0.00000000 </v>
     <v>       0.00000000       0.12345679       0.00000000 </v>
     <v>       0.00000000       0.00000000       0.02985075 </v>
    </varray>
   </crystal>
   <varray name="positions" >
    <v>       0.55879857       0.92549753       0.09776119 </v>
    <v>       0.55954724       0.09320827       0.09226866 </v>
    <v>       0.60143316       0.84047531       0.10758209 </v>
    <v>       0.60266667       0.17283333       0.10104478 </v>
    <v>       0.64478788       0.92344938       0.11191045 </v>
    <v>       0.64703030       0.09026222       0.10585075 </v>
    <v>       0.68621747       0.84108765       0.12710448 </v>
    <v>       0.69048841       0.17327778       0.11591045 </v>
    <v>       0.72934403       0.92089136       0.13498507 </v>
    <v>       0.73142246       0.08783148       0.12674627 </v>
    <v>       0.77275936       0.84172593       0.14826866 </v>
    <v>       0.77514082       0.17310370       0.13680597 </v>
    <v>       0.81614260       0.92418889       0.15459701 </v>
    <v>       0.81620321       0.08848321       0.15155224 </v>
    <v>       0.85675223       0.84439506       0.17017910 </v>
    <v>       0.85950446       0.17670000       0.16268657 </v>
    <v>       0.90183244       0.92620617       0.17247761 </v>
    <v>       0.90219251       0.09774000       0.17026866 </v>
    <v>       0.94339750       0.84395802       0.18623881 </v>
    <v>       0.94398930       0.18229630       0.17680597 </v>
    <v>       0.98842068       0.92873704       0.18629851 </v>
    <v>       0.98844920       0.09815235       0.17907463 </v>
    <v>       0.03354071       0.84909383       0.18489552 </v>
    <v>       0.03344702       0.18462099       0.17698507 </v>
    <v>       0.07848663       0.92749753       0.17734328 </v>
    <v>       0.07724385       0.09738506       0.17208955 </v>
    <v>       0.12242032       0.84746296       0.17528358 </v>
    <v>       0.12100749       0.18130494       0.16486567 </v>
    <v>       0.16415437       0.92848272       0.16008955 </v>
    <v>       0.16146096       0.09333321       0.15316418 </v>
    <v>       0.20790695       0.84545802       0.15179104 </v>
    <v>       0.20481961       0.17841605       0.14420896 </v>
    <v>       0.24761426       0.92687284       0.13471642 </v>
    <v>       0.24556007       0.09545728       0.12964179 </v>
    <v>       0.28959358       0.84047407       0.12414925 </v>
    <v>       0.28818004       0.17401605       0.11865672 </v>
    <v>       0.33134545       0.92365432       0.11017910 </v>
    <v>       0.32931230       0.09197136       0.10202985 </v>
    <v>       0.37548307       0.84033086       0.10597015 </v>
    <v>       0.37351872       0.17515432       0.09486567 </v>
    <v>       0.41914795       0.91701481       0.09689552 </v>
    <v>       0.41854545       0.08907358       0.09032836 </v>
    <v>       0.46542602       0.83697160       0.09871642 </v>
    <v>       0.46176827       0.17075926       0.08414925 </v>
    <v>       0.50680570       0.92602099       0.09137313 </v>
    <v>       0.50516221       0.09173617       0.08498507 </v>
    <v>       0.55784670       0.42294568       0.10068657 </v>
    <v>       0.55819608       0.59096667       0.10495522 </v>
    <v>       0.60283779       0.34006790       0.10546269 </v>
    <v>       0.59974332       0.67528148       0.11402985 </v>
    <v>       0.64549020       0.42206049       0.11811940 </v>
    <v>       0.64345098       0.58923333       0.12340299 </v>
    <v>       0.68891979       0.34169877       0.12262687 </v>
    <v>       0.68617112       0.67325309       0.13316418 </v>
    <v>       0.73152585       0.42239012       0.13620896 </v>
    <v>       0.72845633       0.58739753       0.14191045 </v>
    <v>       0.77386096       0.33828519       0.14358209 </v>
    <v>       0.77049911       0.67384815       0.15534328 </v>
    <v>       0.81506952       0.42596173       0.15802985 </v>
    <v>       0.81376114       0.59183827       0.16411940 </v>
    <v>       0.85805704       0.34222716       0.16665672 </v>
    <v>       0.85578966       0.67710370       0.17629851 </v>
    <v>       0.90001426       0.42883827       0.18014925 </v>
    <v>       0.89804278       0.59479259       0.18417910 </v>
    <v>       0.94542602       0.35048765       0.18128358 </v>
    <v>       0.94221034       0.67748642       0.19074627 </v>
    <v>       0.98983957       0.43114074       0.18874627 </v>
    <v>       0.98929768       0.60011358       0.19167164 </v>
    <v>       0.03314813       0.35216049       0.18244776 </v>
    <v>       0.03387533       0.68083457       0.19059701 </v>
    <v>       0.07754724       0.42914198       0.18158209 </v>
    <v>       0.07813761       0.59776914       0.18820896 </v>
    <v>       0.12198324       0.34731358       0.17262687 </v>
    <v>       0.12344207       0.68028519       0.18301493 </v>
    <v>       0.16667380       0.42552593       0.16979104 </v>
    <v>       0.16718824       0.59481481       0.17283582 </v>
    <v>       0.20826346       0.34259383       0.15656716 </v>
    <v>       0.20827879       0.67799506       0.16035821 </v>
    <v>       0.25097611       0.42318519       0.14701493 </v>
    <v>       0.25180642       0.59465309       0.15038806 </v>
    <v>       0.29008841       0.34036173       0.12656716 </v>
    <v>       0.29226809       0.67422469       0.13182090 </v>
    <v>       0.33304599       0.41901111       0.11761194 </v>
    <v>       0.33280463       0.59135432       0.11740299 </v>
    <v>       0.37419964       0.34353457       0.10200000 </v>
    <v>       0.37767558       0.67475556       0.11229851 </v>
    <v>       0.41798217       0.42260000       0.09749254 </v>
    <v>       0.42175045       0.58865185       0.10614925 </v>
    <v>       0.46217469       0.33965556       0.09005970 </v>
    <v>       0.46511586       0.67007160       0.10182090 </v>
    <v>       0.50454189       0.41885062       0.09405970 </v>
    <v>       0.50711230       0.58909630       0.09507463 </v>
   </varray>
  </structure>
  <varray name="forces" >
   <v>       1.63108549      -0.24353957      -0.39784726 </v>
   <v>       0.80559252      -0.17620227       0.13373225 </v>
   <v>      -1.67507079       1.52828419      -0.01776188 </v>
   <v>       0.03286184      -0.06516584      -1.15457360 </v>
   <v>       1.09975252      -0.77302960       0.34914912 </v>
   <v>      -0.22076323       0.46425374       0.70899948 </v>
   <v>       0.03242257       0.11682115       0.18970647 </v>
   <v>      -1.18030868       0.00398377      -0.25823227 </v>
   <v>       1.43005855       0.35762535      -0.56876555 </v>
   <v>       1.85077567       0.54946855       0.43207965 </v>
   <v>      -1.77045397      -0.15741762       0.21514108 </v>
   <v>      -0.17146854      -1.74862721       0.89175704 </v>
   <v>      -0.41513670      -1.63755970       0.73801911 </v>
   <v>       1.02798676       3.04833704      -0.93324288 </v>
   <v>       1.14318822       0.61444234      -0.55771342 </v>
   <v>      -1.82200212      -1.32837353      -0.77774409 </v>
   <v>      -0.58055369      -0.15994168       1.47572456 </v>
   <v>      -0.41242905      -1.39792142      -0.25443285 </v>
   <v>       0.38138398       1.62619694      -0.72981244 </v>
   <v>       2.34373999      -0.24015963       0.02055582 </v>
   <v>       0.29348016       0.57943243      -1.20591521 </v>
   <v>       0.58827519       0.00429156       0.36315223 </v>
   <v>       0.38293702       0.20279230       0.80960050 </v>
   <v>      -0.81526305      -2.14762161      -0.03551056 </v>
   <v>      -1.69027290       0.94791565      -0.01299076 </v>
   <v>      -0.17852426       0.57107762      -0.04985732 </v>
   <v>       0.77056943      -0.16853074      -0.25877303 </v>
   <v>      -1.48434594      -0.76144807       0.22609515 </v>
   <v>      -0.25703112      -1.49839188      -0.19778273 </v>
   <v>       1.32166545       1.54365185       0.20194221 </v>
   <v>      -1.12720468       0.25981146       0.49327089 </v>
   <v>      -0.39809937       0.05011928       0.50007341 </v>
   <v>      -0.51297685      -1.07447167      -0.37197797 </v>
   <v>      -0.01863759      -0.27986848       0.40422884 </v>
   <v>       0.60481264       1.15082459       0.42834202 </v>
   <v>       0.04438062       0.31409523      -0.88369708 </v>
   <v>      -0.38889717      -0.42724595      -0.92704543 </v>
   <v>       0.27530247       0.18409003       1.53561397 </v>
   <v>       0.26749101       0.75341592       0.23636174 </v>
   <v>      -0.07049951      -0.91441045       0.24519085 </v>
   <v>       1.09198606       1.83650782      -0.08138368 </v>
   <v>      -1.45913596      -1.21441500      -0.35925110 </v>
   <v>      -1.52302206       2.35754733      -0.49281353 </v>
   <v>       0.51955641       0.50517273       0.54388137 </v>
   <v>      -1.27275030      -1.57034564       0.47724825 </v>
   <v>       0.67739646      -0.11362271      -0.03624598 </v>
   <v>       2.87994157      -1.21570495       0.68456505 </v>
   <v>       0.51014379      -0.51210243      -0.28323683 </v>
   <v>      -1.66103560       1.24571450       0.06773199 </v>
   <v>       0.50677380      -1.68144147       0.16927161 </v>
   <v>      -1.48577782      -0.18250342      -0.50334478 </v>
   <v>      -0.69350571       0.99480010      -0.10812407 </v>
   <v>       1.25861031      -0.37583894      -0.01158131 </v>
   <v>      -1.08483500      -0.60402285      -0.47954808 </v>
   <v>      -1.80796112      -1.12059970      -0.38765278 </v>
   <v>       1.10270197       2.09380650       1.24563915 </v>
   <v>       0.96404385       1.75817964      -0.14717470 </v>
   <v>      -0.27540271      -0.21806148      -1.21480902 </v>
   <v>      -0.10854775      -1.70256050       0.19170445 </v>
   <v>      -0.54844930       0.76553095       0.58293024 </v>
   <v>       0.42253913       1.95162580       0.38201687 </v>
   <v>      -1.12457206      -0.22118906      -0.60024425 </v>
   <v>      -0.01777381      -1.76603719      -0.88640630 </v>
   <v>       1.41667017       0.78333542       0.72150590 </v>
   <v>      -0.76389366       0.32748638       0.68780494 </v>
   <v>       1.51472182      -0.77082359      -0.15560457 </v>
   <v>      -1.34399885      -0.00457637      -0.74359416 </v>
   <v>      -1.48777631      -0.15270725       0.64610566 </v>
   <v>       0.69513656      -0.89394455      -0.25411253 </v>
   <v>      -0.09220488       0.16444538       0.03117109 </v>
   <v>       1.39460306       0.52224418       0.45324924 </v>
   <v>       1.21789655       0.12405985      -0.26875156 </v>
   <v>      -0.68680508       0.35805902       0.00513165 </v>
   <v>       0.01872589      -0.90201381      -0.78815221 </v>
   <v>      -0.12612576      -0.02658892       0.04834440 </v>
   <v>      -1.02849813       0.77509585       0.91643206 </v>
   <v>      -0.30938923      -0.67386467      -1.15816491 </v>
   <v>       1.95452910       0.11078792      -0.27058735 </v>
   <v>       0.91271724       0.11758413      -0.42569771 </v>
   <v>       0.39473603      -0.34573364      -1.09598195 </v>
   <v>      -0.45649393       0.32888515       0.85334890 </v>
   <v>      -1.05959513      -0.20400767       0.23637087 </v>
   <v>       0.02055619       1.63143350      -0.90705844 </v>
   <v>       1.53104543      -0.52129192       1.86729457 </v>
   <v>      -0.19692500      -1.04801111      -0.30607299 </v>
   <v>      -0.86831827      -1.70432714      -0.49602613 </v>
   <v>       1.51575355       0.58864211       0.50989825 </v>
   <v>      -1.82630320       0.06013543      -0.24963835 </v>
   <v>      -1.01358183      -0.07593328      -0.27970105 </v>
   <v>       0.45515251      -0.11907838      -0.06858833 </v>
   <v>       1.58250914       1.14269123      -0.71089758 </v>
   <v>      -1.37359095      -0.27342733       1.44373965 </v>
  </varray>
  <varray name="stress" >
   <v>      -2.64731486       0.02038373       0.16186365 </v>
   <v>       0.02038373      52.18572973      -0.42789262 </v>
   <v>       0.16186364      -0.42789263      -1.15118557 </v>
  </varray>
  <energy>
   <i name="e_fr_energy">   -830.86301747 </i>
   <i name="e_wo_entrp">   -830.80409414 </i>
   <i name="e_0_energy">   -830.83355580 </i>
  </energy>
  <time name="totalsc">  333.25  333.47</time>
  <eigenvalues>
   <array>
    <dimension dim="1">band</dimension>
    <dimension dim="2">kpoint</dimension>
    <dimension dim="3">spin</dimension>
    <field>eigene</field>
    <field>occ</field>
    <set>
     <set comment="spin 1">
      <set comment="kpoint 1">
       <r>  -23.1695    1.0000 </r>
       <r>  -23.0443    1.0000 </r>
       <r>  -22.9677    1.0000 </r>
       <r>  -22.6404    1.0000 </r>
       <r>  -22.6053    1.0000 </r>
       <r>  -22.3184    1.0000 </r>
       <r>  -22.0444    1.0000 </r>
       <r>  -21.9458    1.0000 </r>
       <r>  -21.4944    1.0000 </r>
       <r>  -21.4632    1.0000 </r>
       <r>  -21.3762    1.0000 </r>
       <r>  -21.3635    1.0000 </r>
       <r>  -21.2502    1.0000 </r>
       <r>  -21.2141    1.0000 </r>
       <r>  -21.0870    1.0000 </r>
       <r>  -21.0755    1.0000 </r>
       <r>  -21.0204    1.0000 </r>
       <r>  -20.9673    1.0000 </r>
       <r>  -20.7796    1.0000 </r>
       <r>  -20.5452    1.0000 </r>
       <r>  -20.3899    1.0000 </r>
       <r>  -20.3374    1.0000 </r>
       <r>  -20.1199    1.0000 </r>
       <r>  -20.1108    1.0000 </r>
       <r>  -19.9640    1.0000 </r>
       <r>  -19.6943    1.0000 </r>
       <r>  -19.5402    1.0000 </r>
       <r>  -19.4756    1.0000 </r>
       <r>  -19.2101    1.0000 </r>
       <r>  -18.9220    1.0000 </r>
       <r>  -18.6896    1.0000 </r>
       <r>  -18.6360    1.0000 </r>
       <r>  -18.5458    1.0000 </r>
       <r>  -18.3927    1.0000 </r>
       <r>  -18.1850    1.0000 </r>
       <r>  -17.6050    1.0000 </r>
       <r>  -17.4069    1.0000 </r>
       <r>  -17.1847    1.0000 </r>
       <r>  -17.0266    1.0000 </r>
       <r>  -16.9484    1.0000 </r>
       <r>  -16.8362    1.0000 </r>
       <r>  -16.7495    1.0000 </r>
       <r>  -16.6887    1.0000 </r>
       <r>  -16.6196    1.0000 </r>
       <r>  -16.5735    1.0000 </r>
       <r>  -16.5335    1.0000 </r>
       <r>  -16.4873    1.0000 </r>
       <r>  -16.4590    1.0000 </r>
       <r>  -16.3697    1.0000 </r>
       <r>  -16.3277    1.0000 </r>
       <r>  -16.3167    1.0000 </r>
       <r>  -16.1535    1.0000 </r>
       <r>  -16.0764    1.0000 </r>
       <r>  -16.0547    1.0000 </r>
       <r>  -15.9055    1.0000 </r>
       <r>  -15.5880    1.0000 </r>
       <r>  -15.4626    1.0000 </r>
       <r>  -15.4016    1.0000 </r>
       <r>  -15.3242    1.0000 </r>
       <r>  -15.2360    1.0000 </r>
       <r>  -15.1106    1.0000 </r>
       <r>  -14.9361    1.0000 </r>
       <r>  -14.3572    1.0000 </r>
       <r>  -14.1285    1.0000 </r>
       <r>  -14.0963    1.0000 </r>
       <r>  -14.0254    1.0000 </r>
       <r>  -13.8976    1.0000 </r>
       <r>  -13.7769    1.0000 </r>
       <r>  -13.6823    1.0000 </r>
       <r>  -13.6385    1.0000 </r>
       <r>  -13.4458    1.0000 </r>
       <r>  -13.3634    1.0000 </r>
       <r>  -13.2927    1.0000 </r>
       <r>  -13.1715    1.0000 </r>
       <r>  -12.9738    1.0000 </r>
       <r>  -12.8959    1.0000 </r>
       <r>  -12.6868    1.0000 </r>
       <r>  -12.4212    1.0000 </r>
       <r>  -12.1255    1.0000 </r>
       <r>  -12.0927    1.0000 </r>
       <r>  -12.0706    1.0000 </r>
       <r>  -12.0368    1.0000 </r>
       <r>  -11.8550    1.0000 </r>
       <r>  -11.7872    1.0000 </r>
       <r>  -11.6623    1.0000 </r>
       <r>  -11.5107    1.0000 </r>
       <r>  -11.3597    1.0000 </r>
       <r>  -11.2018    1.0000 </r>
       <r>  -11.1191    1.0000 </r>
       <r>  -11.0590    1.0000 </r>
       <r>  -10.9543    1.0000 </r>
       <r>  -10.8683    1.0000 </r>
       <r>  -10.7826    1.0000 </r>
       <r>  -10.7632    1.0000 </r>
       <r>  -10.7216    1.0000 </r>
       <r>  -10.6331    1.0000 </r>
       <r>  -10.5744    1.0000 </r>
       <r>  -10.5400    1.0000 </r>
       <r>  -10.4761    1.0000 </r>
       <r>  -10.3407    1.0000 </r>
       <r>  -10.3337    1.0000 </r>
       <r>  -10.2935    1.0000 </r>
       <r>  -10.2744    1.0000 </r>
       <r>  -10.2300    1.0000 </r>
       <r>  -10.1412    1.0000 </r>
       <r>  -10.0323    1.0000 </r>
       <r>   -9.8878    1.0000 </r>
       <r>   -9.8602    1.0000 </r>
       <r>   -9.7522    1.0000 </r>
       <r>   -9.6699    1.0000 </r>
       <r>   -9.6518    1.0000 </r>
       <r>   -9.5994    1.0000 </r>
       <r>   -9.5937    1.0000 </r>
       <r>   -9.5721    1.0000 </r>
       <r>   -9.5554    1.0000 </r>
       <r>   -9.5278    1.0000 </r>
       <r>   -9.5170    1.0000 </r>
       <r>   -9.4946    1.0000 </r>
       <r>   -9.4700    1.0000 </r>
       <r>   -9.4444    1.0000 </r>
       <r>   -9.4169    1.0000 </r>
       <r>   -9.3895    1.0000 </r>
       <r>   -9.3621    1.0000 </r>
       <r>   -9.3261    1.0000 </r>
       <r>   -9.3119    1.0000 </r>
       <r>   -9.2909    1.0000 </r>
       <r>   -9.2646    1.0000 </r>
       <r>   -9.1549    1.0000 </r>
       <r>   -9.1076    1.0000 </r>
       <r>   -9.0729    1.0000 </r>
       <r>   -9.0401    1.0000 </r>
       <r>   -8.9907    1.0000 </r>
       <r>   -8.9537    1.0000 </r>
       <r>   -8.9029    1.0000 </r>
       <r>   -8.8968    1.0000 </r>
       <r>   -8.8537    1.0000 </r>
       <r>   -8.8060    1.0000 </r>
       <r>   -8.8025    1.0000 </r>
       <r>   -8.7607    1.0000 </r>
       <r>   -8.7101    1.0000 </r>
       <r>   -8.6378    1.0000 </r>
       <r>   -8.6182    1.0000 </r>
       <r>   -8.5973    1.0000 </r>
       <r>   -8.5806    1.0000 </r>
       <r>   -8.4606    1.0000 </r>
       <r>   -8.3329    1.0000 </r>
       <r>   -8.0758    1.0000 </r>
       <r>   -8.0274    1.0000 </r>
       <r>   -7.9257    1.0000 </r>
       <r>   -7.8298    1.0000 </r>
       <r>   -7.7580    1.0000 </r>
       <r>   -7.6930    1.0000 </r>
       <r>   -7.5951    1.0000 </r>
       <r>   -7.4830    1.0000 </r>
       <r>   -7.4362    1.0000 </r>
       <r>   -7.3971    1.0000 </r>
       <r>   -7.3155    1.0000 </r>
       <r>   -7.1397    1.0000 </r>
       <r>   -7.0716    1.0000 </r>
       <r>   -6.9055    1.0000 </r>
       <r>   -6.8102    1.0000 </r>
       <r>   -6.7736    1.0000 </r>
       <r>   -6.6405    1.0000 </r>
       <r>   -6.5580    1.0000 </r>
       <r>   -6.4494    1.0000 </r>
       <r>   -6.2800    1.0000 </r>
       <r>   -6.2302    1.0000 </r>
       <r>   -6.1252    1.0000 </r>
       <r>   -6.0831    1.0000 </r>
       <r>   -6.0222    1.0000 </r>
       <r>   -5.9555    1.0000 </r>
       <r>   -5.9094    1.0000 </r>
       <r>   -5.8757    1.0000 </r>
       <r>   -5.0245    1.0000 </r>
       <r>   -4.8946    1.0000 </r>
       <r>   -4.8535    1.0000 </r>
       <r>   -4.7611    1.0000 </r>
       <r>   -4.5357    1.0000 </r>
       <r>   -4.5061    1.0000 </r>
       <r>   -4.4331    1.0000 </r>
       <r>   -4.3430    1.0000 </r>
       <r>   -3.7037    0.9999 </r>
       <r>   -3.6227    0.9993 </r>
       <r>   -3.1869    0.5524 </r>
       <r>   -3.1469    0.4399 </r>
       <r>   -2.6918    0.0004 </r>
       <r>   -2.5715    0.0000 </r>
       <r>   -2.4117    0.0000 </r>
       <r>   -2.2476    0.0000 </r>
       <r>   -2.1643    0.0000 </r>
       <r>   -1.7528    0.0000 </r>
       <r>   -1.7097    0.0000 </r>
       <r>   -1.6015    0.0000 </r>
       <r>   -1.4303    0.0000 </r>
       <r>   -1.3863    0.0000 </r>
       <r>   -1.3788    0.0000 </r>
       <r>   -1.2769    0.0000 </r>
       <r>   -1.2155    0.0000 </r>
       <r>   -0.8198    0.0000 </r>
       <r>   -0.6178    0.0000 </r>
       <r>   -0.4688    0.0000 </r>
       <r>   -0.4499    0.0000 </r>
       <r>   -0.1065    0.0000 </r>
       <r>    0.0445    0.0000 </r>
       <r>    0.1385    0.0000 </r>
       <r>    0.2042    0.0000 </r>
       <r>    0.3318    0.0000 </r>
       <r>    0.5959    0.0000 </r>
       <r>    0.6360    0.0000 </r>
       <r>    0.6758    0.0000 </r>
       <r>    0.7057    0.0000 </r>
       <r>    0.8837    0.0000 </r>
       <r>    0.9042    0.0000 </r>
       <r>    0.9198    0.0000 </r>
       <r>    0.9573    0.0000 </r>
       <r>    0.9865    0.0000 </r>
       <r>    1.0739    0.0000 </r>
       <r>    1.1510    0.0000 </r>
       <r>    1.1599    0.0000 </r>
       <r>    1.2216    0.0000 </r>
       <r>    1.3038    0.0000 </r>
       <r>    1.3082    0.0000 </r>
       <r>    1.3283    0.0000 </r>
       <r>    1.4090    0.0000 </r>
       <r>    1.4620    0.0000 </r>
       <r>    1.5503    0.0000 </r>
       <r>    1.5645    0.0000 </r>
       <r>    1.7140    0.0000 </r>
       <r>    1.7211    0.0000 </r>
       <r>    1.7330    0.0000 </r>
       <r>    1.7337    0.0000 </r>
       <r>    1.7835    0.0000 </r>
      </set>
      <set comment="kpoint 2">
       <r>  -23.0815    1.0000 </r>
       <r>  -22.9482    1.0000 </r>
       <r>  -22.8672    1.0000 </r>
       <r>  -22.5515    1.0000 </r>
       <r>  -22.5179    1.0000 </r>
       <r>  -22.4818    1.0000 </r>
       <r>  -22.1664    1.0000 </r>
       <r>  -22.0651    1.0000 </r>
       <r>  -21.9424    1.0000 </r>
       <r>  -21.8526    1.0000 </r>
       <r>  -21.7920    1.0000 </r>
       <r>  -21.7095    1.0000 </r>
       <r>  -21.2654    1.0000 </r>
       <r>  -21.0962    1.0000 </r>
       <r>  -21.0553    1.0000 </r>
       <r>  -20.9705    1.0000 </r>
       <r>  -20.6113    1.0000 </r>
       <r>  -20.5254    1.0000 </r>
       <r>  -20.4770    1.0000 </r>
       <r>  -20.2778    1.0000 </r>
       <r>  -20.1905    1.0000 </r>
       <r>  -20.1194    1.0000 </r>
       <r>  -20.0561    1.0000 </r>
       <r>  -19.8883    1.0000 </r>
       <r>  -19.8589    1.0000 </r>
       <r>  -19.5286    1.0000 </r>
       <r>  -19.4803    1.0000 </r>
       <r>  -19.1082    1.0000 </r>
       <r>  -19.0562    1.0000 </r>
       <r>  -18.8804    1.0000 </r>
       <r>  -18.6725    1.0000 </r>
       <r>  -18.5599    1.0000 </r>
       <r>  -18.5359    1.0000 </r>
       <r>  -18.2812    1.0000 </r>
       <r>  -18.1738    1.0000 </r>
       <r>  -18.0723    1.0000 </r>
       <r>  -18.0311    1.0000 </r>
       <r>  -17.9818    1.0000 </r>
       <r>  -17.8585    1.0000 </r>
       <r>  -17.7329    1.0000 </r>
       <r>  -17.4800    1.0000 </r>
       <r>  -17.4289    1.0000 </r>
       <r>  -17.3085    1.0000 </r>
       <r>  -17.1275    1.0000 </r>
       <r>  -17.0467    1.0000 </r>
       <r>  -16.5460    1.0000 </r>
       <r>  -16.4430    1.0000 </r>
       <r>  -16.1665    1.0000 </r>
       <r>  -16.0790    1.0000 </r>
       <r>  -15.8347    1.0000 </r>
       <r>  -15.7944    1.0000 </r>
       <r>  -15.6132    1.0000 </r>
       <r>  -15.5502    1.0000 </r>
       <r>  -15.3446    1.0000 </r>
       <r>  -15.3198    1.0000 </r>
       <r>  -15.2487    1.0000 </r>
       <r>  -15.1385    1.0000 </r>
       <r>  -15.0865    1.0000 </r>
       <r>  -15.0170    1.0000 </r>
       <r>  -14.9372    1.0000 </r>
       <r>  -14.9001    1.0000 </r>
       <r>  -14.7632    1.0000 </r>
       <r>  -14.5546    1.0000 </r>
       <r>  -14.4351    1.0000 </r>
       <r>  -14.3354    1.0000 </r>
       <r>  -14.0791    1.0000 </r>
       <r>  -13.9507    1.0000 </r>
       <r>  -13.8419    1.0000 </r>
       <r>  -13.3414    1.0000 </r>
       <r>  -13.1984    1.0000 </r>
       <r>  -13.1783    1.0000 </r>
       <r>  -13.1582    1.0000 </r>
       <r>  -12.9574    1.0000 </r>
       <r>  -12.8161    1.0000 </r>
       <r>  -12.7890    1.0000 </r>
       <r>  -12.7337    1.0000 </r>
       <r>  -12.6106    1.0000 </r>
       <r>  -12.5487    1.0000 </r>
       <r>  -12.3412    1.0000 </r>
       <r>  -12.3228    1.0000 </r>
       <r>  -12.1622    1.0000 </r>
       <r>  -12.1227    1.0000 </r>
       <r>  -12.0561    1.0000 </r>
       <r>  -11.9973    1.0000 </r>
       <r>  -11.7683    1.0000 </r>
       <r>  -11.6244    1.0000 </r>
       <r>  -11.4615    1.0000 </r>
       <r>  -11.3339    1.0000 </r>
       <r>  -11.2626    1.0000 </r>
       <r>  -11.2254    1.0000 </r>
       <r>  -11.0177    1.0000 </r>
       <r>  -11.0080    1.0000 </r>
       <r>  -10.9720    1.0000 </r>
       <r>  -10.9245    1.0000 </r>
       <r>  -10.8787    1.0000 </r>
       <r>  -10.8453    1.0000 </r>
       <r>  -10.8244    1.0000 </r>
       <r>  -10.8089    1.0000 </r>
       <r>  -10.7488    1.0000 </r>
       <r>  -10.6231    1.0000 </r>
       <r>  -10.5813    1.0000 </r>
       <r>  -10.4810    1.0000 </r>
       <r>  -10.4457    1.0000 </r>
       <r>  -10.3890    1.0000 </r>
       <r>  -10.3470    1.0000 </r>
       <r>  -10.3294    1.0000 </r>
       <r>  -10.2647    1.0000 </r>
       <r>  -10.1252    1.0000 </r>
       <r>  -10.0924    1.0000 </r>
       <r>  -10.0362    1.0000 </r>
       <r>   -9.9360    1.0000 </r>
       <r>   -9.9120    1.0000 </r>
       <r>   -9.8709    1.0000 </r>
       <r>   -9.7973    1.0000 </r>
       <r>   -9.7369    1.0000 </r>
       <r>   -9.6747    1.0000 </r>
       <r>   -9.6233    1.0000 </r>
       <r>   -9.6044    1.0000 </r>
       <r>   -9.5423    1.0000 </r>
       <r>   -9.5277    1.0000 </r>
       <r>   -9.5080    1.0000 </r>
       <r>   -9.4501    1.0000 </r>
       <r>   -9.4348    1.0000 </r>
       <r>   -9.3421    1.0000 </r>
       <r>   -9.2822    1.0000 </r>
       <r>   -9.2129    1.0000 </r>
       <r>   -9.0271    1.0000 </r>
       <r>   -8.9157    1.0000 </r>
       <r>   -8.8993    1.0000 </r>
       <r>   -8.8225    1.0000 </r>
       <r>   -8.7798    1.0000 </r>
       <r>   -8.7353    1.0000 </r>
       <r>   -8.6820    1.0000 </r>
       <r>   -8.6435    1.0000 </r>
       <r>   -8.5748    1.0000 </r>
       <r>   -8.5614    1.0000 </r>
       <r>   -8.5026    1.0000 </r>
       <r>   -8.4270    1.0000 </r>
       <r>   -8.3846    1.0000 </r>
       <r>   -8.3218    1.0000 </r>
       <r>   -8.1990    1.0000 </r>
       <r>   -8.1688    1.0000 </r>
       <r>   -8.1187    1.0000 </r>
       <r>   -8.0790    1.0000 </r>
       <r>   -8.0579    1.0000 </r>
       <r>   -7.9937    1.0000 </r>
       <r>   -7.9483    1.0000 </r>
       <r>   -7.8611    1.0000 </r>
       <r>   -7.7674    1.0000 </r>
       <r>   -7.7339    1.0000 </r>
       <r>   -7.6845    1.0000 </r>
       <r>   -7.6049    1.0000 </r>
       <r>   -7.5468    1.0000 </r>
       <r>   -7.4607    1.0000 </r>
       <r>   -7.3533    1.0000 </r>
       <r>   -7.3107    1.0000 </r>
       <r>   -7.2776    1.0000 </r>
       <r>   -6.9850    1.0000 </r>
       <r>   -6.9414    1.0000 </r>
       <r>   -6.8903    1.0000 </r>
       <r>   -6.7864    1.0000 </r>
       <r>   -6.7152    1.0000 </r>
       <r>   -6.6386    1.0000 </r>
       <r>   -6.5827    1.0000 </r>
       <r>   -6.5194    1.0000 </r>
       <r>   -6.3485    1.0000 </r>
       <r>   -6.2995    1.0000 </r>
       <r>   -6.1416    1.0000 </r>
       <r>   -6.1008    1.0000 </r>
       <r>   -5.9841    1.0000 </r>
       <r>   -5.9328    1.0000 </r>
       <r>   -5.7907    1.0000 </r>
       <r>   -5.7358    1.0000 </r>
       <r>   -5.6311    1.0000 </r>
       <r>   -5.5179    1.0000 </r>
       <r>   -5.4806    1.0000 </r>
       <r>   -5.1813    1.0000 </r>
       <r>   -5.0774    1.0000 </r>
       <r>   -4.7401    1.0000 </r>
       <r>   -4.6853    1.0000 </r>
       <r>   -4.6291    1.0000 </r>
       <r>   -4.4981    1.0000 </r>
       <r>   -4.4171    1.0000 </r>
       <r>   -3.5936    0.9987 </r>
       <r>   -2.8072    0.0053 </r>
       <r>   -2.4288    0.0000 </r>
       <r>   -2.0951    0.0000 </r>
       <r>   -2.0643    0.0000 </r>
       <r>   -1.5859    0.0000 </r>
       <r>   -1.4785    0.0000 </r>
       <r>   -1.3918    0.0000 </r>
       <r>   -1.3673    0.0000 </r>
       <r>   -1.3296    0.0000 </r>
       <r>   -1.2925    0.0000 </r>
       <r>   -1.0694    0.0000 </r>
       <r>   -1.0380    0.0000 </r>
       <r>   -0.9949    0.0000 </r>
       <r>   -0.9442    0.0000 </r>
       <r>   -0.8321    0.0000 </r>
       <r>   -0.5856    0.0000 </r>
       <r>   -0.2282    0.0000 </r>
       <r>   -0.1557    0.0000 </r>
       <r>   -0.0703    0.0000 </r>
       <r>    0.0479    0.0000 </r>
       <r>    0.1369    0.0000 </r>
       <r>    0.2054    0.0000 </r>
       <r>    0.2590    0.0000 </r>
       <r>    0.3087    0.0000 </r>
       <r>    0.3524    0.0000 </r>
       <r>    0.7788    0.0000 </r>
       <r>    0.7951    0.0000 </r>
       <r>    0.8443    0.0000 </r>
       <r>    1.0385    0.0000 </r>
       <r>    1.0557    0.0000 </r>
       <r>    1.0617    0.0000 </r>
       <r>    1.1081    0.0000 </r>
       <r>    1.1317    0.0000 </r>
       <r>    1.2217    0.0000 </r>
       <r>    1.2943    0.0000 </r>
       <r>    1.3024    0.0000 </r>
       <r>    1.3637    0.0000 </r>
       <r>    1.3925    0.0000 </r>
       <r>    1.4238    0.0000 </r>
       <r>    1.4457    0.0000 </r>
       <r>    1.4507    0.0000 </r>
       <r>    1.4696    0.0000 </r>
       <r>    1.5510    0.0000 </r>
       <r>    1.5602    0.0000 </r>
       <r>    1.6022    0.0000 </r>
       <r>    1.6636    0.0000 </r>
       <r>    1.7000    0.0000 </r>
       <r>    1.7144    0.0000 </r>
      </set>
      <set comment="kpoint 3">
       <r>  -22.8637    1.0000 </r>
       <r>  -22.8029    1.0000 </r>
       <r>  -22.6810    1.0000 </r>
       <r>  -22.6327    1.0000 </r>
       <r>  -22.5807    1.0000 </r>
       <r>  -22.5474    1.0000 </r>
       <r>  -22.2874    1.0000 </r>
       <r>  -22.2287    1.0000 </r>
       <r>  -22.2111    1.0000 </r>
       <r>  -22.1967    1.0000 </r>
       <r>  -21.7214    1.0000 </r>
       <r>  -21.6371    1.0000 </r>
       <r>  -21.5634    1.0000 </r>
       <r>  -21.5273    1.0000 </r>
       <r>  -20.8944    1.0000 </r>
       <r>  -20.8198    1.0000 </r>
       <r>  -20.6805    1.0000 </r>
       <r>  -20.6750    1.0000 </r>
       <r>  -19.9047    1.0000 </r>
       <r>  -19.8981    1.0000 </r>
       <r>  -19.6162    1.0000 </r>
       <r>  -19.5828    1.0000 </r>
       <r>  -19.5211    1.0000 </r>
       <r>  -19.4850    1.0000 </r>
       <r>  -19.4214    1.0000 </r>
       <r>  -19.3833    1.0000 </r>
       <r>  -19.2734    1.0000 </r>
       <r>  -19.2352    1.0000 </r>
       <r>  -19.0992    1.0000 </r>
       <r>  -19.0424    1.0000 </r>
       <r>  -18.9560    1.0000 </r>
       <r>  -18.8740    1.0000 </r>
       <r>  -18.6247    1.0000 </r>
       <r>  -18.6065    1.0000 </r>
       <r>  -18.4991    1.0000 </r>
       <r>  -18.4319    1.0000 </r>
       <r>  -18.3234    1.0000 </r>
       <r>  -18.2392    1.0000 </r>
       <r>  -18.1443    1.0000 </r>
       <r>  -18.1060    1.0000 </r>
       <r>  -17.7182    1.0000 </r>
       <r>  -17.7127    1.0000 </r>
       <r>  -17.6477    1.0000 </r>
       <r>  -17.6236    1.0000 </r>
       <r>  -16.9831    1.0000 </r>
       <r>  -16.9252    1.0000 </r>
       <r>  -16.2621    1.0000 </r>
       <r>  -16.1849    1.0000 </r>
       <r>  -16.0517    1.0000 </r>
       <r>  -15.9812    1.0000 </r>
       <r>  -15.9076    1.0000 </r>
       <r>  -15.8384    1.0000 </r>
       <r>  -15.2963    1.0000 </r>
       <r>  -15.2047    1.0000 </r>
       <r>  -15.0824    1.0000 </r>
       <r>  -15.0650    1.0000 </r>
       <r>  -14.8442    1.0000 </r>
       <r>  -14.8257    1.0000 </r>
       <r>  -14.6765    1.0000 </r>
       <r>  -14.6531    1.0000 </r>
       <r>  -13.9984    1.0000 </r>
       <r>  -13.9106    1.0000 </r>
       <r>  -13.8104    1.0000 </r>
       <r>  -13.7586    1.0000 </r>
       <r>  -13.7334    1.0000 </r>
       <r>  -13.7015    1.0000 </r>
       <r>  -13.6557    1.0000 </r>
       <r>  -13.6235    1.0000 </r>
       <r>  -13.6021    1.0000 </r>
       <r>  -13.5737    1.0000 </r>
       <r>  -13.5317    1.0000 </r>
       <r>  -13.4750    1.0000 </r>
       <r>  -13.3738    1.0000 </r>
       <r>  -13.3410    1.0000 </r>
       <r>  -13.1807    1.0000 </r>
       <r>  -13.1525    1.0000 </r>
       <r>  -12.3636    1.0000 </r>
       <r>  -12.2896    1.0000 </r>
       <r>  -12.1745    1.0000 </r>
       <r>  -12.1580    1.0000 </r>
       <r>  -12.1266    1.0000 </r>
       <r>  -12.0675    1.0000 </r>
       <r>  -11.9550    1.0000 </r>
       <r>  -11.9161    1.0000 </r>
       <r>  -11.8773    1.0000 </r>
       <r>  -11.8238    1.0000 </r>
       <r>  -11.7709    1.0000 </r>
       <r>  -11.7085    1.0000 </r>
       <r>  -11.6377    1.0000 </r>
       <r>  -11.6167    1.0000 </r>
       <r>  -11.2930    1.0000 </r>
       <r>  -11.2755    1.0000 </r>
       <r>  -11.1832    1.0000 </r>
       <r>  -11.1464    1.0000 </r>
       <r>  -11.0463    1.0000 </r>
       <r>  -10.9774    1.0000 </r>
       <r>  -10.7444    1.0000 </r>
       <r>  -10.6850    1.0000 </r>
       <r>  -10.6790    1.0000 </r>
       <r>  -10.6417    1.0000 </r>
       <r>  -10.5545    1.0000 </r>
       <r>  -10.5077    1.0000 </r>
       <r>  -10.5025    1.0000 </r>
       <r>  -10.4853    1.0000 </r>
       <r>  -10.4436    1.0000 </r>
       <r>  -10.3994    1.0000 </r>
       <r>  -10.3714    1.0000 </r>
       <r>  -10.2826    1.0000 </r>
       <r>  -10.2532    1.0000 </r>
       <r>  -10.1995    1.0000 </r>
       <r>  -10.1821    1.0000 </r>
       <r>  -10.1451    1.0000 </r>
       <r>  -10.0865    1.0000 </r>
       <r>  -10.0451    1.0000 </r>
       <r>  -10.0382    1.0000 </r>
[...]
       <r>   -22.6602    14.6747     6.9074 </r>
       <r>   -22.5637    16.6910     8.5183 </r>
       <r>   -22.4672    16.5660    10.1171 </r>
       <r>   -22.3707    14.3012    11.4973 </r>
       <r>   -22.2742    12.8952    12.7418 </r>
       <r>   -22.1777    13.3298    14.0282 </r>
       <r>   -22.0811    13.9904    15.3784 </r>
       <r>   -21.9846    14.1044    16.7397 </r>
       <r>   -21.8881    14.1368    18.1040 </r>
       <r>   -21.7916    14.1150    19.4662 </r>
       <r>   -21.6951    13.5545    20.7744 </r>
       <r>   -21.5986    12.4825    21.9791 </r>
       <r>   -21.5021    11.5697    23.0957 </r>
       <r>   -21.4056    11.3371    24.1898 </r>
       <r>   -21.3091    11.9766    25.3457 </r>
       <r>   -21.2126    13.5834    26.6566 </r>
       <r>   -21.1160    15.7616    28.1778 </r>
       <r>   -21.0195    16.9942    29.8179 </r>
       <r>   -20.9230    15.8103    31.3437 </r>
       <r>   -20.8265    13.1918    32.6169 </r>
       <r>   -20.7300    11.7111    33.7471 </r>
       <r>   -20.6335    12.2741    34.9317 </r>
       <r>   -20.5370    13.4075    36.2256 </r>
       <r>   -20.4405    13.5441    37.5328 </r>
       <r>   -20.3440    13.0886    38.7959 </r>
       <r>   -20.2475    13.5086    40.0997 </r>
       <r>   -20.1509    14.9191    41.5395 </r>
       <r>   -20.0544    15.9905    43.0827 </r>
       <r>   -19.9579    15.8588    44.6133 </r>
       <r>   -19.8614    14.5251    46.0151 </r>
       <r>   -19.7649    12.6720    47.2381 </r>
       <r>   -19.6684    12.3716    48.4321 </r>
       <r>   -19.5719    14.7047    49.8512 </r>
       <r>   -19.4754    16.9441    51.4865 </r>
       <r>   -19.3789    16.1337    53.0435 </r>
       <r>   -19.2824    13.6846    54.3642 </r>
       <r>   -19.1858    12.7746    55.5971 </r>
       <r>   -19.0893    13.6701    56.9164 </r>
       <r>   -18.9928    14.3262    58.2990 </r>
       <r>   -18.8963    13.7016    59.6214 </r>
       <r>   -18.7998    13.0188    60.8778 </r>
       <r>   -18.7033    14.1948    62.2478 </r>
       <r>   -18.6068    16.8297    63.8720 </r>
       <r>   -18.5103    18.0464    65.6136 </r>
       <r>   -18.4138    16.8305    67.2380 </r>
       <r>   -18.3173    15.5892    68.7425 </r>
       <r>   -18.2207    16.1477    70.3009 </r>
       <r>   -18.1242    17.3095    71.9714 </r>
       <r>   -18.0277    16.9698    73.6092 </r>
       <r>   -17.9312    14.9155    75.0487 </r>
       <r>   -17.8347    13.0166    76.3049 </r>
       <r>   -17.7382    12.6303    77.5239 </r>
       <r>   -17.6417    12.9393    78.7726 </r>
       <r>   -17.5452    12.8249    80.0104 </r>
       <r>   -17.4487    12.3306    81.2004 </r>
       <r>   -17.3522    11.5730    82.3173 </r>
       <r>   -17.2556    10.7952    83.3591 </r>
       <r>   -17.1591    10.8934    84.4105 </r>
       <r>   -17.0626    11.8223    85.5514 </r>
       <r>   -16.9661    12.0556    86.7149 </r>
       <r>   -16.8696    10.8623    87.7632 </r>
       <r>   -16.7731     9.6537    88.6949 </r>
       <r>   -16.6766    10.2667    89.6857 </r>
       <r>   -16.5801    12.7165    90.9130 </r>
       <r>   -16.4836    15.0820    92.3686 </r>
       <r>   -16.3871    15.7680    93.8903 </r>
       <r>   -16.2905    15.4871    95.3850 </r>
       <r>   -16.1940    15.8687    96.9165 </r>
       <r>   -16.0975    16.7900    98.5369 </r>
       <r>   -16.0010    16.8881   100.1668 </r>
       <r>   -15.9045    15.8992   101.7012 </r>
       <r>   -15.8080    14.3896   103.0899 </r>
       <r>   -15.7115    12.8120   104.3264 </r>
       <r>   -15.6150    12.0529   105.4896 </r>
       <r>   -15.5185    12.7843   106.7235 </r>
       <r>   -15.4220    14.9880   108.1700 </r>
       <r>   -15.3254    18.1777   109.9243 </r>
       <r>   -15.2289    20.9675   111.9479 </r>
       <r>   -15.1324    22.2335   114.0936 </r>
       <r>   -15.0359    22.0151   116.2183 </r>
       <r>   -14.9394    20.5216   118.1988 </r>
       <r>   -14.8429    17.8932   119.9257 </r>
       <r>   -14.7464    14.6978   121.3442 </r>
       <r>   -14.6499    11.9151   122.4941 </r>
       <r>   -14.5534    10.2981   123.4880 </r>
       <r>   -14.4569     9.7658   124.4305 </r>
       <r>   -14.3603     9.5020   125.3475 </r>
       <r>   -14.2638     9.1378   126.2294 </r>
       <r>   -14.1673     9.7447   127.1699 </r>
       <r>   -14.0708    12.1615   128.3436 </r>
       <r>   -13.9743    15.2633   129.8166 </r>
       <r>   -13.8778    17.5959   131.5148 </r>
       <r>   -13.7813    18.8889   133.3378 </r>
       <r>   -13.6848    19.1753   135.1884 </r>
       <r>   -13.5883    18.3303   136.9574 </r>
       <r>   -13.4918    17.1113   138.6088 </r>
       <r>   -13.3952    17.0826   140.2575 </r>
       <r>   -13.2987    18.5525   142.0480 </r>
       <r>   -13.2022    19.7059   143.9498 </r>
       <r>   -13.1057    18.5513   145.7402 </r>
       <r>   -13.0092    15.7724   147.2624 </r>
       <r>   -12.9127    14.0944   148.6226 </r>
       <r>   -12.8162    14.2995   150.0027 </r>
       <r>   -12.7197    14.6345   151.4151 </r>
       <r>   -12.6232    13.8495   152.7517 </r>
       <r>   -12.5267    12.7219   153.9795 </r>
       <r>   -12.4301    12.9434   155.2286 </r>
       <r>   -12.3336    15.3600   156.7110 </r>
       <r>   -12.2371    19.5074   158.5937 </r>
       <r>   -12.1406    23.9302   160.9032 </r>
       <r>   -12.0441    26.0491   163.4172 </r>
       <r>   -11.9476    24.5343   165.7850 </r>
       <r>   -11.8511    21.5797   167.8676 </r>
       <r>   -11.7546    19.5374   169.7532 </r>
       <r>   -11.6581    18.0159   171.4919 </r>
       <r>   -11.5616    16.1721   173.0527 </r>
       <r>   -11.4650    15.0343   174.5036 </r>
       <r>   -11.3685    16.1720   176.0644 </r>
       <r>   -11.2720    19.1318   177.9108 </r>
       <r>   -11.1755    22.1304   180.0466 </r>
       <r>   -11.0790    25.0709   182.4662 </r>
       <r>   -10.9825    28.8920   185.2545 </r>
       <r>   -10.8860    32.6756   188.4081 </r>
       <r>   -10.7895    34.6255   191.7498 </r>
       <r>   -10.6930    34.7885   195.1072 </r>
       <r>   -10.5965    35.0455   198.4894 </r>
       <r>   -10.4999    36.6385   202.0254 </r>
       <r>   -10.4034    38.5751   205.7483 </r>
       <r>   -10.3069    38.9598   209.5083 </r>
       <r>   -10.2104    37.4241   213.1201 </r>
       <r>   -10.1139    35.4796   216.5443 </r>
       <r>   -10.0174    34.0317   219.8287 </r>
       <r>    -9.9209    32.5660   222.9716 </r>
       <r>    -9.8244    31.6266   226.0239 </r>
       <r>    -9.7279    33.2983   229.2375 </r>
       <r>    -9.6314    38.1983   232.9240 </r>
       <r>    -9.5348    43.6239   237.1342 </r>
       <r>    -9.4383    45.9031   241.5643 </r>
       <r>    -9.3418    43.5367   245.7660 </r>
       <r>    -9.2453    37.4268   249.3780 </r>
       <r>    -9.1488    30.6030   252.3315 </r>
       <r>    -9.0523    27.3565   254.9717 </r>
       <r>    -8.9558    29.3889   257.8080 </r>
       <r>    -8.8593    34.1128   261.1003 </r>
       <r>    -8.7628    37.7957   264.7479 </r>
       <r>    -8.6663    38.4852   268.4621 </r>
       <r>    -8.5697    36.3820   271.9734 </r>
       <r>    -8.4732    33.1167   275.1694 </r>
       <r>    -8.3767    30.3745   278.1009 </r>
       <r>    -8.2802    28.8589   280.8861 </r>
       <r>    -8.1837    28.5854   283.6448 </r>
       <r>    -8.0872    28.6985   286.4145 </r>
       <r>    -7.9907    27.9883   289.1157 </r>
       <r>    -7.8942    27.2012   291.7409 </r>
       <r>    -7.7977    28.1504   294.4577 </r>
       <r>    -7.7012    30.2545   297.3775 </r>
       <r>    -7.6046    31.3084   300.3991 </r>
       <r>    -7.5081    30.8556   303.3770 </r>
       <r>    -7.4116    29.8736   306.2601 </r>
       <r>    -7.3151    28.2738   308.9888 </r>
       <r>    -7.2186    25.3972   311.4398 </r>
       <r>    -7.1221    22.4603   313.6075 </r>
       <r>    -7.0256    21.6736   315.6992 </r>
       <r>    -6.9291    23.2539   317.9434 </r>
       <r>    -6.8326    25.4579   320.4004 </r>
       <r>    -6.7361    26.7311   322.9802 </r>
       <r>    -6.6396    26.4885   325.5366 </r>
       <r>    -6.5430    24.7088   327.9212 </r>
       <r>    -6.4465    22.3411   330.0774 </r>
       <r>    -6.3500    21.0753   332.1114 </r>
       <r>    -6.2535    21.1509   334.1526 </r>
       <r>    -6.1570    21.6363   336.2408 </r>
       <r>    -6.0605    22.5536   338.4174 </r>
       <r>    -5.9640    23.8385   340.7181 </r>
       <r>    -5.8675    24.1426   343.0481 </r>
       <r>    -5.7710    22.6596   345.2349 </r>
       <r>    -5.6745    20.1152   347.1763 </r>
       <r>    -5.5779    17.1919   348.8354 </r>
       <r>    -5.4814    13.8941   350.1764 </r>
       <r>    -5.3849    10.9166   351.2299 </r>
       <r>    -5.2884    10.0237   352.1973 </r>
       <r>    -5.1919    11.2928   353.2872 </r>
       <r>    -5.0954    12.0788   354.4529 </r>
       <r>    -4.9989    10.9707   355.5117 </r>
       <r>    -4.9024     9.7979   356.4573 </r>
       <r>    -4.8059    10.4950   357.4702 </r>
       <r>    -4.7094    12.5744   358.6837 </r>
       <r>    -4.6128    14.3514   360.0688 </r>
       <r>    -4.5163    14.9177   361.5085 </r>
       <r>    -4.4198    13.9306   362.8529 </r>
       <r>    -4.3233    11.2589   363.9395 </r>
       <r>    -4.2268     7.7448   364.6870 </r>
       <r>    -4.1303     4.6353   365.1343 </r>
       <r>    -4.0338     2.4601   365.3718 </r>
       <r>    -3.9373     1.3391   365.5010 </r>
       <r>    -3.8408     1.5087   365.6466 </r>
       <r>    -3.7443     2.9716   365.9334 </r>
       <r>    -3.6477     4.7609   366.3928 </r>
       <r>    -3.5512     5.2302   366.8976 </r>
       <r>    -3.4547     3.9674   367.2805 </r>
       <r>    -3.3582     2.5146   367.5232 </r>
       <r>    -3.2617     2.2616   367.7415 </r>
       <r>    -3.1652     2.7724   368.0090 </r>
       <r>    -3.0687     2.8938   368.2883 </r>
       <r>    -2.9722     2.7024   368.5491 </r>
       <r>    -2.8757     3.1852   368.8565 </r>
       <r>    -2.7792     4.4392   369.2849 </r>
       <r>    -2.6826     5.8140   369.8460 </r>
       <r>    -2.5861     7.2139   370.5423 </r>
       <r>    -2.4896     8.5275   371.3652 </r>
       <r>    -2.3931     8.9100   372.2251 </r>
       <r>    -2.2966     8.3262   373.0287 </r>
       <r>    -2.2001     8.0662   373.8072 </r>
       <r>    -2.1036     8.2848   374.6067 </r>
       <r>    -2.0071     7.5170   375.3322 </r>
       <r>    -1.9106     5.8175   375.8937 </r>
       <r>    -1.8141     5.5857   376.4327 </r>
       <r>    -1.7175     8.4666   377.2498 </r>
       <r>    -1.6210    13.5442   378.5570 </r>
       <r>    -1.5245    18.7449   380.3661 </r>
       <r>    -1.4280    22.5281   382.5402 </r>
       <r>    -1.3315    23.8400   384.8411 </r>
       <r>    -1.2350    22.6620   387.0282 </r>
       <r>    -1.1385    20.9724   389.0522 </r>
       <r>    -1.0420    19.9599   390.9785 </r>
       <r>    -0.9455    18.1677   392.7319 </r>
       <r>    -0.8490    14.9591   394.1756 </r>
       <r>    -0.7524    12.2117   395.3541 </r>
       <r>    -0.6559    11.5070   396.4647 </r>
       <r>    -0.5594    12.0075   397.6235 </r>
       <r>    -0.4629    11.8892   398.7709 </r>
       <r>    -0.3664    11.3522   399.8665 </r>
       <r>    -0.2699    12.4421   401.0673 </r>
       <r>    -0.1734    15.2952   402.5435 </r>
       <r>    -0.0769    17.4322   404.2258 </r>
       <r>     0.0196    17.9536   405.9585 </r>
       <r>     0.1161    18.7201   407.7652 </r>
       <r>     0.2127    20.7356   409.7664 </r>
       <r>     0.3092    22.4223   411.9304 </r>
       <r>     0.4057    21.9627   414.0500 </r>
       <r>     0.5022    20.4415   416.0228 </r>
       <r>     0.5987    20.9662   418.0463 </r>
       <r>     0.6952    24.1195   420.3740 </r>
       <r>     0.7917    27.2343   423.0024 </r>
       <r>     0.8882    28.9665   425.7980 </r>
       <r>     0.9847    31.4126   428.8296 </r>
       <r>     1.0812    36.1118   432.3148 </r>
       <r>     1.1778    41.5395   436.3237 </r>
       <r>     1.2743    46.0969   440.7725 </r>
       <r>     1.3708    49.2722   445.5278 </r>
       <r>     1.4673    49.8986   450.3435 </r>
       <r>     1.5638    46.4729   454.8286 </r>
       <r>     1.6603    38.8702   458.5800 </r>
       <r>     1.7568    28.3529   461.3163 </r>
       <r>     1.8533    16.9769   462.9547 </r>
       <r>     1.9498     7.7084   463.6987 </r>
       <r>     2.0463     2.4862   463.9386 </r>
       <r>     2.1429     0.5472   463.9914 </r>
       <r>     2.2394     0.0804   463.9992 </r>
       <r>     2.3359     0.0078   463.9999 </r>
       <r>     2.4324     0.0005   464.0000 </r>
       <r>     2.5289     0.0000   464.0000 </r>
       <r>     2.6254     0.0000   464.0000 </r>
       <r>     2.7219     0.0000   464.0000 </r>
       <r>     2.8184     0.0000   464.0000 </r>
       <r>     2.9149     0.0000   464.0000 </r>
       <r>     3.0114     0.0000   464.0000 </r>
       <r>     3.1080     0.0000   464.0000 </r>
       <r>     3.2045     0.0000   464.0000 </r>
       <r>     3.3010     0.0000   464.0000 </r>
       <r>     3.3975     0.0000   464.0000 </r>
       <r>     3.4940     0.0000   464.0000 </r>
       <r>     3.5905     0.0000   464.0000 </r>
       <r>     3.6870     0.0000   464.0000 </r>
       <r>     3.7835     0.0000   464.0000 </r>
      </set>
     </set>
    </array>
   </total>
  </dos>
 </calculation>
 <structure name="finalpos" >
  <crystal>
   <varray name="basis" >
    <v>      28.05000000       0.00000000       0.00000000 </v>
    <v>       0.00000000       8.10000000       0.00000000 </v>
    <v>       0.00000000       0.00000000      33.50000000 </v>
   </varray>
   <i name="volume">   7611.36750000 </i>
   <varray name="rec_basis" >
    <v>       0.03565062       0.00000000       0.00000000 </v>
    <v>       0.00000000       0.12345679       0.00000000 </v>
    <v>       0.00000000       0.00000000       0.02985075 </v>
   </varray>
  </crystal>
  <varray name="positions" >
   <v>       0.55879857       0.92549753       0.09776119 </v>
   <v>       0.55954724       0.09320827       0.09226866 </v>
   <v>       0.60143316       0.84047531       0.10758209 </v>
   <v>       0.60266667       0.17283333       0.10104478 </v>
   <v>       0.64478788       0.92344938       0.11191045 </v>
   <v>       0.64703030       0.09026222       0.10585075 </v>
   <v>       0.68621747       0.84108765       0.12710448 </v>
   <v>       0.69048841       0.17327778       0.11591045 </v>
   <v>       0.72934403       0.92089136       0.13498507 </v>
   <v>       0.73142246       0.08783148       0.12674627 </v>
   <v>       0.77275936       0.84172593       0.14826866 </v>
   <v>       0.77514082       0.17310370       0.13680597 </v>
   <v>       0.81614260       0.92418889       0.15459701 </v>
   <v>       0.81620321       0.08848321       0.15155224 </v>
   <v>       0.85675223       0.84439506       0.17017910 </v>
   <v>       0.85950446       0.17670000       0.16268657 </v>
   <v>       0.90183244       0.92620617       0.17247761 </v>
   <v>       0.90219251       0.09774000       0.17026866 </v>
   <v>       0.94339750       0.84395802       0.18623881 </v>
   <v>       0.94398930       0.18229630       0.17680597 </v>
   <v>       0.98842068       0.92873704       0.18629851 </v>
   <v>       0.98844920       0.09815235       0.17907463 </v>
   <v>       0.03354071       0.84909383       0.18489552 </v>
   <v>       0.03344702       0.18462099       0.17698507 </v>
   <v>       0.07848663       0.92749753       0.17734328 </v>
   <v>       0.07724385       0.09738506       0.17208955 </v>
   <v>       0.12242032       0.84746296       0.17528358 </v>
   <v>       0.12100749       0.18130494       0.16486567 </v>
   <v>       0.16415437       0.92848272       0.16008955 </v>
   <v>       0.16146096       0.09333321       0.15316418 </v>
   <v>       0.20790695       0.84545802       0.15179104 </v>
   <v>       0.20481961       0.17841605       0.14420896 </v>
   <v>       0.24761426       0.92687284       0.13471642 </v>
   <v>       0.24556007       0.09545728       0.12964179 </v>
   <v>       0.28959358       0.84047407       0.12414925 </v>
   <v>       0.28818004       0.17401605       0.11865672 </v>
   <v>       0.33134545       0.92365432       0.11017910 </v>
   <v>       0.32931230       0.09197136       0.10202985 </v>
   <v>       0.37548307       0.84033086       0.10597015 </v>
   <v>       0.37351872       0.17515432       0.09486567 </v>
   <v>       0.41914795       0.91701481       0.09689552 </v>
   <v>       0.41854545       0.08907358       0.09032836 </v>
   <v>       0.46542602       0.83697160       0.09871642 </v>
   <v>       0.46176827       0.17075926       0.08414925 </v>
   <v>       0.50680570       0.92602099       0.09137313 </v>
   <v>       0.50516221       0.09173617       0.08498507 </v>
   <v>       0.55784670       0.42294568       0.10068657 </v>
   <v>       0.55819608       0.59096667       0.10495522 </v>
   <v>       0.60283779       0.34006790       0.10546269 </v>
   <v>       0.59974332       0.67528148       0.11402985 </v>
   <v>       0.64549020       0.42206049       0.11811940 </v>
   <v>       0.64345098       0.58923333       0.12340299 </v>
   <v>       0.68891979       0.34169877       0.12262687 </v>
   <v>       0.68617112       0.67325309       0.13316418 </v>
   <v>       0.73152585       0.42239012       0.13620896 </v>
   <v>       0.72845633       0.58739753       0.14191045 </v>
   <v>       0.77386096       0.33828519       0.14358209 </v>
   <v>       0.77049911       0.67384815       0.15534328 </v>
   <v>       0.81506952       0.42596173       0.15802985 </v>
   <v>       0.81376114       0.59183827       0.16411940 </v>
   <v>       0.85805704       0.34222716       0.16665672 </v>
   <v>       0.85578966       0.67710370       0.17629851 </v>
   <v>       0.90001426       0.42883827       0.18014925 </v>
   <v>       0.89804278       0.59479259       0.18417910 </v>
   <v>       0.94542602       0.35048765       0.18128358 </v>
   <v>       0.94221034       0.67748642       0.19074627 </v>
   <v>       0.98983957       0.43114074       0.18874627 </v>
   <v>       0.98929768       0.60011358       0.19167164 </v>
   <v>       0.03314813       0.35216049       0.18244776 </v>
   <v>       0.03387533       0.68083457       0.19059701 </v>
   <v>       0.07754724       0.42914198       0.18158209 </v>
   <v>       0.07813761       0.59776914       0.18820896 </v>
   <v>       0.12198324       0.34731358       0.17262687 </v>
   <v>       0.12344207       0.68028519       0.18301493 </v>
   <v>       0.16667380       0.42552593       0.16979104 </v>
   <v>       0.16718824       0.59481481       0.17283582 </v>
   <v>       0.20826346       0.34259383       0.15656716 </v>
   <v>       0.20827879       0.67799506       0.16035821 </v>
   <v>       0.25097611       0.42318519       0.14701493 </v>
   <v>       0.25180642       0.59465309       0.15038806 </v>
   <v>       0.29008841       0.34036173       0.12656716 </v>
   <v>       0.29226809       0.67422469       0.13182090 </v>
   <v>       0.33304599       0.41901111       0.11761194 </v>
   <v>       0.33280463       0.59135432       0.11740299 </v>
   <v>       0.37419964       0.34353457       0.10200000 </v>
   <v>       0.37767558       0.67475556       0.11229851 </v>
   <v>       0.41798217       0.42260000       0.09749254 </v>
   <v>       0.42175045       0.58865185       0.10614925 </v>
   <v>       0.46217469       0.33965556       0.09005970 </v>
   <v>       0.46511586       0.67007160       0.10182090 </v>
   <v>       0.50454189       0.41885062       0.09405970 </v>
   <v>       0.50711230       0.58909630       0.09507463 </v>
  </varray>
 </structure>
</modeling>
