unknown system                          
            1
    28.050000    0.000000    0.000000
     0.000000    8.100000    0.000000
     0.000000    0.000000   33.500000
   C 
    92
Direct configuration=     1
   0.55879857  0.92549753  0.09776119
   0.55954724  0.09320827  0.09226866
   0.60143316  0.84047531  0.10758209
   0.60266667  0.17283333  0.10104478
   0.64478788  0.92344938  0.11191045
   0.64703030  0.09026222  0.10585075
   0.68621747  0.84108765  0.12710448
   0.69048841  0.17327778  0.11591045
   0.72934403  0.92089136  0.13498507
   0.73142246  0.08783148  0.12674627
   0.77275936  0.84172593  0.14826866
   0.77514082  0.17310370  0.13680597
   0.81614260  0.92418889  0.15459701
   0.81620321  0.08848321  0.15155224
   0.85675223  0.84439506  0.17017910
   0.85950446  0.17670000  0.16268657
   0.90183244  0.92620617  0.17247761
   0.90219251  0.09774000  0.17026866
   0.94339750  0.84395802  0.18623881
   0.94398930  0.18229630  0.17680597
   0.98842068  0.92873704  0.18629851
   0.98844920  0.09815235  0.17907463
   0.03354071  0.84909383  0.18489552
   0.03344702  0.18462099  0.17698507
   0.07848663  0.92749753  0.17734328
   0.07724385  0.09738506  0.17208955
   0.12242032  0.84746296  0.17528358
   0.12100749  0.18130494  0.16486567
   0.16415437  0.92848272  0.16008955
   0.16146096  0.09333321  0.15316418
   0.20790695  0.84545802  0.15179104
   0.20481961  0.17841605  0.14420896
   0.24761426  0.92687284  0.13471642
   0.24556007  0.09545728  0.12964179
   0.28959358  0.84047407  0.12414925
   0.28818004  0.17401605  0.11865672
   0.33134545  0.92365432  0.11017910
   0.32931230  0.09197136  0.10202985
   0.37548307  0.84033086  0.10597015
   0.37351872  0.17515432  0.09486567
   0.41914795  0.91701481  0.09689552
   0.41854545  0.08907358  0.09032836
   0.46542602  0.83697160  0.09871642
   0.46176827  0.17075926  0.08414925
   0.50680570  0.92602099  0.09137313
   0.50516221  0.09173617  0.08498507
   0.55784670  0.42294568  0.10068657
   0.55819608  0.59096667  0.10495522
   0.60283779  0.34006790  0.10546269
   0.59974332  0.67528148  0.11402985
   0.64549020  0.42206049  0.11811940
   0.64345098  0.58923333  0.12340299
   0.68891979  0.34169877  0.12262687
   0.68617112  0.67325309  0.13316418
   0.73152585  0.42239012  0.13620896
   0.72845633  0.58739753  0.14191045
   0.77386096  0.33828519  0.14358209
   0.77049911  0.67384815  0.15534328
   0.81506952  0.42596173  0.15802985
   0.81376114  0.59183827  0.16411940
   0.85805704  0.34222716  0.16665672
   0.85578966  0.67710370  0.17629851
   0.90001426  0.42883827  0.18014925
   0.89804278  0.59479259  0.18417910
   0.94542602  0.35048765  0.18128358
   0.94221034  0.67748642  0.19074627
   0.98983957  0.43114074  0.18874627
   0.98929768  0.60011358  0.19167164
   0.03314813  0.35216049  0.18244776
   0.03387533  0.68083457  0.19059701
   0.07754724  0.42914198  0.18158209
   0.07813761  0.59776914  0.18820896
   0.12198324  0.34731358  0.17262687
   0.12344207  0.68028519  0.18301493
   0.16667380  0.42552593  0.16979104
   0.16718824  0.59481481  0.17283582
   0.20826346  0.34259383  0.15656716
   0.20827879  0.67799506  0.16035821
   0.25097611  0.42318519  0.14701493
   0.25180642  0.59465309  0.15038806
   0.29008841  0.34036173  0.12656716
   0.29226809  0.67422469  0.13182090
   0.33304599  0.41901111  0.11761194
   0.33280463  0.59135432  0.11740299
   0.37419964  0.34353457  0.10200000
   0.37767558  0.67475556  0.11229851
   0.41798217  0.42260000  0.09749254
   0.42175045  0.58865185  0.10614925
   0.46217469  0.33965556  0.09005970
   0.46511586  0.67007160  0.10182090
   0.50454189  0.41885062  0.09405970
   0.50711230  0.58909630  0.09507463
