  92  92   0   0
  0.8273226E+02  0.2805000E-08  0.8100000E-09  0.3350000E-08  0.5000000E-15
   1.0000000000000000E-004
  CAR 
 unknown system                          
      3.73189925    -25.17388999  301     -3.13515623      1.00000000
    -25.174  0.0000E+00  0.0000E+00
    -25.078  0.0000E+00  0.0000E+00
    -24.981  0.0000E+00  0.0000E+00
    -24.885  0.0000E+00  0.0000E+00
    -24.788  0.0000E+00  0.0000E+00
    -24.692  0.0000E+00  0.0000E+00
    -24.596  0.0000E+00  0.0000E+00
    -24.499  0.0000E+00  0.0000E+00
    -24.403  0.0000E+00  0.0000E+00
    -24.307  0.2881E-14  0.2776E-15
    -24.210  0.6058E-12  0.5865E-13
    -24.114  0.7815E-10  0.7588E-11
    -24.018  0.6411E-08  0.6253E-09
    -23.921  0.3357E-06  0.3298E-07
    -23.825  0.1128E-04  0.1120E-05
    -23.729  0.2449E-03  0.2471E-04
    -23.632  0.3468E-02  0.3589E-03
    -23.536  0.3248E-01  0.3488E-02
    -23.440  0.2046E+00  0.2320E-01
    -23.343  0.8860E+00  0.1086E+00
    -23.247  0.2699E+01  0.3687E+00
    -23.150  0.5938E+01  0.9408E+00
    -23.054  0.9706E+01  0.1876E+01
    -22.958  0.1229E+02  0.3060E+01
    -22.861  0.1304E+02  0.4316E+01
    -22.765  0.1332E+02  0.5600E+01
    -22.669  0.1442E+02  0.6989E+01
    -22.572  0.1524E+02  0.8458E+01
    -22.476  0.1436E+02  0.9841E+01
    -22.380  0.1316E+02  0.1111E+02
    -22.283  0.1362E+02  0.1242E+02
    -22.187  0.1497E+02  0.1386E+02
    -22.091  0.1547E+02  0.1535E+02
    -21.994  0.1506E+02  0.1681E+02
    -21.898  0.1447E+02  0.1820E+02
    -21.802  0.1408E+02  0.1956E+02
    -21.705  0.1394E+02  0.2090E+02
    -21.609  0.1340E+02  0.2219E+02
    -21.512  0.1201E+02  0.2335E+02
    -21.416  0.1070E+02  0.2438E+02
    -21.320  0.1094E+02  0.2543E+02
    -21.223  0.1294E+02  0.2668E+02
    -21.127  0.1548E+02  0.2817E+02
    -21.031  0.1667E+02  0.2978E+02
    -20.934  0.1550E+02  0.3127E+02
    -20.838  0.1338E+02  0.3256E+02
    -20.742  0.1237E+02  0.3375E+02
    -20.645  0.1274E+02  0.3498E+02
    -20.549  0.1354E+02  0.3628E+02
    -20.453  0.1380E+02  0.3761E+02
    -20.356  0.1320E+02  0.3889E+02
    -20.260  0.1253E+02  0.4009E+02
    -20.164  0.1265E+02  0.4131E+02
    -20.067  0.1373E+02  0.4263E+02
    -19.971  0.1532E+02  0.4411E+02
    -19.874  0.1629E+02  0.4568E+02
    -19.778  0.1587E+02  0.4721E+02
    -19.682  0.1524E+02  0.4868E+02
    -19.585  0.1583E+02  0.5020E+02
    -19.489  0.1645E+02  0.5179E+02
    -19.393  0.1515E+02  0.5325E+02
    -19.296  0.1302E+02  0.5450E+02
    -19.200  0.1231E+02  0.5569E+02
    -19.104  0.1278E+02  0.5692E+02
    -19.007  0.1271E+02  0.5814E+02
    -18.911  0.1211E+02  0.5931E+02
    -18.815  0.1266E+02  0.6053E+02
    -18.718  0.1503E+02  0.6198E+02
    -18.622  0.1796E+02  0.6371E+02
    -18.526  0.1933E+02  0.6557E+02
    -18.429  0.1808E+02  0.6732E+02
    -18.333  0.1590E+02  0.6885E+02
    -18.237  0.1545E+02  0.7034E+02
    -18.140  0.1662E+02  0.7194E+02
    -18.044  0.1684E+02  0.7356E+02
    -17.947  0.1527E+02  0.7503E+02
    -17.851  0.1340E+02  0.7632E+02
    -17.755  0.1203E+02  0.7748E+02
    -17.658  0.1126E+02  0.7857E+02
    -17.562  0.1168E+02  0.7969E+02
    -17.466  0.1302E+02  0.8095E+02
    -17.369  0.1354E+02  0.8225E+02
    -17.273  0.1272E+02  0.8348E+02
    -17.177  0.1188E+02  0.8462E+02
    -17.080  0.1168E+02  0.8575E+02
    -16.984  0.1137E+02  0.8684E+02
    -16.888  0.1043E+02  0.8785E+02
    -16.791  0.9893E+01  0.8880E+02
    -16.695  0.1109E+02  0.8987E+02
    -16.599  0.1323E+02  0.9114E+02
    -16.502  0.1437E+02  0.9253E+02
    -16.406  0.1441E+02  0.9392E+02
    -16.309  0.1487E+02  0.9535E+02
    -16.213  0.1614E+02  0.9691E+02
    -16.117  0.1712E+02  0.9856E+02
    -16.020  0.1697E+02  0.1002E+03
    -15.924  0.1585E+02  0.1017E+03
    -15.828  0.1423E+02  0.1031E+03
    -15.731  0.1258E+02  0.1043E+03
    -15.635  0.1197E+02  0.1055E+03
    -15.539  0.1301E+02  0.1067E+03
    -15.442  0.1530E+02  0.1082E+03
    -15.346  0.1835E+02  0.1099E+03
    -15.250  0.2149E+02  0.1120E+03
    -15.153  0.2289E+02  0.1142E+03
    -15.057  0.2151E+02  0.1163E+03
    -14.961  0.1872E+02  0.1181E+03
    -14.864  0.1611E+02  0.1197E+03
    -14.768  0.1388E+02  0.1210E+03
    -14.671  0.1203E+02  0.1221E+03
    -14.575  0.1088E+02  0.1232E+03
    -14.479  0.1042E+02  0.1242E+03
    -14.382  0.1016E+02  0.1252E+03
    -14.286  0.1004E+02  0.1261E+03
    -14.190  0.1097E+02  0.1272E+03
    -14.093  0.1357E+02  0.1285E+03
    -13.997  0.1646E+02  0.1301E+03
    -13.901  0.1786E+02  0.1318E+03
    -13.804  0.1772E+02  0.1335E+03
    -13.708  0.1704E+02  0.1352E+03
    -13.612  0.1639E+02  0.1367E+03
    -13.515  0.1613E+02  0.1383E+03
    -13.419  0.1687E+02  0.1399E+03
    -13.323  0.1859E+02  0.1417E+03
    -13.226  0.1968E+02  0.1436E+03
    -13.130  0.1848E+02  0.1454E+03
    -13.033  0.1598E+02  0.1469E+03
    -12.937  0.1462E+02  0.1483E+03
    -12.841  0.1453E+02  0.1497E+03
    -12.744  0.1409E+02  0.1511E+03
    -12.648  0.1323E+02  0.1524E+03
    -12.552  0.1312E+02  0.1536E+03
    -12.455  0.1440E+02  0.1550E+03
    -12.359  0.1689E+02  0.1567E+03
    -12.263  0.2002E+02  0.1586E+03
    -12.166  0.2308E+02  0.1608E+03
    -12.070  0.2475E+02  0.1632E+03
    -11.974  0.2411E+02  0.1655E+03
    -11.877  0.2219E+02  0.1677E+03
    -11.781  0.2030E+02  0.1696E+03
    -11.685  0.1800E+02  0.1713E+03
    -11.588  0.1508E+02  0.1728E+03
    -11.492  0.1364E+02  0.1741E+03
    -11.395  0.1564E+02  0.1756E+03
    -11.299  0.1974E+02  0.1775E+03
    -11.203  0.2362E+02  0.1798E+03
    -11.106  0.2689E+02  0.1824E+03
    -11.010  0.2981E+02  0.1853E+03
    -10.914  0.3188E+02  0.1883E+03
    -10.817  0.3257E+02  0.1915E+03
    -10.721  0.3231E+02  0.1946E+03
    -10.625  0.3278E+02  0.1977E+03
    -10.528  0.3544E+02  0.2012E+03
    -10.432  0.3916E+02  0.2049E+03
    -10.336  0.4074E+02  0.2089E+03
    -10.239  0.3880E+02  0.2126E+03
    -10.143  0.3566E+02  0.2160E+03
    -10.047  0.3383E+02  0.2193E+03
     -9.950  0.3311E+02  0.2225E+03
     -9.854  0.3287E+02  0.2256E+03
     -9.757  0.3424E+02  0.2289E+03
     -9.661  0.3761E+02  0.2326E+03
     -9.565  0.4098E+02  0.2365E+03
     -9.468  0.4234E+02  0.2406E+03
     -9.372  0.4156E+02  0.2446E+03
     -9.276  0.3901E+02  0.2484E+03
     -9.179  0.3521E+02  0.2518E+03
     -9.083  0.3179E+02  0.2548E+03
     -8.987  0.3023E+02  0.2577E+03
     -8.890  0.3051E+02  0.2607E+03
     -8.794  0.3245E+02  0.2638E+03
     -8.698  0.3552E+02  0.2672E+03
     -8.601  0.3733E+02  0.2708E+03
     -8.505  0.3569E+02  0.2743E+03
     -8.409  0.3186E+02  0.2773E+03
     -8.312  0.2919E+02  0.2801E+03
     -8.216  0.2853E+02  0.2829E+03
     -8.119  0.2793E+02  0.2856E+03
     -8.023  0.2657E+02  0.2881E+03
     -7.927  0.2590E+02  0.2906E+03
     -7.830  0.2680E+02  0.2932E+03
     -7.734  0.2815E+02  0.2959E+03
     -7.638  0.2877E+02  0.2987E+03
     -7.541  0.2893E+02  0.3015E+03
     -7.445  0.2935E+02  0.3043E+03
     -7.349  0.2933E+02  0.3071E+03
     -7.252  0.2781E+02  0.3098E+03
     -7.156  0.2560E+02  0.3123E+03
     -7.060  0.2432E+02  0.3146E+03
     -6.963  0.2416E+02  0.3170E+03
     -6.867  0.2447E+02  0.3193E+03
     -6.771  0.2522E+02  0.3217E+03
     -6.674  0.2594E+02  0.3242E+03
     -6.578  0.2514E+02  0.3267E+03
     -6.481  0.2255E+02  0.3288E+03
     -6.385  0.2019E+02  0.3308E+03
     -6.289  0.1977E+02  0.3327E+03
     -6.192  0.2067E+02  0.3347E+03
     -6.096  0.2192E+02  0.3368E+03
     -6.000  0.2342E+02  0.3391E+03
     -5.903  0.2460E+02  0.3414E+03
     -5.807  0.2458E+02  0.3438E+03
     -5.711  0.2326E+02  0.3460E+03
     -5.614  0.2074E+02  0.3480E+03
     -5.518  0.1704E+02  0.3497E+03
     -5.422  0.1293E+02  0.3509E+03
     -5.325  0.1036E+02  0.3519E+03
     -5.229  0.1068E+02  0.3529E+03
     -5.133  0.1216E+02  0.3541E+03
     -5.036  0.1189E+02  0.3553E+03
     -4.940  0.1011E+02  0.3562E+03
     -4.843  0.9448E+01  0.3571E+03
     -4.747  0.1095E+02  0.3582E+03
     -4.651  0.1330E+02  0.3595E+03
     -4.554  0.1497E+02  0.3609E+03
     -4.458  0.1516E+02  0.3624E+03
     -4.362  0.1308E+02  0.3636E+03
     -4.265  0.9027E+01  0.3645E+03
     -4.169  0.5103E+01  0.3650E+03
     -4.073  0.2879E+01  0.3653E+03
     -3.976  0.2126E+01  0.3655E+03
     -3.880  0.2333E+01  0.3657E+03
     -3.784  0.3331E+01  0.3660E+03
     -3.687  0.4523E+01  0.3665E+03
     -3.591  0.4760E+01  0.3669E+03
     -3.495  0.3557E+01  0.3673E+03
     -3.398  0.1988E+01  0.3675E+03
     -3.302  0.1436E+01  0.3676E+03
     -3.205  0.2060E+01  0.3678E+03
     -3.109  0.2912E+01  0.3681E+03
     -3.013  0.3296E+01  0.3684E+03
     -2.916  0.3757E+01  0.3688E+03
     -2.820  0.4827E+01  0.3692E+03
     -2.724  0.5833E+01  0.3698E+03
     -2.627  0.6317E+01  0.3704E+03
     -2.531  0.6898E+01  0.3711E+03
     -2.435  0.7865E+01  0.3718E+03
     -2.338  0.8608E+01  0.3726E+03
     -2.242  0.8858E+01  0.3735E+03
     -2.146  0.8785E+01  0.3743E+03
     -2.049  0.7979E+01  0.3751E+03
     -1.953  0.6486E+01  0.3757E+03
     -1.857  0.5966E+01  0.3763E+03
     -1.760  0.8104E+01  0.3771E+03
     -1.664  0.1265E+02  0.3783E+03
     -1.567  0.1765E+02  0.3800E+03
     -1.471  0.2104E+02  0.3820E+03
     -1.375  0.2204E+02  0.3842E+03
     -1.278  0.2152E+02  0.3862E+03
     -1.182  0.2081E+02  0.3882E+03
     -1.086  0.2000E+02  0.3902E+03
     -0.989  0.1823E+02  0.3919E+03
     -0.893  0.1568E+02  0.3934E+03
     -0.797  0.1374E+02  0.3948E+03
     -0.700  0.1325E+02  0.3960E+03
     -0.604  0.1339E+02  0.3973E+03
     -0.508  0.1248E+02  0.3985E+03
     -0.411  0.1056E+02  0.3996E+03
     -0.315  0.1021E+02  0.4005E+03
     -0.219  0.1300E+02  0.4018E+03
     -0.122  0.1709E+02  0.4034E+03
     -0.026  0.1974E+02  0.4053E+03
      0.070  0.2074E+02  0.4073E+03
      0.167  0.2163E+02  0.4094E+03
      0.263  0.2241E+02  0.4116E+03
      0.360  0.2154E+02  0.4137E+03
      0.456  0.1920E+02  0.4155E+03
      0.552  0.1805E+02  0.4172E+03
      0.649  0.2017E+02  0.4192E+03
      0.745  0.2482E+02  0.4216E+03
      0.841  0.2970E+02  0.4244E+03
      0.938  0.3336E+02  0.4277E+03
      1.034  0.3586E+02  0.4311E+03
      1.130  0.3817E+02  0.4348E+03
      1.227  0.4198E+02  0.4388E+03
      1.323  0.4786E+02  0.4434E+03
      1.419  0.5276E+02  0.4485E+03
      1.516  0.5232E+02  0.4536E+03
      1.612  0.4483E+02  0.4579E+03
      1.708  0.3229E+02  0.4610E+03
      1.805  0.1891E+02  0.4628E+03
      1.901  0.8588E+01  0.4636E+03
      1.998  0.2869E+01  0.4639E+03
      2.094  0.6731E+00  0.4640E+03
      2.190  0.1073E+00  0.4640E+03
      2.287  0.1135E-01  0.4640E+03
      2.383  0.7863E-03  0.4640E+03
      2.479  0.3532E-04  0.4640E+03
      2.576  0.1022E-05  0.4640E+03
      2.672  0.1896E-07  0.4640E+03
      2.768  0.2247E-09  0.4640E+03
      2.865  0.1697E-11  0.4640E+03
      2.961  0.7490E-14  0.4640E+03
      3.057  0.0000E+00  0.4640E+03
      3.154  0.0000E+00  0.4640E+03
      3.250  0.0000E+00  0.4640E+03
      3.346  0.0000E+00  0.4640E+03
      3.443  0.0000E+00  0.4640E+03
      3.539  0.0000E+00  0.4640E+03
      3.636  0.0000E+00  0.4640E+03
      3.732  0.0000E+00  0.4640E+03
