 vasp.6.5.0 16Dec24 (build Feb 19 2025 19:45:31) complex                         
 executed on              LinuxNV date 2025.10.25  12:52:57
 running    2 mpi-ranks, on    1 nodes
 distrk:  each k-point on    2 cores,    1 groups
 distr:  one band on NCORE=   1 cores,    2 groups
 Offloading initialized ...    2 GPUs detected


--------------------------------------------------------------------------------------------------------


 INCAR:
   ISTART = 0            (Not Read existing wavefunction
   ISPIN = 1            (Non-Spin polarised DFT, Default\=1)
   ICHARG = 2            (The initial guess charge density is generated by superposition of atomic charge density)
   LREAL = Auto         (Projection operators: automatic)
   ENCUT = 500          (Cut-off energy for plane wave basis set, in eV)
   LWAVE = .FALSE.       (Write WAVECAR or not)
   LCHARG = .FALSE.       (Write CHGCAR or not)
   PREC = Accurate   (Precision level)
   KGAMMA = .TRUE.
   ALGO = Normal
   NSW = 0           (Default: NSW \= 0)
   IBRION = -1           (Ions are not moved)
   ISMEAR = 0
   EDIFF = 1E-06        (SCF energy convergence
   NELM = 150          (Max electronic SCF steps)

 POTCAR:    PAW_PBE C 08Apr2002                   
 POTCAR:    PAW_PBE C 08Apr2002                   
   SHA256 =  253f7b50bb8d59471dbedb8285d89021f4a42ed1a2c5d38a03a736e69125dd95 C/POTCAR              
   COPYR  = (c) Copyright 08Apr2002 Georg Kresse                                                    
   COPYR  = This file is part of the software VASP. Any use, copying, and all other rights are regul
   COPYR  = If you do not have a valid VASP license, you may not use, copy or distribute this file. 
   VRHFIN =C: s2p2                                                                                  
   LEXCH  = PE                                                                                      
   EATOM  =   147.1560 eV,   10.8157 Ry                                                             
                                                                                                    
   TITEL  = PAW_PBE C 08Apr2002                                                                     
   LULTRA =        F    use ultrasoft PP ?                                                          
   IUNSCR =        1    unscreen: 0-lin 1-nonlin 2-no                                               
   RPACOR =    1.200    partial core radius                                                         
   POMASS =   12.011; ZVAL   =    4.000    mass and valenz                                          
   RCORE  =    1.500    outmost cutoff radius                                                       
   RWIGS  =    1.630; RWIGS  =    0.863    wigner-seitz radius (au A)                               
   ENMAX  =  400.000; ENMIN  =  300.000 eV                                                          
   ICORE  =        2    local potential                                                             
   LCOR   =        T    correct aug charges                                                         
   LPAW   =        T    paw PP                                                                      
   EAUG   =  644.873                                                                                
   DEXC   =    0.000                                                                                
   RMAX   =    1.529    core radius for proj-oper                                                   
   RAUG   =    1.300    factor for augmentation sphere                                              
   RDEP   =    1.501    radius for radial grids                                                     
   RDEPT  =    1.300    core radius for aug-charge                                                  
                                                                                                    
   Atomic configuration                                                                             
    4 entries                                                                                       
     n  l   j            E        occ.                                                              
     1  0  0.50      -273.3789   2.0000                                                             
     2  0  0.50       -13.7508   2.0000                                                             
     2  1  0.50        -5.2854   2.0000                                                             
     3  2  1.50        -5.4423   0.0000                                                             
   Description                                                                                      
     l       E           TYP  RCUT    TYP  RCUT                                                     
     0    -13.7508458     23  1.200                                                                 
     0     -8.2022199     23  1.200                                                                 
     1     -5.2854383     23  1.500                                                                 
     1     34.0145650     23  1.500                                                                 
     2     -5.4423304      7  1.500                                                                 
  local pseudopotential read in
  partial core-charges read in
  partial kinetic energy density read in
  atomic valenz-charges read in
  non local Contribution for L=            0  read in
    real space projection operators read in
  non local Contribution for L=            0  read in
    real space projection operators read in
  non local Contribution for L=            1  read in
    real space projection operators read in
  non local Contribution for L=            1  read in
    real space projection operators read in
    PAW grid and wavefunctions read in
 
   number of l-projection  operators is LMAX  =            4
   number of lm-projection operators is LMMAX =            8
 
 Optimization of the real space projectors (new method)

 maximal supplied QI-value         = 25.13
 optimisation between [QCUT,QGAM] = [ 11.31, 22.87] = [ 35.82,146.48] Ry 
 Optimized for a Real-space Cutoff    1.03 Angstroem

   l    n(q)    QCUT    max X(q) W(low)/X(q) W(high)/X(q)  e(spline) 
   0      7    11.310   115.676    0.20E-03    0.90E-03    0.20E-06
   0      7    11.310    87.132    0.20E-03    0.89E-03    0.19E-06
   1      6    11.310     4.429    0.16E-03    0.28E-03    0.12E-06
   1      6    11.310     2.733    0.12E-03    0.21E-03    0.99E-07
  PAW_PBE C 08Apr2002                   :
 energy of atom  1       EATOM= -147.1560
 kinetic energy error for atom=    0.0076 (will be added to EATOM!!)
 
 
 POSCAR:  C
  positions in cartesian coordinates
  No initial velocities read in


 exchange-correlation table for PE
   RHO(1)=    0.500       N(1)  =     2000
   RHO(2)=  100.500       N(2)  =     4000
 


--------------------------------------------------------------------------------------------------------


 ion  position               nearest neighbor table
   1  0.008  0.111  0.466-   3 1.37   2 1.40  45 1.48  46 1.99
   2  0.010  0.283  0.460-   4 1.37   1 1.40  46 1.48
   3  0.050  0.028  0.473-   1 1.37   5 1.40  50 1.42
   4  0.054  0.356  0.457-   2 1.37  49 1.38   6 1.42
   5  0.093  0.109  0.479-   6 1.37   3 1.40   7 1.42
   6  0.096  0.274  0.470-   5 1.37   4 1.42   8 1.44
   7  0.136  0.025  0.489-  54 1.33   9 1.38   5 1.42
   8  0.141  0.359  0.474-  53 1.37  10 1.43   6 1.44
   9  0.177  0.108  0.500-   7 1.38  11 1.43  10 1.44
  10  0.183  0.277  0.488-  12 1.37   8 1.43   9 1.44
  11  0.221  0.025  0.509-  13 1.38  58 1.41   9 1.43
  12  0.227  0.351  0.491-  10 1.37  14 1.42  57 1.44
  13  0.264  0.101  0.517-  11 1.38  15 1.42  14 1.44
  14  0.268  0.272  0.506-  16 1.39  12 1.42  13 1.44
  15  0.306  0.017  0.529-  62 1.38  17 1.40  13 1.42
  16  0.311  0.355  0.514-  61 1.37  18 1.38  14 1.39
  17  0.348  0.107  0.536-  18 1.39  15 1.40  19 1.46
  18  0.351  0.274  0.527-  20 1.35  16 1.38  17 1.39
  19  0.392  0.020  0.546-  66 1.34  21 1.41  17 1.46
  20  0.393  0.354  0.531-  18 1.35  65 1.40  22 1.41
  21  0.435  0.107  0.549-  22 1.41  19 1.41  23 1.45
  22  0.436  0.278  0.541-  20 1.41  21 1.41  24 1.43
  23  0.480  0.017  0.547-  70 1.35  25 1.41  21 1.45
  24  0.481  0.355  0.534-  26 1.39  69 1.41  22 1.43
  25  0.523  0.105  0.544-  26 1.35  23 1.41  27 1.46
  26  0.524  0.272  0.541-  25 1.35  24 1.39  28 1.45
  27  0.569  0.024  0.541-  74 1.39  29 1.43  25 1.46
  28  0.569  0.352  0.534-  73 1.40  30 1.42  26 1.45
  29  0.615  0.099  0.533-  30 1.38  27 1.43  31 1.44
  30  0.614  0.270  0.530-  29 1.38  32 1.40  28 1.42
  31  0.659  0.016  0.524-  78 1.38  29 1.44  33 1.44
  32  0.656  0.350  0.520-  77 1.38  30 1.40  34 1.44
  33  0.704  0.096  0.518-  34 1.39  35 1.41  31 1.44
  34  0.700  0.266  0.513-  33 1.39  32 1.44  36 1.46
  35  0.745  0.013  0.506-  82 1.34  33 1.41  37 1.42
  36  0.742  0.352  0.497-  81 1.39  38 1.44  34 1.46
  37  0.787  0.101  0.494-  38 1.38  39 1.41  35 1.42
  38  0.786  0.270  0.490-  37 1.38  40 1.43  36 1.44
  39  0.829  0.018  0.482-  86 1.36  41 1.41  37 1.41
  40  0.828  0.357  0.477-  85 1.35  42 1.42  38 1.43
  41  0.872  0.103  0.473-  42 1.35  43 1.37  39 1.41
  42  0.871  0.269  0.470-  41 1.35  40 1.42  44 1.49
  43  0.914  0.026  0.468-  41 1.37  45 1.38  90 1.41
  44  0.915  0.356  0.456-  46 1.38  89 1.38  42 1.49
  45  0.956  0.107  0.458-  43 1.38  46 1.40   1 1.48
  46  0.958  0.278  0.452-  44 1.38  45 1.40   2 1.48   1 1.99
  47  0.013  0.604  0.446-  48 1.35  49 1.37  91 1.60
  48  0.010  0.765  0.458-  47 1.35  50 1.40  92 1.51  91 2.04
  49  0.056  0.526  0.453-  47 1.37   4 1.38  51 1.43
  50  0.051  0.854  0.468-  52 1.37  48 1.40   3 1.42
  51  0.100  0.609  0.459-  52 1.41  49 1.43  53 1.43
  52  0.094  0.776  0.470-  50 1.37  51 1.41  54 1.45
  53  0.143  0.526  0.468-   8 1.37  55 1.42  51 1.43
  54  0.136  0.864  0.482-   7 1.33  56 1.44  52 1.45
  55  0.186  0.615  0.476-  56 1.38  57 1.41  53 1.42
  56  0.181  0.780  0.486-  55 1.38  58 1.41  54 1.44
  57  0.227  0.528  0.487-  59 1.39  55 1.41  12 1.44
  58  0.221  0.851  0.505-  60 1.39  56 1.41  11 1.41
  59  0.264  0.610  0.506-  60 1.34  57 1.39  61 1.44
  60  0.262  0.769  0.517-  59 1.34  58 1.39  62 1.40
  61  0.308  0.524  0.515-  16 1.37  63 1.42  59 1.44
  62  0.304  0.847  0.530-  15 1.38  60 1.40  64 1.41
  63  0.350  0.606  0.527-  64 1.38  65 1.42  61 1.42
  64  0.349  0.773  0.534-  63 1.38  62 1.41  66 1.43
  65  0.395  0.524  0.524-  67 1.36  20 1.40  63 1.42
  66  0.393  0.856  0.542-  19 1.34  68 1.40  64 1.43
  67  0.436  0.611  0.527-  68 1.34  65 1.36  69 1.40
  68  0.436  0.770  0.538-  67 1.34  66 1.40  70 1.43
  69  0.480  0.527  0.528-  71 1.39  67 1.40  24 1.41
  70  0.480  0.851  0.543-  23 1.35  68 1.43  72 1.49
  71  0.524  0.604  0.529-  72 1.33  69 1.39  73 1.41
  72  0.527  0.765  0.537-  71 1.33  74 1.39  70 1.49
  73  0.568  0.521  0.525-  28 1.40  75 1.40  71 1.41
  74  0.569  0.854  0.535-  27 1.39  72 1.39  76 1.45
  75  0.612  0.601  0.523-  76 1.35  73 1.40  77 1.41
  76  0.613  0.768  0.525-  75 1.35  78 1.42  74 1.45
  77  0.656  0.519  0.517-  32 1.38  79 1.40  75 1.41
  78  0.657  0.848  0.518-  31 1.38  76 1.42  80 1.44
  79  0.697  0.599  0.503-  80 1.37  81 1.39  77 1.40
  80  0.698  0.768  0.502-  79 1.37  82 1.40  78 1.44
  81  0.738  0.522  0.491-  79 1.39  36 1.39  83 1.44
  82  0.741  0.853  0.496-  35 1.34  80 1.40  84 1.42
  83  0.780  0.603  0.476-  84 1.36  81 1.44  85 1.46
  84  0.783  0.769  0.483-  83 1.36  82 1.42  86 1.43
  85  0.826  0.521  0.470-  40 1.35  87 1.40  83 1.46
  86  0.827  0.851  0.476-  39 1.36  84 1.43  88 1.43
  87  0.868  0.604  0.461-  88 1.34  85 1.40  89 1.41
  88  0.871  0.767  0.468-  87 1.34  86 1.43  90 1.45
  89  0.912  0.526  0.453-  44 1.38  91 1.39  87 1.41
  90  0.916  0.852  0.468-  92 1.35  43 1.41  88 1.45
  91  0.956  0.602  0.446-  89 1.39  92 1.42  47 1.60  48 2.04
  92  0.956  0.773  0.456-  90 1.35  91 1.42  48 1.51
 
  LATTYP: Found a simple orthorhombic cell.
 ALAT       =     8.1000000000
 B/A-ratio  =     3.4629629630
 C/A-ratio  =     4.1358024691
  
  Lattice vectors:
  
 A1 = (   0.0000000000,  -8.1000000000,   0.0000000000)
 A2 = (  28.0500000000,   0.0000000000,   0.0000000000)
 A3 = (   0.0000000000,   0.0000000000,  33.5000000000)


Analysis of symmetry for initial positions (statically):
=====================================================================
 Subroutine PRICEL returns:
 Original cell was already a primitive cell.
 

 Routine SETGRP: Setting up the symmetry group for a 
 simple orthorhombic supercell.


 Subroutine GETGRP returns: Found  1 space group operations
 (whereof  1 operations were pure point group operations)
 out of a pool of  8 trial point group operations.


The static configuration has the point symmetry C_1 .


Analysis of symmetry for dynamics (positions and initial velocities):
=====================================================================
 Subroutine PRICEL returns:
 Original cell was already a primitive cell.
 

 Routine SETGRP: Setting up the symmetry group for a 
 simple orthorhombic supercell.


 Subroutine GETGRP returns: Found  1 space group operations
 (whereof  1 operations were pure point group operations)
 out of a pool of  8 trial point group operations.


The dynamic configuration has the point symmetry C_1 .


 Subroutine INISYM returns: Found  1 space group operations
 (whereof  1 operations are pure point group operations),
 and found     1 'primitive' translations


----------------------------------------------------------------------------------------

                                     Primitive cell                                     

  volume of cell :    7611.3675

  direct lattice vectors                    reciprocal lattice vectors
    28.050000000  0.000000000  0.000000000     0.035650624  0.000000000  0.000000000
     0.000000000  8.100000000  0.000000000     0.000000000  0.123456790  0.000000000
     0.000000000  0.000000000 33.500000000     0.000000000  0.000000000  0.029850746

  length of vectors
    28.050000000  8.100000000 33.500000000     0.035650624  0.123456790  0.029850746

  position of ions in fractional coordinates (direct lattice)
     0.007907166  0.111386049  0.465728358
     0.010375437  0.282638272  0.460014925
     0.049732977  0.028345309  0.472525373
     0.054209626  0.356114815  0.456931343
     0.093249911  0.108581852  0.479107463
     0.095977897  0.273676543  0.470137313
     0.136345098  0.025413457  0.489185075
     0.140854545  0.359476543  0.474361194
     0.177111230  0.107747654  0.500361194
     0.182774688  0.276983951  0.487808955
     0.220904456  0.024701111  0.509023881
     0.226622460  0.351127160  0.491319403
     0.263852763  0.100982346  0.517200000
     0.268131551  0.272401235  0.506104478
     0.306063102  0.016914691  0.528626866
     0.310539750  0.355496296  0.513928358
     0.347800713  0.107466420  0.536167164
     0.350993226  0.274200000  0.527002985
     0.391832442  0.020077778  0.546447761
     0.392859180  0.353911111  0.530674627
     0.435404635  0.107190000  0.549146269
     0.436253119  0.277639506  0.540770149
     0.480124777  0.016829877  0.547244776
     0.481461676  0.355482716  0.533925373
     0.523215686  0.104979383  0.544116418
     0.523775401  0.271538272  0.540922388
     0.569336898  0.023817284  0.540707463
     0.568962567  0.352318519  0.533895522
     0.614524064  0.099427284  0.533044776
     0.613572193  0.269567901  0.530352239
     0.658556150  0.016400370  0.523698507
     0.655978610  0.349728395  0.519737313
     0.704035651  0.096448889  0.518435821
     0.700488414  0.265576543  0.512832836
     0.745315508  0.012858148  0.505686567
     0.741985740  0.352370370  0.497259701
     0.786827094  0.100697778  0.494191045
     0.786402852  0.269943210  0.489776119
     0.828691622  0.018147654  0.481713433
     0.828352941  0.356746914  0.477483582
     0.871547237  0.102534815  0.473367164
     0.871251337  0.268740741  0.469892537
     0.914385027  0.026016667  0.467713433
     0.914951872  0.356065432  0.456343284
     0.956032086  0.106987407  0.458146269
     0.958495544  0.278445679  0.452492537
     0.012735330  0.604323457  0.446495522
     0.009640784  0.764720988  0.457668657
     0.055573975  0.526048148  0.452594030
     0.050675579  0.853979012  0.467716418
     0.099771480  0.609376543  0.458680597
     0.093794296  0.776102469  0.469973134
     0.143437077  0.525733333  0.467659701
     0.136458824  0.864304938  0.482029851
     0.185768271  0.615435802  0.476274627
     0.181284135  0.779750617  0.485907463
     0.227298039  0.528061728  0.486859701
     0.220782888  0.851372840  0.505241791
     0.264234938  0.610246914  0.506086567
     0.261840998  0.768839506  0.516752239
     0.307887701  0.524237037  0.514501493
     0.303515865  0.846766667  0.529859701
     0.350016043  0.606379012  0.526898507
     0.348685205  0.773454321  0.534307463
     0.394531194  0.524186420  0.524343284
     0.392880570  0.855859259  0.541650746
     0.436156863  0.610719753  0.526886567
     0.435832442  0.769722222  0.537683582
     0.480017825  0.527309877  0.527964179
     0.480481283  0.851160494  0.543447761
     0.524196078  0.603920988  0.529044776
     0.526623886  0.764846914  0.536567164
     0.568221034  0.520801235  0.525241791
     0.568926916  0.854002469  0.534997015
     0.612274510  0.601172840  0.522880597
     0.612577540  0.767746914  0.524626866
     0.655950089  0.519148148  0.517158209
     0.656930481  0.847875309  0.518098507
     0.696627451  0.599077778  0.502576119
     0.698491979  0.767871605  0.501874627
     0.738449198  0.521593827  0.490937313
     0.741351159  0.852932099  0.495874627
     0.780459893  0.603317284  0.476191045
     0.782951872  0.768822222  0.482904478
     0.826224599  0.520917284  0.470143284
     0.827151515  0.851424691  0.475973134
     0.868406417  0.604037037  0.460853731
     0.870737968  0.766523457  0.467904478
     0.912231729  0.525792593  0.452934328
     0.916003565  0.851802469  0.468152239
     0.955682709  0.602125926  0.446173134
     0.955832442  0.772998765  0.455859701

  ion indices of the primitive-cell ions
   primitive index   ion index
                 1           1
                 2           2
                 3           3
                 4           4
                 5           5
                 6           6
                 7           7
                 8           8
                 9           9
                10          10
                11          11
                12          12
                13          13
                14          14
                15          15
                16          16
                17          17
                18          18
                19          19
                20          20
                21          21
                22          22
                23          23
                24          24
                25          25
                26          26
                27          27
                28          28
                29          29
                30          30
                31          31
                32          32
                33          33
                34          34
                35          35
                36          36
                37          37
                38          38
                39          39
                40          40
                41          41
                42          42
                43          43
                44          44
                45          45
                46          46
                47          47
                48          48
                49          49
                50          50
                51          51
                52          52
                53          53
                54          54
                55          55
                56          56
                57          57
                58          58
                59          59
                60          60
                61          61
                62          62
                63          63
                64          64
                65          65
                66          66
                67          67
                68          68
                69          69
                70          70
                71          71
                72          72
                73          73
                74          74
                75          75
                76          76
                77          77
                78          78
                79          79
                80          80
                81          81
                82          82
                83          83
                84          84
                85          85
                86          86
                87          87
                88          88
                89          89
                90          90
                91          91
                92          92

----------------------------------------------------------------------------------------

 
 
 KPOINTS: K-Spacing Value to Generate K-Mesh: 0.03

Automatic generation of k-mesh.
 Grid dimensions read from file:
 generate k-points for:    1    4    1

 Generating k-lattice:

  Cartesian coordinates                     Fractional coordinates (reciprocal lattice)
     0.035650624  0.000000000  0.000000000     1.000000000  0.000000000  0.000000000
     0.000000000  0.030864198  0.000000000     0.000000000  0.250000000  0.000000000
     0.000000000  0.000000000  0.029850746     0.000000000  0.000000000  1.000000000

  Length of vectors
     0.035650624  0.030864198  0.029850746

  Shift w.r.t. Gamma in fractional coordinates (k-lattice)
     0.000000000  0.000000000  0.000000000

 
 Subroutine IBZKPT returns following result:
 ===========================================
 
 Found      3 irreducible k-points:
 
 Following reciprocal coordinates:
            Coordinates               Weight
  0.000000  0.000000  0.000000      1.000000
  0.000000  0.250000  0.000000      2.000000
  0.000000  0.500000  0.000000      1.000000
 
 Following cartesian coordinates:
            Coordinates               Weight
  0.000000  0.000000  0.000000      1.000000
  0.000000  0.030864  0.000000      2.000000
  0.000000  0.061728  0.000000      1.000000
 


--------------------------------------------------------------------------------------------------------




 Dimension of arrays:
   k-points           NKPTS =      3   k-points in BZ     NKDIM =      3   number of bands    NBANDS=    232
   number of dos      NEDOS =    301   number of ions     NIONS =     92
   non local maximal  LDIM  =      4   non local SUM 2l+1 LMDIM =      8
   total plane-waves  NPLWV = ******
   max r-space proj   IRMAX =   1967   max aug-charges    IRDMAX=   5083
   dimension x,y,z NGX =   210 NGY =   60 NGZ =  250
   dimension x,y,z NGXF=   420 NGYF=  120 NGZF=  500
   support grid    NGXF=   420 NGYF=  120 NGZF=  500
   ions per type =              92
   NGX,Y,Z   is equivalent  to a cutoff of  12.45, 12.31, 12.41 a.u.
   NGXF,Y,Z  is equivalent  to a cutoff of  24.89, 24.63, 24.81 a.u.

 SYSTEM =  unknown system                          
 POSCAR =   C                                      

 Startparameter for this run:
   NWRITE =      2    write-flag & timer
   PREC   = accura    normal or accurate (medium, high low for compatibility)
   ISTART =      0    job   : 0-new  1-cont  2-samecut
   ICHARG =      2    charge: 1-file 2-atom 10-const
   ISPIN  =      1    spin polarized calculation?
   LNONCOLLINEAR =      F non collinear calculations
   LSORBIT =      F    spin-orbit coupling
   INIWAV =      1    electr: 0-lowe 1-rand  2-diag
   LASPH  =      F    aspherical Exc in radial PAW
 Electronic Relaxation 1
   ENCUT  =  500.0 eV  36.75 Ry    6.06 a.u.  51.14 14.77 61.08*2*pi/ulx,y,z
   ENINI  =  500.0     initial cutoff
   ENAUG  =  644.9 eV  augmentation charge cutoff
   NELM   =    150;   NELMIN=  2; NELMDL= -5     # of ELM steps 
   EDIFF  = 0.1E-05   stopping-criterion for ELM
   LREAL  =      T    real-space projection
   NLSPLINE    = F    spline interpolate recip. space projectors
   LCOMPAT=      F    compatible to vasp.4.4
   GGA_COMPAT  = T    GGA compatible to vasp.4.4-vasp.4.6
   LMAXPAW     = -100 max onsite density
   LMAXMIX     =    2 max onsite mixed and CHGCAR
   VOSKOWN=      0    Vosko Wilk Nusair interpolation
   ROPT   =   -0.00025
 Ionic relaxation
   EDIFFG = 0.1E-04   stopping-criterion for IOM
   NSW    =      0    number of steps for IOM
   NBLOCK =      1;   KBLOCK =      1    inner block; outer block 
   IBRION =     -1    ionic relax: 0-MD 1-quasi-New 2-CG
   NFREE  =      0    steps in history (QN), initial steepest desc. (CG)
   ISIF   =      2    stress and relaxation
   IWAVPR =     10    prediction:  0-non 1-charg 2-wave 3-comb
   ISYM   =      2    0-nonsym 1-usesym 2-fastsym
   LCORR  =      T    Harris-Foulkes like correction to forces

   POTIM  = 0.5000    time-step for ionic-motion
   TEIN   =    0.0    initial temperature
   TEBEG  =    0.0;   TEEND  =   0.0 temperature during run
   SMASS  =  -3.00    Nose mass-parameter (am)
   estimated Nose-frequenzy (Omega)   =  0.10E-29 period in steps = 0.13E+47 mass=  -0.180E-25a.u.
   SCALEE = 1.0000    scale energy and forces
   NPACO  =    256;   APACO  = 10.0  distance and # of slots for P.C.
   PSTRESS=    0.0 pullay stress

  Mass of Ions in am
   POMASS =  12.01
  Ionic Valenz
   ZVAL   =   4.00
  Atomic Wigner-Seitz radii
   RWIGS  =  -1.00
  virtual crystal weights 
   VCA    =   1.00
   NELECT =     368.0000    total number of electrons
   NUPDOWN=      -1.0000    fix difference up-down

 DOS related values:
   EMIN   =  10.00;   EMAX   =-10.00  energy-range for DOS
   EFERMI =   0.00;   METHOD = LEGACY      
   ISMEAR =     0;   SIGMA  =   0.20  broadening in eV -4-tet -1-fermi 0-gaus
   EFERMI_NEDOS =   21; number of points for ismear=-14 and -15

 Electronic relaxation 2 (details)
   IALGO  =     38    algorithm
   LDIAG  =      T    sub-space diagonalisation (order eigenvalues)
   LSUBROT=      F    optimize rotation matrix (better conditioning)
   TURBO    =      0    0=normal 1=particle mesh
   IRESTART =      0    0=no restart 2=restart with 2 vectors
   NREBOOT  =      0    no. of reboots
   NMIN     =      0    reboot dimension
   EREF     =   0.00    reference energy to select bands
   IMIX   =      4    mixing-type and parameters
     AMIX     =   0.40;   BMIX     =  1.00
     AMIX_MAG =   1.60;   BMIX_MAG =  1.00
     AMIN     =   0.10
     WC   =   100.;   INIMIX=   1;  MIXPRE=   1;  MAXMIX= -45

 Intra band minimization:
   WEIMIN = 0.0000     energy-eigenvalue tresh-hold
   EBREAK =  0.11E-08  absolut break condition
   DEPER  =   0.30     relativ break condition  

   TIME   =   0.40     timestep for ELM

  volume/ion in A,a.u.               =      82.73       558.30
  Fermi-wavevector in a.u.,A,eV,Ry     =   0.596398  1.127030  4.839472  0.355691
  Thomas-Fermi vector in A             =   1.646729
 
 Write flags
   LWAVE        =      F    write WAVECAR
   LDOWNSAMPLE  =      F    k-point downsampling of WAVECAR
   LCHARG       =      F    write CHGCAR
   LVTOT        =      F    write LOCPOT, total local potential
   LVHAR        =      F    write LOCPOT, Hartree potential only
   WRT_POTENTIAL= false  ! write potential to hdf5 file
   LELF         =      F    write electronic localiz. function (ELF)
   LORBIT       =      0    0 simple, 1 ext, 2 COOP (PROOUT), +10 PAW based schemes


 Python interface
   PLUGINS active      =      F    recompile with -DPLUGINS to activate
 
 Dipole corrections
   LMONO      =      F    monopole corrections only (constant potential shift)
   LDIPOL     =      F    correct potential (dipole corrections)
   IDIPOL     =      0    1-x, 2-y, 3-z, 4-all directions 
   EPSILON    =  1.0000000 bulk dielectric constant
   LVACPOTAV  =      F  vacuum potentials using an averaging scheme for the charge density
   VACPOTFLAT =  0.1000000 required flatness to determine vacuum potential
 
Coulomb truncation method
  LTRUNCATE          =      F  Coulomb kernel truncation to be used
  IDIMENSIONALITY    =      3  Dimensionality of cutoff (0 molecules / 2 surfaces)
  ISURFACE           =     -1  Direction of surface normal
  LCOARSEN           =      F  Coarsen the charge grid before padding, preferred

 
 Exchange correlation treatment:
   GGA     = PE    functional components
   XC_C    = 1    coefficients multiplying the functional components
   LIBXC   =     F    Libxc                    
   VOSKOWN =     0    Vosko Wilk Nusair interpolation
   LHFCALC =     F    Hartree Fock is set to
   LHFONE  =     F    Hartree Fock one center treatment
   AEXX    =    0.0000 exact exchange contribution

 Parameters of functionals:
   PE:
     No parameter
 
 Van der Waals corrections
   IVDW    =     0    specifies the selected vdW correction

 Linear response parameters
   LEPSILON=     F    determine dielectric tensor
   LRPA    =     F    only Hartree local field effects (RPA)
   LNABLA  =     F    use nabla operator in PAW spheres
   LVEL    =     F    velocity operator in full k-point grid
   CSHIFT  =0.1000    complex shift for real part using Kramers Kronig
   OMEGAMAX=  -1.0    maximum frequency
   DEG_THRESHOLD= 0.2000000E-02 threshold for treating states as degnerate
   RTIME   =   -0.100 relaxation time in fs
  (WPLASMAI=    0.000 imaginary part of plasma frequency in eV, 0.658/RTIME)
   DFIELD  = 0.0000000 0.0000000 0.0000000 field for delta impulse in time
 
  Optional k-point grid parameters
   LKPOINTS_OPT  =     F    use optional k-point grid
   KPOINTS_OPT_MODE=     1    mode for optional k-point grid
 
 Orbital magnetization related:
   ORBITALMAG=     F  switch on orbital magnetization
   LCHIMAG   =     F  perturbation theory with respect to B field
   DQ        =  0.001000  dq finite difference perturbation B field
   LLRAUG    =     F  two centre corrections for induced B field
   LBONE     =     F  B-component reconstruction in AE one-centre
   LVGVCALC  =     T  calculate vGv susceptibility
   LVGVAPPL  =     F  apply vGv susceptibility instead of pGv for G=0

 Random number generation:
   RANDOM_GENERATOR = DEFAULT
   PCG_SEED         = not used


--------------------------------------------------------------------------------------------------------


 Static calculation
 charge density and potential will be updated during run
 non-spin polarized calculation
 Variant of blocked Davidson
 Davidson routine will perform the subspace rotation
 perform sub-space diagonalisation
    after iterative eigenvector-optimisation
 modified Broyden-mixing scheme, WC =      100.0
 initial mixing is a Kerker type mixing with AMIX =  0.4000 and BMIX =      1.0000
 Hartree-type preconditioning will be used
 using additional bands            48
 real space projection scheme for non local part
 use partial core corrections
 calculate Harris-corrections to forces 
   (improved forces if not selfconsistent)
 use gradient corrections 
 use of overlap-Matrix (Vanderbilt PP)
 Gauss-broadening in eV      SIGMA  =   0.20


--------------------------------------------------------------------------------------------------------


  energy-cutoff  :      500.00
  volume of cell :     7611.37
      direct lattice vectors                 reciprocal lattice vectors
    28.050000000  0.000000000  0.000000000     0.035650624  0.000000000  0.000000000
     0.000000000  8.100000000  0.000000000     0.000000000  0.123456790  0.000000000
     0.000000000  0.000000000 33.500000000     0.000000000  0.000000000  0.029850746

  length of vectors
    28.050000000  8.100000000 33.500000000     0.035650624  0.123456790  0.029850746


 
 k-points in units of 2pi/SCALE and weight: K-Spacing Value to Generate K-Mesh: 0.03
   0.00000000  0.00000000  0.00000000       0.250
   0.00000000  0.03086420  0.00000000       0.500
   0.00000000  0.06172840  0.00000000       0.250
 
 k-points in reciprocal lattice and weights: K-Spacing Value to Generate K-Mesh: 0.03
   0.00000000  0.00000000  0.00000000       0.250
   0.00000000  0.25000000  0.00000000       0.500
   0.00000000  0.50000000  0.00000000       0.250
 
 position of ions in fractional coordinates (direct lattice) 
   0.00790717  0.11138605  0.46572836
   0.01037544  0.28263827  0.46001493
   0.04973298  0.02834531  0.47252537
   0.05420963  0.35611481  0.45693134
   0.09324991  0.10858185  0.47910746
   0.09597790  0.27367654  0.47013731
   0.13634510  0.02541346  0.48918507
   0.14085455  0.35947654  0.47436119
   0.17711123  0.10774765  0.50036119
   0.18277469  0.27698395  0.48780896
   0.22090446  0.02470111  0.50902388
   0.22662246  0.35112716  0.49131940
   0.26385276  0.10098235  0.51720000
   0.26813155  0.27240123  0.50610448
   0.30606310  0.01691469  0.52862687
   0.31053975  0.35549630  0.51392836
   0.34780071  0.10746642  0.53616716
   0.35099323  0.27420000  0.52700299
   0.39183244  0.02007778  0.54644776
   0.39285918  0.35391111  0.53067463
   0.43540463  0.10719000  0.54914627
   0.43625312  0.27763951  0.54077015
   0.48012478  0.01682988  0.54724478
   0.48146168  0.35548272  0.53392537
   0.52321569  0.10497938  0.54411642
   0.52377540  0.27153827  0.54092239
   0.56933690  0.02381728  0.54070746
   0.56896257  0.35231852  0.53389552
   0.61452406  0.09942728  0.53304478
   0.61357219  0.26956790  0.53035224
   0.65855615  0.01640037  0.52369851
   0.65597861  0.34972840  0.51973731
   0.70403565  0.09644889  0.51843582
   0.70048841  0.26557654  0.51283284
   0.74531551  0.01285815  0.50568657
   0.74198574  0.35237037  0.49725970
   0.78682709  0.10069778  0.49419104
   0.78640285  0.26994321  0.48977612
   0.82869162  0.01814765  0.48171343
   0.82835294  0.35674691  0.47748358
   0.87154724  0.10253481  0.47336716
   0.87125134  0.26874074  0.46989254
   0.91438503  0.02601667  0.46771343
   0.91495187  0.35606543  0.45634328
   0.95603209  0.10698741  0.45814627
   0.95849554  0.27844568  0.45249254
   0.01273533  0.60432346  0.44649552
   0.00964078  0.76472099  0.45766866
   0.05557398  0.52604815  0.45259403
   0.05067558  0.85397901  0.46771642
   0.09977148  0.60937654  0.45868060
   0.09379430  0.77610247  0.46997313
   0.14343708  0.52573333  0.46765970
   0.13645882  0.86430494  0.48202985
   0.18576827  0.61543580  0.47627463
   0.18128414  0.77975062  0.48590746
   0.22729804  0.52806173  0.48685970
   0.22078289  0.85137284  0.50524179
   0.26423494  0.61024691  0.50608657
   0.26184100  0.76883951  0.51675224
   0.30788770  0.52423704  0.51450149
   0.30351586  0.84676667  0.52985970
   0.35001604  0.60637901  0.52689851
   0.34868520  0.77345432  0.53430746
   0.39453119  0.52418642  0.52434328
   0.39288057  0.85585926  0.54165075
   0.43615686  0.61071975  0.52688657
   0.43583244  0.76972222  0.53768358
   0.48001783  0.52730988  0.52796418
   0.48048128  0.85116049  0.54344776
   0.52419608  0.60392099  0.52904478
   0.52662389  0.76484691  0.53656716
   0.56822103  0.52080123  0.52524179
   0.56892692  0.85400247  0.53499701
   0.61227451  0.60117284  0.52288060
   0.61257754  0.76774691  0.52462687
   0.65595009  0.51914815  0.51715821
   0.65693048  0.84787531  0.51809851
   0.69662745  0.59907778  0.50257612
   0.69849198  0.76787160  0.50187463
   0.73844920  0.52159383  0.49093731
   0.74135116  0.85293210  0.49587463
   0.78045989  0.60331728  0.47619104
   0.78295187  0.76882222  0.48290448
   0.82622460  0.52091728  0.47014328
   0.82715152  0.85142469  0.47597313
   0.86840642  0.60403704  0.46085373
   0.87073797  0.76652346  0.46790448
   0.91223173  0.52579259  0.45293433
   0.91600357  0.85180247  0.46815224
   0.95568271  0.60212593  0.44617313
   0.95583244  0.77299877  0.45585970
 
 position of ions in cartesian coordinates  (Angst):
   0.22179600  0.90222700 15.60190000
   0.29103100  2.28937000 15.41050000
   1.39501000  0.22959700 15.82960000
   1.52058000  2.88453000 15.30720000
   2.61566000  0.87951300 16.05010000
   2.69218000  2.21678000 15.74960000
   3.82448000  0.20584900 16.38770000
   3.95097000  2.91176000 15.89110000
   4.96797000  0.87275600 16.76210000
   5.12683000  2.24357000 16.34160000
   6.19637000  0.20007900 17.05230000
   6.35676000  2.84413000 16.45920000
   7.40107000  0.81795700 17.32620000
   7.52109000  2.20645000 16.95450000
   8.58507000  0.13700900 17.70900000
   8.71064000  2.87952000 17.21660000
   9.75581000  0.87047800 17.96160000
   9.84536000  2.22102000 17.65460000
  10.99090000  0.16263000 18.30600000
  11.01970000  2.86668000 17.77760000
  12.21310000  0.86823900 18.39640000
  12.23690000  2.24888000 18.11580000
  13.46750000  0.13632200 18.33270000
  13.50500000  2.87941000 17.88650000
  14.67620000  0.85033300 18.22790000
  14.69190000  2.19946000 18.12090000
  15.96990000  0.19292000 18.11370000
  15.95940000  2.85378000 17.88550000
  17.23740000  0.80536100 17.85700000
  17.21070000  2.18350000 17.76680000
  18.47250000  0.13284300 17.54390000
  18.40020000  2.83280000 17.41120000
  19.74820000  0.78123600 17.36760000
  19.64870000  2.15117000 17.17990000
  20.90610000  0.10415100 16.94050000
  20.81270000  2.85420000 16.65820000
  22.07050000  0.81565200 16.55540000
  22.05860000  2.18654000 16.40750000
  23.24480000  0.14699600 16.13740000
  23.23530000  2.88965000 15.99570000
  24.44690000  0.83053200 15.85780000
  24.43860000  2.17680000 15.74140000
  25.64850000  0.21073500 15.66840000
  25.66440000  2.88413000 15.28750000
  26.81670000  0.86659800 15.34790000
  26.88580000  2.25541000 15.15850000
   0.35722600  4.89502000 14.95760000
   0.27042400  6.19424000 15.33190000
   1.55885000  4.26099000 15.16190000
   1.42145000  6.91723000 15.66850000
   2.79859000  4.93595000 15.36580000
   2.63093000  6.28643000 15.74410000
   4.02341000  4.25844000 15.66660000
   3.82767000  7.00087000 16.14800000
   5.21080000  4.98503000 15.95520000
   5.08502000  6.31598000 16.27790000
   6.37571000  4.27730000 16.30980000
   6.19296000  6.89612000 16.92560000
   7.41179000  4.94300000 16.95390000
   7.34464000  6.22760000 17.31120000
   8.63625000  4.24632000 17.23580000
   8.51362000  6.85881000 17.75030000
   9.81795000  4.91167000 17.65110000
   9.78062000  6.26498000 17.89930000
  11.06660000  4.24591000 17.56550000
  11.02030000  6.93246000 18.14530000
  12.23420000  4.94683000 17.65070000
  12.22510000  6.23475000 18.01240000
  13.46450000  4.27121000 17.68680000
  13.47750000  6.89440000 18.20550000
  14.70370000  4.89176000 17.72300000
  14.77180000  6.19526000 17.97500000
  15.93860000  4.21849000 17.59560000
  15.95840000  6.91742000 17.92240000
  17.17430000  4.86950000 17.51650000
  17.18280000  6.21875000 17.57500000
  18.39940000  4.20510000 17.32480000
  18.42690000  6.86779000 17.35630000
  19.54040000  4.85253000 16.83630000
  19.59270000  6.21976000 16.81280000
  20.71350000  4.22491000 16.44640000
  20.79490000  6.90875000 16.61180000
  21.89190000  4.88687000 15.95240000
  21.96180000  6.22746000 16.17730000
  23.17560000  4.21943000 15.74980000
  23.20160000  6.89654000 15.94510000
  24.35880000  4.89270000 15.43860000
  24.42420000  6.20884000 15.67480000
  25.58810000  4.25892000 15.17330000
  25.69390000  6.89960000 15.68310000
  26.80690000  4.87722000 14.94680000
  26.81110000  6.26129000 15.27130000
 


--------------------------------------------------------------------------------------------------------


 k-point     1 :   0.0000 0.0000 0.0000  plane waves:  193173
 k-point     2 :   0.0000 0.2500 0.0000  plane waves:  193166
 k-point     3 :   0.0000 0.5000 0.0000  plane waves:  193226

 maximum and minimum number of plane-waves per node :    193226   193166

 maximum number of plane-waves:    193226
 maximum index in each direction: 
   IXMAX=   51   IYMAX=   14   IZMAX=   61
   IXMIN=  -51   IYMIN=  -15   IZMIN=  -61


 serial   3D FFT for wavefunctions
 parallel 3D FFT for charge:
    minimum data exchange during FFTs selected (reduces bandwidth)


 total amount of memory used by VASP MPI-rank0  2294505. kBytes
=======================================================================

   base                                    :      30000. kBytes
   nonlr-proj                              :      15071. kBytes
   fftplans                                :     436558. kBytes
   grid                                    :     732614. kBytes
   one-center                              :        282. kBytes
   wavefun                                 :    1079980. kBytes
 
     INWAV:  cpu time      0.0000: real time      0.0000
 Broyden mixing: mesh for mixing (old mesh)
   NGX =103   NGY = 29   NGZ =123
  (NGX  =420   NGY  =120   NGZ  =500)
  gives a total of 367401 points

 initial charge density was supplied:
 charge density of overlapping atoms calculated
 number of electron     368.0000000 magnetization 
 keeping initial charge density in first step


--------------------------------------------------------------------------------------------------------


 Maximum index for non-local projection operator          1875
 Maximum index for augmentation-charges          2382 (set IRDMAX)


--------------------------------------------------------------------------------------------------------


 First call to EWALD:  gamma=   0.090
 Maximum number of real-space cells   2x   6x   2
 Maximum number of reciprocal cells   4x   1x   4

    FEWALD:  cpu time      0.1633: real time      0.1634


--------------------------------------- Ionic step        1  -------------------------------------------




--------------------------------------- Iteration      1(   1)  ---------------------------------------


    POTLOK:  cpu time      0.4214: real time      0.4483
    SETDIJ:  cpu time      0.0421: real time      0.0421
     EDDAV:  cpu time     11.0715: real time     11.0755
       DOS:  cpu time      0.0008: real time      0.0008
    --------------------------------------------
      LOOP:  cpu time     11.5359: real time     11.5667

 eigenvalue-minimisations  :  1712
 total energy-change (2. order) : 0.3702962E+04  (-0.1190205E+05)
 number of electron     368.0000000 magnetization 
 augmentation part      368.0000000 magnetization 

 Free energy of the ion-electron system (eV)
  ---------------------------------------------------
  alpha Z        PSCENC =        91.34886789
  Ewald energy   TEWEN  =    120356.73118724
  -Hartree energ DENC   =   -129678.07307646
  -exchange      EXHF   =         0.00000000
  -V(xc)+E(xc)   XCENC  =      1221.70815260
  PAW double counting   =      9984.02826696   -10036.41360137
  entropy T*S    EENTRO =        -0.84315412
  eigenvalues    EBANDS =     -1773.17927969
  atomic energy  EATOM  =     13537.65479391
  Solvation  Ediel_sol  =         0.00000000
  ---------------------------------------------------
  free energy    TOTEN  =      3702.96215696 eV

  energy without entropy =     3703.80531108  energy(sigma->0) =     3703.38373402


--------------------------------------------------------------------------------------------------------




--------------------------------------- Iteration      1(   2)  ---------------------------------------


     EDDAV:  cpu time     13.1341: real time     13.1387
       DOS:  cpu time      0.0007: real time      0.0007
    --------------------------------------------
      LOOP:  cpu time     13.1348: real time     13.1394

 eigenvalue-minimisations  :  2144
 total energy-change (2. order) :-0.3520277E+04  (-0.3256493E+04)
 number of electron     368.0000000 magnetization 
 augmentation part      368.0000000 magnetization 

 Free energy of the ion-electron system (eV)
  ---------------------------------------------------
  alpha Z        PSCENC =        91.34886789
  Ewald energy   TEWEN  =    120356.73118724
  -Hartree energ DENC   =   -129678.07307646
  -exchange      EXHF   =         0.00000000
  -V(xc)+E(xc)   XCENC  =      1221.70815260
  PAW double counting   =      9984.02826696   -10036.41360137
  entropy T*S    EENTRO =        -0.14451231
  eigenvalues    EBANDS =     -5294.15537050
  atomic energy  EATOM  =     13537.65479391
  Solvation  Ediel_sol  =         0.00000000
  ---------------------------------------------------
  free energy    TOTEN  =       182.68470796 eV

  energy without entropy =      182.82922027  energy(sigma->0) =      182.75696412


--------------------------------------------------------------------------------------------------------




--------------------------------------- Iteration      1(   3)  ---------------------------------------


     EDDAV:  cpu time     11.3442: real time     11.3503
       DOS:  cpu time      0.0007: real time      0.0007
    --------------------------------------------
      LOOP:  cpu time     11.3448: real time     11.3510

 eigenvalue-minimisations  :  1800
 total energy-change (2. order) :-0.1017525E+04  (-0.9970925E+03)
 number of electron     368.0000000 magnetization 
 augmentation part      368.0000000 magnetization 

 Free energy of the ion-electron system (eV)
  ---------------------------------------------------
  alpha Z        PSCENC =        91.34886789
  Ewald energy   TEWEN  =    120356.73118724
  -Hartree energ DENC   =   -129678.07307646
  -exchange      EXHF   =         0.00000000
  -V(xc)+E(xc)   XCENC  =      1221.70815260
  PAW double counting   =      9984.02826696   -10036.41360137
  entropy T*S    EENTRO =        -0.04460095
  eigenvalues    EBANDS =     -6311.77988133
  atomic energy  EATOM  =     13537.65479391
  Solvation  Ediel_sol  =         0.00000000
  ---------------------------------------------------
  free energy    TOTEN  =      -834.83989151 eV

  energy without entropy =     -834.79529056  energy(sigma->0) =     -834.81759103


--------------------------------------------------------------------------------------------------------




--------------------------------------- Iteration      1(   4)  ---------------------------------------


     EDDAV:  cpu time     10.9962: real time     11.0018
       DOS:  cpu time      0.0007: real time      0.0007
    --------------------------------------------
      LOOP:  cpu time     10.9968: real time     11.0025

 eigenvalue-minimisations  :  1728
 total energy-change (2. order) :-0.6176595E+02  (-0.6074850E+02)
 number of electron     368.0000000 magnetization 
 augmentation part      368.0000000 magnetization 

 Free energy of the ion-electron system (eV)
  ---------------------------------------------------
  alpha Z        PSCENC =        91.34886789
  Ewald energy   TEWEN  =    120356.73118724
  -Hartree energ DENC   =   -129678.07307646
  -exchange      EXHF   =         0.00000000
  -V(xc)+E(xc)   XCENC  =      1221.70815260
  PAW double counting   =      9984.02826696   -10036.41360137
  entropy T*S    EENTRO =        -0.05626393
  eigenvalues    EBANDS =     -6373.53416975
  atomic energy  EATOM  =     13537.65479391
  Solvation  Ediel_sol  =         0.00000000
  ---------------------------------------------------
  free energy    TOTEN  =      -896.60584291 eV

  energy without entropy =     -896.54957898  energy(sigma->0) =     -896.57771095


--------------------------------------------------------------------------------------------------------




--------------------------------------- Iteration      1(   5)  ---------------------------------------


     EDDAV:  cpu time     11.3332: real time     11.3370
       DOS:  cpu time      0.0007: real time      0.0007
    CHARGE:  cpu time      1.2081: real time      1.2095
    MIXING:  cpu time      0.2740: real time      0.2747
    --------------------------------------------
      LOOP:  cpu time     12.8159: real time     12.8219

 eigenvalue-minimisations  :  1800
 total energy-change (2. order) :-0.1504818E+01  (-0.1485923E+01)
 number of electron     368.0000011 magnetization 
 augmentation part       10.1707606 magnetization 

 Broyden mixing:
  rms(total) = 0.45620E+01    rms(broyden)= 0.45614E+01
  rms(prec ) = 0.46796E+01
  weight for this iteration     100.00

 Free energy of the ion-electron system (eV)
  ---------------------------------------------------
  alpha Z        PSCENC =        91.34886789
  Ewald energy   TEWEN  =    120356.73118724
  -Hartree energ DENC   =   -129678.07307646
  -exchange      EXHF   =         0.00000000
  -V(xc)+E(xc)   XCENC  =      1221.70815260
  PAW double counting   =      9984.02826696   -10036.41360137
  entropy T*S    EENTRO =        -0.05674521
  eigenvalues    EBANDS =     -6375.03850659
  atomic energy  EATOM  =     13537.65479391
  Solvation  Ediel_sol  =         0.00000000
  ---------------------------------------------------
  free energy    TOTEN  =      -898.11066102 eV

  energy without entropy =     -898.05391582  energy(sigma->0) =     -898.08228842


--------------------------------------------------------------------------------------------------------




--------------------------------------- Iteration      1(   6)  ---------------------------------------


    POTLOK:  cpu time      0.3214: real time      0.3214
    SETDIJ:  cpu time      0.0404: real time      0.0404
     EDDAV:  cpu time     10.1369: real time     10.1405
       DOS:  cpu time      0.0007: real time      0.0007
    CHARGE:  cpu time      1.1599: real time      1.1614
    MIXING:  cpu time      0.2781: real time      0.2781
    --------------------------------------------
      LOOP:  cpu time     11.9374: real time     11.9426

 eigenvalue-minimisations  :  1560
 total energy-change (2. order) : 0.4982367E+02  (-0.4780674E+01)
 number of electron     368.0000010 magnetization 
 augmentation part        9.7397273 magnetization 

 Broyden mixing:
  rms(total) = 0.26784E+01    rms(broyden)= 0.26783E+01
  rms(prec ) = 0.27365E+01
  weight for this iteration     100.00

 eigenvalues of (default mixing * dielectric matrix)
  average eigenvalue GAMMA=   2.1781
  2.1781

 Free energy of the ion-electron system (eV)
  ---------------------------------------------------
  alpha Z        PSCENC =        91.34886789
  Ewald energy   TEWEN  =    120356.73118724
  -Hartree energ DENC   =   -130250.76800511
  -exchange      EXHF   =         0.00000000
  -V(xc)+E(xc)   XCENC  =      1245.08216426
  PAW double counting   =     18966.01612722   -19026.04991521
  entropy T*S    EENTRO =        -0.05812219
  eigenvalues    EBANDS =     -5768.24408491
  atomic energy  EATOM  =     13537.65479391
  Solvation  Ediel_sol  =         0.00000000
  ---------------------------------------------------
  free energy    TOTEN  =      -848.28698690 eV

  energy without entropy =     -848.22886471  energy(sigma->0) =     -848.25792581


--------------------------------------------------------------------------------------------------------




--------------------------------------- Iteration      1(   7)  ---------------------------------------


    POTLOK:  cpu time      0.3197: real time      0.3197
    SETDIJ:  cpu time      0.0404: real time      0.0405
     EDDAV:  cpu time     10.1405: real time     10.1441
       DOS:  cpu time      0.0007: real time      0.0007
    CHARGE:  cpu time      1.1565: real time      1.1578
    MIXING:  cpu time      0.2789: real time      0.2795
    --------------------------------------------
      LOOP:  cpu time     11.9368: real time     11.9423

 eigenvalue-minimisations  :  1560
 total energy-change (2. order) : 0.1849926E+02  (-0.6504392E+01)
 number of electron     368.0000010 magnetization 
 augmentation part        9.1835818 magnetization 

 Broyden mixing:
  rms(total) = 0.73665E+00    rms(broyden)= 0.73637E+00
  rms(prec ) = 0.74638E+00
  weight for this iteration     100.00

 eigenvalues of (default mixing * dielectric matrix)
  average eigenvalue GAMMA=   2.1683
  2.1683  2.1683

 Free energy of the ion-electron system (eV)
  ---------------------------------------------------
  alpha Z        PSCENC =        91.34886789
  Ewald energy   TEWEN  =    120356.73118724
  -Hartree energ DENC   =   -131014.85124356
  -exchange      EXHF   =         0.00000000
  -V(xc)+E(xc)   XCENC  =      1276.13990028
  PAW double counting   =     36602.41720819   -36669.35781895
  entropy T*S    EENTRO =        -0.06298945
  eigenvalues    EBANDS =     -5009.80763658
  atomic energy  EATOM  =     13537.65479391
  Solvation  Ediel_sol  =         0.00000000
  ---------------------------------------------------
  free energy    TOTEN  =      -829.78773104 eV

  energy without entropy =     -829.72474159  energy(sigma->0) =     -829.75623631


--------------------------------------------------------------------------------------------------------




--------------------------------------- Iteration      1(   8)  ---------------------------------------


    POTLOK:  cpu time      0.3216: real time      0.3216
    SETDIJ:  cpu time      0.0405: real time      0.0405
     EDDAV:  cpu time     10.4261: real time     10.4300
       DOS:  cpu time      0.0007: real time      0.0007
    CHARGE:  cpu time      1.1528: real time      1.1550
    MIXING:  cpu time      0.2818: real time      0.2818
    --------------------------------------------
      LOOP:  cpu time     12.2234: real time     12.2296

 eigenvalue-minimisations  :  1616
 total energy-change (2. order) : 0.2822078E+00  (-0.2393507E+00)
 number of electron     368.0000010 magnetization 
 augmentation part        9.1656896 magnetization 

 Broyden mixing:
  rms(total) = 0.10658E+00    rms(broyden)= 0.10655E+00
  rms(prec ) = 0.12799E+00
  weight for this iteration     100.00

 eigenvalues of (default mixing * dielectric matrix)
  average eigenvalue GAMMA=   1.8516
  1.1877  2.4287  1.9384

 Free energy of the ion-electron system (eV)
  ---------------------------------------------------
  alpha Z        PSCENC =        91.34886789
  Ewald energy   TEWEN  =    120356.73118724
  -Hartree energ DENC   =   -131108.56998741
  -exchange      EXHF   =         0.00000000
  -V(xc)+E(xc)   XCENC  =      1276.05373095
  PAW double counting   =     40830.89810137   -40895.27147560
  entropy T*S    EENTRO =        -0.06105726
  eigenvalues    EBANDS =     -4918.28968433
  atomic energy  EATOM  =     13537.65479391
  Solvation  Ediel_sol  =         0.00000000
  ---------------------------------------------------
  free energy    TOTEN  =      -829.50552324 eV

  energy without entropy =     -829.44446598  energy(sigma->0) =     -829.47499461


--------------------------------------------------------------------------------------------------------




--------------------------------------- Iteration      1(   9)  ---------------------------------------


    POTLOK:  cpu time      0.3204: real time      0.3204
    SETDIJ:  cpu time      0.0402: real time      0.0402
     EDDAV:  cpu time     10.6207: real time     10.6274
       DOS:  cpu time      0.0007: real time      0.0007
    CHARGE:  cpu time      1.1552: real time      1.1554
    MIXING:  cpu time      0.2847: real time      0.2847
    --------------------------------------------
      LOOP:  cpu time     12.4219: real time     12.4288

 eigenvalue-minimisations  :  1656
 total energy-change (2. order) : 0.1091846E+00  (-0.2541558E-01)
 number of electron     368.0000010 magnetization 
 augmentation part        9.1442129 magnetization 

 Broyden mixing:
  rms(total) = 0.57209E-01    rms(broyden)= 0.57201E-01
  rms(prec ) = 0.78805E-01
  weight for this iteration     100.00

 eigenvalues of (default mixing * dielectric matrix)
  average eigenvalue GAMMA=   1.6817
  2.2035  2.2035  1.0742  1.2456

 Free energy of the ion-electron system (eV)
  ---------------------------------------------------
  alpha Z        PSCENC =        91.34886789
  Ewald energy   TEWEN  =    120356.73118724
  -Hartree energ DENC   =   -131178.84209478
  -exchange      EXHF   =         0.00000000
  -V(xc)+E(xc)   XCENC  =      1277.39052868
  PAW double counting   =     41461.65364070   -41526.00110790
  entropy T*S    EENTRO =        -0.06126251
  eigenvalues    EBANDS =     -4849.27089184
  atomic energy  EATOM  =     13537.65479391
  Solvation  Ediel_sol  =         0.00000000
  ---------------------------------------------------
  free energy    TOTEN  =      -829.39633861 eV

  energy without entropy =     -829.33507611  energy(sigma->0) =     -829.36570736


--------------------------------------------------------------------------------------------------------




--------------------------------------- Iteration      1(  10)  ---------------------------------------


    POTLOK:  cpu time      0.3215: real time      0.3216
    SETDIJ:  cpu time      0.0402: real time      0.0402
     EDDAV:  cpu time     11.0608: real time     11.0671
       DOS:  cpu time      0.0007: real time      0.0007
    CHARGE:  cpu time      1.1526: real time      1.1557
    MIXING:  cpu time      0.2902: real time      0.2922
    --------------------------------------------
      LOOP:  cpu time     12.8660: real time     12.8775

 eigenvalue-minimisations  :  1744
 total energy-change (2. order) : 0.3695339E-01  (-0.4666908E-02)
 number of electron     368.0000010 magnetization 
 augmentation part        9.1344119 magnetization 

 Broyden mixing:
  rms(total) = 0.37027E-01    rms(broyden)= 0.37024E-01
  rms(prec ) = 0.56717E-01
  weight for this iteration     100.00

 eigenvalues of (default mixing * dielectric matrix)
  average eigenvalue GAMMA=   1.6820
  2.3904  2.3904  1.5045  1.2702  0.8545

 Free energy of the ion-electron system (eV)
  ---------------------------------------------------
  alpha Z        PSCENC =        91.34886789
  Ewald energy   TEWEN  =    120356.73118724
  -Hartree energ DENC   =   -131226.09021206
  -exchange      EXHF   =         0.00000000
  -V(xc)+E(xc)   XCENC  =      1277.72396520
  PAW double counting   =     41261.57630739   -41325.80185856
  entropy T*S    EENTRO =        -0.06125931
  eigenvalues    EBANDS =     -4802.44117691
  atomic energy  EATOM  =     13537.65479391
  Solvation  Ediel_sol  =         0.00000000
  ---------------------------------------------------
  free energy    TOTEN  =      -829.35938522 eV

  energy without entropy =     -829.29812591  energy(sigma->0) =     -829.32875557


--------------------------------------------------------------------------------------------------------




--------------------------------------- Iteration      1(  11)  ---------------------------------------


    POTLOK:  cpu time      0.3204: real time      0.3205
    SETDIJ:  cpu time      0.0404: real time      0.0404
     EDDAV:  cpu time     10.1264: real time     10.1320
       DOS:  cpu time      0.0008: real time      0.0008
    CHARGE:  cpu time      1.1646: real time      1.1660
    MIXING:  cpu time      0.2983: real time      0.2984
    --------------------------------------------
      LOOP:  cpu time     11.9508: real time     11.9580

 eigenvalue-minimisations  :  1560
 total energy-change (2. order) : 0.2864556E-01  (-0.1904389E-02)
 number of electron     368.0000010 magnetization 
 augmentation part        9.1300452 magnetization 

 Broyden mixing:
  rms(total) = 0.24733E-01    rms(broyden)= 0.24731E-01
  rms(prec ) = 0.39457E-01
  weight for this iteration     100.00

 eigenvalues of (default mixing * dielectric matrix)
  average eigenvalue GAMMA=   1.7769
  2.9741  2.5582  1.9176  0.9522  1.1297  1.1297

 Free energy of the ion-electron system (eV)
  ---------------------------------------------------
  alpha Z        PSCENC =        91.34886789
  Ewald energy   TEWEN  =    120356.73118724
  -Hartree energ DENC   =   -131284.91641223
  -exchange      EXHF   =         0.00000000
  -V(xc)+E(xc)   XCENC  =      1278.22785130
  PAW double counting   =     41190.21259872   -41254.33665352
  entropy T*S    EENTRO =        -0.06126027
  eigenvalues    EBANDS =     -4744.19171272
  atomic energy  EATOM  =     13537.65479391
  Solvation  Ediel_sol  =         0.00000000
  ---------------------------------------------------
  free energy    TOTEN  =      -829.33073967 eV

  energy without entropy =     -829.26947940  energy(sigma->0) =     -829.30010953


--------------------------------------------------------------------------------------------------------




--------------------------------------- Iteration      1(  12)  ---------------------------------------


    POTLOK:  cpu time      0.3202: real time      0.3203
    SETDIJ:  cpu time      0.0404: real time      0.0404
     EDDAV:  cpu time     10.0364: real time     10.0430
       DOS:  cpu time      0.0007: real time      0.0007
    CHARGE:  cpu time      1.1561: real time      1.1563
    MIXING:  cpu time      0.3073: real time      0.3072
    --------------------------------------------
      LOOP:  cpu time     11.8611: real time     11.8679

 eigenvalue-minimisations  :  1544
 total energy-change (2. order) : 0.6141330E-02  (-0.2777776E-02)
 number of electron     368.0000010 magnetization 
 augmentation part        9.1225445 magnetization 

 Broyden mixing:
  rms(total) = 0.15250E-01    rms(broyden)= 0.15246E-01
  rms(prec ) = 0.23342E-01
  weight for this iteration     100.00

 eigenvalues of (default mixing * dielectric matrix)
  average eigenvalue GAMMA=   2.0388
  4.7178  2.3248  2.0519  2.0519  0.9612  1.0821  1.0821

 Free energy of the ion-electron system (eV)
  ---------------------------------------------------
  alpha Z        PSCENC =        91.34886789
  Ewald energy   TEWEN  =    120356.73118724
  -Hartree energ DENC   =   -131356.57389602
  -exchange      EXHF   =         0.00000000
  -V(xc)+E(xc)   XCENC  =      1278.90787148
  PAW double counting   =     41220.76660252   -41284.86157526
  entropy T*S    EENTRO =        -0.06137562
  eigenvalues    EBANDS =     -4673.23707448
  atomic energy  EATOM  =     13537.65479391
  Solvation  Ediel_sol  =         0.00000000
  ---------------------------------------------------
  free energy    TOTEN  =      -829.32459834 eV

  energy without entropy =     -829.26322272  energy(sigma->0) =     -829.29391053


--------------------------------------------------------------------------------------------------------




--------------------------------------- Iteration      1(  13)  ---------------------------------------


    POTLOK:  cpu time      0.3206: real time      0.3204
    SETDIJ:  cpu time      0.0403: real time      0.0403
     EDDAV:  cpu time     10.0383: real time     10.0418
       DOS:  cpu time      0.0008: real time      0.0008
    CHARGE:  cpu time      1.1566: real time      1.1570
    MIXING:  cpu time      0.3120: real time      0.3139
    --------------------------------------------
      LOOP:  cpu time     11.8685: real time     11.8742

 eigenvalue-minimisations  :  1544
 total energy-change (2. order) :-0.1204219E-01  (-0.8501078E-03)
 number of electron     368.0000010 magnetization 
 augmentation part        9.1196766 magnetization 

 Broyden mixing:
  rms(total) = 0.85597E-02    rms(broyden)= 0.85574E-02
  rms(prec ) = 0.12303E-01
  weight for this iteration     100.00

 eigenvalues of (default mixing * dielectric matrix)
  average eigenvalue GAMMA=   2.0774
  5.4759  2.4235  2.4235  1.9301  1.1861  1.1861  0.8981  1.0961

 Free energy of the ion-electron system (eV)
  ---------------------------------------------------
  alpha Z        PSCENC =        91.34886789
  Ewald energy   TEWEN  =    120356.73118724
  -Hartree energ DENC   =   -131406.84177533
  -exchange      EXHF   =         0.00000000
  -V(xc)+E(xc)   XCENC  =      1279.11845709
  PAW double counting   =     41189.19988741   -41253.28968103
  entropy T*S    EENTRO =        -0.06132947
  eigenvalues    EBANDS =     -4623.19704823
  atomic energy  EATOM  =     13537.65479391
  Solvation  Ediel_sol  =         0.00000000
  ---------------------------------------------------
  free energy    TOTEN  =      -829.33664053 eV

  energy without entropy =     -829.27531105  energy(sigma->0) =     -829.30597579


--------------------------------------------------------------------------------------------------------




--------------------------------------- Iteration      1(  14)  ---------------------------------------


    POTLOK:  cpu time      0.3203: real time      0.3203
    SETDIJ:  cpu time      0.0403: real time      0.0403
     EDDAV:  cpu time     10.2861: real time     10.2898
       DOS:  cpu time      0.0007: real time      0.0007
    CHARGE:  cpu time      1.1518: real time      1.1541
    MIXING:  cpu time      0.3244: real time      0.3245
    --------------------------------------------
      LOOP:  cpu time     12.1237: real time     12.1297

 eigenvalue-minimisations  :  1592
 total energy-change (2. order) :-0.1627571E-01  (-0.1324447E-03)
 number of electron     368.0000010 magnetization 
 augmentation part        9.1188397 magnetization 

 Broyden mixing:
  rms(total) = 0.57387E-02    rms(broyden)= 0.57383E-02
  rms(prec ) = 0.79829E-02
  weight for this iteration     100.00

 eigenvalues of (default mixing * dielectric matrix)
  average eigenvalue GAMMA=   2.1884
  6.3007  2.7157  2.7157  1.8327  1.8327  1.1805  1.1805  0.9684  0.9684

 Free energy of the ion-electron system (eV)
  ---------------------------------------------------
  alpha Z        PSCENC =        91.34886789
  Ewald energy   TEWEN  =    120356.73118724
  -Hartree energ DENC   =   -131423.18764935
  -exchange      EXHF   =         0.00000000
  -V(xc)+E(xc)   XCENC  =      1279.13540679
  PAW double counting   =     41173.47623163   -41237.57818829
  entropy T*S    EENTRO =        -0.06132019
  eigenvalues    EBANDS =     -4606.87224588
  atomic energy  EATOM  =     13537.65479391
  Solvation  Ediel_sol  =         0.00000000
  ---------------------------------------------------
  free energy    TOTEN  =      -829.35291624 eV

  energy without entropy =     -829.29159606  energy(sigma->0) =     -829.32225615


--------------------------------------------------------------------------------------------------------




--------------------------------------- Iteration      1(  15)  ---------------------------------------


    POTLOK:  cpu time      0.3214: real time      0.3214
    SETDIJ:  cpu time      0.0404: real time      0.0404
     EDDAV:  cpu time     10.0442: real time     10.0475
       DOS:  cpu time      0.0007: real time      0.0007
    CHARGE:  cpu time      1.1537: real time      1.1564
    MIXING:  cpu time      0.3300: real time      0.3314
    --------------------------------------------
      LOOP:  cpu time     11.8904: real time     11.8979

 eigenvalue-minimisations  :  1544
 total energy-change (2. order) :-0.2093231E-01  (-0.1930731E-03)
 number of electron     368.0000010 magnetization 
 augmentation part        9.1184281 magnetization 

 Broyden mixing:
  rms(total) = 0.30606E-02    rms(broyden)= 0.30601E-02
  rms(prec ) = 0.41926E-02
  weight for this iteration     100.00

 eigenvalues of (default mixing * dielectric matrix)
  average eigenvalue GAMMA=   2.2442
  7.1174  3.5164  2.2313  2.2313  1.6294  1.3319  1.3319  1.1087  0.9716  0.9716

 Free energy of the ion-electron system (eV)
  ---------------------------------------------------
  alpha Z        PSCENC =        91.34886789
  Ewald energy   TEWEN  =    120356.73118724
  -Hartree energ DENC   =   -131433.88249924
  -exchange      EXHF   =         0.00000000
  -V(xc)+E(xc)   XCENC  =      1279.11749001
  PAW double counting   =     41189.59812385   -41253.70002635
  entropy T*S    EENTRO =        -0.06135413
  eigenvalues    EBANDS =     -4596.18043172
  atomic energy  EATOM  =     13537.65479391
  Solvation  Ediel_sol  =         0.00000000
  ---------------------------------------------------
  free energy    TOTEN  =      -829.37384855 eV

  energy without entropy =     -829.31249442  energy(sigma->0) =     -829.34317148


--------------------------------------------------------------------------------------------------------




--------------------------------------- Iteration      1(  16)  ---------------------------------------


    POTLOK:  cpu time      0.3217: real time      0.3217
    SETDIJ:  cpu time      0.0404: real time      0.0404
     EDDAV:  cpu time     10.4185: real time     10.4221
       DOS:  cpu time      0.0008: real time      0.0008
    CHARGE:  cpu time      1.1649: real time      1.1661
    MIXING:  cpu time      0.3396: real time      0.3403
    --------------------------------------------
      LOOP:  cpu time     12.2859: real time     12.2912

 eigenvalue-minimisations  :  1616
 total energy-change (2. order) :-0.8144587E-02  (-0.4216719E-04)
 number of electron     368.0000010 magnetization 
 augmentation part        9.1183843 magnetization 

 Broyden mixing:
  rms(total) = 0.22251E-02    rms(broyden)= 0.22250E-02
  rms(prec ) = 0.27952E-02
  weight for this iteration     100.00

 eigenvalues of (default mixing * dielectric matrix)
  average eigenvalue GAMMA=   2.3608
  7.9541  4.0861  2.4320  2.4320  1.9220  1.5300  1.5300  0.9696  0.9696  1.0716
  1.0716

 Free energy of the ion-electron system (eV)
  ---------------------------------------------------
  alpha Z        PSCENC =        91.34886789
  Ewald energy   TEWEN  =    120356.73118724
  -Hartree energ DENC   =   -131437.76339185
  -exchange      EXHF   =         0.00000000
  -V(xc)+E(xc)   XCENC  =      1279.09505077
  PAW double counting   =     41176.16320872   -41240.26441427
  entropy T*S    EENTRO =        -0.06134742
  eigenvalues    EBANDS =     -4592.28594812
  atomic energy  EATOM  =     13537.65479391
  Solvation  Ediel_sol  =         0.00000000
  ---------------------------------------------------
  free energy    TOTEN  =      -829.38199314 eV

  energy without entropy =     -829.32064571  energy(sigma->0) =     -829.35131943


--------------------------------------------------------------------------------------------------------




--------------------------------------- Iteration      1(  17)  ---------------------------------------


    POTLOK:  cpu time      0.3202: real time      0.3203
    SETDIJ:  cpu time      0.0401: real time      0.0401
     EDDAV:  cpu time     10.4475: real time     10.4511
       DOS:  cpu time      0.0007: real time      0.0007
    CHARGE:  cpu time      1.1535: real time      1.1548
    MIXING:  cpu time      0.3503: real time      0.3506
    --------------------------------------------
      LOOP:  cpu time     12.3123: real time     12.3176

 eigenvalue-minimisations  :  1624
 total energy-change (2. order) :-0.5788864E-02  (-0.4229859E-04)
 number of electron     368.0000010 magnetization 
 augmentation part        9.1182510 magnetization 

 Broyden mixing:
  rms(total) = 0.10586E-02    rms(broyden)= 0.10585E-02
  rms(prec ) = 0.13467E-02
  weight for this iteration     100.00

 eigenvalues of (default mixing * dielectric matrix)
  average eigenvalue GAMMA=   2.3480
  8.3929  4.5048  2.4432  2.4432  2.0253  1.4446  1.4446  1.2954  1.1588  1.0072
  1.0072  1.0082

 Free energy of the ion-electron system (eV)
  ---------------------------------------------------
  alpha Z        PSCENC =        91.34886789
  Ewald energy   TEWEN  =    120356.73118724
  -Hartree energ DENC   =   -131440.25492039
  -exchange      EXHF   =         0.00000000
  -V(xc)+E(xc)   XCENC  =      1279.09730291
  PAW double counting   =     41185.25418756   -41249.35170228
  entropy T*S    EENTRO =        -0.06134848
  eigenvalues    EBANDS =     -4589.80615035
  atomic energy  EATOM  =     13537.65479391
  Solvation  Ediel_sol  =         0.00000000
  ---------------------------------------------------
  free energy    TOTEN  =      -829.38778200 eV

  energy without entropy =     -829.32643352  energy(sigma->0) =     -829.35710776


--------------------------------------------------------------------------------------------------------




--------------------------------------- Iteration      1(  18)  ---------------------------------------


    POTLOK:  cpu time      0.3209: real time      0.3209
    SETDIJ:  cpu time      0.0404: real time      0.0404
     EDDAV:  cpu time     11.0154: real time     11.0192
       DOS:  cpu time      0.0008: real time      0.0008
    CHARGE:  cpu time      1.1533: real time      1.1543
    MIXING:  cpu time      0.3554: real time      0.3602
    --------------------------------------------
      LOOP:  cpu time     12.8861: real time     12.8959

 eigenvalue-minimisations  :  1736
 total energy-change (2. order) :-0.1549024E-02  (-0.5259612E-05)
 number of electron     368.0000010 magnetization 
 augmentation part        9.1181812 magnetization 

 Broyden mixing:
  rms(total) = 0.64978E-03    rms(broyden)= 0.64971E-03
  rms(prec ) = 0.84255E-03
  weight for this iteration     100.00

 eigenvalues of (default mixing * dielectric matrix)
  average eigenvalue GAMMA=   2.4209
  8.8957  4.9962  2.8692  2.5737  1.8602  1.8602  1.5677  1.5677  0.9714  0.9714
  1.1049  1.1049  1.1278

 Free energy of the ion-electron system (eV)
  ---------------------------------------------------
  alpha Z        PSCENC =        91.34886789
  Ewald energy   TEWEN  =    120356.73118724
  -Hartree energ DENC   =   -131440.88541858
  -exchange      EXHF   =         0.00000000
  -V(xc)+E(xc)   XCENC  =      1279.09621144
  PAW double counting   =     41183.21488081   -41247.31275688
  entropy T*S    EENTRO =        -0.06135248
  eigenvalues    EBANDS =     -4589.17574438
  atomic energy  EATOM  =     13537.65479391
  Solvation  Ediel_sol  =         0.00000000
  ---------------------------------------------------
  free energy    TOTEN  =      -829.38933102 eV

  energy without entropy =     -829.32797855  energy(sigma->0) =     -829.35865479


--------------------------------------------------------------------------------------------------------




--------------------------------------- Iteration      1(  19)  ---------------------------------------


    POTLOK:  cpu time      0.3215: real time      0.3216
    SETDIJ:  cpu time      0.0403: real time      0.0404
     EDDAV:  cpu time      9.6112: real time      9.6146
       DOS:  cpu time      0.0007: real time      0.0007
    CHARGE:  cpu time      1.1571: real time      1.1571
    MIXING:  cpu time      0.3713: real time      0.3728
    --------------------------------------------
      LOOP:  cpu time     11.5022: real time     11.5072

 eigenvalue-minimisations  :  1456
 total energy-change (2. order) :-0.1233693E-02  (-0.4813625E-05)
 number of electron     368.0000010 magnetization 
 augmentation part        9.1182236 magnetization 

 Broyden mixing:
  rms(total) = 0.37099E-03    rms(broyden)= 0.37096E-03
  rms(prec ) = 0.45270E-03
  weight for this iteration     100.00

 eigenvalues of (default mixing * dielectric matrix)
  average eigenvalue GAMMA=   2.4040
  8.9273  5.5282  3.1172  2.3945  2.3945  1.8739  1.4952  1.4952  1.2274  1.2274
  0.9506  1.0063  1.0094  1.0094

 Free energy of the ion-electron system (eV)
  ---------------------------------------------------
  alpha Z        PSCENC =        91.34886789
  Ewald energy   TEWEN  =    120356.73118724
  -Hartree energ DENC   =   -131441.21007531
  -exchange      EXHF   =         0.00000000
  -V(xc)+E(xc)   XCENC  =      1279.09235722
  PAW double counting   =     41180.93543600   -41245.03189869
  entropy T*S    EENTRO =        -0.06135032
  eigenvalues    EBANDS =     -4588.84988266
  atomic energy  EATOM  =     13537.65479391
  Solvation  Ediel_sol  =         0.00000000
  ---------------------------------------------------
  free energy    TOTEN  =      -829.39056472 eV

  energy without entropy =     -829.32921440  energy(sigma->0) =     -829.35988956


--------------------------------------------------------------------------------------------------------




--------------------------------------- Iteration      1(  20)  ---------------------------------------


    POTLOK:  cpu time      0.3211: real time      0.3211
    SETDIJ:  cpu time      0.0403: real time      0.0403
     EDDAV:  cpu time      9.4007: real time      9.4039
       DOS:  cpu time      0.0007: real time      0.0007
    CHARGE:  cpu time      1.1555: real time      1.1559
    MIXING:  cpu time      0.3843: real time      0.3845
    --------------------------------------------
      LOOP:  cpu time     11.3027: real time     11.3064

 eigenvalue-minimisations  :  1408
 total energy-change (2. order) :-0.3227191E-03  (-0.5789134E-06)
 number of electron     368.0000010 magnetization 
 augmentation part        9.1181897 magnetization 

 Broyden mixing:
  rms(total) = 0.24905E-03    rms(broyden)= 0.24904E-03
  rms(prec ) = 0.29747E-03
  weight for this iteration     100.00

 eigenvalues of (default mixing * dielectric matrix)
  average eigenvalue GAMMA=   2.4554
  9.2253  5.8524  3.6731  2.6188  2.3062  2.0057  1.6447  1.6447  1.3905  1.3905
  1.0683  1.0683  0.9816  0.9816  0.9794

 Free energy of the ion-electron system (eV)
  ---------------------------------------------------
  alpha Z        PSCENC =        91.34886789
  Ewald energy   TEWEN  =    120356.73118724
  -Hartree energ DENC   =   -131441.39536962
  -exchange      EXHF   =         0.00000000
  -V(xc)+E(xc)   XCENC  =      1279.09365652
  PAW double counting   =     41181.76563592   -41245.86276846
  entropy T*S    EENTRO =        -0.06135047
  eigenvalues    EBANDS =     -4588.66554037
  atomic energy  EATOM  =     13537.65479391
  Solvation  Ediel_sol  =         0.00000000
  ---------------------------------------------------
  free energy    TOTEN  =      -829.39088744 eV

  energy without entropy =     -829.32953696  energy(sigma->0) =     -829.36021220


--------------------------------------------------------------------------------------------------------




--------------------------------------- Iteration      1(  21)  ---------------------------------------


    POTLOK:  cpu time      0.3213: real time      0.3213
    SETDIJ:  cpu time      0.0404: real time      0.0404
     EDDAV:  cpu time      8.5470: real time      8.5501
       DOS:  cpu time      0.0008: real time      0.0008
    CHARGE:  cpu time      1.1684: real time      1.1686
    MIXING:  cpu time      0.3951: real time      0.3970
    --------------------------------------------
      LOOP:  cpu time     10.4731: real time     10.4782

 eigenvalue-minimisations  :  1240
 total energy-change (2. order) :-0.2360699E-03  (-0.3328361E-06)
 number of electron     368.0000010 magnetization 
 augmentation part        9.1181944 magnetization 

 Broyden mixing:
  rms(total) = 0.11651E-03    rms(broyden)= 0.11650E-03
  rms(prec ) = 0.13948E-03
  weight for this iteration     100.00

 eigenvalues of (default mixing * dielectric matrix)
  average eigenvalue GAMMA=   2.4124
  9.1860  6.1840  3.8253  2.5333  2.4531  2.1435  1.7159  1.5731  1.5731  1.2170
  1.2170  1.0227  1.0227  1.0508  0.9407  0.9407

 Free energy of the ion-electron system (eV)
  ---------------------------------------------------
  alpha Z        PSCENC =        91.34886789
  Ewald energy   TEWEN  =    120356.73118724
  -Hartree energ DENC   =   -131441.47360899
  -exchange      EXHF   =         0.00000000
  -V(xc)+E(xc)   XCENC  =      1279.09251256
  PAW double counting   =     41180.79771208   -41244.89512573
  entropy T*S    EENTRO =        -0.06135062
  eigenvalues    EBANDS =     -4588.58611184
  atomic energy  EATOM  =     13537.65479391
  Solvation  Ediel_sol  =         0.00000000
  ---------------------------------------------------
  free energy    TOTEN  =      -829.39112351 eV

  energy without entropy =     -829.32977289  energy(sigma->0) =     -829.36044820


--------------------------------------------------------------------------------------------------------




[...]
   0.108E+02 0.949E+01 -.556E+02   -.118E+02 -.107E+02 0.559E+02   -.498E+00 -.648E+00 0.230E+00   0.199E-05 0.985E-05 -.440E-06
   0.256E+02 -.196E+02 -.220E+03   -.263E+02 0.221E+02 0.220E+03   -.531E-02 0.998E+00 -.585E+00   0.176E-05 -.104E-04 0.495E-06
   -.921E+01 0.712E+01 -.569E+02   0.109E+02 -.645E+01 0.569E+02   0.116E+01 0.891E+00 -.102E+00   -.134E-04 -.479E-06 -.135E-05
   -.666E+00 -.320E+01 -.226E+03   0.111E+01 0.338E+01 0.226E+03   0.464E+00 -.335E+00 -.766E+00   0.538E-06 -.798E-05 0.571E-06
   -.402E+01 -.794E+01 -.144E+03   0.473E+01 0.765E+01 0.144E+03   0.849E-01 -.116E+01 -.932E+00   -.868E-05 0.249E-05 -.941E-06
   -.321E+01 -.124E+02 -.180E+03   0.222E+01 0.137E+02 0.180E+03   0.259E+00 0.110E+01 0.417E+00   0.301E-05 -.274E-05 0.672E-06
   -.216E+01 0.114E+02 -.335E+02   0.107E+01 -.110E+02 0.327E+02   -.127E+01 0.497E+00 0.177E+01   0.140E-05 0.433E-06 0.149E-05
   -.194E+02 0.148E+02 -.156E+03   0.199E+02 -.161E+02 0.156E+03   0.156E+01 -.326E+00 0.730E+00   -.104E-04 -.165E-08 0.334E-05
   -.199E+02 -.147E+02 -.149E+03   0.210E+02 0.158E+02 0.150E+03   0.580E+00 0.455E+00 -.187E+01   -.527E-05 -.949E-05 0.408E-05
   -.194E+02 -.129E+02 -.170E+03   0.190E+02 0.132E+02 0.170E+03   0.223E+00 -.112E+01 -.122E+01   -.965E-05 0.622E-06 0.453E-05
   -.122E+02 0.126E+02 -.106E+03   0.119E+02 -.127E+02 0.106E+03   0.230E-01 0.399E-01 -.690E+00   -.503E-05 -.377E-05 0.346E-05
   -.246E+02 0.157E+02 -.130E+03   0.247E+02 -.160E+02 0.130E+03   -.328E+00 0.424E+00 0.123E+00   -.325E-06 0.176E-05 0.393E-05
   -.145E+02 -.702E+01 -.108E+03   0.142E+02 0.691E+01 0.108E+03   -.757E-01 0.602E-01 -.195E+00   0.269E-05 0.198E-07 0.294E-05
   -.166E+02 -.146E+02 -.101E+03   0.168E+02 0.148E+02 0.101E+03   -.226E+00 -.297E-01 0.921E+00   0.155E-05 -.116E-05 0.321E-05
   -.195E+02 0.155E+02 -.554E+02   0.201E+02 -.160E+02 0.548E+02   0.745E+00 0.634E-01 0.671E+00   -.245E-05 0.221E-05 0.207E-05
   -.319E+02 0.501E+01 -.154E+03   0.315E+02 -.495E+01 0.155E+03   -.160E+01 0.465E+00 -.146E+01   0.503E-05 -.472E-05 0.371E-05
   -.175E+02 -.137E+02 -.645E+02   0.180E+02 0.143E+02 0.644E+02   0.429E+00 0.511E+00 0.428E-01   -.227E-05 -.606E-07 0.275E-05
   -.285E+02 -.118E+02 -.993E+02   0.290E+02 0.132E+02 0.998E+02   -.544E+00 0.104E+01 -.577E+00   0.334E-05 -.476E-05 0.542E-06
   0.403E+00 0.134E+02 0.800E+01   -.640E+00 -.138E+02 -.794E+01   -.174E+00 -.372E+00 0.418E+00   0.170E-05 0.179E-05 -.157E-05
   -.126E+02 0.193E+01 -.497E+02   0.128E+02 -.214E+01 0.498E+02   0.457E+00 -.111E+00 -.306E+00   0.148E-05 -.285E-05 0.102E-05
   -.262E+01 -.146E+02 0.142E+01   0.231E+01 0.155E+02 -.130E+01   -.552E+00 0.208E+00 0.495E+00   0.733E-05 -.246E-05 -.193E-05
   -.391E+01 -.994E+01 0.976E+01   0.342E+01 0.101E+02 -.924E+01   0.139E+00 0.192E+00 -.968E-01   0.703E-05 0.465E-05 -.167E-05
   0.221E+01 0.106E+02 0.307E+02   -.225E+01 -.117E+02 -.307E+02   -.346E+00 -.986E+00 -.472E+00   0.298E-05 0.262E-05 -.332E-05
   0.444E+01 0.845E+01 0.298E+02   -.546E+01 -.857E+01 -.295E+02   0.969E-01 0.378E+00 -.571E-01   0.503E-05 -.130E-05 -.114E-05
   -.688E+01 -.219E+02 0.601E+02   0.793E+01 0.235E+02 -.603E+02   0.213E+00 0.983E+00 -.640E+00   -.106E-05 -.860E-05 0.630E-07
   -.195E+02 0.942E+01 0.377E+02   0.205E+02 -.105E+02 -.370E+02   0.103E+01 -.105E+01 -.884E+00   -.450E-05 0.745E-05 0.150E-05
   0.118E+02 0.895E+01 0.151E+03   -.132E+02 -.914E+01 -.151E+03   -.410E+00 -.526E+00 0.343E+00   0.589E-06 -.127E-05 -.715E-07
   -.865E+01 0.633E+02 0.146E+03   0.682E+01 -.637E+02 -.148E+03   0.215E+01 0.167E+01 0.171E+01   -.117E-05 -.721E-06 0.188E-05
   -.112E+02 -.557E+02 0.204E+03   0.882E+01 0.565E+02 -.205E+03   0.199E+00 -.192E+01 0.140E+01   0.275E-05 -.442E-05 0.163E-05
   0.211E+02 0.565E+02 0.258E+03   -.205E+02 -.569E+02 -.260E+03   -.251E+01 0.783E+00 0.227E+01   0.113E-05 -.573E-05 -.986E-06
   0.168E+02 -.629E+02 0.998E+02   -.156E+02 0.651E+02 -.999E+02   -.113E+01 0.153E+00 -.353E+00   0.351E-05 0.132E-04 0.301E-05
   -.762E+01 0.310E+00 0.195E+03   0.912E+01 -.556E+00 -.194E+03   -.547E+00 -.392E+00 -.159E+01   -.113E-06 -.972E-05 -.122E-05
   0.303E+02 -.868E+01 0.412E+02   -.317E+02 0.983E+01 -.410E+02   -.396E+00 -.219E+00 0.124E+00   -.481E-06 0.111E-04 0.253E-05
   -.280E+02 -.991E+00 0.205E+03   0.284E+02 0.151E+01 -.206E+03   -.169E+01 0.179E+00 0.185E+01   0.559E-05 -.823E-06 -.142E-05
   -.674E+01 0.572E+00 0.596E+02   0.820E+01 -.142E+01 -.595E+02   0.170E+01 0.335E+00 -.801E+00   0.277E-05 0.111E-04 0.235E-05
   -.201E+02 -.793E+01 0.166E+03   0.204E+02 0.860E+01 -.166E+03   -.105E+01 0.431E+00 -.654E+00   0.852E-05 -.136E-05 -.129E-05
   0.109E+02 0.259E+02 0.267E+02   -.113E+02 -.285E+02 -.270E+02   0.968E+00 -.127E+01 -.181E-01   0.131E-05 0.112E-04 0.237E-05
   -.282E+02 -.707E+00 0.175E+03   0.281E+02 0.131E-01 -.176E+03   -.706E+00 -.106E+01 0.594E+00   0.528E-05 0.301E-06 -.184E-05
   0.178E+01 -.144E+02 0.699E+02   -.251E+01 0.153E+02 -.701E+02   0.521E+00 -.499E+00 0.702E+00   0.450E-05 0.230E-05 0.893E-06
   -.294E+02 0.808E+01 0.149E+03   0.291E+02 -.909E+01 -.150E+03   -.262E+00 -.847E-01 0.117E+01   0.544E-05 0.713E-05 0.468E-06
   0.273E+02 0.423E+01 -.588E+02   -.281E+02 -.314E+01 0.591E+02   0.199E-01 0.109E+01 -.147E+00   0.104E-04 -.530E-05 0.429E-05
   -.163E+01 0.158E+02 0.419E+01   0.229E+01 -.177E+02 -.427E+01   0.157E+01 -.130E+01 -.207E+00   -.178E-05 0.130E-04 0.246E-05
   0.297E+02 -.691E+01 -.121E+03   -.299E+02 0.794E+01 0.121E+03   0.359E+00 0.115E+00 -.873E+00   -.139E-05 -.411E-05 -.152E-05
   0.720E+01 -.121E+02 0.263E+01   -.755E+01 0.133E+02 -.301E+01   0.695E+00 -.120E+00 0.713E+00   -.300E-05 -.279E-05 -.528E-06
   0.339E+02 0.115E+02 -.165E+03   -.335E+02 -.114E+02 0.166E+03   0.103E+01 0.124E+01 -.496E+00   -.975E-05 -.238E-05 -.174E-05
   0.119E+02 0.796E+01 -.788E+02   -.120E+02 -.824E+01 0.792E+02   0.114E+00 -.912E-02 -.166E+01   0.429E-05 -.141E-05 0.708E-06
   0.144E+02 -.942E+01 -.140E+03   -.141E+02 0.961E+01 0.140E+03   -.401E+00 -.100E+01 0.179E+00   0.444E-05 0.271E-05 0.191E-05
   -.140E+01 0.670E+00 0.359E+02   0.151E+00 -.123E+01 -.367E+02   -.965E+00 -.212E-01 0.153E+01   0.533E-05 -.171E-05 0.223E-05
   0.136E+02 0.141E+02 -.161E+03   -.141E+02 -.155E+02 0.161E+03   -.978E+00 -.742E+00 -.275E+00   0.666E-05 0.102E-05 0.895E-06
   -.115E+02 0.156E+01 0.382E+02   0.120E+02 -.265E+01 -.387E+02   0.814E+00 -.899E+00 0.841E+00   -.412E-05 0.677E-05 0.278E-05
   -.527E+01 -.155E+02 -.988E+02   0.607E+01 0.174E+02 0.993E+02   0.414E+00 0.788E+00 0.168E+00   -.484E-05 -.380E-05 -.663E-06
   -.180E+01 0.304E+01 0.199E+02   0.139E+01 -.387E+01 -.200E+02   0.915E+00 -.114E+01 -.572E-01   -.353E-05 0.101E-04 0.428E-06
   -.169E+02 0.196E+02 -.155E+03   0.180E+02 -.218E+02 0.155E+03   -.570E-01 -.145E+00 -.880E+00   -.450E-05 0.265E-05 0.367E-06
   -.678E+01 0.131E+02 -.837E+01   0.700E+01 -.145E+02 0.781E+01   0.706E+00 0.158E+00 -.923E-01   -.628E-05 0.756E-05 0.164E-05
   -.183E+01 -.225E+02 -.104E+03   0.563E+00 0.249E+02 0.105E+03   -.153E+01 0.157E+01 0.113E+00   -.603E-05 -.547E-05 0.321E-06
   -.101E+01 0.198E+01 0.146E+02   0.758E+00 -.302E+01 -.152E+02   0.141E+00 -.591E+00 0.189E+01   -.697E-05 0.929E-05 0.256E-07
   -.222E+02 0.374E-01 -.102E+03   0.232E+02 0.261E+00 0.102E+03   0.510E+00 -.969E+00 -.103E+00   -.785E-05 -.470E-05 0.241E-05
   -.967E+01 0.123E+02 -.405E+02   0.959E+01 -.130E+02 0.405E+02   -.178E+00 0.459E-01 -.542E+00   0.998E-06 0.631E-06 0.450E-06
   -.418E+01 -.245E+02 -.482E+02   0.366E+01 0.263E+02 0.478E+02   0.386E+00 0.488E+00 0.590E+00   -.216E-05 -.165E-05 0.123E-05
   -.167E+02 -.533E+01 -.596E+02   0.167E+02 0.503E+01 0.600E+02   -.325E+00 -.173E+00 -.134E+01   0.120E-05 0.308E-05 0.152E-06
   -.114E+02 0.753E+01 -.507E+02   0.119E+02 -.790E+01 0.510E+02   -.442E+00 0.609E+00 -.892E+00   0.185E-05 -.331E-05 0.230E-06
   0.993E+01 0.133E+02 0.330E+02   -.102E+02 -.134E+02 -.331E+02   0.715E+00 0.628E+00 -.223E+00   -.176E-05 0.156E-05 -.897E-06
   0.172E+02 -.174E+02 0.596E+02   -.183E+02 0.181E+02 -.599E+02   -.714E+00 0.399E+00 0.187E+01   0.286E-05 -.105E-05 -.218E-05
   0.693E+01 0.138E+01 0.784E+02   -.596E+01 -.204E+01 -.786E+02   0.633E+00 -.101E+01 -.523E+00   -.487E-05 0.394E-05 -.171E-05
   0.508E+01 0.822E+01 0.330E+02   -.468E+01 -.960E+01 -.337E+02   0.342E+00 -.863E+00 0.396E+00   0.539E-06 0.210E-05 -.230E-06
   0.309E+02 0.220E+02 0.167E+03   -.310E+02 -.231E+02 -.168E+03   0.824E+00 -.275E+00 0.227E+01   0.215E-05 0.168E-06 -.440E-05
   0.545E+01 -.126E+02 0.632E+02   -.510E+01 0.133E+02 -.630E+02   -.709E-01 0.594E+00 -.134E+01   -.289E-05 0.544E-05 -.100E-05
   0.275E+02 -.832E+01 0.121E+03   -.291E+02 0.906E+01 -.121E+03   -.644E+00 -.460E-01 -.282E+00   0.930E-05 -.224E-05 -.529E-05
   0.762E+01 0.108E+02 0.772E+02   -.763E+01 -.116E+02 -.773E+02   0.327E-01 -.351E-01 0.958E+00   0.109E-05 0.204E-05 -.141E-05
   0.183E+02 0.144E+02 0.165E+03   -.183E+02 -.150E+02 -.165E+03   0.935E+00 -.133E+00 0.822E+00   -.341E-05 -.322E-05 -.219E-05
   -.184E+01 -.205E+02 0.720E+02   0.224E+01 0.224E+02 -.719E+02   -.455E+00 0.107E+01 -.699E-01   -.289E-05 -.612E-05 -.290E-05
   0.562E+01 -.106E+01 0.185E+03   -.576E+01 0.316E+00 -.185E+03   0.110E+01 -.739E+00 -.560E+00   -.937E-05 -.184E-05 0.280E-06
   -.146E+02 -.757E+00 -.376E+01   0.134E+02 0.144E+01 0.562E+01   -.694E+00 -.185E+00 -.248E+01   -.176E-05 0.959E-05 0.112E-05
   -.215E+02 0.519E+02 0.254E+03   0.204E+02 -.512E+02 -.255E+03   0.115E+01 0.169E+01 0.211E+01   -.622E-05 -.617E-05 -.994E-06
   -.188E+02 -.560E+02 0.138E+03   0.188E+02 0.560E+02 -.140E+03   0.214E+01 -.245E+01 0.136E+01   -.141E-05 0.844E-05 0.116E-05
 -----------------------------------------------------------------------------------------------
   0.225E-01 0.259E+01 -.244E+01   -.675E-13 0.135E-12 -.426E-12   -.533E-01 -.255E+01 0.244E+01   -.581E-05 -.497E-06 0.435E-04
 
 
 POSITION                                       TOTAL-FORCE (eV/Angst)
 -----------------------------------------------------------------------------------
      0.22180      0.90223     15.60190         1.381479      0.519926      0.005578
      0.29103      2.28937     15.41050         0.054515     -2.037441     -0.721675
      1.39501      0.22960     15.82960        -0.542532     -2.104806      0.263246
      1.52058      2.88453     15.30720         0.150059      0.200986      0.730613
      2.61566      0.87951     16.05010         0.307670      0.706176      0.000845
      2.69218      2.21678     15.74960         0.536856      0.937851      0.124679
      3.82448      0.20585     16.38770        -1.878107      1.748622      0.377054
      3.95097      2.91176     15.89110         0.100405     -1.217872     -0.241079
      4.96797      0.87276     16.76210         2.869168      2.088336     -1.257644
      5.12683      2.24357     16.34160        -2.022392     -2.104265      0.789160
      6.19637      0.20008     17.05230        -1.882035     -1.126586      0.256802
      6.35676      2.84413     16.45920         1.022220      2.186370     -0.157770
      7.40107      0.81796     17.32620         1.065666      2.618998     -0.918412
      7.52109      2.20645     16.95450        -1.391362     -2.108870      0.691463
      8.58507      0.13701     17.70900        -1.447132      1.281346      0.362991
      8.71064      2.87952     17.21660        -1.459316      0.007431     -0.613835
      9.75581      0.87048     17.96160         1.583813     -1.544152      0.326375
      9.84536      2.22102     17.65460        -1.470204     -1.853487      0.522022
     10.99090      0.16263     18.30600        -0.719579      3.483912     -0.216855
     11.01970      2.86668     17.77760         2.870453      1.569334     -0.119757
     12.21310      0.86824     18.39640         0.910784     -0.151749     -0.666149
     12.23690      2.24888     18.11580         0.802673     -1.445765     -0.531408
     13.46750      0.13632     18.33270        -0.726402      2.393839      0.695093
     13.50500      2.87941     17.88650        -2.356352      0.899549      0.914614
     14.67620      0.85033     18.22790         2.100221     -1.616019      0.712106
     14.69190      2.19946     18.12090         1.708852      1.570315     -1.065444
     15.96990      0.19292     18.11370        -0.151902     -0.765779     -0.730693
     15.95940      2.85378     17.88550        -0.296981     -0.055660     -0.690081
     17.23740      0.80536     17.85700        -0.191553      0.180830      0.307279
     17.21070      2.18350     17.76680        -0.413387     -0.050861      0.327396
     18.47250      0.13284     17.54390         0.010809      0.130052      0.767342
     18.40020      2.83280     17.41120         1.270346     -0.389930      0.070778
     19.74820      0.78124     17.36760        -2.012860      0.517550     -0.640791
     19.64870      2.15117     17.17990         0.911182      1.129974     -0.100464
     20.90610      0.10415     16.94050        -0.133185      2.466554     -0.051239
     20.81270      2.85420     16.65820        -0.409495     -0.757185      0.482259
     22.07050      0.81565     16.55540         0.656648     -0.322158     -0.139758
     22.05860      2.18654     16.40750        -0.866632      1.071025      0.609109
     23.24480      0.14700     16.13740        -0.344264      0.369744      0.426102
     23.23530      2.88965     15.99570        -0.382836     -2.098849     -0.433741
     24.44690      0.83053     15.85780        -0.924428      0.252819      0.258328
     24.43860      2.17680     15.74140         1.257369      2.618010     -0.829517
     25.64850      0.21073     15.66840         1.985308     -2.117555     -0.139042
     25.66440      2.88413     15.28750        -1.768675     -0.717226      0.477596
     26.81670      0.86660     15.34790         0.323226      1.295484      0.596354
     26.88580      2.25541     15.15850        -2.198329     -1.087944      0.520198
      0.35723      4.89502     14.95760        -1.865988      0.366929      0.443423
      0.27042      6.19424     15.33190         0.111521      2.337045     -0.479371
      1.55885      4.26099     15.16190         0.946798     -0.638502     -1.200561
      1.42145      6.91723     15.66850        -1.760784      0.939535      0.407029
      2.79859      4.93595     15.36580        -1.257030      0.697673      1.105582
      2.63093      6.28643     15.74410         3.156076     -0.512673     -0.758953
      4.02341      4.25844     15.66660        -0.803274      1.103824     -0.911378
      3.82767      7.00087     16.14800         0.575163     -3.913137     -0.331755
      5.21080      4.98503     15.95520        -0.763964     -1.749925      0.243054
      5.08502      6.31598     16.27790        -0.215898      0.322541      0.481628
      6.37571      4.27730     16.30980        -0.571295     -1.088025      0.426488
      6.19296      6.89612     16.92560        -0.780308      2.177150      0.160273
      7.41179      4.94300     16.95390         2.232576     -3.196002     -0.292990
      7.34464      6.22760     17.31120         0.134310      1.151681     -0.430384
      8.63625      4.24632     17.23580         0.349923      1.073389      0.332082
      8.51362      6.85881     17.75030         1.450139      1.262481      0.609968
      9.81795      4.91167     17.65110         0.026352     -0.292532     -1.257686
      9.78062      6.26498     17.89930        -0.021273     -0.803087     -0.029051
     11.06660      4.24591     17.56550        -2.210229     -0.583373      0.752753
     11.02030      6.93246     18.14530        -1.508804     -2.117680     -0.203893
     12.23420      4.94683     17.65070         1.392670     -1.989729      0.266415
     12.22510      6.23475     18.01240         1.212333      2.683277      0.682291
     13.46450      4.27121     17.68680         0.507132     -1.975242     -0.161365
     13.47750      6.89440     18.20550         0.965139     -2.333390     -0.793954
     14.70370      4.89176     17.72300         0.920051     -1.263795     -0.651580
     14.77180      6.19526     17.97500        -2.791916      3.948146      0.520484
     15.93860      4.21849     17.59560        -0.110194     -1.637998      1.309131
     15.95840      6.91742     17.92240         1.514810     -0.670982      0.016583
     17.17430      4.86950     17.51650        -0.261002     -0.591248     -0.539585
     17.18280      6.21875     17.57500        -0.131854      2.263430      0.265028
     18.39940      4.20510     17.32480        -0.359955     -0.469032     -0.879119
     18.42690      6.86779     17.35630         0.050572      0.234077     -0.550665
     19.54040      4.85253     16.83630         0.442050      0.508857     -0.319103
     19.59270      6.21976     16.81280        -1.837493      1.095031      1.593684
     20.71350      4.22491     16.44640         1.604052     -1.676835     -0.732891
     20.79490      6.90875     16.61180         0.744569     -2.242182     -0.287106
     21.89190      4.88687     15.95240         0.796573     -1.360998      1.159337
     21.96180      6.22746     16.17730         0.276234      1.315100     -1.164812
     23.17560      4.21943     15.74980        -2.265214      0.691392     -0.253123
     23.20160      6.89654     15.94510         0.025433     -0.806888      0.856643
     24.35880      4.89270     15.43860         0.941148     -0.641796     -0.016337
     24.42420      6.20884     15.67480        -0.054410      2.899897      0.057696
     25.58810      4.25892     15.17330         0.955170     -1.479919     -0.575243
     25.69390      6.89960     15.68310        -1.899602      0.493244     -0.613905
     26.80690      4.87722     14.94680         0.088873      2.386642      0.736127
     26.81110      6.26129     15.27130         2.161035     -2.487246     -0.340922
 -----------------------------------------------------------------------------------
    total drift:                               -0.030873      0.039031     -0.000416


--------------------------------------------------------------------------------------------------------



  FREE ENERGIE OF THE ION-ELECTRON SYSTEM (eV)
  ---------------------------------------------------
  free  energy   TOTEN  =      -829.39124051 eV

  energy  without entropy=     -829.32988947  energy(sigma->0) =     -829.36056499
 


--------------------------------------------------------------------------------------------------------


    POTLOK:  cpu time      0.4549: real time      0.4549


--------------------------------------------------------------------------------------------------------


     LOOP+:  cpu time    334.5211: real time    334.7146
    4ORBIT:  cpu time      0.0000: real time      0.0000

 total amount of memory used by VASP MPI-rank0  2294505. kBytes
=======================================================================

   base                                    :      30000. kBytes
   nonlr-proj                              :      15071. kBytes
   fftplans                                :     436558. kBytes
   grid                                    :     732614. kBytes
   one-center                              :        282. kBytes
   wavefun                                 :    1079980. kBytes
 
  
  
 General timing and accounting informations for this job:
 ========================================================
  
                  Total CPU time used (sec):      367.844
                            User time (sec):      359.460
                          System time (sec):        8.384
                         Elapsed time (sec):      368.118
  
                   Maximum memory used (kb):     3734404.
                   Average memory used (kb):          N/A
  
                          Minor page faults:      3179271
                          Major page faults:         5041
                 Voluntary context switches:        10349
