<?xml version="1.0" encoding="ISO-8859-1"?>
<modeling>
 <generator>
  <i name="program" type="string">vasp </i>
  <i name="version" type="string">6.5.0  </i>
  <i name="subversion" type="string">16Dec24 (build Feb 19 2025 19:45:31) complex                          parallel </i>
  <i name="platform" type="string">LinuxNV </i>
  <i name="date" type="string">2025 10 25 </i>
  <i name="time" type="string">12:52:57 </i>
 </generator>
 <incar>
  <i type="int" name="ISTART">     0</i>
  <i type="string" name="PREC">Accurate   (Precision level)</i>
  <i type="string" name="ALGO">Normal</i>
  <i type="int" name="ISPIN">     1</i>
  <i type="int" name="ICHARG">     2</i>
  <i type="int" name="NELM">   150</i>
  <i type="int" name="IBRION">    -1</i>
  <i name="EDIFF">      0.00000100</i>
  <i type="int" name="NSW">     0</i>
  <i name="ENCUT">    500.00000000</i>
  <i type="string" name="LREAL">Auto         (Projection operators: automatic)</i>
  <i type="int" name="ISMEAR">     0</i>
  <i type="logical" name="KGAMMA"> T  </i>
  <i type="logical" name="LWAVE"> F  </i>
  <i type="logical" name="LCHARG"> F  </i>
 </incar>
 <primitive_cell>
  <structure name="primitive_cell" >
   <crystal>
    <varray name="basis" >
     <v>      28.05000000       0.00000000       0.00000000 </v>
     <v>       0.00000000       8.10000000       0.00000000 </v>
     <v>       0.00000000       0.00000000      33.50000000 </v>
    </varray>
    <i name="volume">   7611.36750000 </i>
    <varray name="rec_basis" >
     <v>       0.03565062       0.00000000       0.00000000 </v>
     <v>       0.00000000       0.12345679       0.00000000 </v>
     <v>       0.00000000       0.00000000       0.02985075 </v>
    </varray>
   </crystal>
   <varray name="positions" >
    <v>       0.00790717       0.11138605       0.46572836 </v>
    <v>       0.01037544       0.28263827       0.46001493 </v>
    <v>       0.04973298       0.02834531       0.47252537 </v>
    <v>       0.05420963       0.35611481       0.45693134 </v>
    <v>       0.09324991       0.10858185       0.47910746 </v>
    <v>       0.09597790       0.27367654       0.47013731 </v>
    <v>       0.13634510       0.02541346       0.48918507 </v>
    <v>       0.14085455       0.35947654       0.47436119 </v>
    <v>       0.17711123       0.10774765       0.50036119 </v>
    <v>       0.18277469       0.27698395       0.48780896 </v>
    <v>       0.22090446       0.02470111       0.50902388 </v>
    <v>       0.22662246       0.35112716       0.49131940 </v>
    <v>       0.26385276       0.10098235       0.51720000 </v>
    <v>       0.26813155       0.27240123       0.50610448 </v>
    <v>       0.30606310       0.01691469       0.52862687 </v>
    <v>       0.31053975       0.35549630       0.51392836 </v>
    <v>       0.34780071       0.10746642       0.53616716 </v>
    <v>       0.35099323       0.27420000       0.52700299 </v>
    <v>       0.39183244       0.02007778       0.54644776 </v>
    <v>       0.39285918       0.35391111       0.53067463 </v>
    <v>       0.43540463       0.10719000       0.54914627 </v>
    <v>       0.43625312       0.27763951       0.54077015 </v>
    <v>       0.48012478       0.01682988       0.54724478 </v>
    <v>       0.48146168       0.35548272       0.53392537 </v>
    <v>       0.52321569       0.10497938       0.54411642 </v>
    <v>       0.52377540       0.27153827       0.54092239 </v>
    <v>       0.56933690       0.02381728       0.54070746 </v>
    <v>       0.56896257       0.35231852       0.53389552 </v>
    <v>       0.61452406       0.09942728       0.53304478 </v>
    <v>       0.61357219       0.26956790       0.53035224 </v>
    <v>       0.65855615       0.01640037       0.52369851 </v>
    <v>       0.65597861       0.34972840       0.51973731 </v>
    <v>       0.70403565       0.09644889       0.51843582 </v>
    <v>       0.70048841       0.26557654       0.51283284 </v>
    <v>       0.74531551       0.01285815       0.50568657 </v>
    <v>       0.74198574       0.35237037       0.49725970 </v>
    <v>       0.78682709       0.10069778       0.49419104 </v>
    <v>       0.78640285       0.26994321       0.48977612 </v>
    <v>       0.82869162       0.01814765       0.48171343 </v>
    <v>       0.82835294       0.35674691       0.47748358 </v>
    <v>       0.87154724       0.10253481       0.47336716 </v>
    <v>       0.87125134       0.26874074       0.46989254 </v>
    <v>       0.91438503       0.02601667       0.46771343 </v>
    <v>       0.91495187       0.35606543       0.45634328 </v>
    <v>       0.95603209       0.10698741       0.45814627 </v>
    <v>       0.95849554       0.27844568       0.45249254 </v>
    <v>       0.01273533       0.60432346       0.44649552 </v>
    <v>       0.00964078       0.76472099       0.45766866 </v>
    <v>       0.05557398       0.52604815       0.45259403 </v>
    <v>       0.05067558       0.85397901       0.46771642 </v>
    <v>       0.09977148       0.60937654       0.45868060 </v>
    <v>       0.09379430       0.77610247       0.46997313 </v>
    <v>       0.14343708       0.52573333       0.46765970 </v>
    <v>       0.13645882       0.86430494       0.48202985 </v>
    <v>       0.18576827       0.61543580       0.47627463 </v>
    <v>       0.18128414       0.77975062       0.48590746 </v>
    <v>       0.22729804       0.52806173       0.48685970 </v>
    <v>       0.22078289       0.85137284       0.50524179 </v>
    <v>       0.26423494       0.61024691       0.50608657 </v>
    <v>       0.26184100       0.76883951       0.51675224 </v>
    <v>       0.30788770       0.52423704       0.51450149 </v>
    <v>       0.30351586       0.84676667       0.52985970 </v>
    <v>       0.35001604       0.60637901       0.52689851 </v>
    <v>       0.34868520       0.77345432       0.53430746 </v>
    <v>       0.39453119       0.52418642       0.52434328 </v>
    <v>       0.39288057       0.85585926       0.54165075 </v>
    <v>       0.43615686       0.61071975       0.52688657 </v>
    <v>       0.43583244       0.76972222       0.53768358 </v>
    <v>       0.48001783       0.52730988       0.52796418 </v>
    <v>       0.48048128       0.85116049       0.54344776 </v>
    <v>       0.52419608       0.60392099       0.52904478 </v>
    <v>       0.52662389       0.76484691       0.53656716 </v>
    <v>       0.56822103       0.52080123       0.52524179 </v>
    <v>       0.56892692       0.85400247       0.53499701 </v>
    <v>       0.61227451       0.60117284       0.52288060 </v>
    <v>       0.61257754       0.76774691       0.52462687 </v>
    <v>       0.65595009       0.51914815       0.51715821 </v>
    <v>       0.65693048       0.84787531       0.51809851 </v>
    <v>       0.69662745       0.59907778       0.50257612 </v>
    <v>       0.69849198       0.76787160       0.50187463 </v>
    <v>       0.73844920       0.52159383       0.49093731 </v>
    <v>       0.74135116       0.85293210       0.49587463 </v>
    <v>       0.78045989       0.60331728       0.47619104 </v>
    <v>       0.78295187       0.76882222       0.48290448 </v>
    <v>       0.82622460       0.52091728       0.47014328 </v>
    <v>       0.82715152       0.85142469       0.47597313 </v>
    <v>       0.86840642       0.60403704       0.46085373 </v>
    <v>       0.87073797       0.76652346       0.46790448 </v>
    <v>       0.91223173       0.52579259       0.45293433 </v>
    <v>       0.91600357       0.85180247       0.46815224 </v>
    <v>       0.95568271       0.60212593       0.44617313 </v>
    <v>       0.95583244       0.77299877       0.45585970 </v>
   </varray>
  </structure>
  <varray name="primitive_index" >
   <v type="int" >        1 </v>
   <v type="int" >        2 </v>
   <v type="int" >        3 </v>
   <v type="int" >        4 </v>
   <v type="int" >        5 </v>
   <v type="int" >        6 </v>
   <v type="int" >        7 </v>
   <v type="int" >        8 </v>
   <v type="int" >        9 </v>
   <v type="int" >       10 </v>
   <v type="int" >       11 </v>
   <v type="int" >       12 </v>
   <v type="int" >       13 </v>
   <v type="int" >       14 </v>
   <v type="int" >       15 </v>
   <v type="int" >       16 </v>
   <v type="int" >       17 </v>
   <v type="int" >       18 </v>
   <v type="int" >       19 </v>
   <v type="int" >       20 </v>
   <v type="int" >       21 </v>
   <v type="int" >       22 </v>
   <v type="int" >       23 </v>
   <v type="int" >       24 </v>
   <v type="int" >       25 </v>
   <v type="int" >       26 </v>
   <v type="int" >       27 </v>
   <v type="int" >       28 </v>
   <v type="int" >       29 </v>
   <v type="int" >       30 </v>
   <v type="int" >       31 </v>
   <v type="int" >       32 </v>
   <v type="int" >       33 </v>
   <v type="int" >       34 </v>
   <v type="int" >       35 </v>
   <v type="int" >       36 </v>
   <v type="int" >       37 </v>
   <v type="int" >       38 </v>
   <v type="int" >       39 </v>
   <v type="int" >       40 </v>
   <v type="int" >       41 </v>
   <v type="int" >       42 </v>
   <v type="int" >       43 </v>
   <v type="int" >       44 </v>
   <v type="int" >       45 </v>
   <v type="int" >       46 </v>
   <v type="int" >       47 </v>
   <v type="int" >       48 </v>
   <v type="int" >       49 </v>
   <v type="int" >       50 </v>
   <v type="int" >       51 </v>
   <v type="int" >       52 </v>
   <v type="int" >       53 </v>
   <v type="int" >       54 </v>
   <v type="int" >       55 </v>
   <v type="int" >       56 </v>
   <v type="int" >       57 </v>
   <v type="int" >       58 </v>
   <v type="int" >       59 </v>
   <v type="int" >       60 </v>
   <v type="int" >       61 </v>
   <v type="int" >       62 </v>
   <v type="int" >       63 </v>
   <v type="int" >       64 </v>
   <v type="int" >       65 </v>
   <v type="int" >       66 </v>
   <v type="int" >       67 </v>
   <v type="int" >       68 </v>
   <v type="int" >       69 </v>
   <v type="int" >       70 </v>
   <v type="int" >       71 </v>
   <v type="int" >       72 </v>
   <v type="int" >       73 </v>
   <v type="int" >       74 </v>
   <v type="int" >       75 </v>
   <v type="int" >       76 </v>
   <v type="int" >       77 </v>
   <v type="int" >       78 </v>
   <v type="int" >       79 </v>
   <v type="int" >       80 </v>
   <v type="int" >       81 </v>
   <v type="int" >       82 </v>
   <v type="int" >       83 </v>
   <v type="int" >       84 </v>
   <v type="int" >       85 </v>
   <v type="int" >       86 </v>
   <v type="int" >       87 </v>
   <v type="int" >       88 </v>
   <v type="int" >       89 </v>
   <v type="int" >       90 </v>
   <v type="int" >       91 </v>
   <v type="int" >       92 </v>
  </varray>
 </primitive_cell>
 <kpoints>
  <generation param="Gamma">
   <v type="int" name="divisions">       1        4        1 </v>
   <v name="usershift">      0.00000000       0.00000000       0.00000000 </v>
   <v name="genvec1">      1.00000000       0.00000000       0.00000000 </v>
   <v name="genvec2">      0.00000000       0.25000000       0.00000000 </v>
   <v name="genvec3">      0.00000000       0.00000000       1.00000000 </v>
   <v name="shift">      0.00000000       0.00000000       0.00000000 </v>
  </generation>
  <varray name="kpointlist" >
   <v>       0.00000000       0.00000000       0.00000000 </v>
   <v>       0.00000000       0.25000000       0.00000000 </v>
   <v>       0.00000000       0.50000000       0.00000000 </v>
  </varray>
  <varray name="weights" >
   <v>       0.25000000 </v>
   <v>       0.50000000 </v>
   <v>       0.25000000 </v>
  </varray>
 </kpoints>
 <parameters>
  <separator name="general" >
   <i type="string" name="SYSTEM">unknown system</i>
   <i type="logical" name="LCOMPAT"> F  </i>
  </separator>
  <separator name="electronic" >
   <i type="string" name="PREC">accura</i>
   <i name="ENMAX">    500.00000000</i>
   <i name="ENAUG">    644.87300000</i>
   <i name="EDIFF">      0.00000100</i>
   <i type="int" name="IALGO">    38</i>
   <i type="int" name="IWAVPR">    10</i>
   <i type="int" name="NBANDS">   232</i>
   <i type="int" name="NBANDSLOW">    -1</i>
   <i type="int" name="NBANDSHIGH">    -1</i>
   <i name="NELECT">    368.00000000</i>
   <i type="int" name="TURBO">     0</i>
   <i type="int" name="IRESTART">     0</i>
   <i type="int" name="NREBOOT">     0</i>
   <i type="int" name="NMIN">     0</i>
   <i name="EREF">      0.00000000</i>
   <separator name="electronic smearing" >
    <i type="int" name="ISMEAR">     0</i>
    <i name="SIGMA">      0.20000000</i>
    <i name="KSPACING">      0.50000000</i>
    <i type="logical" name="KGAMMA"> T  </i>
    <i type="logical" name="KBLOWUP"> T  </i>
   </separator>
   <separator name="electronic projectors" >
    <i type="logical" name="LREAL"> T  </i>
    <v name="ROPT">     -0.00025000</v>
    <i type="int" name="LMAXPAW">  -100</i>
    <i type="int" name="LMAXMIX">     2</i>
    <i type="logical" name="NLSPLINE"> F  </i>
   </separator>
   <separator name="electronic startup" >
    <i type="int" name="ISTART">     0</i>
    <i type="int" name="ICHARG">     2</i>
    <i type="int" name="INIWAV">     1</i>
   </separator>
   <separator name="electronic spin" >
    <i type="int" name="ISPIN">     1</i>
    <i type="logical" name="LNONCOLLINEAR"> F  </i>
    <v name="MAGMOM">      1.00000000      1.00000000      1.00000000      1.00000000      1.00000000      1.00000000      1.00000000      1.00000000      1.00000000      1.00000000      1.00000000      1.00000000      1.00000000      1.00000000      1.00000000      1.00000000      1.00000000      1.00000000      1.00000000      1.00000000
      1.00000000      1.00000000      1.00000000      1.00000000      1.00000000      1.00000000      1.00000000      1.00000000      1.00000000      1.00000000      1.00000000      1.00000000      1.00000000      1.00000000      1.00000000      1.00000000      1.00000000      1.00000000      1.00000000      1.00000000
      1.00000000      1.00000000      1.00000000      1.00000000      1.00000000      1.00000000      1.00000000      1.00000000      1.00000000      1.00000000      1.00000000      1.00000000      1.00000000      1.00000000      1.00000000      1.00000000      1.00000000      1.00000000      1.00000000      1.00000000
      1.00000000      1.00000000      1.00000000      1.00000000      1.00000000      1.00000000      1.00000000      1.00000000      1.00000000      1.00000000      1.00000000      1.00000000      1.00000000      1.00000000      1.00000000      1.00000000      1.00000000      1.00000000      1.00000000      1.00000000
      1.00000000      1.00000000      1.00000000      1.00000000      1.00000000      1.00000000      1.00000000      1.00000000      1.00000000      1.00000000      1.00000000      1.00000000</v>
    <i name="NUPDOWN">     -1.00000000</i>
    <i type="logical" name="LSORBIT"> F  </i>
    <v name="SAXIS">      0.00000000      0.00000000      1.00000000</v>
    <i type="logical" name="LSPIRAL"> F  </i>
    <v name="QSPIRAL">      0.00000000      0.00000000      0.00000000</v>
    <i type="logical" name="LZEROZ"> F  </i>
   </separator>
   <separator name="electronic exchange-correlation" >
    <i type="logical" name="LASPH"> F  </i>
   </separator>
   <separator name="electronic convergence" >
    <i type="int" name="NELM">   150</i>
    <i type="int" name="NELMDL">    -5</i>
    <i type="int" name="NELMIN">     2</i>
    <i name="ENINI">    500.00000000</i>
    <separator name="electronic convergence detail" >
     <i type="logical" name="LDIAG"> T  </i>
     <i type="logical" name="LSUBROT"> F  </i>
     <i name="WEIMIN">      0.00000000</i>
     <i name="EBREAK">      0.00000000</i>
     <i name="DEPER">      0.30000000</i>
     <i type="int" name="NRMM">     4</i>
     <i name="TIME">      0.40000000</i>
    </separator>
   </separator>
   <separator name="electronic mixer" >
    <i name="AMIX">      0.40000000</i>
    <i name="BMIX">      1.00000000</i>
    <i name="AMIN">      0.10000000</i>
    <i name="AMIX_MAG">      1.60000000</i>
    <i name="BMIX_MAG">      1.00000000</i>
    <separator name="electronic mixer details" >
     <i type="int" name="IMIX">     4</i>
     <i type="logical" name="MIXFIRST"> F  </i>
     <i type="int" name="MAXMIX">   -45</i>
     <i name="WC">    100.00000000</i>
     <i type="int" name="INIMIX">     1</i>
     <i type="int" name="MIXPRE">     1</i>
     <i type="int" name="MREMOVE">     5</i>
    </separator>
   </separator>
   <separator name="electronic dipolcorrection" >
    <i type="logical" name="LDIPOL"> F  </i>
    <i type="logical" name="LMONO"> F  </i>
    <i type="int" name="IDIPOL">     0</i>
    <i name="EPSILON">      1.00000000</i>
    <v name="DIPOL">   -100.00000000   -100.00000000   -100.00000000</v>
    <i name="EFIELD">      0.00000000</i>
    <i type="logical" name="LVACPOTAV"> F  </i>
   </separator>
  </separator>
  <separator name="grids" >
   <i type="int" name="NGX">   210</i>
   <i type="int" name="NGY">    60</i>
   <i type="int" name="NGZ">   250</i>
   <i type="int" name="NGXF">   420</i>
   <i type="int" name="NGYF">   120</i>
   <i type="int" name="NGZF">   500</i>
   <i type="logical" name="ADDGRID"> F  </i>
  </separator>
  <separator name="ionic" >
   <i type="int" name="NSW">     0</i>
   <i type="int" name="IBRION">    -1</i>
   <i type="int" name="MDALGO">     0</i>
   <i type="int" name="ISIF">     2</i>
   <i name="PSTRESS">      0.00000000</i>
   <i name="EDIFFG">      0.00001000</i>
   <i type="int" name="NFREE">     0</i>
   <i name="POTIM">      0.50000000</i>
   <i name="SMASS">     -3.00000000</i>
   <i name="SCALEE">      1.00000000</i>
  </separator>
  <separator name="ionic md" >
   <i name="TEBEG">      0.00010000</i>
   <i name="TEEND">      0.00010000</i>
   <i type="int" name="NBLOCK">     1</i>
   <i type="int" name="KBLOCK">     1</i>
   <i type="int" name="NPACO">   256</i>
   <i name="APACO">     10.00000000</i>
  </separator>
  <separator name="symmetry" >
   <i type="int" name="ISYM">     2</i>
   <i name="SYMPREC">      0.00001000</i>
  </separator>
  <separator name="dos" >
   <i type="int" name="LORBIT">     0</i>
   <v name="RWIGS">     -1.00000000</v>
   <i type="int" name="NEDOS">   301</i>
   <i name="EMIN">     10.00000000</i>
   <i name="EMAX">    -10.00000000</i>
   <i name="EFERMI">      0.00000000</i>
  </separator>
  <separator name="writing" >
   <i type="int" name="NWRITE">     2</i>
   <i type="logical" name="LWAVE"> F  </i>
   <i type="logical" name="LDOWNSAMPLE"> F  </i>
   <i type="logical" name="LCHARG"> F  </i>
   <i type="logical" name="LPARD"> F  </i>
   <i type="logical" name="LVTOT"> F  </i>
   <i type="logical" name="LVHAR"> F  </i>
   <i type="logical" name="LELF"> F  </i>
   <i type="logical" name="LOPTICS"> F  </i>
   <v name="STM">      0.00000000      0.00000000      0.00000000      0.00000000      0.00000000      0.00000000      0.00000000</v>
  </separator>
  <separator name="performance" >
   <i type="int" name="NPAR">     2</i>
   <i type="int" name="NSIM">     4</i>
   <i type="int" name="NBLK">    -1</i>
   <i type="logical" name="LPLANE"> T  </i>
   <i type="logical" name="LSCALAPACK"> T  </i>
   <i type="logical" name="LSCAAWARE"> F  </i>
   <i type="logical" name="LSCALU"> F  </i>
   <i type="logical" name="LASYNC"> F  </i>
   <i type="logical" name="LORBITALREAL"> F  </i>
  </separator>
  <separator name="miscellaneous" >
   <i type="int" name="IDIOT">     3</i>
   <i type="int" name="PHON_NSTRUCT">    -1</i>
   <i type="logical" name="LMUSIC"> F  </i>
   <v name="POMASS">     12.01100000</v>
   <v name="DARWINR">      0.00000000</v>
   <v name="DARWINV">      1.00000000</v>
   <i type="logical" name="LCORR"> T  </i>
  </separator>
  <i type="logical" name="GGA_COMPAT"> T  </i>
  <i type="logical" name="LBERRY"> F  </i>
  <i type="int" name="ICORELEVEL">     0</i>
  <i type="logical" name="LDAU"> F  </i>
  <i type="int" name="I_CONSTRAINED_M">     0</i>
  <separator name="electronic exchange-correlation" >
   <i type="string" name="GGA    ">PE</i>
   <i type="string" name="XC_C">1</i>
   <i type="int" name="VOSKOWN">     0</i>
   <i type="logical" name="LHFCALC"> F  </i>
   <i type="string" name="PRECFOCK"></i>
   <i type="logical" name="LSYMGRAD"> F  </i>
   <i type="logical" name="LHFONE"> F  </i>
   <i type="logical" name="LRHFCALC"> F  </i>
   <i type="logical" name="LTHOMAS"> F  </i>
   <i type="logical" name="LMODELHF"> F  </i>
   <i type="logical" name="LFOCKACE"> F  </i>
   <i name="ENCUT4O">     -1.00000000</i>
   <i type="int" name="EXXOEP">     0</i>
   <i type="int" name="FOURORBIT">     0</i>
   <i name="AEXX">      0.00000000</i>
   <i name="HFALPHA">      0.00000000</i>
   <i name="MCALPHA">      0.00000000</i>
   <i name="ALDAX">      1.00000000</i>
   <i name="AGGAX">      1.00000000</i>
   <i name="AMGGAX">      1.00000000</i>
   <i name="ALDAC">      1.00000000</i>
   <i name="AGGAC">      1.00000000</i>
   <i name="AMGGAC">      1.00000000</i>
   <i type="int" name="NKREDX">     1</i>
   <i type="int" name="NKREDY">     1</i>
   <i type="int" name="NKREDZ">     1</i>
   <i type="logical" name="SHIFTRED"> F  </i>
   <i type="logical" name="ODDONLY"> F  </i>
   <i type="logical" name="EVENONLY"> F  </i>
   <i type="int" name="LMAXFOCK">     0</i>
   <i type="int" name="NMAXFOCKAE">     0</i>
   <i type="logical" name="LFOCKAEDFT"> F  </i>
   <i name="HFSCREEN">      0.00000000</i>
   <i name="HFSCREENC">      0.00000000</i>
   <i type="int" name="NBANDSGWLOW">     0</i>
  </separator>
  <separator name="vdW DFT" >
   <i type="logical" name="LUSE_VDW"> F  </i>
   <i type="int" name="IVDW_NL">    -1</i>
   <i type="logical" name="LSPIN_VDW"> F  </i>
   <i name="ZAB_VDW">     -0.84910000</i>
   <i name="GAMMA_VDW">      1.39626340</i>
   <i name="ALPHA_VDW">      0.00000000</i>
   <i name="PARAM1">      0.12340000</i>
   <i name="PARAM2">      1.00000000</i>
   <i name="BPARAM">      6.30000000</i>
   <i name="CPARAM">      0.00930000</i>
  </separator>
  <separator name="model GW" >
   <i type="int" name="MODEL_GW">     0</i>
   <i name="MODEL_EPS0">     49.63935326</i>
   <i name="MODEL_ALPHA">      1.00000000</i>
  </separator>
  <separator name="linear response parameters" >
   <i type="logical" name="LEPSILON"> F  </i>
   <i type="logical" name="LRPA"> F  </i>
   <i type="logical" name="LNABLA"> F  </i>
   <i type="logical" name="LVEL"> F  </i>
   <i name="CSHIFT">      0.10000000</i>
   <i name="OMEGAMAX">     -1.00000000</i>
   <i name="DEG_THRESHOLD">      0.00200000</i>
   <i name="RTIME">     -0.10000000</i>
   <i name="WPLASMAI">      0.00000000</i>
   <v name="DFIELD">      0.00000000      0.00000000      0.00000000</v>
   <v name="WPLASMA">      0.00000000      0.00000000      0.00000000      0.00000000      0.00000000      0.00000000      0.00000000      0.00000000      0.00000000</v>
  </separator>
  <separator name="orbital magnetization" >
   <i type="logical" name="NUCIND"> F  </i>
   <v name="MAGPOS">      0.00000000      0.00000000      0.00000000</v>
   <i type="logical" name="LNICSALL"> T  </i>
   <i type="logical" name="ORBITALMAG"> F  </i>
   <i type="logical" name="LMAGBLOCH"> F  </i>
   <i type="logical" name="LCHIMAG"> F  </i>
   <i type="logical" name="LGAUGE"> T  </i>
   <i type="int" name="MAGATOM">     0</i>
   <v name="MAGDIPOL">      0.00000000      0.00000000      0.00000000</v>
   <v name="AVECCONST">      0.00000000      0.00000000      0.00000000</v>
  </separator>
  <separator name="response functions" >
   <i type="logical" name="LALL_IN_ONE"> F  </i>
   <i type="int" name="IALL_IN_ONE">    -1</i>
   <i type="int" name="NBANDS_WAVE">    -1</i>
   <i type="logical" name="LFINITE_TEMPERATURE"> F  </i>
   <i type="logical" name="LADDER"> F  </i>
   <i type="logical" name="LRPAFORCE"> F  </i>
   <i type="logical" name="LFXC"> F  </i>
   <i type="logical" name="LHARTREE"> T  </i>
   <i type="int" name="IBSE">     2</i>
   <v type="int" name="KPOINT">    -1     0     0     0</v>
   <i type="logical" name="LTCTC"> F  </i>
   <i type="logical" name="LTCTE"> F  </i>
   <i type="logical" name="LTETE"> F  </i>
   <i type="logical" name="LTRIPLET"> F  </i>
   <i type="logical" name="LFXCEPS"> F  </i>
   <i type="logical" name="LFXHEG"> F  </i>
   <i type="int" name="NATURALO">     2</i>
   <i type="logical" name="LHOLEGF"> F  </i>
   <i type="logical" name="L2ORDER"> F  </i>
   <i type="logical" name="LDMP1"> F  </i>
   <i type="logical" name="LMP2LT"> F  </i>
   <i type="logical" name="LSMP2LT"> F  </i>
   <i type="logical" name="LGWLF"> F  </i>
   <i name="ENCUTGW">     -1.60000002</i>
   <i name="ENCUTGWSOFT">     -1.60000002</i>
   <i name="ENCUTLF">     -1.00000000</i>
   <i type="logical" name="ESF_SPLINES"> F  </i>
   <i name="ESF_CONV">      0.01000000</i>
   <i type="int" name="ESF_NINTER">    15</i>
   <i type="int" name="LMAXMP2">    -1</i>
   <i name="SCISSOR">      0.00000000</i>
   <i type="int" name="NOMEGA">     0</i>
   <i type="int" name="NOMEGAR">     0</i>
   <i type="int" name="NBANDSGW">    -1</i>
   <i type="int" name="NBANDSO">    -1</i>
   <i type="int" name="NBANDSV">    -1</i>
   <i type="int" name="NELMGW">     1</i>
   <i type="int" name="NELMHF">     1</i>
   <i type="int" name="DIM">     3</i>
   <i type="int" name="IESPILON">     4</i>
   <i type="int" name="ANTIRES">     0</i>
   <i name="OMEGAMAX">    -30.00000000</i>
   <i name="OMEGAMIN">    -30.00000000</i>
   <i name="OMEGATL">   -200.00000000</i>
   <i type="int" name="OMEGAGRID">     0</i>
   <i name="CSHIFT">     -0.10000000</i>
   <i type="logical" name="LSELFENERGY"> F  </i>
   <i type="logical" name="LSPECTRAL"> F  </i>
   <i type="logical" name="LSPECTRALGW"> F  </i>
   <i type="logical" name="LSINGLES"> F  </i>
   <i type="logical" name="LFERMIGW"> F  </i>
   <i type="logical" name="ODDONLYGW"> F  </i>
   <i type="logical" name="EVENONLYGW"> F  </i>
   <i type="int" name="NKREDLFX">     1</i>
   <i type="int" name="NKREDLFY">     1</i>
   <i type="int" name="NKREDLFZ">     1</i>
   <i type="int" name="MAXMEM">  2800</i>
   <i type="int" name="TELESCOPE">     0</i>
   <i type="int" name="NTAUPAR">    -1</i>
   <i type="int" name="NOMEGAPAR">    -1</i>
   <i name="DAMP_NEWTON">      0.80000001</i>
   <i name="LAMBDA">      1.00000000</i>
  </separator>
  <separator name="External order field" >
   <i name="OFIELD_KAPPA">      0.00000000</i>
   <v name="OFIELD_K">      0.00000000      0.00000000      0.00000000</v>
   <i name="OFIELD_Q6_NEAR">      0.00000000</i>
   <i name="OFIELD_Q6_FAR">      0.00000000</i>
   <i name="OFIELD_A">      0.00000000</i>
  </separator>
  <separator name="optional k-points parameters" >
   <i type="int" name="KPOINTS_OPT_MODE">     1</i>
   <i type="logical" name="LKPOINTS_OPT"> F  </i>
  </separator>
 </parameters>
 <atominfo>
  <atoms>      92 </atoms>
  <types>       1 </types>
  <array name="atoms" >
   <dimension dim="1">ion</dimension>
   <field type="string">element</field>
   <field type="int">atomtype</field>
   <set>
    <rc><c>C </c><c>   1</c></rc>
    <rc><c>C </c><c>   1</c></rc>
    <rc><c>C </c><c>   1</c></rc>
    <rc><c>C </c><c>   1</c></rc>
    <rc><c>C </c><c>   1</c></rc>
    <rc><c>C </c><c>   1</c></rc>
    <rc><c>C </c><c>   1</c></rc>
    <rc><c>C </c><c>   1</c></rc>
    <rc><c>C </c><c>   1</c></rc>
    <rc><c>C </c><c>   1</c></rc>
    <rc><c>C </c><c>   1</c></rc>
    <rc><c>C </c><c>   1</c></rc>
    <rc><c>C </c><c>   1</c></rc>
    <rc><c>C </c><c>   1</c></rc>
    <rc><c>C </c><c>   1</c></rc>
    <rc><c>C </c><c>   1</c></rc>
    <rc><c>C </c><c>   1</c></rc>
    <rc><c>C </c><c>   1</c></rc>
    <rc><c>C </c><c>   1</c></rc>
    <rc><c>C </c><c>   1</c></rc>
    <rc><c>C </c><c>   1</c></rc>
    <rc><c>C </c><c>   1</c></rc>
    <rc><c>C </c><c>   1</c></rc>
    <rc><c>C </c><c>   1</c></rc>
    <rc><c>C </c><c>   1</c></rc>
    <rc><c>C </c><c>   1</c></rc>
    <rc><c>C </c><c>   1</c></rc>
    <rc><c>C </c><c>   1</c></rc>
    <rc><c>C </c><c>   1</c></rc>
    <rc><c>C </c><c>   1</c></rc>
    <rc><c>C </c><c>   1</c></rc>
    <rc><c>C </c><c>   1</c></rc>
    <rc><c>C </c><c>   1</c></rc>
    <rc><c>C </c><c>   1</c></rc>
    <rc><c>C </c><c>   1</c></rc>
    <rc><c>C </c><c>   1</c></rc>
    <rc><c>C </c><c>   1</c></rc>
    <rc><c>C </c><c>   1</c></rc>
    <rc><c>C </c><c>   1</c></rc>
    <rc><c>C </c><c>   1</c></rc>
    <rc><c>C </c><c>   1</c></rc>
    <rc><c>C </c><c>   1</c></rc>
    <rc><c>C </c><c>   1</c></rc>
    <rc><c>C </c><c>   1</c></rc>
    <rc><c>C </c><c>   1</c></rc>
    <rc><c>C </c><c>   1</c></rc>
    <rc><c>C </c><c>   1</c></rc>
    <rc><c>C </c><c>   1</c></rc>
    <rc><c>C </c><c>   1</c></rc>
    <rc><c>C </c><c>   1</c></rc>
    <rc><c>C </c><c>   1</c></rc>
    <rc><c>C </c><c>   1</c></rc>
    <rc><c>C </c><c>   1</c></rc>
    <rc><c>C </c><c>   1</c></rc>
    <rc><c>C </c><c>   1</c></rc>
    <rc><c>C </c><c>   1</c></rc>
    <rc><c>C </c><c>   1</c></rc>
    <rc><c>C </c><c>   1</c></rc>
    <rc><c>C </c><c>   1</c></rc>
    <rc><c>C </c><c>   1</c></rc>
    <rc><c>C </c><c>   1</c></rc>
    <rc><c>C </c><c>   1</c></rc>
    <rc><c>C </c><c>   1</c></rc>
    <rc><c>C </c><c>   1</c></rc>
    <rc><c>C </c><c>   1</c></rc>
    <rc><c>C </c><c>   1</c></rc>
    <rc><c>C </c><c>   1</c></rc>
    <rc><c>C </c><c>   1</c></rc>
    <rc><c>C </c><c>   1</c></rc>
    <rc><c>C </c><c>   1</c></rc>
    <rc><c>C </c><c>   1</c></rc>
    <rc><c>C </c><c>   1</c></rc>
    <rc><c>C </c><c>   1</c></rc>
    <rc><c>C </c><c>   1</c></rc>
    <rc><c>C </c><c>   1</c></rc>
    <rc><c>C </c><c>   1</c></rc>
    <rc><c>C </c><c>   1</c></rc>
    <rc><c>C </c><c>   1</c></rc>
    <rc><c>C </c><c>   1</c></rc>
    <rc><c>C </c><c>   1</c></rc>
    <rc><c>C </c><c>   1</c></rc>
    <rc><c>C </c><c>   1</c></rc>
    <rc><c>C </c><c>   1</c></rc>
    <rc><c>C </c><c>   1</c></rc>
    <rc><c>C </c><c>   1</c></rc>
    <rc><c>C </c><c>   1</c></rc>
    <rc><c>C </c><c>   1</c></rc>
    <rc><c>C </c><c>   1</c></rc>
    <rc><c>C </c><c>   1</c></rc>
    <rc><c>C </c><c>   1</c></rc>
    <rc><c>C </c><c>   1</c></rc>
    <rc><c>C </c><c>   1</c></rc>
   </set>
  </array>
  <array name="atomtypes" >
   <dimension dim="1">type</dimension>
   <field type="int">atomspertype</field>
   <field type="string">element</field>
   <field>mass</field>
   <field>valence</field>
   <field type="string">pseudopotential</field>
   <set>
    <rc><c>  92</c><c>C </c><c>     12.01100000</c><c>      4.00000000</c><c>  PAW_PBE C 08Apr2002                   </c></rc>
   </set>
  </array>
 </atominfo>
 <structure name="initialpos" >
  <crystal>
   <varray name="basis" >
    <v>      28.05000000       0.00000000       0.00000000 </v>
    <v>       0.00000000       8.10000000       0.00000000 </v>
    <v>       0.00000000       0.00000000      33.50000000 </v>
   </varray>
   <i name="volume">   7611.36750000 </i>
   <varray name="rec_basis" >
    <v>       0.03565062       0.00000000       0.00000000 </v>
    <v>       0.00000000       0.12345679       0.00000000 </v>
    <v>       0.00000000       0.00000000       0.02985075 </v>
   </varray>
  </crystal>
  <varray name="positions" >
   <v>       0.00790717       0.11138605       0.46572836 </v>
   <v>       0.01037544       0.28263827       0.46001493 </v>
   <v>       0.04973298       0.02834531       0.47252537 </v>
   <v>       0.05420963       0.35611481       0.45693134 </v>
   <v>       0.09324991       0.10858185       0.47910746 </v>
   <v>       0.09597790       0.27367654       0.47013731 </v>
   <v>       0.13634510       0.02541346       0.48918507 </v>
   <v>       0.14085455       0.35947654       0.47436119 </v>
   <v>       0.17711123       0.10774765       0.50036119 </v>
   <v>       0.18277469       0.27698395       0.48780896 </v>
   <v>       0.22090446       0.02470111       0.50902388 </v>
   <v>       0.22662246       0.35112716       0.49131940 </v>
   <v>       0.26385276       0.10098235       0.51720000 </v>
   <v>       0.26813155       0.27240123       0.50610448 </v>
   <v>       0.30606310       0.01691469       0.52862687 </v>
   <v>       0.31053975       0.35549630       0.51392836 </v>
   <v>       0.34780071       0.10746642       0.53616716 </v>
   <v>       0.35099323       0.27420000       0.52700299 </v>
   <v>       0.39183244       0.02007778       0.54644776 </v>
   <v>       0.39285918       0.35391111       0.53067463 </v>
   <v>       0.43540463       0.10719000       0.54914627 </v>
   <v>       0.43625312       0.27763951       0.54077015 </v>
   <v>       0.48012478       0.01682988       0.54724478 </v>
   <v>       0.48146168       0.35548272       0.53392537 </v>
   <v>       0.52321569       0.10497938       0.54411642 </v>
   <v>       0.52377540       0.27153827       0.54092239 </v>
   <v>       0.56933690       0.02381728       0.54070746 </v>
   <v>       0.56896257       0.35231852       0.53389552 </v>
   <v>       0.61452406       0.09942728       0.53304478 </v>
   <v>       0.61357219       0.26956790       0.53035224 </v>
   <v>       0.65855615       0.01640037       0.52369851 </v>
   <v>       0.65597861       0.34972840       0.51973731 </v>
   <v>       0.70403565       0.09644889       0.51843582 </v>
   <v>       0.70048841       0.26557654       0.51283284 </v>
   <v>       0.74531551       0.01285815       0.50568657 </v>
   <v>       0.74198574       0.35237037       0.49725970 </v>
   <v>       0.78682709       0.10069778       0.49419104 </v>
   <v>       0.78640285       0.26994321       0.48977612 </v>
   <v>       0.82869162       0.01814765       0.48171343 </v>
   <v>       0.82835294       0.35674691       0.47748358 </v>
   <v>       0.87154724       0.10253481       0.47336716 </v>
   <v>       0.87125134       0.26874074       0.46989254 </v>
   <v>       0.91438503       0.02601667       0.46771343 </v>
   <v>       0.91495187       0.35606543       0.45634328 </v>
   <v>       0.95603209       0.10698741       0.45814627 </v>
   <v>       0.95849554       0.27844568       0.45249254 </v>
   <v>       0.01273533       0.60432346       0.44649552 </v>
   <v>       0.00964078       0.76472099       0.45766866 </v>
   <v>       0.05557398       0.52604815       0.45259403 </v>
   <v>       0.05067558       0.85397901       0.46771642 </v>
   <v>       0.09977148       0.60937654       0.45868060 </v>
   <v>       0.09379430       0.77610247       0.46997313 </v>
   <v>       0.14343708       0.52573333       0.46765970 </v>
   <v>       0.13645882       0.86430494       0.48202985 </v>
   <v>       0.18576827       0.61543580       0.47627463 </v>
   <v>       0.18128414       0.77975062       0.48590746 </v>
   <v>       0.22729804       0.52806173       0.48685970 </v>
   <v>       0.22078289       0.85137284       0.50524179 </v>
   <v>       0.26423494       0.61024691       0.50608657 </v>
   <v>       0.26184100       0.76883951       0.51675224 </v>
   <v>       0.30788770       0.52423704       0.51450149 </v>
   <v>       0.30351586       0.84676667       0.52985970 </v>
   <v>       0.35001604       0.60637901       0.52689851 </v>
   <v>       0.34868520       0.77345432       0.53430746 </v>
   <v>       0.39453119       0.52418642       0.52434328 </v>
   <v>       0.39288057       0.85585926       0.54165075 </v>
   <v>       0.43615686       0.61071975       0.52688657 </v>
   <v>       0.43583244       0.76972222       0.53768358 </v>
   <v>       0.48001783       0.52730988       0.52796418 </v>
   <v>       0.48048128       0.85116049       0.54344776 </v>
   <v>       0.52419608       0.60392099       0.52904478 </v>
   <v>       0.52662389       0.76484691       0.53656716 </v>
   <v>       0.56822103       0.52080123       0.52524179 </v>
   <v>       0.56892692       0.85400247       0.53499701 </v>
   <v>       0.61227451       0.60117284       0.52288060 </v>
   <v>       0.61257754       0.76774691       0.52462687 </v>
   <v>       0.65595009       0.51914815       0.51715821 </v>
   <v>       0.65693048       0.84787531       0.51809851 </v>
   <v>       0.69662745       0.59907778       0.50257612 </v>
   <v>       0.69849198       0.76787160       0.50187463 </v>
   <v>       0.73844920       0.52159383       0.49093731 </v>
   <v>       0.74135116       0.85293210       0.49587463 </v>
   <v>       0.78045989       0.60331728       0.47619104 </v>
   <v>       0.78295187       0.76882222       0.48290448 </v>
   <v>       0.82622460       0.52091728       0.47014328 </v>
   <v>       0.82715152       0.85142469       0.47597313 </v>
   <v>       0.86840642       0.60403704       0.46085373 </v>
   <v>       0.87073797       0.76652346       0.46790448 </v>
   <v>       0.91223173       0.52579259       0.45293433 </v>
   <v>       0.91600357       0.85180247       0.46815224 </v>
   <v>       0.95568271       0.60212593       0.44617313 </v>
   <v>       0.95583244       0.77299877       0.45585970 </v>
  </varray>
 </structure>
 <calculation>
  <scstep>
   <time name="dav">   11.07   11.08</time>
   <time name="total">   11.54   11.57</time>
   <energy>
    <i name="alphaZ">     91.34886789 </i>
    <i name="ewald"> 120356.73118724 </i>
    <i name="hartreedc">-129678.07307646 </i>
    <i name="XCdc">   1221.70815260 </i>
    <i name="pawpsdc">   9984.02826696 </i>
    <i name="pawaedc"> -10036.41360137 </i>
    <i name="eentropy">     -0.84315412 </i>
    <i name="bandstr">  -1773.17927969 </i>
    <i name="atom">  13537.65479391 </i>
    <i name="e_fr_energy">   3702.96215696 </i>
    <i name="e_wo_entrp">   3703.80531108 </i>
    <i name="e_0_energy">   3703.38373402 </i>
   </energy>
  </scstep>
  <scstep>
   <time name="dav">   13.13   13.14</time>
   <time name="total">   13.13   13.14</time>
   <energy>
    <i name="e_fr_energy">    182.68470796 </i>
    <i name="e_wo_entrp">    182.82922027 </i>
    <i name="e_0_energy">    182.75696412 </i>
   </energy>
  </scstep>
  <scstep>
   <time name="dav">   11.34   11.35</time>
   <time name="total">   11.34   11.35</time>
   <energy>
    <i name="e_fr_energy">   -834.83989151 </i>
    <i name="e_wo_entrp">   -834.79529056 </i>
    <i name="e_0_energy">   -834.81759103 </i>
   </energy>
  </scstep>
  <scstep>
   <time name="dav">   11.00   11.00</time>
   <time name="total">   11.00   11.00</time>
   <energy>
    <i name="e_fr_energy">   -896.60584291 </i>
    <i name="e_wo_entrp">   -896.54957898 </i>
    <i name="e_0_energy">   -896.57771095 </i>
   </energy>
  </scstep>
  <scstep>
   <time name="dav">   11.33   11.34</time>
   <time name="total">   12.82   12.82</time>
   <energy>
    <i name="e_fr_energy">   -898.11066102 </i>
    <i name="e_wo_entrp">   -898.05391582 </i>
    <i name="e_0_energy">   -898.08228842 </i>
   </energy>
  </scstep>
  <scstep>
   <time name="dav">   10.14   10.14</time>
   <time name="total">   11.94   11.94</time>
   <energy>
    <i name="e_fr_energy">   -848.28698690 </i>
    <i name="e_wo_entrp">   -848.22886471 </i>
    <i name="e_0_energy">   -848.25792581 </i>
   </energy>
  </scstep>
  <scstep>
   <time name="dav">   10.14   10.14</time>
   <time name="total">   11.94   11.94</time>
   <energy>
    <i name="e_fr_energy">   -829.78773104 </i>
    <i name="e_wo_entrp">   -829.72474159 </i>
    <i name="e_0_energy">   -829.75623631 </i>
   </energy>
  </scstep>
  <scstep>
   <time name="dav">   10.43   10.43</time>
   <time name="total">   12.22   12.23</time>
   <energy>
    <i name="e_fr_energy">   -829.50552324 </i>
    <i name="e_wo_entrp">   -829.44446598 </i>
    <i name="e_0_energy">   -829.47499461 </i>
   </energy>
  </scstep>
  <scstep>
   <time name="dav">   10.62   10.63</time>
   <time name="total">   12.42   12.43</time>
   <energy>
    <i name="e_fr_energy">   -829.39633861 </i>
    <i name="e_wo_entrp">   -829.33507611 </i>
    <i name="e_0_energy">   -829.36570736 </i>
   </energy>
  </scstep>
  <scstep>
   <time name="dav">   11.06   11.07</time>
   <time name="total">   12.87   12.88</time>
   <energy>
    <i name="e_fr_energy">   -829.35938522 </i>
    <i name="e_wo_entrp">   -829.29812591 </i>
    <i name="e_0_energy">   -829.32875557 </i>
   </energy>
  </scstep>
  <scstep>
   <time name="dav">   10.13   10.13</time>
   <time name="total">   11.95   11.96</time>
   <energy>
    <i name="e_fr_energy">   -829.33073967 </i>
    <i name="e_wo_entrp">   -829.26947940 </i>
    <i name="e_0_energy">   -829.30010953 </i>
   </energy>
  </scstep>
  <scstep>
   <time name="dav">   10.04   10.04</time>
   <time name="total">   11.86   11.87</time>
   <energy>
    <i name="e_fr_energy">   -829.32459834 </i>
    <i name="e_wo_entrp">   -829.26322272 </i>
    <i name="e_0_energy">   -829.29391053 </i>
   </energy>
  </scstep>
  <scstep>
   <time name="dav">   10.04   10.04</time>
   <time name="total">   11.87   11.87</time>
   <energy>
    <i name="e_fr_energy">   -829.33664053 </i>
    <i name="e_wo_entrp">   -829.27531105 </i>
    <i name="e_0_energy">   -829.30597579 </i>
   </energy>
  </scstep>
  <scstep>
   <time name="dav">   10.29   10.29</time>
   <time name="total">   12.12   12.13</time>
   <energy>
    <i name="e_fr_energy">   -829.35291624 </i>
    <i name="e_wo_entrp">   -829.29159606 </i>
    <i name="e_0_energy">   -829.32225615 </i>
   </energy>
  </scstep>
  <scstep>
   <time name="dav">   10.04   10.05</time>
   <time name="total">   11.89   11.90</time>
   <energy>
    <i name="e_fr_energy">   -829.37384855 </i>
    <i name="e_wo_entrp">   -829.31249442 </i>
    <i name="e_0_energy">   -829.34317148 </i>
   </energy>
  </scstep>
  <scstep>
   <time name="dav">   10.42   10.42</time>
   <time name="total">   12.29   12.29</time>
   <energy>
    <i name="e_fr_energy">   -829.38199314 </i>
    <i name="e_wo_entrp">   -829.32064571 </i>
    <i name="e_0_energy">   -829.35131943 </i>
   </energy>
  </scstep>
  <scstep>
   <time name="dav">   10.45   10.45</time>
   <time name="total">   12.31   12.32</time>
   <energy>
    <i name="e_fr_energy">   -829.38778200 </i>
    <i name="e_wo_entrp">   -829.32643352 </i>
    <i name="e_0_energy">   -829.35710776 </i>
   </energy>
  </scstep>
  <scstep>
   <time name="dav">   11.02   11.02</time>
   <time name="total">   12.89   12.90</time>
   <energy>
    <i name="e_fr_energy">   -829.38933102 </i>
    <i name="e_wo_entrp">   -829.32797855 </i>
    <i name="e_0_energy">   -829.35865479 </i>
   </energy>
  </scstep>
  <scstep>
   <time name="dav">    9.61    9.61</time>
   <time name="total">   11.50   11.51</time>
   <energy>
    <i name="e_fr_energy">   -829.39056472 </i>
    <i name="e_wo_entrp">   -829.32921440 </i>
    <i name="e_0_energy">   -829.35988956 </i>
   </energy>
  </scstep>
  <scstep>
   <time name="dav">    9.40    9.40</time>
   <time name="total">   11.30   11.31</time>
   <energy>
    <i name="e_fr_energy">   -829.39088744 </i>
    <i name="e_wo_entrp">   -829.32953696 </i>
    <i name="e_0_energy">   -829.36021220 </i>
   </energy>
  </scstep>
  <scstep>
   <time name="dav">    8.55    8.55</time>
   <time name="total">   10.47   10.48</time>
   <energy>
    <i name="e_fr_energy">   -829.39112351 </i>
    <i name="e_wo_entrp">   -829.32977289 </i>
    <i name="e_0_energy">   -829.36044820 </i>
   </energy>
  </scstep>
  <scstep>
   <time name="dav">    7.80    7.81</time>
   <time name="total">    9.73    9.74</time>
   <energy>
    <i name="e_fr_energy">   -829.39117631 </i>
    <i name="e_wo_entrp">   -829.32982535 </i>
    <i name="e_0_energy">   -829.36050083 </i>
   </energy>
  </scstep>
  <scstep>
   <time name="dav">    6.97    6.97</time>
   <time name="total">    8.91    8.92</time>
   <energy>
    <i name="e_fr_energy">   -829.39121162 </i>
    <i name="e_wo_entrp">   -829.32986030 </i>
    <i name="e_0_energy">   -829.36053596 </i>
   </energy>
  </scstep>
  <scstep>
   <time name="dav">    7.25    7.26</time>
   <time name="total">    9.21    9.21</time>
   <energy>
    <i name="e_fr_energy">   -829.39122732 </i>
    <i name="e_wo_entrp">   -829.32987622 </i>
    <i name="e_0_energy">   -829.36055177 </i>
   </energy>
  </scstep>
  <scstep>
   <time name="dav">    6.98    6.99</time>
   <time name="total">    8.96    8.96</time>
   <energy>
    <i name="e_fr_energy">   -829.39123224 </i>
    <i name="e_wo_entrp">   -829.32988123 </i>
    <i name="e_0_energy">   -829.36055674 </i>
   </energy>
  </scstep>
  <scstep>
   <time name="dav">    6.81    6.82</time>
   <time name="total">    8.81    8.82</time>
   <energy>
    <i name="e_fr_energy">   -829.39123696 </i>
    <i name="e_wo_entrp">   -829.32988595 </i>
    <i name="e_0_energy">   -829.36056145 </i>
   </energy>
  </scstep>
  <scstep>
   <time name="dav">    7.23    7.23</time>
   <time name="total">    9.23    9.24</time>
   <energy>
    <i name="e_fr_energy">   -829.39123807 </i>
    <i name="e_wo_entrp">   -829.32988706 </i>
    <i name="e_0_energy">   -829.36056256 </i>
   </energy>
  </scstep>
  <scstep>
   <time name="dav">    7.06    7.07</time>
   <time name="total">    9.09    9.09</time>
   <energy>
    <i name="e_fr_energy">   -829.39123994 </i>
    <i name="e_wo_entrp">   -829.32988892 </i>
    <i name="e_0_energy">   -829.36056443 </i>
   </energy>
  </scstep>
  <scstep>
   <time name="dav">    7.03    7.03</time>
   <time name="total">    7.39    7.39</time>
   <energy>
    <i name="alphaZ">     91.34886789 </i>
    <i name="ewald"> 120356.73118724 </i>
    <i name="hartreedc">-131441.58163518 </i>
    <i name="XCdc">   1279.09296434 </i>
    <i name="pawpsdc">  41181.30282315 </i>
    <i name="pawaedc"> -41245.40018424 </i>
    <i name="eentropy">     -0.06135104 </i>
    <i name="bandstr">  -4588.47870658 </i>
    <i name="atom">  13537.65479391 </i>
    <i name="e_fr_energy">   -829.39124051 </i>
    <i name="e_wo_entrp">   -829.32988947 </i>
    <i name="e_0_energy">   -829.36056499 </i>
   </energy>
  </scstep>
  <structure>
   <crystal>
    <varray name="basis" >
     <v>      28.05000000       0.00000000       0.00000000 </v>
     <v>       0.00000000       8.10000000       0.00000000 </v>
     <v>       0.00000000       0.00000000      33.50000000 </v>
    </varray>
    <i name="volume">   7611.36750000 </i>
    <varray name="rec_basis" >
     <v>       0.03565062       0.00000000       0.00000000 </v>
     <v>       0.00000000       0.12345679       0.00000000 </v>
     <v>       0.00000000       0.00000000       0.02985075 </v>
    </varray>
   </crystal>
   <varray name="positions" >
    <v>       0.00790717       0.11138605       0.46572836 </v>
    <v>       0.01037544       0.28263827       0.46001493 </v>
    <v>       0.04973298       0.02834531       0.47252537 </v>
    <v>       0.05420963       0.35611481       0.45693134 </v>
    <v>       0.09324991       0.10858185       0.47910746 </v>
    <v>       0.09597790       0.27367654       0.47013731 </v>
    <v>       0.13634510       0.02541346       0.48918507 </v>
    <v>       0.14085455       0.35947654       0.47436119 </v>
    <v>       0.17711123       0.10774765       0.50036119 </v>
    <v>       0.18277469       0.27698395       0.48780896 </v>
    <v>       0.22090446       0.02470111       0.50902388 </v>
    <v>       0.22662246       0.35112716       0.49131940 </v>
    <v>       0.26385276       0.10098235       0.51720000 </v>
    <v>       0.26813155       0.27240123       0.50610448 </v>
    <v>       0.30606310       0.01691469       0.52862687 </v>
    <v>       0.31053975       0.35549630       0.51392836 </v>
    <v>       0.34780071       0.10746642       0.53616716 </v>
    <v>       0.35099323       0.27420000       0.52700299 </v>
    <v>       0.39183244       0.02007778       0.54644776 </v>
    <v>       0.39285918       0.35391111       0.53067463 </v>
    <v>       0.43540463       0.10719000       0.54914627 </v>
    <v>       0.43625312       0.27763951       0.54077015 </v>
    <v>       0.48012478       0.01682988       0.54724478 </v>
    <v>       0.48146168       0.35548272       0.53392537 </v>
    <v>       0.52321569       0.10497938       0.54411642 </v>
    <v>       0.52377540       0.27153827       0.54092239 </v>
    <v>       0.56933690       0.02381728       0.54070746 </v>
    <v>       0.56896257       0.35231852       0.53389552 </v>
    <v>       0.61452406       0.09942728       0.53304478 </v>
    <v>       0.61357219       0.26956790       0.53035224 </v>
    <v>       0.65855615       0.01640037       0.52369851 </v>
    <v>       0.65597861       0.34972840       0.51973731 </v>
    <v>       0.70403565       0.09644889       0.51843582 </v>
    <v>       0.70048841       0.26557654       0.51283284 </v>
    <v>       0.74531551       0.01285815       0.50568657 </v>
    <v>       0.74198574       0.35237037       0.49725970 </v>
    <v>       0.78682709       0.10069778       0.49419104 </v>
    <v>       0.78640285       0.26994321       0.48977612 </v>
    <v>       0.82869162       0.01814765       0.48171343 </v>
    <v>       0.82835294       0.35674691       0.47748358 </v>
    <v>       0.87154724       0.10253481       0.47336716 </v>
    <v>       0.87125134       0.26874074       0.46989254 </v>
    <v>       0.91438503       0.02601667       0.46771343 </v>
    <v>       0.91495187       0.35606543       0.45634328 </v>
    <v>       0.95603209       0.10698741       0.45814627 </v>
    <v>       0.95849554       0.27844568       0.45249254 </v>
    <v>       0.01273533       0.60432346       0.44649552 </v>
    <v>       0.00964078       0.76472099       0.45766866 </v>
    <v>       0.05557398       0.52604815       0.45259403 </v>
    <v>       0.05067558       0.85397901       0.46771642 </v>
    <v>       0.09977148       0.60937654       0.45868060 </v>
    <v>       0.09379430       0.77610247       0.46997313 </v>
    <v>       0.14343708       0.52573333       0.46765970 </v>
    <v>       0.13645882       0.86430494       0.48202985 </v>
    <v>       0.18576827       0.61543580       0.47627463 </v>
    <v>       0.18128414       0.77975062       0.48590746 </v>
    <v>       0.22729804       0.52806173       0.48685970 </v>
    <v>       0.22078289       0.85137284       0.50524179 </v>
    <v>       0.26423494       0.61024691       0.50608657 </v>
    <v>       0.26184100       0.76883951       0.51675224 </v>
    <v>       0.30788770       0.52423704       0.51450149 </v>
    <v>       0.30351586       0.84676667       0.52985970 </v>
    <v>       0.35001604       0.60637901       0.52689851 </v>
    <v>       0.34868520       0.77345432       0.53430746 </v>
    <v>       0.39453119       0.52418642       0.52434328 </v>
    <v>       0.39288057       0.85585926       0.54165075 </v>
    <v>       0.43615686       0.61071975       0.52688657 </v>
    <v>       0.43583244       0.76972222       0.53768358 </v>
    <v>       0.48001783       0.52730988       0.52796418 </v>
    <v>       0.48048128       0.85116049       0.54344776 </v>
    <v>       0.52419608       0.60392099       0.52904478 </v>
    <v>       0.52662389       0.76484691       0.53656716 </v>
    <v>       0.56822103       0.52080123       0.52524179 </v>
    <v>       0.56892692       0.85400247       0.53499701 </v>
    <v>       0.61227451       0.60117284       0.52288060 </v>
    <v>       0.61257754       0.76774691       0.52462687 </v>
    <v>       0.65595009       0.51914815       0.51715821 </v>
    <v>       0.65693048       0.84787531       0.51809851 </v>
    <v>       0.69662745       0.59907778       0.50257612 </v>
    <v>       0.69849198       0.76787160       0.50187463 </v>
    <v>       0.73844920       0.52159383       0.49093731 </v>
    <v>       0.74135116       0.85293210       0.49587463 </v>
    <v>       0.78045989       0.60331728       0.47619104 </v>
    <v>       0.78295187       0.76882222       0.48290448 </v>
    <v>       0.82622460       0.52091728       0.47014328 </v>
    <v>       0.82715152       0.85142469       0.47597313 </v>
    <v>       0.86840642       0.60403704       0.46085373 </v>
    <v>       0.87073797       0.76652346       0.46790448 </v>
    <v>       0.91223173       0.52579259       0.45293433 </v>
    <v>       0.91600357       0.85180247       0.46815224 </v>
    <v>       0.95568271       0.60212593       0.44617313 </v>
    <v>       0.95583244       0.77299877       0.45585970 </v>
   </varray>
  </structure>
  <varray name="forces" >
   <v>       1.38147944       0.51992621       0.00557831 </v>
   <v>       0.05451537      -2.03744077      -0.72167513 </v>
   <v>      -0.54253238      -2.10480557       0.26324629 </v>
   <v>       0.15005850       0.20098558       0.73061258 </v>
   <v>       0.30766966       0.70617604       0.00084525 </v>
   <v>       0.53685558       0.93785100       0.12467926 </v>
   <v>      -1.87810686       1.74862207       0.37705449 </v>
   <v>       0.10040539      -1.21787236      -0.24107926 </v>
   <v>       2.86916798       2.08833572      -1.25764421 </v>
   <v>      -2.02239233      -2.10426452       0.78916038 </v>
   <v>      -1.88203485      -1.12658557       0.25680237 </v>
   <v>       1.02222049       2.18637035      -0.15777042 </v>
   <v>       1.06566648       2.61899794      -0.91841155 </v>
   <v>      -1.39136191      -2.10886979       0.69146315 </v>
   <v>      -1.44713168       1.28134607       0.36299091 </v>
   <v>      -1.45931622       0.00743056      -0.61383521 </v>
   <v>       1.58381264      -1.54415207       0.32637497 </v>
   <v>      -1.47020445      -1.85348734       0.52202235 </v>
   <v>      -0.71957850       3.48391192      -0.21685488 </v>
   <v>       2.87045332       1.56933442      -0.11975667 </v>
   <v>       0.91078365      -0.15174869      -0.66614882 </v>
   <v>       0.80267335      -1.44576548      -0.53140785 </v>
   <v>      -0.72640152       2.39383876       0.69509320 </v>
   <v>      -2.35635150       0.89954949       0.91461408 </v>
   <v>       2.10022078      -1.61601917       0.71210632 </v>
   <v>       1.70885222       1.57031466      -1.06544386 </v>
   <v>      -0.15190243      -0.76577858      -0.73069276 </v>
   <v>      -0.29698110      -0.05565951      -0.69008060 </v>
   <v>      -0.19155307       0.18082965       0.30727926 </v>
   <v>      -0.41338678      -0.05086149       0.32739615 </v>
   <v>       0.01080910       0.13005240       0.76734225 </v>
   <v>       1.27034645      -0.38992983       0.07077797 </v>
   <v>      -2.01286031       0.51754983      -0.64079129 </v>
   <v>       0.91118224       1.12997429      -0.10046359 </v>
   <v>      -0.13318535       2.46655429      -0.05123943 </v>
   <v>      -0.40949517      -0.75718502       0.48225869 </v>
   <v>       0.65664832      -0.32215819      -0.13975794 </v>
   <v>      -0.86663221       1.07102473       0.60910881 </v>
   <v>      -0.34426361       0.36974410       0.42610217 </v>
   <v>      -0.38283600      -2.09884857      -0.43374077 </v>
   <v>      -0.92442777       0.25281857       0.25832764 </v>
   <v>       1.25736867       2.61801026      -0.82951722 </v>
   <v>       1.98530839      -2.11755479      -0.13904204 </v>
   <v>      -1.76867451      -0.71722631       0.47759572 </v>
   <v>       0.32322591       1.29548399       0.59635402 </v>
   <v>      -2.19832926      -1.08794366       0.52019803 </v>
   <v>      -1.86598756       0.36692869       0.44342344 </v>
   <v>       0.11152058       2.33704515      -0.47937100 </v>
   <v>       0.94679819      -0.63850245      -1.20056053 </v>
   <v>      -1.76078364       0.93953463       0.40702892 </v>
   <v>      -1.25703007       0.69767261       1.10558229 </v>
   <v>       3.15607582      -0.51267308      -0.75895253 </v>
   <v>      -0.80327416       1.10382404      -0.91137763 </v>
   <v>       0.57516306      -3.91313677      -0.33175545 </v>
   <v>      -0.76396438      -1.74992459       0.24305416 </v>
   <v>      -0.21589778       0.32254075       0.48162763 </v>
   <v>      -0.57129505      -1.08802469       0.42648757 </v>
   <v>      -0.78030795       2.17715005       0.16027268 </v>
   <v>       2.23257586      -3.19600227      -0.29298963 </v>
   <v>       0.13430961       1.15168120      -0.43038420 </v>
   <v>       0.34992347       1.07338942       0.33208216 </v>
   <v>       1.45013917       1.26248112       0.60996786 </v>
   <v>       0.02635206      -0.29253211      -1.25768562 </v>
   <v>      -0.02127295      -0.80308747      -0.02905138 </v>
   <v>      -2.21022933      -0.58337266       0.75275282 </v>
   <v>      -1.50880419      -2.11767986      -0.20389296 </v>
   <v>       1.39266958      -1.98972925       0.26641487 </v>
   <v>       1.21233345       2.68327732       0.68229050 </v>
   <v>       0.50713208      -1.97524215      -0.16136490 </v>
   <v>       0.96513892      -2.33339038      -0.79395381 </v>
   <v>       0.92005147      -1.26379518      -0.65157990 </v>
   <v>      -2.79191619       3.94814556       0.52048374 </v>
   <v>      -0.11019388      -1.63799806       1.30913061 </v>
   <v>       1.51481026      -0.67098237       0.01658277 </v>
   <v>      -0.26100211      -0.59124785      -0.53958496 </v>
   <v>      -0.13185376       2.26343006       0.26502795 </v>
   <v>      -0.35995527      -0.46903232      -0.87911920 </v>
   <v>       0.05057176       0.23407694      -0.55066538 </v>
   <v>       0.44205029       0.50885694      -0.31910252 </v>
   <v>      -1.83749319       1.09503124       1.59368439 </v>
   <v>       1.60405188      -1.67683468      -0.73289150 </v>
   <v>       0.74456936      -2.24218158      -0.28710553 </v>
   <v>       0.79657343      -1.36099782       1.15933748 </v>
   <v>       0.27623391       1.31510036      -1.16481180 </v>
   <v>      -2.26521382       0.69139193      -0.25312277 </v>
   <v>       0.02543289      -0.80688765       0.85664333 </v>
   <v>       0.94114759      -0.64179590      -0.01633669 </v>
   <v>      -0.05440992       2.89989681       0.05769640 </v>
   <v>       0.95516956      -1.47991919      -0.57524347 </v>
   <v>      -1.89960186       0.49324414      -0.61390452 </v>
   <v>       0.08887330       2.38664160       0.73612700 </v>
   <v>       2.16103537      -2.48724580      -0.34092180 </v>
  </varray>
  <varray name="stress" >
   <v>       2.11308520      -0.07099206       1.63089110 </v>
   <v>      -0.07099207      49.73393090       1.62288371 </v>
   <v>       1.63089110       1.62288371      -0.60862717 </v>
  </varray>
  <energy>
   <i name="e_fr_energy">   -829.39124051 </i>
   <i name="e_wo_entrp">   -829.32988947 </i>
   <i name="e_0_energy">   -829.36056499 </i>
  </energy>
  <time name="totalsc">  334.52  334.71</time>
  <eigenvalues>
   <array>
    <dimension dim="1">band</dimension>
    <dimension dim="2">kpoint</dimension>
    <dimension dim="3">spin</dimension>
    <field>eigene</field>
    <field>occ</field>
    <set>
     <set comment="spin 1">
      <set comment="kpoint 1">
       <r>  -23.1739    1.0000 </r>
       <r>  -23.0615    1.0000 </r>
       <r>  -22.9973    1.0000 </r>
       <r>  -22.6587    1.0000 </r>
       <r>  -22.6360    1.0000 </r>
       <r>  -22.1357    1.0000 </r>
       <r>  -22.0269    1.0000 </r>
       <r>  -21.9804    1.0000 </r>
       <r>  -21.5890    1.0000 </r>
       <r>  -21.5423    1.0000 </r>
       <r>  -21.4477    1.0000 </r>
       <r>  -21.3255    1.0000 </r>
       <r>  -21.3037    1.0000 </r>
       <r>  -21.2075    1.0000 </r>
       <r>  -21.1200    1.0000 </r>
       <r>  -21.0734    1.0000 </r>
       <r>  -21.0482    1.0000 </r>
       <r>  -20.9759    1.0000 </r>
       <r>  -20.7708    1.0000 </r>
       <r>  -20.5451    1.0000 </r>
       <r>  -20.4504    1.0000 </r>
       <r>  -20.3580    1.0000 </r>
       <r>  -20.1113    1.0000 </r>
       <r>  -20.0090    1.0000 </r>
       <r>  -19.9853    1.0000 </r>
       <r>  -19.7340    1.0000 </r>
       <r>  -19.5630    1.0000 </r>
       <r>  -19.5133    1.0000 </r>
       <r>  -19.2093    1.0000 </r>
       <r>  -18.8368    1.0000 </r>
       <r>  -18.6786    1.0000 </r>
       <r>  -18.6345    1.0000 </r>
       <r>  -18.5673    1.0000 </r>
       <r>  -18.4371    1.0000 </r>
       <r>  -18.1376    1.0000 </r>
       <r>  -17.5303    1.0000 </r>
       <r>  -17.4063    1.0000 </r>
       <r>  -17.2070    1.0000 </r>
       <r>  -17.1981    1.0000 </r>
       <r>  -17.0138    1.0000 </r>
       <r>  -16.9272    1.0000 </r>
       <r>  -16.7592    1.0000 </r>
       <r>  -16.6871    1.0000 </r>
       <r>  -16.6635    1.0000 </r>
       <r>  -16.6315    1.0000 </r>
       <r>  -16.6018    1.0000 </r>
       <r>  -16.5787    1.0000 </r>
       <r>  -16.4697    1.0000 </r>
       <r>  -16.3412    1.0000 </r>
       <r>  -16.3211    1.0000 </r>
       <r>  -16.2966    1.0000 </r>
       <r>  -16.1909    1.0000 </r>
       <r>  -16.1282    1.0000 </r>
       <r>  -16.0433    1.0000 </r>
       <r>  -15.9601    1.0000 </r>
       <r>  -15.5915    1.0000 </r>
       <r>  -15.4821    1.0000 </r>
       <r>  -15.3773    1.0000 </r>
       <r>  -15.2865    1.0000 </r>
       <r>  -15.1983    1.0000 </r>
       <r>  -15.1701    1.0000 </r>
       <r>  -14.9038    1.0000 </r>
       <r>  -14.4854    1.0000 </r>
       <r>  -14.1834    1.0000 </r>
       <r>  -14.1025    1.0000 </r>
       <r>  -14.0194    1.0000 </r>
       <r>  -13.9215    1.0000 </r>
       <r>  -13.7841    1.0000 </r>
       <r>  -13.6998    1.0000 </r>
       <r>  -13.6021    1.0000 </r>
       <r>  -13.4452    1.0000 </r>
       <r>  -13.3388    1.0000 </r>
       <r>  -13.2611    1.0000 </r>
       <r>  -13.2395    1.0000 </r>
       <r>  -13.0294    1.0000 </r>
       <r>  -12.8954    1.0000 </r>
       <r>  -12.6410    1.0000 </r>
       <r>  -12.4247    1.0000 </r>
       <r>  -12.1855    1.0000 </r>
       <r>  -12.0996    1.0000 </r>
       <r>  -12.0654    1.0000 </r>
       <r>  -11.9198    1.0000 </r>
       <r>  -11.8989    1.0000 </r>
       <r>  -11.7657    1.0000 </r>
       <r>  -11.6711    1.0000 </r>
       <r>  -11.4353    1.0000 </r>
       <r>  -11.3290    1.0000 </r>
       <r>  -11.2758    1.0000 </r>
       <r>  -11.1260    1.0000 </r>
       <r>  -11.1078    1.0000 </r>
       <r>  -11.0663    1.0000 </r>
       <r>  -10.8661    1.0000 </r>
       <r>  -10.8341    1.0000 </r>
       <r>  -10.7689    1.0000 </r>
       <r>  -10.6540    1.0000 </r>
       <r>  -10.5912    1.0000 </r>
       <r>  -10.5665    1.0000 </r>
       <r>  -10.5096    1.0000 </r>
       <r>  -10.4711    1.0000 </r>
       <r>  -10.4133    1.0000 </r>
       <r>  -10.3770    1.0000 </r>
       <r>  -10.3379    1.0000 </r>
       <r>  -10.2820    1.0000 </r>
       <r>  -10.2532    1.0000 </r>
       <r>  -10.1734    1.0000 </r>
       <r>  -10.0136    1.0000 </r>
       <r>   -9.9839    1.0000 </r>
       <r>   -9.9288    1.0000 </r>
       <r>   -9.8463    1.0000 </r>
       <r>   -9.7657    1.0000 </r>
       <r>   -9.7358    1.0000 </r>
       <r>   -9.7126    1.0000 </r>
       <r>   -9.6747    1.0000 </r>
       <r>   -9.6233    1.0000 </r>
       <r>   -9.5826    1.0000 </r>
       <r>   -9.5709    1.0000 </r>
       <r>   -9.5569    1.0000 </r>
       <r>   -9.5247    1.0000 </r>
       <r>   -9.4945    1.0000 </r>
       <r>   -9.4776    1.0000 </r>
       <r>   -9.4475    1.0000 </r>
       <r>   -9.3926    1.0000 </r>
       <r>   -9.3789    1.0000 </r>
       <r>   -9.3327    1.0000 </r>
       <r>   -9.2763    1.0000 </r>
       <r>   -9.2660    1.0000 </r>
       <r>   -9.2160    1.0000 </r>
       <r>   -9.2056    1.0000 </r>
       <r>   -9.1493    1.0000 </r>
       <r>   -9.1170    1.0000 </r>
       <r>   -9.0531    1.0000 </r>
       <r>   -8.9914    1.0000 </r>
       <r>   -8.9698    1.0000 </r>
       <r>   -8.9410    1.0000 </r>
       <r>   -8.9006    1.0000 </r>
       <r>   -8.7808    1.0000 </r>
       <r>   -8.7688    1.0000 </r>
       <r>   -8.7312    1.0000 </r>
       <r>   -8.6888    1.0000 </r>
       <r>   -8.6660    1.0000 </r>
       <r>   -8.6288    1.0000 </r>
       <r>   -8.6059    1.0000 </r>
       <r>   -8.5638    1.0000 </r>
       <r>   -8.5404    1.0000 </r>
       <r>   -8.4671    1.0000 </r>
       <r>   -8.2981    1.0000 </r>
       <r>   -8.1264    1.0000 </r>
       <r>   -8.0215    1.0000 </r>
       <r>   -7.9082    1.0000 </r>
       <r>   -7.7894    1.0000 </r>
       <r>   -7.7254    1.0000 </r>
       <r>   -7.6036    1.0000 </r>
       <r>   -7.5364    1.0000 </r>
       <r>   -7.4270    1.0000 </r>
       <r>   -7.4113    1.0000 </r>
       <r>   -7.3518    1.0000 </r>
       <r>   -7.2989    1.0000 </r>
       <r>   -7.1068    1.0000 </r>
       <r>   -7.0627    1.0000 </r>
       <r>   -6.9638    1.0000 </r>
       <r>   -6.8454    1.0000 </r>
       <r>   -6.6994    1.0000 </r>
       <r>   -6.6559    1.0000 </r>
       <r>   -6.5675    1.0000 </r>
       <r>   -6.3664    1.0000 </r>
       <r>   -6.2314    1.0000 </r>
       <r>   -6.2033    1.0000 </r>
       <r>   -6.1015    1.0000 </r>
       <r>   -6.0294    1.0000 </r>
       <r>   -5.9943    1.0000 </r>
       <r>   -5.9545    1.0000 </r>
       <r>   -5.8684    1.0000 </r>
       <r>   -5.7501    1.0000 </r>
       <r>   -5.1269    1.0000 </r>
       <r>   -4.9325    1.0000 </r>
       <r>   -4.8727    1.0000 </r>
       <r>   -4.7863    1.0000 </r>
       <r>   -4.4898    1.0000 </r>
       <r>   -4.4693    1.0000 </r>
       <r>   -4.4309    1.0000 </r>
       <r>   -4.4129    1.0000 </r>
       <r>   -3.8256    1.0000 </r>
       <r>   -3.6313    0.9998 </r>
       <r>   -3.1496    0.5406 </r>
       <r>   -3.1109    0.4319 </r>
       <r>   -2.7922    0.0076 </r>
       <r>   -2.5918    0.0001 </r>
       <r>   -2.4067    0.0000 </r>
       <r>   -2.2446    0.0000 </r>
       <r>   -2.1383    0.0000 </r>
       <r>   -1.7997    0.0000 </r>
       <r>   -1.6514    0.0000 </r>
       <r>   -1.5891    0.0000 </r>
       <r>   -1.4929    0.0000 </r>
       <r>   -1.4451    0.0000 </r>
       <r>   -1.3303    0.0000 </r>
       <r>   -1.2497    0.0000 </r>
       <r>   -1.1733    0.0000 </r>
       <r>   -0.8208    0.0000 </r>
       <r>   -0.6366    0.0000 </r>
       <r>   -0.4926    0.0000 </r>
       <r>   -0.4295    0.0000 </r>
       <r>   -0.0249    0.0000 </r>
       <r>    0.0893    0.0000 </r>
       <r>    0.1152    0.0000 </r>
       <r>    0.1367    0.0000 </r>
       <r>    0.1990    0.0000 </r>
       <r>    0.5737    0.0000 </r>
       <r>    0.6432    0.0000 </r>
       <r>    0.6920    0.0000 </r>
       <r>    0.7373    0.0000 </r>
       <r>    0.8790    0.0000 </r>
       <r>    0.8950    0.0000 </r>
       <r>    0.9120    0.0000 </r>
       <r>    0.9389    0.0000 </r>
       <r>    0.9786    0.0000 </r>
       <r>    1.0000    0.0000 </r>
       <r>    1.1505    0.0000 </r>
       <r>    1.1577    0.0000 </r>
       <r>    1.2156    0.0000 </r>
       <r>    1.3220    0.0000 </r>
       <r>    1.3269    0.0000 </r>
       <r>    1.3374    0.0000 </r>
       <r>    1.4040    0.0000 </r>
       <r>    1.4569    0.0000 </r>
       <r>    1.5190    0.0000 </r>
       <r>    1.5666    0.0000 </r>
       <r>    1.5779    0.0000 </r>
       <r>    1.6695    0.0000 </r>
       <r>    1.7266    0.0000 </r>
       <r>    1.7287    0.0000 </r>
       <r>    1.7319    0.0000 </r>
      </set>
      <set comment="kpoint 2">
       <r>  -23.0778    1.0000 </r>
       <r>  -22.9709    1.0000 </r>
       <r>  -22.9013    1.0000 </r>
       <r>  -22.5795    1.0000 </r>
       <r>  -22.5398    1.0000 </r>
       <r>  -22.3427    1.0000 </r>
       <r>  -22.2228    1.0000 </r>
       <r>  -22.0947    1.0000 </r>
       <r>  -21.9415    1.0000 </r>
       <r>  -21.9119    1.0000 </r>
       <r>  -21.7897    1.0000 </r>
       <r>  -21.7149    1.0000 </r>
       <r>  -21.2641    1.0000 </r>
       <r>  -21.1175    1.0000 </r>
       <r>  -21.0462    1.0000 </r>
       <r>  -20.9928    1.0000 </r>
       <r>  -20.6689    1.0000 </r>
       <r>  -20.5138    1.0000 </r>
       <r>  -20.4901    1.0000 </r>
       <r>  -20.3109    1.0000 </r>
       <r>  -20.2263    1.0000 </r>
       <r>  -20.1281    1.0000 </r>
       <r>  -19.9843    1.0000 </r>
       <r>  -19.8964    1.0000 </r>
       <r>  -19.8751    1.0000 </r>
       <r>  -19.5457    1.0000 </r>
       <r>  -19.5151    1.0000 </r>
       <r>  -19.1488    1.0000 </r>
       <r>  -19.0670    1.0000 </r>
       <r>  -18.7974    1.0000 </r>
       <r>  -18.7129    1.0000 </r>
       <r>  -18.5415    1.0000 </r>
       <r>  -18.5350    1.0000 </r>
       <r>  -18.3585    1.0000 </r>
       <r>  -18.1826    1.0000 </r>
       <r>  -18.1298    1.0000 </r>
       <r>  -18.0611    1.0000 </r>
       <r>  -17.9594    1.0000 </r>
       <r>  -17.8656    1.0000 </r>
       <r>  -17.7752    1.0000 </r>
       <r>  -17.4733    1.0000 </r>
       <r>  -17.4437    1.0000 </r>
       <r>  -17.3433    1.0000 </r>
       <r>  -17.1646    1.0000 </r>
       <r>  -17.0118    1.0000 </r>
       <r>  -16.5780    1.0000 </r>
       <r>  -16.4610    1.0000 </r>
       <r>  -16.1886    1.0000 </r>
       <r>  -16.0594    1.0000 </r>
       <r>  -15.8581    1.0000 </r>
       <r>  -15.8341    1.0000 </r>
       <r>  -15.6420    1.0000 </r>
       <r>  -15.5442    1.0000 </r>
       <r>  -15.4353    1.0000 </r>
       <r>  -15.3629    1.0000 </r>
       <r>  -15.2365    1.0000 </r>
       <r>  -15.2135    1.0000 </r>
       <r>  -15.1422    1.0000 </r>
       <r>  -15.0552    1.0000 </r>
       <r>  -14.9576    1.0000 </r>
       <r>  -14.9049    1.0000 </r>
       <r>  -14.7265    1.0000 </r>
       <r>  -14.5473    1.0000 </r>
       <r>  -14.3946    1.0000 </r>
       <r>  -14.3251    1.0000 </r>
       <r>  -14.0989    1.0000 </r>
       <r>  -13.9906    1.0000 </r>
       <r>  -13.8500    1.0000 </r>
       <r>  -13.3878    1.0000 </r>
       <r>  -13.2481    1.0000 </r>
       <r>  -13.1833    1.0000 </r>
       <r>  -13.1488    1.0000 </r>
       <r>  -12.9034    1.0000 </r>
       <r>  -12.8831    1.0000 </r>
       <r>  -12.8191    1.0000 </r>
       <r>  -12.7231    1.0000 </r>
       <r>  -12.6056    1.0000 </r>
       <r>  -12.5161    1.0000 </r>
       <r>  -12.3971    1.0000 </r>
       <r>  -12.3401    1.0000 </r>
       <r>  -12.2073    1.0000 </r>
       <r>  -12.1124    1.0000 </r>
       <r>  -12.0747    1.0000 </r>
       <r>  -12.0027    1.0000 </r>
       <r>  -11.7872    1.0000 </r>
       <r>  -11.6670    1.0000 </r>
       <r>  -11.4223    1.0000 </r>
       <r>  -11.3598    1.0000 </r>
       <r>  -11.2642    1.0000 </r>
       <r>  -11.1958    1.0000 </r>
       <r>  -11.0869    1.0000 </r>
       <r>  -11.0472    1.0000 </r>
       <r>  -11.0015    1.0000 </r>
       <r>  -10.9814    1.0000 </r>
       <r>  -10.9491    1.0000 </r>
       <r>  -10.8571    1.0000 </r>
       <r>  -10.8465    1.0000 </r>
       <r>  -10.8139    1.0000 </r>
       <r>  -10.7471    1.0000 </r>
       <r>  -10.6376    1.0000 </r>
       <r>  -10.5934    1.0000 </r>
       <r>  -10.4800    1.0000 </r>
       <r>  -10.4377    1.0000 </r>
       <r>  -10.3784    1.0000 </r>
       <r>  -10.3663    1.0000 </r>
       <r>  -10.3347    1.0000 </r>
       <r>  -10.2582    1.0000 </r>
       <r>  -10.1612    1.0000 </r>
       <r>  -10.0953    1.0000 </r>
       <r>  -10.0687    1.0000 </r>
       <r>  -10.0009    1.0000 </r>
       <r>   -9.9169    1.0000 </r>
       <r>   -9.8841    1.0000 </r>
       <r>   -9.7774    1.0000 </r>
       <r>   -9.7183    1.0000 </r>
       <r>   -9.6933    1.0000 </r>
       <r>   -9.6303    1.0000 </r>
       <r>   -9.6015    1.0000 </r>
       <r>   -9.5859    1.0000 </r>
       <r>   -9.5369    1.0000 </r>
       <r>   -9.4768    1.0000 </r>
       <r>   -9.4342    1.0000 </r>
       <r>   -9.3958    1.0000 </r>
       <r>   -9.3018    1.0000 </r>
       <r>   -9.2605    1.0000 </r>
       <r>   -9.2214    1.0000 </r>
       <r>   -9.0661    1.0000 </r>
       <r>   -9.0195    1.0000 </r>
       <r>   -8.9355    1.0000 </r>
       <r>   -8.8891    1.0000 </r>
       <r>   -8.8100    1.0000 </r>
       <r>   -8.7683    1.0000 </r>
       <r>   -8.7101    1.0000 </r>
       <r>   -8.6497    1.0000 </r>
       <r>   -8.5964    1.0000 </r>
       <r>   -8.5518    1.0000 </r>
       <r>   -8.5157    1.0000 </r>
       <r>   -8.4535    1.0000 </r>
       <r>   -8.3939    1.0000 </r>
       <r>   -8.3054    1.0000 </r>
       <r>   -8.2300    1.0000 </r>
       <r>   -8.1810    1.0000 </r>
       <r>   -8.1520    1.0000 </r>
       <r>   -8.0883    1.0000 </r>
       <r>   -8.0217    1.0000 </r>
       <r>   -7.9541    1.0000 </r>
       <r>   -7.9154    1.0000 </r>
       <r>   -7.8297    1.0000 </r>
       <r>   -7.7760    1.0000 </r>
       <r>   -7.7211    1.0000 </r>
       <r>   -7.6818    1.0000 </r>
       <r>   -7.5817    1.0000 </r>
       <r>   -7.4595    1.0000 </r>
       <r>   -7.3909    1.0000 </r>
       <r>   -7.3188    1.0000 </r>
       <r>   -7.2649    1.0000 </r>
       <r>   -7.1761    1.0000 </r>
       <r>   -6.9950    1.0000 </r>
       <r>   -6.9481    1.0000 </r>
       <r>   -6.8935    1.0000 </r>
       <r>   -6.7644    1.0000 </r>
       <r>   -6.7315    1.0000 </r>
       <r>   -6.6393    1.0000 </r>
       <r>   -6.5695    1.0000 </r>
       <r>   -6.4969    1.0000 </r>
       <r>   -6.3398    1.0000 </r>
       <r>   -6.2292    1.0000 </r>
       <r>   -6.1202    1.0000 </r>
       <r>   -6.0232    1.0000 </r>
       <r>   -5.9490    1.0000 </r>
       <r>   -5.8863    1.0000 </r>
       <r>   -5.7646    1.0000 </r>
       <r>   -5.7169    1.0000 </r>
       <r>   -5.6375    1.0000 </r>
       <r>   -5.5555    1.0000 </r>
       <r>   -5.4805    1.0000 </r>
       <r>   -5.1594    1.0000 </r>
       <r>   -5.1331    1.0000 </r>
       <r>   -4.7250    1.0000 </r>
       <r>   -4.6753    1.0000 </r>
       <r>   -4.6283    1.0000 </r>
       <r>   -4.5273    1.0000 </r>
       <r>   -4.3964    1.0000 </r>
       <r>   -3.6443    0.9998 </r>
       <r>   -2.8067    0.0101 </r>
       <r>   -2.4144    0.0000 </r>
       <r>   -2.1669    0.0000 </r>
       <r>   -2.0404    0.0000 </r>
       <r>   -1.6269    0.0000 </r>
       <r>   -1.5227    0.0000 </r>
       <r>   -1.4481    0.0000 </r>
       <r>   -1.3960    0.0000 </r>
       <r>   -1.3401    0.0000 </r>
       <r>   -1.2443    0.0000 </r>
       <r>   -1.1052    0.0000 </r>
       <r>   -1.0537    0.0000 </r>
       <r>   -1.0130    0.0000 </r>
       <r>   -0.8847    0.0000 </r>
       <r>   -0.8102    0.0000 </r>
       <r>   -0.6162    0.0000 </r>
       <r>   -0.2121    0.0000 </r>
       <r>   -0.1262    0.0000 </r>
       <r>   -0.0812    0.0000 </r>
       <r>   -0.0264    0.0000 </r>
       <r>    0.0793    0.0000 </r>
       <r>    0.2012    0.0000 </r>
       <r>    0.2650    0.0000 </r>
       <r>    0.3047    0.0000 </r>
       <r>    0.3513    0.0000 </r>
       <r>    0.7849    0.0000 </r>
       <r>    0.8161    0.0000 </r>
       <r>    0.8337    0.0000 </r>
       <r>    0.9829    0.0000 </r>
       <r>    1.0370    0.0000 </r>
       <r>    1.0522    0.0000 </r>
       <r>    1.1056    0.0000 </r>
       <r>    1.1221    0.0000 </r>
       <r>    1.2503    0.0000 </r>
       <r>    1.2936    0.0000 </r>
       <r>    1.3009    0.0000 </r>
       <r>    1.3574    0.0000 </r>
       <r>    1.3625    0.0000 </r>
       <r>    1.3982    0.0000 </r>
       <r>    1.4308    0.0000 </r>
       <r>    1.4604    0.0000 </r>
       <r>    1.4643    0.0000 </r>
       <r>    1.4951    0.0000 </r>
       <r>    1.5441    0.0000 </r>
       <r>    1.5750    0.0000 </r>
       <r>    1.6009    0.0000 </r>
       <r>    1.6454    0.0000 </r>
       <r>    1.6872    0.0000 </r>
      </set>
      <set comment="kpoint 3">
       <r>  -22.8429    1.0000 </r>
       <r>  -22.7952    1.0000 </r>
       <r>  -22.6955    1.0000 </r>
       <r>  -22.6763    1.0000 </r>
       <r>  -22.6185    1.0000 </r>
       <r>  -22.5286    1.0000 </r>
       <r>  -22.3268    1.0000 </r>
       <r>  -22.2575    1.0000 </r>
       <r>  -22.2123    1.0000 </r>
       <r>  -22.1908    1.0000 </r>
       <r>  -21.6981    1.0000 </r>
       <r>  -21.6446    1.0000 </r>
       <r>  -21.6344    1.0000 </r>
       <r>  -21.5078    1.0000 </r>
       <r>  -20.8330    1.0000 </r>
       <r>  -20.8087    1.0000 </r>
       <r>  -20.7681    1.0000 </r>
       <r>  -20.6333    1.0000 </r>
       <r>  -19.8244    1.0000 </r>
       <r>  -19.8116    1.0000 </r>
       <r>  -19.7635    1.0000 </r>
       <r>  -19.6483    1.0000 </r>
       <r>  -19.5771    1.0000 </r>
       <r>  -19.4966    1.0000 </r>
       <r>  -19.4431    1.0000 </r>
       <r>  -19.3784    1.0000 </r>
       <r>  -19.3339    1.0000 </r>
       <r>  -19.2628    1.0000 </r>
       <r>  -19.1076    1.0000 </r>
       <r>  -19.0643    1.0000 </r>
       <r>  -18.9816    1.0000 </r>
       <r>  -18.9108    1.0000 </r>
       <r>  -18.6732    1.0000 </r>
       <r>  -18.5607    1.0000 </r>
       <r>  -18.5362    1.0000 </r>
       <r>  -18.4853    1.0000 </r>
       <r>  -18.3385    1.0000 </r>
       <r>  -18.2011    1.0000 </r>
       <r>  -18.1574    1.0000 </r>
       <r>  -18.0952    1.0000 </r>
       <r>  -17.8346    1.0000 </r>
       <r>  -17.6854    1.0000 </r>
       <r>  -17.6669    1.0000 </r>
       <r>  -17.5195    1.0000 </r>
       <r>  -17.0217    1.0000 </r>
       <r>  -16.8803    1.0000 </r>
       <r>  -16.2922    1.0000 </r>
       <r>  -16.2312    1.0000 </r>
       <r>  -16.1114    1.0000 </r>
       <r>  -16.0192    1.0000 </r>
       <r>  -15.9232    1.0000 </r>
       <r>  -15.7953    1.0000 </r>
       <r>  -15.2703    1.0000 </r>
       <r>  -15.2129    1.0000 </r>
       <r>  -15.1500    1.0000 </r>
       <r>  -15.0536    1.0000 </r>
       <r>  -14.8766    1.0000 </r>
       <r>  -14.7797    1.0000 </r>
       <r>  -14.7318    1.0000 </r>
       <r>  -14.5936    1.0000 </r>
       <r>  -14.0733    1.0000 </r>
       <r>  -13.9875    1.0000 </r>
       <r>  -13.9489    1.0000 </r>
       <r>  -13.8494    1.0000 </r>
       <r>  -13.7763    1.0000 </r>
       <r>  -13.7356    1.0000 </r>
       <r>  -13.6851    1.0000 </r>
       <r>  -13.6368    1.0000 </r>
       <r>  -13.6011    1.0000 </r>
       <r>  -13.5723    1.0000 </r>
       <r>  -13.5209    1.0000 </r>
       <r>  -13.4668    1.0000 </r>
       <r>  -13.3818    1.0000 </r>
       <r>  -13.2618    1.0000 </r>
       <r>  -13.2401    1.0000 </r>
       <r>  -13.0459    1.0000 </r>
       <r>  -12.3535    1.0000 </r>
       <r>  -12.3270    1.0000 </r>
       <r>  -12.2356    1.0000 </r>
       <r>  -12.1873    1.0000 </r>
       <r>  -12.1572    1.0000 </r>
       <r>  -12.1159    1.0000 </r>
       <r>  -12.0111    1.0000 </r>
       <r>  -11.9490    1.0000 </r>
       <r>  -11.8886    1.0000 </r>
       <r>  -11.8493    1.0000 </r>
       <r>  -11.8075    1.0000 </r>
       <r>  -11.7505    1.0000 </r>
       <r>  -11.6726    1.0000 </r>
       <r>  -11.6373    1.0000 </r>
       <r>  -11.3402    1.0000 </r>
       <r>  -11.3031    1.0000 </r>
       <r>  -11.1650    1.0000 </r>
       <r>  -11.1552    1.0000 </r>
       <r>  -10.9691    1.0000 </r>
       <r>  -10.9270    1.0000 </r>
       <r>  -10.8068    1.0000 </r>
       <r>  -10.7349    1.0000 </r>
       <r>  -10.7281    1.0000 </r>
       <r>  -10.6483    1.0000 </r>
       <r>  -10.5928    1.0000 </r>
       <r>  -10.5302    1.0000 </r>
       <r>  -10.4957    1.0000 </r>
       <r>  -10.4523    1.0000 </r>
       <r>  -10.4270    1.0000 </r>
       <r>  -10.4171    1.0000 </r>
       <r>  -10.3853    1.0000 </r>
       <r>  -10.3051    1.0000 </r>
       <r>  -10.2745    1.0000 </r>
       <r>  -10.2448    1.0000 </r>
       <r>  -10.2090    1.0000 </r>
       <r>  -10.1298    1.0000 </r>
       <r>  -10.1077    1.0000 </r>
       <r>  -10.0509    1.0000 </r>
       <r>   -9.9983    1.0000 </r>
[...]
       <r>   -22.6687    14.4174     6.9894 </r>
       <r>   -22.5724    15.2374     8.4575 </r>
       <r>   -22.4760    14.3559     9.8408 </r>
       <r>   -22.3797    13.1577    11.1085 </r>
       <r>   -22.2833    13.6221    12.4211 </r>
       <r>   -22.1870    14.9669    13.8632 </r>
       <r>   -22.0906    15.4699    15.3537 </r>
       <r>   -21.9943    15.0628    16.8051 </r>
       <r>   -21.8979    14.4657    18.1989 </r>
       <r>   -21.8015    14.0800    19.5555 </r>
       <r>   -21.7052    13.9399    20.8987 </r>
       <r>   -21.6088    13.4030    22.1901 </r>
       <r>   -21.5125    12.0055    23.3468 </r>
       <r>   -21.4161    10.7029    24.3781 </r>
       <r>   -21.3198    10.9435    25.4325 </r>
       <r>   -21.2234    12.9398    26.6793 </r>
       <r>   -21.1271    15.4795    28.1708 </r>
       <r>   -21.0307    16.6738    29.7774 </r>
       <r>   -20.9344    15.5022    31.2710 </r>
       <r>   -20.8380    13.3789    32.5601 </r>
       <r>   -20.7417    12.3728    33.7523 </r>
       <r>   -20.6453    12.7392    34.9797 </r>
       <r>   -20.5490    13.5449    36.2848 </r>
       <r>   -20.4526    13.7979    37.6143 </r>
       <r>   -20.3563    13.1980    38.8860 </r>
       <r>   -20.2599    12.5309    40.0933 </r>
       <r>   -20.1636    12.6458    41.3118 </r>
       <r>   -20.0672    13.7281    42.6345 </r>
       <r>   -19.9708    15.3244    44.1111 </r>
       <r>   -19.8745    16.2880    45.6805 </r>
       <r>   -19.7781    15.8750    47.2101 </r>
       <r>   -19.6818    15.2423    48.6787 </r>
       <r>   -19.5854    15.8333    50.2043 </r>
       <r>   -19.4891    16.4470    51.7890 </r>
       <r>   -19.3927    15.1512    53.2488 </r>
       <r>   -19.2964    13.0222    54.5036 </r>
       <r>   -19.2000    12.3083    55.6895 </r>
       <r>   -19.1037    12.7777    56.9207 </r>
       <r>   -19.0073    12.7066    58.1450 </r>
       <r>   -18.9110    12.1068    59.3115 </r>
       <r>   -18.8146    12.6593    60.5313 </r>
       <r>   -18.7183    15.0299    61.9794 </r>
       <r>   -18.6219    17.9613    63.7100 </r>
       <r>   -18.5256    19.3349    65.5730 </r>
       <r>   -18.4292    18.0845    67.3155 </r>
       <r>   -18.3329    15.8962    68.8472 </r>
       <r>   -18.2365    15.4474    70.3356 </r>
       <r>   -18.1401    16.6168    71.9366 </r>
       <r>   -18.0438    16.8373    73.5589 </r>
       <r>   -17.9474    15.2724    75.0305 </r>
       <r>   -17.8511    13.3986    76.3215 </r>
       <r>   -17.7547    12.0325    77.4808 </r>
       <r>   -17.6584    11.2605    78.5658 </r>
       <r>   -17.5620    11.6827    79.6915 </r>
       <r>   -17.4657    13.0161    80.9456 </r>
       <r>   -17.3693    13.5412    82.2503 </r>
       <r>   -17.2730    12.7237    83.4763 </r>
       <r>   -17.1766    11.8810    84.6211 </r>
       <r>   -17.0803    11.6824    85.7467 </r>
       <r>   -16.9839    11.3746    86.8427 </r>
       <r>   -16.8876    10.4329    87.8479 </r>
       <r>   -16.7912     9.8931    88.8011 </r>
       <r>   -16.6949    11.0860    89.8693 </r>
       <r>   -16.5985    13.2331    91.1443 </r>
       <r>   -16.5022    14.3727    92.5292 </r>
       <r>   -16.4058    14.4111    93.9177 </r>
       <r>   -16.3094    14.8678    95.3503 </r>
       <r>   -16.2131    16.1417    96.9056 </r>
       <r>   -16.1167    17.1224    98.5554 </r>
       <r>   -16.0204    16.9656   100.1901 </r>
       <r>   -15.9240    15.8512   101.7174 </r>
       <r>   -15.8277    14.2260   103.0881 </r>
       <r>   -15.7313    12.5834   104.3005 </r>
       <r>   -15.6350    11.9654   105.4534 </r>
       <r>   -15.5386    13.0138   106.7073 </r>
       <r>   -15.4423    15.2962   108.1812 </r>
       <r>   -15.3459    18.3547   109.9497 </r>
       <r>   -15.2496    21.4883   112.0201 </r>
       <r>   -15.1532    22.8894   114.2256 </r>
       <r>   -15.0569    21.5071   116.2979 </r>
       <r>   -14.9605    18.7152   118.1011 </r>
       <r>   -14.8642    16.1082   119.6532 </r>
       <r>   -14.7678    13.8798   120.9906 </r>
       <r>   -14.6715    12.0280   122.1495 </r>
       <r>   -14.5751    10.8812   123.1979 </r>
       <r>   -14.4787    10.4225   124.2021 </r>
       <r>   -14.3824    10.1647   125.1815 </r>
       <r>   -14.2860    10.0356   126.1485 </r>
       <r>   -14.1897    10.9749   127.2060 </r>
       <r>   -14.0933    13.5710   128.5136 </r>
       <r>   -13.9970    16.4634   130.0998 </r>
       <r>   -13.9006    17.8581   131.8205 </r>
       <r>   -13.8043    17.7208   133.5280 </r>
       <r>   -13.7079    17.0441   135.1702 </r>
       <r>   -13.6116    16.3949   136.7499 </r>
       <r>   -13.5152    16.1324   138.3043 </r>
       <r>   -13.4189    16.8730   139.9301 </r>
       <r>   -13.3225    18.5917   141.7214 </r>
       <r>   -13.2262    19.6783   143.6175 </r>
       <r>   -13.1298    18.4765   145.3977 </r>
       <r>   -13.0335    15.9770   146.9372 </r>
       <r>   -12.9371    14.6225   148.3461 </r>
       <r>   -12.8408    14.5267   149.7458 </r>
       <r>   -12.7444    14.0917   151.1035 </r>
       <r>   -12.6480    13.2322   152.3785 </r>
       <r>   -12.5517    13.1203   153.6427 </r>
       <r>   -12.4553    14.4034   155.0305 </r>
       <r>   -12.3590    16.8909   156.6579 </r>
       <r>   -12.2626    20.0190   158.5868 </r>
       <r>   -12.1663    23.0780   160.8105 </r>
       <r>   -12.0699    24.7481   163.1950 </r>
       <r>   -11.9736    24.1076   165.5178 </r>
       <r>   -11.8772    22.1926   167.6562 </r>
       <r>   -11.7809    20.2955   169.6117 </r>
       <r>   -11.6845    17.9995   171.3460 </r>
       <r>   -11.5882    15.0773   172.7987 </r>
       <r>   -11.4918    13.6406   174.1130 </r>
       <r>   -11.3955    15.6355   175.6195 </r>
       <r>   -11.2991    19.7374   177.5213 </r>
       <r>   -11.2028    23.6175   179.7969 </r>
       <r>   -11.1064    26.8886   182.3877 </r>
       <r>   -11.0101    29.8118   185.2601 </r>
       <r>   -10.9137    31.8787   188.3317 </r>
       <r>   -10.8173    32.5716   191.4701 </r>
       <r>   -10.7210    32.3080   194.5830 </r>
       <r>   -10.6246    32.7758   197.7411 </r>
       <r>   -10.5283    35.4427   201.1561 </r>
       <r>   -10.4319    39.1628   204.9295 </r>
       <r>   -10.3356    40.7389   208.8548 </r>
       <r>   -10.2392    38.8019   212.5935 </r>
       <r>   -10.1429    35.6604   216.0295 </r>
       <r>   -10.0465    33.8279   219.2889 </r>
       <r>    -9.9502    33.1056   222.4787 </r>
       <r>    -9.8538    32.8746   225.6462 </r>
       <r>    -9.7575    34.2374   228.9451 </r>
       <r>    -9.6611    37.6144   232.5693 </r>
       <r>    -9.5648    40.9776   236.5176 </r>
       <r>    -9.4684    42.3417   240.5974 </r>
       <r>    -9.3721    41.5579   244.6016 </r>
       <r>    -9.2757    39.0053   248.3599 </r>
       <r>    -9.1794    35.2056   251.7520 </r>
       <r>    -9.0830    31.7920   254.8153 </r>
       <r>    -8.9866    30.2328   257.7283 </r>
       <r>    -8.8903    30.5132   260.6683 </r>
       <r>    -8.7939    32.4548   263.7954 </r>
       <r>    -8.6976    35.5211   267.2179 </r>
       <r>    -8.6012    37.3317   270.8150 </r>
       <r>    -8.5049    35.6876   274.2536 </r>
       <r>    -8.4085    31.8639   277.3237 </r>
       <r>    -8.3122    29.1867   280.1359 </r>
       <r>    -8.2158    28.5260   282.8845 </r>
       <r>    -8.1195    27.9347   285.5761 </r>
       <r>    -8.0231    26.5716   288.1363 </r>
       <r>    -7.9268    25.9023   290.6321 </r>
       <r>    -7.8304    26.7978   293.2141 </r>
       <r>    -7.7341    28.1538   295.9268 </r>
       <r>    -7.6377    28.7666   298.6985 </r>
       <r>    -7.5414    28.9306   301.4861 </r>
       <r>    -7.4450    29.3514   304.3142 </r>
       <r>    -7.3487    29.3328   307.1405 </r>
       <r>    -7.2523    27.8149   309.8205 </r>
       <r>    -7.1559    25.5961   312.2867 </r>
       <r>    -7.0596    24.3180   314.6298 </r>
       <r>    -6.9632    24.1634   316.9581 </r>
       <r>    -6.8669    24.4747   319.3163 </r>
       <r>    -6.7705    25.2151   321.7458 </r>
       <r>    -6.6742    25.9367   324.2449 </r>
       <r>    -6.5778    25.1443   326.6676 </r>
       <r>    -6.4815    22.5507   328.8404 </r>
       <r>    -6.3851    20.1882   330.7856 </r>
       <r>    -6.2888    19.7661   332.6901 </r>
       <r>    -6.1924    20.6738   334.6821 </r>
       <r>    -6.0961    21.9169   336.7938 </r>
       <r>    -5.9997    23.4170   339.0501 </r>
       <r>    -5.9034    24.6021   341.4206 </r>
       <r>    -5.8070    24.5812   343.7891 </r>
       <r>    -5.7107    23.2593   346.0302 </r>
       <r>    -5.6143    20.7384   348.0284 </r>
       <r>    -5.5180    17.0383   349.6700 </r>
       <r>    -5.4216    12.9327   350.9161 </r>
       <r>    -5.3252    10.3646   351.9148 </r>
       <r>    -5.2289    10.6774   352.9436 </r>
       <r>    -5.1325    12.1585   354.1151 </r>
       <r>    -5.0362    11.8944   355.2611 </r>
       <r>    -4.9398    10.1052   356.2348 </r>
       <r>    -4.8435     9.4477   357.1451 </r>
       <r>    -4.7471    10.9530   358.2005 </r>
       <r>    -4.6508    13.3000   359.4820 </r>
       <r>    -4.5544    14.9746   360.9248 </r>
       <r>    -4.4581    15.1584   362.3854 </r>
       <r>    -4.3617    13.0809   363.6457 </r>
       <r>    -4.2654     9.0273   364.5155 </r>
       <r>    -4.1690     5.1029   365.0072 </r>
       <r>    -4.0727     2.8792   365.2846 </r>
       <r>    -3.9763     2.1258   365.4895 </r>
       <r>    -3.8800     2.3331   365.7143 </r>
       <r>    -3.7836     3.3306   366.0352 </r>
       <r>    -3.6873     4.5229   366.4710 </r>
       <r>    -3.5909     4.7601   366.9296 </r>
       <r>    -3.4945     3.5567   367.2723 </r>
       <r>    -3.3982     1.9884   367.4639 </r>
       <r>    -3.3018     1.4356   367.6022 </r>
       <r>    -3.2055     2.0600   367.8007 </r>
       <r>    -3.1091     2.9121   368.0813 </r>
       <r>    -3.0128     3.2964   368.3989 </r>
       <r>    -2.9164     3.7572   368.7609 </r>
       <r>    -2.8201     4.8273   369.2260 </r>
       <r>    -2.7237     5.8333   369.7881 </r>
       <r>    -2.6274     6.3174   370.3968 </r>
       <r>    -2.5310     6.8981   371.0615 </r>
       <r>    -2.4347     7.8646   371.8192 </r>
       <r>    -2.3383     8.6079   372.6486 </r>
       <r>    -2.2420     8.8579   373.5021 </r>
       <r>    -2.1456     8.7853   374.3486 </r>
       <r>    -2.0493     7.9788   375.1174 </r>
       <r>    -1.9529     6.4857   375.7423 </r>
       <r>    -1.8566     5.9659   376.3171 </r>
       <r>    -1.7602     8.1042   377.0980 </r>
       <r>    -1.6638    12.6492   378.3168 </r>
       <r>    -1.5675    17.6454   380.0169 </r>
       <r>    -1.4711    21.0355   382.0438 </r>
       <r>    -1.3748    22.0353   384.1669 </r>
       <r>    -1.2784    21.5177   386.2402 </r>
       <r>    -1.1821    20.8135   388.2456 </r>
       <r>    -1.0857    20.0026   390.1730 </r>
       <r>    -0.9894    18.2327   391.9297 </r>
       <r>    -0.8930    15.6757   393.4401 </r>
       <r>    -0.7967    13.7362   394.7636 </r>
       <r>    -0.7003    13.2500   396.0403 </r>
       <r>    -0.6040    13.3934   397.3308 </r>
       <r>    -0.5076    12.4758   398.5329 </r>
       <r>    -0.4113    10.5631   399.5507 </r>
       <r>    -0.3149    10.2071   400.5341 </r>
       <r>    -0.2186    12.9996   401.7867 </r>
       <r>    -0.1222    17.0942   403.4338 </r>
       <r>    -0.0259    19.7390   405.3357 </r>
       <r>     0.0705    20.7447   407.3345 </r>
       <r>     0.1669    21.6284   409.4184 </r>
       <r>     0.2632    22.4063   411.5773 </r>
       <r>     0.3596    21.5449   413.6532 </r>
       <r>     0.4559    19.1991   415.5031 </r>
       <r>     0.5523    18.0537   417.2426 </r>
       <r>     0.6486    20.1675   419.1858 </r>
       <r>     0.7450    24.8181   421.5771 </r>
       <r>     0.8413    29.7046   424.4392 </r>
       <r>     0.9377    33.3551   427.6531 </r>
       <r>     1.0340    35.8621   431.1085 </r>
       <r>     1.1304    38.1719   434.7864 </r>
       <r>     1.2267    41.9846   438.8318 </r>
       <r>     1.3231    47.8573   443.4430 </r>
       <r>     1.4194    52.7577   448.5263 </r>
       <r>     1.5158    52.3203   453.5675 </r>
       <r>     1.6121    44.8250   457.8865 </r>
       <r>     1.7085    32.2893   460.9977 </r>
       <r>     1.8048    18.9099   462.8197 </r>
       <r>     1.9012     8.5885   463.6472 </r>
       <r>     1.9976     2.8690   463.9236 </r>
       <r>     2.0939     0.6731   463.9885 </r>
       <r>     2.1903     0.1073   463.9988 </r>
       <r>     2.2866     0.0114   463.9999 </r>
       <r>     2.3830     0.0008   464.0000 </r>
       <r>     2.4793     0.0000   464.0000 </r>
       <r>     2.5757     0.0000   464.0000 </r>
       <r>     2.6720     0.0000   464.0000 </r>
       <r>     2.7684     0.0000   464.0000 </r>
       <r>     2.8647     0.0000   464.0000 </r>
       <r>     2.9611     0.0000   464.0000 </r>
       <r>     3.0574     0.0000   464.0000 </r>
       <r>     3.1538     0.0000   464.0000 </r>
       <r>     3.2501     0.0000   464.0000 </r>
       <r>     3.3465     0.0000   464.0000 </r>
       <r>     3.4428     0.0000   464.0000 </r>
       <r>     3.5392     0.0000   464.0000 </r>
       <r>     3.6355     0.0000   464.0000 </r>
       <r>     3.7319     0.0000   464.0000 </r>
      </set>
     </set>
    </array>
   </total>
  </dos>
 </calculation>
 <structure name="finalpos" >
  <crystal>
   <varray name="basis" >
    <v>      28.05000000       0.00000000       0.00000000 </v>
    <v>       0.00000000       8.10000000       0.00000000 </v>
    <v>       0.00000000       0.00000000      33.50000000 </v>
   </varray>
   <i name="volume">   7611.36750000 </i>
   <varray name="rec_basis" >
    <v>       0.03565062       0.00000000       0.00000000 </v>
    <v>       0.00000000       0.12345679       0.00000000 </v>
    <v>       0.00000000       0.00000000       0.02985075 </v>
   </varray>
  </crystal>
  <varray name="positions" >
   <v>       0.00790717       0.11138605       0.46572836 </v>
   <v>       0.01037544       0.28263827       0.46001493 </v>
   <v>       0.04973298       0.02834531       0.47252537 </v>
   <v>       0.05420963       0.35611481       0.45693134 </v>
   <v>       0.09324991       0.10858185       0.47910746 </v>
   <v>       0.09597790       0.27367654       0.47013731 </v>
   <v>       0.13634510       0.02541346       0.48918507 </v>
   <v>       0.14085455       0.35947654       0.47436119 </v>
   <v>       0.17711123       0.10774765       0.50036119 </v>
   <v>       0.18277469       0.27698395       0.48780896 </v>
   <v>       0.22090446       0.02470111       0.50902388 </v>
   <v>       0.22662246       0.35112716       0.49131940 </v>
   <v>       0.26385276       0.10098235       0.51720000 </v>
   <v>       0.26813155       0.27240123       0.50610448 </v>
   <v>       0.30606310       0.01691469       0.52862687 </v>
   <v>       0.31053975       0.35549630       0.51392836 </v>
   <v>       0.34780071       0.10746642       0.53616716 </v>
   <v>       0.35099323       0.27420000       0.52700299 </v>
   <v>       0.39183244       0.02007778       0.54644776 </v>
   <v>       0.39285918       0.35391111       0.53067463 </v>
   <v>       0.43540463       0.10719000       0.54914627 </v>
   <v>       0.43625312       0.27763951       0.54077015 </v>
   <v>       0.48012478       0.01682988       0.54724478 </v>
   <v>       0.48146168       0.35548272       0.53392537 </v>
   <v>       0.52321569       0.10497938       0.54411642 </v>
   <v>       0.52377540       0.27153827       0.54092239 </v>
   <v>       0.56933690       0.02381728       0.54070746 </v>
   <v>       0.56896257       0.35231852       0.53389552 </v>
   <v>       0.61452406       0.09942728       0.53304478 </v>
   <v>       0.61357219       0.26956790       0.53035224 </v>
   <v>       0.65855615       0.01640037       0.52369851 </v>
   <v>       0.65597861       0.34972840       0.51973731 </v>
   <v>       0.70403565       0.09644889       0.51843582 </v>
   <v>       0.70048841       0.26557654       0.51283284 </v>
   <v>       0.74531551       0.01285815       0.50568657 </v>
   <v>       0.74198574       0.35237037       0.49725970 </v>
   <v>       0.78682709       0.10069778       0.49419104 </v>
   <v>       0.78640285       0.26994321       0.48977612 </v>
   <v>       0.82869162       0.01814765       0.48171343 </v>
   <v>       0.82835294       0.35674691       0.47748358 </v>
   <v>       0.87154724       0.10253481       0.47336716 </v>
   <v>       0.87125134       0.26874074       0.46989254 </v>
   <v>       0.91438503       0.02601667       0.46771343 </v>
   <v>       0.91495187       0.35606543       0.45634328 </v>
   <v>       0.95603209       0.10698741       0.45814627 </v>
   <v>       0.95849554       0.27844568       0.45249254 </v>
   <v>       0.01273533       0.60432346       0.44649552 </v>
   <v>       0.00964078       0.76472099       0.45766866 </v>
   <v>       0.05557398       0.52604815       0.45259403 </v>
   <v>       0.05067558       0.85397901       0.46771642 </v>
   <v>       0.09977148       0.60937654       0.45868060 </v>
   <v>       0.09379430       0.77610247       0.46997313 </v>
   <v>       0.14343708       0.52573333       0.46765970 </v>
   <v>       0.13645882       0.86430494       0.48202985 </v>
   <v>       0.18576827       0.61543580       0.47627463 </v>
   <v>       0.18128414       0.77975062       0.48590746 </v>
   <v>       0.22729804       0.52806173       0.48685970 </v>
   <v>       0.22078289       0.85137284       0.50524179 </v>
   <v>       0.26423494       0.61024691       0.50608657 </v>
   <v>       0.26184100       0.76883951       0.51675224 </v>
   <v>       0.30788770       0.52423704       0.51450149 </v>
   <v>       0.30351586       0.84676667       0.52985970 </v>
   <v>       0.35001604       0.60637901       0.52689851 </v>
   <v>       0.34868520       0.77345432       0.53430746 </v>
   <v>       0.39453119       0.52418642       0.52434328 </v>
   <v>       0.39288057       0.85585926       0.54165075 </v>
   <v>       0.43615686       0.61071975       0.52688657 </v>
   <v>       0.43583244       0.76972222       0.53768358 </v>
   <v>       0.48001783       0.52730988       0.52796418 </v>
   <v>       0.48048128       0.85116049       0.54344776 </v>
   <v>       0.52419608       0.60392099       0.52904478 </v>
   <v>       0.52662389       0.76484691       0.53656716 </v>
   <v>       0.56822103       0.52080123       0.52524179 </v>
   <v>       0.56892692       0.85400247       0.53499701 </v>
   <v>       0.61227451       0.60117284       0.52288060 </v>
   <v>       0.61257754       0.76774691       0.52462687 </v>
   <v>       0.65595009       0.51914815       0.51715821 </v>
   <v>       0.65693048       0.84787531       0.51809851 </v>
   <v>       0.69662745       0.59907778       0.50257612 </v>
   <v>       0.69849198       0.76787160       0.50187463 </v>
   <v>       0.73844920       0.52159383       0.49093731 </v>
   <v>       0.74135116       0.85293210       0.49587463 </v>
   <v>       0.78045989       0.60331728       0.47619104 </v>
   <v>       0.78295187       0.76882222       0.48290448 </v>
   <v>       0.82622460       0.52091728       0.47014328 </v>
   <v>       0.82715152       0.85142469       0.47597313 </v>
   <v>       0.86840642       0.60403704       0.46085373 </v>
   <v>       0.87073797       0.76652346       0.46790448 </v>
   <v>       0.91223173       0.52579259       0.45293433 </v>
   <v>       0.91600357       0.85180247       0.46815224 </v>
   <v>       0.95568271       0.60212593       0.44617313 </v>
   <v>       0.95583244       0.77299877       0.45585970 </v>
  </varray>
 </structure>
</modeling>
