  92  92   0   0
  0.8273226E+02  0.2805000E-08  0.8100000E-09  0.3350000E-08  0.5000000E-15
   1.0000000000000000E-004
  CAR 
 unknown system                          
      3.91800659    -25.23159171  301     -3.15623674      1.00000000
    -25.232  0.0000E+00  0.0000E+00
    -25.134  0.0000E+00  0.0000E+00
    -25.037  0.0000E+00  0.0000E+00
    -24.940  0.0000E+00  0.0000E+00
    -24.843  0.0000E+00  0.0000E+00
    -24.746  0.0000E+00  0.0000E+00
    -24.649  0.0000E+00  0.0000E+00
    -24.551  0.0000E+00  0.0000E+00
    -24.454  0.0000E+00  0.0000E+00
    -24.357  0.4570E-14  0.4441E-15
    -24.260  0.9341E-12  0.9120E-13
    -24.163  0.1211E-09  0.1186E-10
    -24.066  0.9923E-08  0.9760E-09
    -23.968  0.5155E-06  0.5107E-07
    -23.871  0.1706E-04  0.1709E-05
    -23.774  0.3615E-03  0.3683E-04
    -23.677  0.4940E-02  0.5168E-03
    -23.580  0.4392E-01  0.4784E-02
    -23.483  0.2572E+00  0.2977E-01
    -23.385  0.1009E+01  0.1279E+00
    -23.288  0.2737E+01  0.3938E+00
    -23.191  0.5401E+01  0.9186E+00
    -23.094  0.8358E+01  0.1731E+01
    -22.997  0.1088E+02  0.2788E+01
    -22.900  0.1243E+02  0.3996E+01
    -22.802  0.1329E+02  0.5287E+01
    -22.705  0.1482E+02  0.6727E+01
    -22.608  0.1690E+02  0.8369E+01
    -22.511  0.1704E+02  0.1002E+02
    -22.414  0.1445E+02  0.1143E+02
    -22.317  0.1206E+02  0.1260E+02
    -22.219  0.1222E+02  0.1379E+02
    -22.122  0.1354E+02  0.1510E+02
    -22.025  0.1390E+02  0.1646E+02
    -21.928  0.1360E+02  0.1778E+02
    -21.831  0.1370E+02  0.1911E+02
    -21.734  0.1343E+02  0.2041E+02
    -21.636  0.1196E+02  0.2157E+02
    -21.539  0.1078E+02  0.2262E+02
    -21.442  0.1135E+02  0.2372E+02
    -21.345  0.1274E+02  0.2496E+02
    -21.248  0.1369E+02  0.2629E+02
    -21.151  0.1455E+02  0.2771E+02
    -21.053  0.1581E+02  0.2924E+02
    -20.956  0.1630E+02  0.3083E+02
    -20.859  0.1477E+02  0.3226E+02
    -20.762  0.1236E+02  0.3346E+02
    -20.665  0.1129E+02  0.3456E+02
    -20.568  0.1190E+02  0.3572E+02
    -20.470  0.1274E+02  0.3695E+02
    -20.373  0.1328E+02  0.3824E+02
    -20.276  0.1418E+02  0.3962E+02
    -20.179  0.1542E+02  0.4112E+02
    -20.082  0.1617E+02  0.4269E+02
    -19.985  0.1598E+02  0.4424E+02
    -19.887  0.1476E+02  0.4568E+02
    -19.790  0.1273E+02  0.4692E+02
    -19.693  0.1141E+02  0.4802E+02
    -19.596  0.1243E+02  0.4923E+02
    -19.499  0.1471E+02  0.5066E+02
    -19.402  0.1583E+02  0.5220E+02
    -19.305  0.1534E+02  0.5369E+02
    -19.207  0.1472E+02  0.5512E+02
    -19.110  0.1497E+02  0.5658E+02
    -19.013  0.1537E+02  0.5807E+02
    -18.916  0.1466E+02  0.5949E+02
    -18.819  0.1345E+02  0.6080E+02
    -18.722  0.1378E+02  0.6214E+02
    -18.624  0.1556E+02  0.6365E+02
    -18.527  0.1635E+02  0.6524E+02
    -18.430  0.1546E+02  0.6674E+02
    -18.333  0.1496E+02  0.6820E+02
    -18.236  0.1622E+02  0.6977E+02
    -18.139  0.1791E+02  0.7151E+02
    -18.041  0.1774E+02  0.7324E+02
    -17.944  0.1557E+02  0.7475E+02
    -17.847  0.1370E+02  0.7608E+02
    -17.750  0.1338E+02  0.7738E+02
    -17.653  0.1314E+02  0.7866E+02
    -17.556  0.1211E+02  0.7984E+02
    -17.458  0.1132E+02  0.8094E+02
    -17.361  0.1127E+02  0.8203E+02
    -17.264  0.1124E+02  0.8312E+02
    -17.167  0.1078E+02  0.8417E+02
    -17.070  0.1028E+02  0.8517E+02
    -16.973  0.1016E+02  0.8616E+02
    -16.875  0.1040E+02  0.8717E+02
    -16.778  0.1099E+02  0.8823E+02
    -16.681  0.1210E+02  0.8941E+02
    -16.584  0.1348E+02  0.9072E+02
    -16.487  0.1461E+02  0.9214E+02
    -16.390  0.1585E+02  0.9368E+02
    -16.292  0.1728E+02  0.9536E+02
    -16.195  0.1769E+02  0.9708E+02
    -16.098  0.1678E+02  0.9871E+02
    -16.001  0.1591E+02  0.1003E+03
    -15.904  0.1574E+02  0.1018E+03
    -15.807  0.1531E+02  0.1033E+03
    -15.709  0.1396E+02  0.1046E+03
    -15.612  0.1213E+02  0.1058E+03
    -15.515  0.1079E+02  0.1069E+03
    -15.418  0.1149E+02  0.1080E+03
    -15.321  0.1495E+02  0.1094E+03
    -15.224  0.1941E+02  0.1113E+03
    -15.126  0.2304E+02  0.1135E+03
    -15.029  0.2514E+02  0.1160E+03
    -14.932  0.2445E+02  0.1184E+03
    -14.835  0.2040E+02  0.1203E+03
    -14.738  0.1487E+02  0.1218E+03
    -14.641  0.1040E+02  0.1228E+03
    -14.543  0.8007E+01  0.1236E+03
    -14.446  0.7669E+01  0.1243E+03
    -14.349  0.9101E+01  0.1252E+03
    -14.252  0.1128E+02  0.1263E+03
    -14.155  0.1297E+02  0.1276E+03
    -14.058  0.1397E+02  0.1289E+03
    -13.960  0.1473E+02  0.1304E+03
    -13.863  0.1551E+02  0.1319E+03
    -13.766  0.1628E+02  0.1334E+03
    -13.669  0.1687E+02  0.1351E+03
    -13.572  0.1710E+02  0.1367E+03
    -13.475  0.1738E+02  0.1384E+03
    -13.377  0.1833E+02  0.1402E+03
    -13.280  0.1966E+02  0.1421E+03
    -13.183  0.2030E+02  0.1441E+03
    -13.086  0.1948E+02  0.1460E+03
    -12.989  0.1754E+02  0.1477E+03
    -12.892  0.1589E+02  0.1492E+03
    -12.794  0.1552E+02  0.1507E+03
    -12.697  0.1517E+02  0.1522E+03
    -12.600  0.1354E+02  0.1535E+03
    -12.503  0.1194E+02  0.1547E+03
    -12.406  0.1213E+02  0.1559E+03
    -12.309  0.1426E+02  0.1573E+03
    -12.211  0.1758E+02  0.1590E+03
    -12.114  0.2094E+02  0.1610E+03
    -12.017  0.2336E+02  0.1633E+03
    -11.920  0.2442E+02  0.1656E+03
    -11.823  0.2398E+02  0.1680E+03
    -11.726  0.2247E+02  0.1702E+03
    -11.628  0.2041E+02  0.1721E+03
    -11.531  0.1784E+02  0.1739E+03
    -11.434  0.1593E+02  0.1754E+03
    -11.337  0.1643E+02  0.1770E+03
    -11.240  0.1905E+02  0.1789E+03
    -11.143  0.2275E+02  0.1811E+03
    -11.045  0.2729E+02  0.1837E+03
    -10.948  0.3105E+02  0.1868E+03
    -10.851  0.3242E+02  0.1899E+03
    -10.754  0.3307E+02  0.1931E+03
    -10.657  0.3556E+02  0.1966E+03
    -10.560  0.3921E+02  0.2004E+03
    -10.462  0.4063E+02  0.2043E+03
    -10.365  0.3803E+02  0.2080E+03
    -10.268  0.3379E+02  0.2113E+03
    -10.171  0.3175E+02  0.2144E+03
    -10.074  0.3247E+02  0.2175E+03
     -9.977  0.3321E+02  0.2208E+03
     -9.879  0.3291E+02  0.2240E+03
     -9.782  0.3353E+02  0.2272E+03
     -9.685  0.3571E+02  0.2307E+03
     -9.588  0.3792E+02  0.2344E+03
     -9.491  0.3944E+02  0.2382E+03
     -9.394  0.4029E+02  0.2421E+03
     -9.296  0.3960E+02  0.2460E+03
     -9.199  0.3671E+02  0.2495E+03
     -9.102  0.3305E+02  0.2528E+03
     -9.005  0.3142E+02  0.2558E+03
     -8.908  0.3279E+02  0.2590E+03
     -8.811  0.3512E+02  0.2624E+03
     -8.713  0.3632E+02  0.2659E+03
     -8.616  0.3582E+02  0.2694E+03
     -8.519  0.3411E+02  0.2727E+03
     -8.422  0.3243E+02  0.2759E+03
     -8.325  0.3150E+02  0.2789E+03
     -8.228  0.3076E+02  0.2819E+03
     -8.130  0.2947E+02  0.2848E+03
     -8.033  0.2763E+02  0.2875E+03
     -7.936  0.2638E+02  0.2900E+03
     -7.839  0.2631E+02  0.2926E+03
     -7.742  0.2663E+02  0.2952E+03
     -7.645  0.2716E+02  0.2978E+03
     -7.548  0.2842E+02  0.3006E+03
     -7.450  0.2948E+02  0.3035E+03
     -7.353  0.2890E+02  0.3063E+03
     -7.256  0.2715E+02  0.3089E+03
     -7.159  0.2595E+02  0.3114E+03
     -7.062  0.2604E+02  0.3139E+03
     -6.965  0.2665E+02  0.3165E+03
     -6.867  0.2658E+02  0.3191E+03
     -6.770  0.2558E+02  0.3216E+03
     -6.673  0.2462E+02  0.3240E+03
     -6.576  0.2408E+02  0.3263E+03
     -6.479  0.2279E+02  0.3286E+03
     -6.382  0.2050E+02  0.3305E+03
     -6.284  0.1933E+02  0.3324E+03
     -6.187  0.2093E+02  0.3345E+03
     -6.090  0.2421E+02  0.3368E+03
     -5.993  0.2673E+02  0.3394E+03
     -5.896  0.2659E+02  0.3420E+03
     -5.799  0.2403E+02  0.3443E+03
     -5.701  0.2114E+02  0.3464E+03
     -5.604  0.1876E+02  0.3482E+03
     -5.507  0.1602E+02  0.3498E+03
     -5.410  0.1290E+02  0.3510E+03
     -5.313  0.1101E+02  0.3521E+03
     -5.216  0.1123E+02  0.3532E+03
     -5.118  0.1190E+02  0.3543E+03
     -5.021  0.1099E+02  0.3554E+03
     -4.924  0.9138E+01  0.3563E+03
     -4.827  0.8447E+01  0.3571E+03
     -4.730  0.9692E+01  0.3580E+03
     -4.633  0.1221E+02  0.3592E+03
     -4.535  0.1482E+02  0.3607E+03
     -4.438  0.1558E+02  0.3622E+03
     -4.341  0.1283E+02  0.3634E+03
     -4.244  0.8001E+01  0.3642E+03
     -4.147  0.4411E+01  0.3646E+03
     -4.050  0.3140E+01  0.3649E+03
     -3.952  0.2911E+01  0.3652E+03
     -3.855  0.2816E+01  0.3655E+03
     -3.758  0.3022E+01  0.3658E+03
     -3.661  0.3538E+01  0.3661E+03
     -3.564  0.3957E+01  0.3665E+03
     -3.467  0.4046E+01  0.3669E+03
     -3.369  0.3738E+01  0.3673E+03
     -3.272  0.3316E+01  0.3676E+03
     -3.175  0.3395E+01  0.3679E+03
     -3.078  0.4100E+01  0.3683E+03
     -2.981  0.5003E+01  0.3688E+03
     -2.884  0.5925E+01  0.3694E+03
     -2.786  0.7303E+01  0.3701E+03
     -2.689  0.8954E+01  0.3710E+03
     -2.592  0.9139E+01  0.3719E+03
     -2.495  0.6898E+01  0.3725E+03
     -2.398  0.4082E+01  0.3729E+03
     -2.301  0.3247E+01  0.3732E+03
     -2.203  0.4821E+01  0.3737E+03
     -2.106  0.6885E+01  0.3744E+03
     -2.009  0.7335E+01  0.3751E+03
     -1.912  0.6260E+01  0.3757E+03
     -1.815  0.5762E+01  0.3763E+03
     -1.718  0.7866E+01  0.3770E+03
     -1.620  0.1285E+02  0.3783E+03
     -1.523  0.1880E+02  0.3801E+03
     -1.426  0.2275E+02  0.3823E+03
     -1.329  0.2333E+02  0.3846E+03
     -1.232  0.2175E+02  0.3867E+03
     -1.135  0.1978E+02  0.3886E+03
     -1.037  0.1801E+02  0.3904E+03
     -0.940  0.1644E+02  0.3920E+03
     -0.843  0.1526E+02  0.3934E+03
     -0.746  0.1418E+02  0.3948E+03
     -0.649  0.1285E+02  0.3961E+03
     -0.552  0.1166E+02  0.3972E+03
     -0.454  0.1096E+02  0.3983E+03
     -0.357  0.1082E+02  0.3993E+03
     -0.260  0.1180E+02  0.4005E+03
     -0.163  0.1430E+02  0.4019E+03
     -0.066  0.1775E+02  0.4036E+03
      0.031  0.2096E+02  0.4056E+03
      0.129  0.2261E+02  0.4078E+03
      0.226  0.2234E+02  0.4100E+03
      0.323  0.2104E+02  0.4120E+03
      0.420  0.1947E+02  0.4139E+03
      0.517  0.1858E+02  0.4157E+03
      0.614  0.1988E+02  0.4177E+03
      0.712  0.2333E+02  0.4199E+03
      0.809  0.2700E+02  0.4225E+03
      0.906  0.2977E+02  0.4254E+03
      1.003  0.3284E+02  0.4286E+03
      1.100  0.3776E+02  0.4323E+03
      1.197  0.4399E+02  0.4366E+03
      1.295  0.4916E+02  0.4413E+03
      1.392  0.5110E+02  0.4463E+03
      1.489  0.4902E+02  0.4511E+03
      1.586  0.4356E+02  0.4553E+03
      1.683  0.3583E+02  0.4588E+03
      1.780  0.2622E+02  0.4613E+03
      1.878  0.1588E+02  0.4629E+03
      1.975  0.7567E+01  0.4636E+03
      2.072  0.2839E+01  0.4639E+03
      2.169  0.8553E+00  0.4640E+03
      2.266  0.2017E+00  0.4640E+03
      2.363  0.3467E-01  0.4640E+03
      2.461  0.4062E-02  0.4640E+03
      2.558  0.3113E-03  0.4640E+03
      2.655  0.1530E-04  0.4640E+03
      2.752  0.4770E-06  0.4640E+03
      2.849  0.9397E-08  0.4640E+03
      2.946  0.1166E-09  0.4640E+03
      3.044  0.9101E-12  0.4640E+03
      3.141  0.4570E-14  0.4640E+03
      3.238  0.0000E+00  0.4640E+03
      3.335  0.0000E+00  0.4640E+03
      3.432  0.0000E+00  0.4640E+03
      3.529  0.0000E+00  0.4640E+03
      3.627  0.0000E+00  0.4640E+03
      3.724  0.0000E+00  0.4640E+03
      3.821  0.0000E+00  0.4640E+03
      3.918  0.0000E+00  0.4640E+03
