       N       E                     dE             d eps       ncg     rms          rms(c)
DAV:   1     0.363332358487E+04    0.36333E+04   -0.11973E+05  1728   0.105E+03
DAV:   2     0.168794544078E+03   -0.34645E+04   -0.32089E+04  2144   0.236E+02
DAV:   3    -0.834514764799E+03   -0.10033E+04   -0.97894E+03  1784   0.134E+02
DAV:   4    -0.896077511155E+03   -0.61563E+02   -0.60489E+02  1728   0.423E+01
DAV:   5    -0.897600590545E+03   -0.15231E+01   -0.15005E+01  1792   0.647E+00    0.455E+01
DAV:   6    -0.847964126812E+03    0.49636E+02   -0.47531E+01  1592   0.126E+01    0.267E+01
DAV:   7    -0.829446012868E+03    0.18518E+02   -0.65652E+01  1560   0.144E+01    0.732E+00
DAV:   8    -0.829146086100E+03    0.29993E+00   -0.24236E+00  1600   0.331E+00    0.972E-01
DAV:   9    -0.829038680984E+03    0.10741E+00   -0.26928E-01  1648   0.997E-01    0.571E-01
DAV:  10    -0.828997300427E+03    0.41381E-01   -0.50876E-02  1712   0.439E-01    0.357E-01
DAV:  11    -0.828969042723E+03    0.28258E-01   -0.20749E-02  1552   0.237E-01    0.245E-01
DAV:  12    -0.828965044082E+03    0.39986E-02   -0.24041E-02  1536   0.230E-01    0.149E-01
DAV:  13    -0.828976958636E+03   -0.11915E-01   -0.88623E-03  1568   0.143E-01    0.857E-02
DAV:  14    -0.828996398480E+03   -0.19440E-01   -0.12771E-03  1568   0.666E-02    0.528E-02
DAV:  15    -0.829017186564E+03   -0.20788E-01   -0.19066E-03  1576   0.647E-02    0.305E-02
DAV:  16    -0.829024335172E+03   -0.71486E-02   -0.36062E-04  1656   0.348E-02    0.206E-02
DAV:  17    -0.829029259698E+03   -0.49245E-02   -0.29225E-04  1552   0.231E-02    0.107E-02
DAV:  18    -0.829031479395E+03   -0.22197E-02   -0.10437E-04  1616   0.136E-02    0.585E-03
DAV:  19    -0.829032359811E+03   -0.88042E-03   -0.25956E-05  1352   0.767E-03    0.388E-03
DAV:  20    -0.829032713929E+03   -0.35412E-03   -0.52915E-06  1352   0.365E-03    0.216E-03
DAV:  21    -0.829032908844E+03   -0.19492E-03   -0.24364E-06  1248   0.269E-03    0.102E-03
DAV:  22    -0.829032955535E+03   -0.46691E-04   -0.21510E-07  1032   0.106E-03    0.738E-04
DAV:  23    -0.829032989501E+03   -0.33966E-04   -0.26151E-07   936   0.942E-04    0.450E-04
DAV:  24    -0.829033002628E+03   -0.13127E-04   -0.87389E-08   960   0.551E-04    0.275E-04
DAV:  25    -0.829033007260E+03   -0.46320E-05   -0.33722E-08   944   0.456E-04    0.180E-04
DAV:  26    -0.829033011110E+03   -0.38505E-05   -0.24820E-08   928   0.263E-04    0.140E-04
DAV:  27    -0.829033012791E+03   -0.16807E-05   -0.71806E-09   968   0.228E-04    0.935E-05
DAV:  28    -0.829033014768E+03   -0.19768E-05   -0.61703E-09   936   0.146E-04    0.516E-05
DAV:  29    -0.829033015266E+03   -0.49878E-06   -0.21750E-09   976   0.920E-05
   1 F= -.82903302E+03 E0= -.82899476E+03  d E =-.765049E-01
