 vasp.6.5.0 16Dec24 (build Feb 19 2025 19:45:31) complex                         
 executed on              LinuxNV date 2025.10.25  13:48:30
 running    2 mpi-ranks, on    1 nodes
 distrk:  each k-point on    2 cores,    1 groups
 distr:  one band on NCORE=   1 cores,    2 groups
 Offloading initialized ...    2 GPUs detected


--------------------------------------------------------------------------------------------------------


 INCAR:
   ISTART = 0            (Not Read existing wavefunction
   ISPIN = 1            (Non-Spin polarised DFT, Default\=1)
   ICHARG = 2            (The initial guess charge density is generated by superposition of atomic charge density)
   LREAL = Auto         (Projection operators: automatic)
   ENCUT = 500          (Cut-off energy for plane wave basis set, in eV)
   LWAVE = .FALSE.       (Write WAVECAR or not)
   LCHARG = .FALSE.       (Write CHGCAR or not)
   PREC = Accurate   (Precision level)
   KGAMMA = .TRUE.
   ALGO = Normal
   NSW = 0           (Default: NSW \= 0)
   IBRION = -1           (Ions are not moved)
   ISMEAR = 0
   EDIFF = 1E-06        (SCF energy convergence
   NELM = 150          (Max electronic SCF steps)

 POTCAR:    PAW_PBE C 08Apr2002                   
 POTCAR:    PAW_PBE C 08Apr2002                   
   SHA256 =  253f7b50bb8d59471dbedb8285d89021f4a42ed1a2c5d38a03a736e69125dd95 C/POTCAR              
   COPYR  = (c) Copyright 08Apr2002 Georg Kresse                                                    
   COPYR  = This file is part of the software VASP. Any use, copying, and all other rights are regul
   COPYR  = If you do not have a valid VASP license, you may not use, copy or distribute this file. 
   VRHFIN =C: s2p2                                                                                  
   LEXCH  = PE                                                                                      
   EATOM  =   147.1560 eV,   10.8157 Ry                                                             
                                                                                                    
   TITEL  = PAW_PBE C 08Apr2002                                                                     
   LULTRA =        F    use ultrasoft PP ?                                                          
   IUNSCR =        1    unscreen: 0-lin 1-nonlin 2-no                                               
   RPACOR =    1.200    partial core radius                                                         
   POMASS =   12.011; ZVAL   =    4.000    mass and valenz                                          
   RCORE  =    1.500    outmost cutoff radius                                                       
   RWIGS  =    1.630; RWIGS  =    0.863    wigner-seitz radius (au A)                               
   ENMAX  =  400.000; ENMIN  =  300.000 eV                                                          
   ICORE  =        2    local potential                                                             
   LCOR   =        T    correct aug charges                                                         
   LPAW   =        T    paw PP                                                                      
   EAUG   =  644.873                                                                                
   DEXC   =    0.000                                                                                
   RMAX   =    1.529    core radius for proj-oper                                                   
   RAUG   =    1.300    factor for augmentation sphere                                              
   RDEP   =    1.501    radius for radial grids                                                     
   RDEPT  =    1.300    core radius for aug-charge                                                  
                                                                                                    
   Atomic configuration                                                                             
    4 entries                                                                                       
     n  l   j            E        occ.                                                              
     1  0  0.50      -273.3789   2.0000                                                             
     2  0  0.50       -13.7508   2.0000                                                             
     2  1  0.50        -5.2854   2.0000                                                             
     3  2  1.50        -5.4423   0.0000                                                             
   Description                                                                                      
     l       E           TYP  RCUT    TYP  RCUT                                                     
     0    -13.7508458     23  1.200                                                                 
     0     -8.2022199     23  1.200                                                                 
     1     -5.2854383     23  1.500                                                                 
     1     34.0145650     23  1.500                                                                 
     2     -5.4423304      7  1.500                                                                 
  local pseudopotential read in
  partial core-charges read in
  partial kinetic energy density read in
  atomic valenz-charges read in
  non local Contribution for L=            0  read in
    real space projection operators read in
  non local Contribution for L=            0  read in
    real space projection operators read in
  non local Contribution for L=            1  read in
    real space projection operators read in
  non local Contribution for L=            1  read in
    real space projection operators read in
    PAW grid and wavefunctions read in
 
   number of l-projection  operators is LMAX  =            4
   number of lm-projection operators is LMMAX =            8
 
 Optimization of the real space projectors (new method)

 maximal supplied QI-value         = 25.13
 optimisation between [QCUT,QGAM] = [ 11.31, 22.87] = [ 35.82,146.48] Ry 
 Optimized for a Real-space Cutoff    1.03 Angstroem

   l    n(q)    QCUT    max X(q) W(low)/X(q) W(high)/X(q)  e(spline) 
   0      7    11.310   115.676    0.20E-03    0.90E-03    0.20E-06
   0      7    11.310    87.132    0.20E-03    0.89E-03    0.19E-06
   1      6    11.310     4.429    0.16E-03    0.28E-03    0.12E-06
   1      6    11.310     2.733    0.12E-03    0.21E-03    0.99E-07
  PAW_PBE C 08Apr2002                   :
 energy of atom  1       EATOM= -147.1560
 kinetic energy error for atom=    0.0076 (will be added to EATOM!!)
 
 
 POSCAR:  C
  positions in cartesian coordinates
  No initial velocities read in


 exchange-correlation table for PE
   RHO(1)=    0.500       N(1)  =     2000
   RHO(2)=  100.500       N(2)  =     4000
 


--------------------------------------------------------------------------------------------------------


 ion  position               nearest neighbor table
   1  0.004  0.096  0.469-  45 1.40   2 1.41   3 1.43  46 2.06
   2  0.007  0.269  0.472-   4 1.39   1 1.41  46 1.47  45 1.93
   3  0.046  0.018  0.454-  50 1.35   1 1.43   5 1.43
   4  0.049  0.354  0.467-  49 1.37   2 1.39   6 1.42
   5  0.091  0.101  0.450-   6 1.36   7 1.42   3 1.43
   6  0.092  0.265  0.459-   5 1.36   8 1.39   4 1.42
   7  0.136  0.022  0.448-   9 1.39  54 1.39   5 1.42
   8  0.134  0.353  0.455-   6 1.39  53 1.41  10 1.42
   9  0.180  0.101  0.448-   7 1.39  10 1.39  11 1.48
  10  0.179  0.271  0.452-   9 1.39   8 1.42  12 1.43
  11  0.226  0.014  0.449-  58 1.35  13 1.43   9 1.48
  12  0.224  0.351  0.456-  57 1.39  10 1.43  14 1.47
  13  0.271  0.098  0.456-  14 1.38  15 1.39  11 1.43
  14  0.270  0.267  0.460-  13 1.38  16 1.40  12 1.47
  15  0.313  0.019  0.466-  62 1.37  13 1.39  17 1.44
  16  0.313  0.348  0.470-  61 1.37  14 1.40  18 1.40
  17  0.355  0.098  0.481-  18 1.37  19 1.38  15 1.44
  18  0.355  0.267  0.481-  17 1.37  16 1.40  20 1.44
  19  0.397  0.020  0.493-  17 1.38  66 1.41  21 1.46
  20  0.396  0.347  0.498-  65 1.37  22 1.39  18 1.44
  21  0.440  0.101  0.507-  23 1.39  22 1.39  19 1.46
  22  0.439  0.273  0.509-  20 1.39  21 1.39  24 1.41
  23  0.481  0.020  0.520-  25 1.37  70 1.38  21 1.39
  24  0.479  0.357  0.525-  69 1.32  26 1.41  22 1.41
  25  0.522  0.098  0.532-  23 1.37  26 1.40  27 1.45
  26  0.520  0.270  0.536-  25 1.40  24 1.41  28 1.47
  27  0.566  0.017  0.540-  74 1.33  25 1.45  29 1.45
  28  0.565  0.356  0.544-  73 1.36  30 1.43  26 1.47
  29  0.611  0.107  0.543-  30 1.37  31 1.39  27 1.45
  30  0.610  0.276  0.545-  29 1.37  28 1.43  32 1.46
  31  0.655  0.027  0.546-  33 1.38  29 1.39  78 1.40
  32  0.656  0.360  0.549-  77 1.35  34 1.37  30 1.46
  33  0.698  0.107  0.544-  31 1.38  34 1.40  35 1.41
  34  0.699  0.280  0.547-  32 1.37  33 1.40  36 1.42
  35  0.742  0.024  0.536-  82 1.37  33 1.41  37 1.46
  36  0.744  0.359  0.542-  81 1.40  38 1.42  34 1.42
  37  0.785  0.108  0.524-  39 1.39  38 1.41  35 1.46
  38  0.787  0.281  0.529-  37 1.41  36 1.42  40 1.43
  39  0.829  0.031  0.517-  86 1.36  37 1.39  41 1.42
  40  0.831  0.363  0.523-  85 1.38  42 1.41  38 1.43
  41  0.872  0.112  0.508-  42 1.38  43 1.42  39 1.42
  42  0.872  0.282  0.509-  41 1.38  44 1.40  40 1.41
  43  0.914  0.032  0.494-  90 1.41  41 1.42  45 1.42
  44  0.915  0.356  0.497-  46 1.38  42 1.40  89 1.40
  45  0.957  0.109  0.484-  46 1.37   1 1.40  43 1.42   2 1.93
  46  0.957  0.278  0.486-  45 1.37  44 1.38   2 1.47   1 2.06
  47  0.006  0.605  0.477-  49 1.39  48 1.40  91 1.42  92 2.00
  48  0.005  0.775  0.471-  47 1.40  50 1.40  92 1.48  91 2.03
  49  0.047  0.523  0.467-   4 1.37  47 1.39  51 1.41
  50  0.047  0.852  0.457-   3 1.35  48 1.40  52 1.41
  51  0.091  0.607  0.462-  52 1.37  49 1.41  53 1.41
  52  0.092  0.774  0.457-  51 1.37  50 1.41  54 1.44
  53  0.135  0.528  0.456-  55 1.37  51 1.41   8 1.41
  54  0.137  0.850  0.447-   7 1.39  56 1.40  52 1.44
  55  0.178  0.605  0.452-  56 1.35  53 1.37  57 1.41
  56  0.181  0.772  0.450-  55 1.35  54 1.40  58 1.43
  57  0.222  0.522  0.455-  12 1.39  55 1.41  59 1.47
  58  0.227  0.849  0.452-  11 1.35  60 1.39  56 1.43
  59  0.269  0.596  0.462-  61 1.38  60 1.41  57 1.47
  60  0.270  0.769  0.460-  62 1.39  58 1.39  59 1.41
  61  0.310  0.516  0.474-  16 1.37  59 1.38  63 1.46
  62  0.312  0.851  0.469-  15 1.37  60 1.39  64 1.41
  63  0.354  0.603  0.486-  64 1.38  65 1.43  61 1.46
  64  0.355  0.772  0.482-  63 1.38  66 1.40  62 1.41
  65  0.394  0.515  0.501-  20 1.37  63 1.43  67 1.43
  66  0.398  0.847  0.491-  64 1.40  68 1.40  19 1.41
  67  0.437  0.598  0.513-  68 1.36  69 1.42  65 1.43
  68  0.437  0.765  0.509-  67 1.36  66 1.40  70 1.45
  69  0.478  0.519  0.529-  24 1.32  71 1.41  67 1.42
  70  0.481  0.849  0.519-  72 1.38  23 1.38  68 1.45
  71  0.521  0.599  0.539-  72 1.35  69 1.41  73 1.42
  72  0.520  0.765  0.534-  71 1.35  70 1.38  74 1.49
  73  0.565  0.523  0.550-  28 1.36  71 1.42  75 1.48
  74  0.566  0.853  0.542-  27 1.33  76 1.45  72 1.49
  75  0.611  0.603  0.553-  76 1.36  77 1.39  73 1.48
  76  0.610  0.771  0.551-  75 1.36  78 1.43  74 1.45
  77  0.655  0.525  0.556-  32 1.35  75 1.39  79 1.44
  78  0.655  0.855  0.551-  31 1.40  80 1.43  76 1.43
  79  0.701  0.604  0.558-  80 1.38  77 1.44  81 1.45
  80  0.700  0.773  0.552-  79 1.38  82 1.42  78 1.43
  81  0.747  0.530  0.548-  36 1.40  83 1.41  79 1.45
  82  0.743  0.857  0.543-  35 1.37  80 1.42  84 1.44
  83  0.790  0.611  0.538-  84 1.37  81 1.41  85 1.45
  84  0.788  0.779  0.535-  83 1.37  82 1.44  86 1.47
  85  0.834  0.533  0.526-  87 1.35  40 1.38  83 1.45
  86  0.830  0.862  0.517-  39 1.36  88 1.38  84 1.47
  87  0.873  0.611  0.513-  85 1.35  88 1.38  89 1.41
  88  0.870  0.779  0.506-  86 1.38  87 1.38  90 1.43
  89  0.916  0.528  0.502-  91 1.38  44 1.40  87 1.41
  90  0.913  0.857  0.494-  92 1.39  43 1.41  88 1.43
  91  0.957  0.603  0.488-  89 1.38  92 1.41  47 1.42  48 2.03
  92  0.954  0.774  0.482-  90 1.39  91 1.41  48 1.48  47 2.00
 
  LATTYP: Found a simple orthorhombic cell.
 ALAT       =     8.1000000000
 B/A-ratio  =     3.4629629630
 C/A-ratio  =     4.1358024691
  
  Lattice vectors:
  
 A1 = (   0.0000000000,  -8.1000000000,   0.0000000000)
 A2 = (  28.0500000000,   0.0000000000,   0.0000000000)
 A3 = (   0.0000000000,   0.0000000000,  33.5000000000)


Analysis of symmetry for initial positions (statically):
=====================================================================
 Subroutine PRICEL returns:
 Original cell was already a primitive cell.
 

 Routine SETGRP: Setting up the symmetry group for a 
 simple orthorhombic supercell.


 Subroutine GETGRP returns: Found  1 space group operations
 (whereof  1 operations were pure point group operations)
 out of a pool of  8 trial point group operations.


The static configuration has the point symmetry C_1 .


Analysis of symmetry for dynamics (positions and initial velocities):
=====================================================================
 Subroutine PRICEL returns:
 Original cell was already a primitive cell.
 

 Routine SETGRP: Setting up the symmetry group for a 
 simple orthorhombic supercell.


 Subroutine GETGRP returns: Found  1 space group operations
 (whereof  1 operations were pure point group operations)
 out of a pool of  8 trial point group operations.


The dynamic configuration has the point symmetry C_1 .


 Subroutine INISYM returns: Found  1 space group operations
 (whereof  1 operations are pure point group operations),
 and found     1 'primitive' translations


----------------------------------------------------------------------------------------

                                     Primitive cell                                     

  volume of cell :    7611.3675

  direct lattice vectors                    reciprocal lattice vectors
    28.050000000  0.000000000  0.000000000     0.035650624  0.000000000  0.000000000
     0.000000000  8.100000000  0.000000000     0.000000000  0.123456790  0.000000000
     0.000000000  0.000000000 33.500000000     0.000000000  0.000000000  0.029850746

  length of vectors
    28.050000000  8.100000000 33.500000000     0.035650624  0.123456790  0.029850746

  position of ions in fractional coordinates (direct lattice)
     0.003827629  0.095920494  0.468537313
     0.006546275  0.269282716  0.472367164
     0.046395009  0.017900247  0.454468657
     0.049158645  0.353890123  0.466802985
     0.091245633  0.101072469  0.450017910
     0.091871301  0.265200000  0.458570149
     0.136151515  0.021916914  0.447528358
     0.134246702  0.353288889  0.455223881
     0.179945811  0.100967160  0.447991045
     0.178690196  0.271169136  0.451937313
     0.226359358  0.014310123  0.448859701
     0.223931907  0.351196296  0.456444776
     0.270621390  0.097976914  0.456062687
     0.269991444  0.267212346  0.460200000
     0.313028877  0.019101975  0.465916418
     0.312544029  0.347808642  0.469713433
     0.355150446  0.098083580  0.481411940
     0.354759002  0.267303704  0.480952239
     0.396976827  0.020396049  0.492728358
     0.396320856  0.346730864  0.497600000
     0.440049911  0.101477778  0.507140299
     0.439037433  0.273332099  0.508940299
     0.480770053  0.019640123  0.520232836
     0.478506239  0.356912346  0.525283582
     0.521778966  0.098478642  0.531582090
     0.520039216  0.269861728  0.535967164
     0.566388592  0.016953210  0.540367164
     0.565062389  0.356286420  0.543611940
     0.611058824  0.106938642  0.543388060
     0.610374332  0.275608642  0.545173134
     0.654559715  0.026575802  0.546050746
     0.656221034  0.360034568  0.549020896
     0.698046346  0.106573580  0.543868657
     0.699240642  0.279503704  0.546856716
     0.741518717  0.024370988  0.536411940
     0.744092692  0.358804938  0.541659701
     0.785065954  0.108213580  0.523573134
     0.787008913  0.280677778  0.529167164
     0.828613191  0.030770494  0.516877612
     0.831429590  0.363164198  0.523447761
     0.871953654  0.112283457  0.507650746
     0.872338681  0.282312346  0.508955224
     0.913650624  0.031671852  0.493967164
     0.914955437  0.355867901  0.496814925
     0.957301248  0.109309012  0.483519403
     0.956723708  0.277540741  0.485973134
     0.005594938  0.604588889  0.477379104
     0.005303779  0.775470370  0.471417910
     0.047233868  0.522743210  0.466928358
     0.046779323  0.852044444  0.457376119
     0.090759715  0.606711111  0.461602985
     0.091722995  0.774232099  0.456686567
     0.135179323  0.527613580  0.456483582
     0.136742246  0.850371605  0.446802985
     0.178182175  0.605058025  0.452113433
     0.181180749  0.771829630  0.450486567
     0.222176827  0.522018519  0.454868657
     0.227188235  0.848597531  0.452391045
     0.269264884  0.595564198  0.462000000
     0.270211408  0.769269136  0.460265672
     0.310365062  0.516227160  0.473817910
     0.312469875  0.850704938  0.469331343
     0.353641711  0.602591358  0.486432836
     0.354655971  0.772050617  0.481844776
     0.393996435  0.515371605  0.501489552
     0.398092692  0.846723457  0.491480597
     0.436980392  0.598144444  0.512579104
     0.436919786  0.764885185  0.508689552
     0.478021390  0.518877778  0.528501493
     0.480905526  0.848775309  0.519462687
     0.520702317  0.599487654  0.539074627
     0.520074866  0.764954321  0.534104478
     0.564513369  0.522651852  0.549785075
     0.565889483  0.853377778  0.541752239
     0.611483066  0.603392593  0.553498507
     0.610242424  0.770860494  0.551152239
     0.655415330  0.524583951  0.556011940
     0.655204991  0.854534568  0.551355224
     0.701162210  0.604323457  0.557740299
     0.700245989  0.773008642  0.552498507
     0.746716578  0.530062963  0.547788060
     0.743354724  0.857202469  0.543313433
     0.789693405  0.610882716  0.538411940
     0.788385027  0.779381481  0.535259701
     0.834000000  0.532582716  0.526274627
     0.829525847  0.862406173  0.517274627
     0.873447415  0.611286420  0.513098507
     0.870399287  0.779480247  0.506343284
     0.915786096  0.527691358  0.502226866
     0.913497326  0.857397531  0.493979104
     0.956759358  0.602771605  0.488137313
     0.954067736  0.774314815  0.481650746

  ion indices of the primitive-cell ions
   primitive index   ion index
                 1           1
                 2           2
                 3           3
                 4           4
                 5           5
                 6           6
                 7           7
                 8           8
                 9           9
                10          10
                11          11
                12          12
                13          13
                14          14
                15          15
                16          16
                17          17
                18          18
                19          19
                20          20
                21          21
                22          22
                23          23
                24          24
                25          25
                26          26
                27          27
                28          28
                29          29
                30          30
                31          31
                32          32
                33          33
                34          34
                35          35
                36          36
                37          37
                38          38
                39          39
                40          40
                41          41
                42          42
                43          43
                44          44
                45          45
                46          46
                47          47
                48          48
                49          49
                50          50
                51          51
                52          52
                53          53
                54          54
                55          55
                56          56
                57          57
                58          58
                59          59
                60          60
                61          61
                62          62
                63          63
                64          64
                65          65
                66          66
                67          67
                68          68
                69          69
                70          70
                71          71
                72          72
                73          73
                74          74
                75          75
                76          76
                77          77
                78          78
                79          79
                80          80
                81          81
                82          82
                83          83
                84          84
                85          85
                86          86
                87          87
                88          88
                89          89
                90          90
                91          91
                92          92

----------------------------------------------------------------------------------------

 
 
 KPOINTS: K-Spacing Value to Generate K-Mesh: 0.03

Automatic generation of k-mesh.
 Grid dimensions read from file:
 generate k-points for:    1    4    1

 Generating k-lattice:

  Cartesian coordinates                     Fractional coordinates (reciprocal lattice)
     0.035650624  0.000000000  0.000000000     1.000000000  0.000000000  0.000000000
     0.000000000  0.030864198  0.000000000     0.000000000  0.250000000  0.000000000
     0.000000000  0.000000000  0.029850746     0.000000000  0.000000000  1.000000000

  Length of vectors
     0.035650624  0.030864198  0.029850746

  Shift w.r.t. Gamma in fractional coordinates (k-lattice)
     0.000000000  0.000000000  0.000000000

 
 Subroutine IBZKPT returns following result:
 ===========================================
 
 Found      3 irreducible k-points:
 
 Following reciprocal coordinates:
            Coordinates               Weight
  0.000000  0.000000  0.000000      1.000000
  0.000000  0.250000  0.000000      2.000000
  0.000000  0.500000  0.000000      1.000000
 
 Following cartesian coordinates:
            Coordinates               Weight
  0.000000  0.000000  0.000000      1.000000
  0.000000  0.030864  0.000000      2.000000
  0.000000  0.061728  0.000000      1.000000
 


--------------------------------------------------------------------------------------------------------




 Dimension of arrays:
   k-points           NKPTS =      3   k-points in BZ     NKDIM =      3   number of bands    NBANDS=    232
   number of dos      NEDOS =    301   number of ions     NIONS =     92
   non local maximal  LDIM  =      4   non local SUM 2l+1 LMDIM =      8
   total plane-waves  NPLWV = ******
   max r-space proj   IRMAX =   1967   max aug-charges    IRDMAX=   5083
   dimension x,y,z NGX =   210 NGY =   60 NGZ =  250
   dimension x,y,z NGXF=   420 NGYF=  120 NGZF=  500
   support grid    NGXF=   420 NGYF=  120 NGZF=  500
   ions per type =              92
   NGX,Y,Z   is equivalent  to a cutoff of  12.45, 12.31, 12.41 a.u.
   NGXF,Y,Z  is equivalent  to a cutoff of  24.89, 24.63, 24.81 a.u.

 SYSTEM =  unknown system                          
 POSCAR =   C                                      

 Startparameter for this run:
   NWRITE =      2    write-flag & timer
   PREC   = accura    normal or accurate (medium, high low for compatibility)
   ISTART =      0    job   : 0-new  1-cont  2-samecut
   ICHARG =      2    charge: 1-file 2-atom 10-const
   ISPIN  =      1    spin polarized calculation?
   LNONCOLLINEAR =      F non collinear calculations
   LSORBIT =      F    spin-orbit coupling
   INIWAV =      1    electr: 0-lowe 1-rand  2-diag
   LASPH  =      F    aspherical Exc in radial PAW
 Electronic Relaxation 1
   ENCUT  =  500.0 eV  36.75 Ry    6.06 a.u.  51.14 14.77 61.08*2*pi/ulx,y,z
   ENINI  =  500.0     initial cutoff
   ENAUG  =  644.9 eV  augmentation charge cutoff
   NELM   =    150;   NELMIN=  2; NELMDL= -5     # of ELM steps 
   EDIFF  = 0.1E-05   stopping-criterion for ELM
   LREAL  =      T    real-space projection
   NLSPLINE    = F    spline interpolate recip. space projectors
   LCOMPAT=      F    compatible to vasp.4.4
   GGA_COMPAT  = T    GGA compatible to vasp.4.4-vasp.4.6
   LMAXPAW     = -100 max onsite density
   LMAXMIX     =    2 max onsite mixed and CHGCAR
   VOSKOWN=      0    Vosko Wilk Nusair interpolation
   ROPT   =   -0.00025
 Ionic relaxation
   EDIFFG = 0.1E-04   stopping-criterion for IOM
   NSW    =      0    number of steps for IOM
   NBLOCK =      1;   KBLOCK =      1    inner block; outer block 
   IBRION =     -1    ionic relax: 0-MD 1-quasi-New 2-CG
   NFREE  =      0    steps in history (QN), initial steepest desc. (CG)
   ISIF   =      2    stress and relaxation
   IWAVPR =     10    prediction:  0-non 1-charg 2-wave 3-comb
   ISYM   =      2    0-nonsym 1-usesym 2-fastsym
   LCORR  =      T    Harris-Foulkes like correction to forces

   POTIM  = 0.5000    time-step for ionic-motion
   TEIN   =    0.0    initial temperature
   TEBEG  =    0.0;   TEEND  =   0.0 temperature during run
   SMASS  =  -3.00    Nose mass-parameter (am)
   estimated Nose-frequenzy (Omega)   =  0.10E-29 period in steps = 0.13E+47 mass=  -0.180E-25a.u.
   SCALEE = 1.0000    scale energy and forces
   NPACO  =    256;   APACO  = 10.0  distance and # of slots for P.C.
   PSTRESS=    0.0 pullay stress

  Mass of Ions in am
   POMASS =  12.01
  Ionic Valenz
   ZVAL   =   4.00
  Atomic Wigner-Seitz radii
   RWIGS  =  -1.00
  virtual crystal weights 
   VCA    =   1.00
   NELECT =     368.0000    total number of electrons
   NUPDOWN=      -1.0000    fix difference up-down

 DOS related values:
   EMIN   =  10.00;   EMAX   =-10.00  energy-range for DOS
   EFERMI =   0.00;   METHOD = LEGACY      
   ISMEAR =     0;   SIGMA  =   0.20  broadening in eV -4-tet -1-fermi 0-gaus
   EFERMI_NEDOS =   21; number of points for ismear=-14 and -15

 Electronic relaxation 2 (details)
   IALGO  =     38    algorithm
   LDIAG  =      T    sub-space diagonalisation (order eigenvalues)
   LSUBROT=      F    optimize rotation matrix (better conditioning)
   TURBO    =      0    0=normal 1=particle mesh
   IRESTART =      0    0=no restart 2=restart with 2 vectors
   NREBOOT  =      0    no. of reboots
   NMIN     =      0    reboot dimension
   EREF     =   0.00    reference energy to select bands
   IMIX   =      4    mixing-type and parameters
     AMIX     =   0.40;   BMIX     =  1.00
     AMIX_MAG =   1.60;   BMIX_MAG =  1.00
     AMIN     =   0.10
     WC   =   100.;   INIMIX=   1;  MIXPRE=   1;  MAXMIX= -45

 Intra band minimization:
   WEIMIN = 0.0000     energy-eigenvalue tresh-hold
   EBREAK =  0.11E-08  absolut break condition
   DEPER  =   0.30     relativ break condition  

   TIME   =   0.40     timestep for ELM

  volume/ion in A,a.u.               =      82.73       558.30
  Fermi-wavevector in a.u.,A,eV,Ry     =   0.596398  1.127030  4.839472  0.355691
  Thomas-Fermi vector in A             =   1.646729
 
 Write flags
   LWAVE        =      F    write WAVECAR
   LDOWNSAMPLE  =      F    k-point downsampling of WAVECAR
   LCHARG       =      F    write CHGCAR
   LVTOT        =      F    write LOCPOT, total local potential
   LVHAR        =      F    write LOCPOT, Hartree potential only
   WRT_POTENTIAL= false  ! write potential to hdf5 file
   LELF         =      F    write electronic localiz. function (ELF)
   LORBIT       =      0    0 simple, 1 ext, 2 COOP (PROOUT), +10 PAW based schemes


 Python interface
   PLUGINS active      =      F    recompile with -DPLUGINS to activate
 
 Dipole corrections
   LMONO      =      F    monopole corrections only (constant potential shift)
   LDIPOL     =      F    correct potential (dipole corrections)
   IDIPOL     =      0    1-x, 2-y, 3-z, 4-all directions 
   EPSILON    =  1.0000000 bulk dielectric constant
   LVACPOTAV  =      F  vacuum potentials using an averaging scheme for the charge density
   VACPOTFLAT =  0.1000000 required flatness to determine vacuum potential
 
Coulomb truncation method
  LTRUNCATE          =      F  Coulomb kernel truncation to be used
  IDIMENSIONALITY    =      3  Dimensionality of cutoff (0 molecules / 2 surfaces)
  ISURFACE           =     -1  Direction of surface normal
  LCOARSEN           =      F  Coarsen the charge grid before padding, preferred

 
 Exchange correlation treatment:
   GGA     = PE    functional components
   XC_C    = 1    coefficients multiplying the functional components
   LIBXC   =     F    Libxc                    
   VOSKOWN =     0    Vosko Wilk Nusair interpolation
   LHFCALC =     F    Hartree Fock is set to
   LHFONE  =     F    Hartree Fock one center treatment
   AEXX    =    0.0000 exact exchange contribution

 Parameters of functionals:
   PE:
     No parameter
 
 Van der Waals corrections
   IVDW    =     0    specifies the selected vdW correction

 Linear response parameters
   LEPSILON=     F    determine dielectric tensor
   LRPA    =     F    only Hartree local field effects (RPA)
   LNABLA  =     F    use nabla operator in PAW spheres
   LVEL    =     F    velocity operator in full k-point grid
   CSHIFT  =0.1000    complex shift for real part using Kramers Kronig
   OMEGAMAX=  -1.0    maximum frequency
   DEG_THRESHOLD= 0.2000000E-02 threshold for treating states as degnerate
   RTIME   =   -0.100 relaxation time in fs
  (WPLASMAI=    0.000 imaginary part of plasma frequency in eV, 0.658/RTIME)
   DFIELD  = 0.0000000 0.0000000 0.0000000 field for delta impulse in time
 
  Optional k-point grid parameters
   LKPOINTS_OPT  =     F    use optional k-point grid
   KPOINTS_OPT_MODE=     1    mode for optional k-point grid
 
 Orbital magnetization related:
   ORBITALMAG=     F  switch on orbital magnetization
   LCHIMAG   =     F  perturbation theory with respect to B field
   DQ        =  0.001000  dq finite difference perturbation B field
   LLRAUG    =     F  two centre corrections for induced B field
   LBONE     =     F  B-component reconstruction in AE one-centre
   LVGVCALC  =     T  calculate vGv susceptibility
   LVGVAPPL  =     F  apply vGv susceptibility instead of pGv for G=0

 Random number generation:
   RANDOM_GENERATOR = DEFAULT
   PCG_SEED         = not used


--------------------------------------------------------------------------------------------------------


 Static calculation
 charge density and potential will be updated during run
 non-spin polarized calculation
 Variant of blocked Davidson
 Davidson routine will perform the subspace rotation
 perform sub-space diagonalisation
    after iterative eigenvector-optimisation
 modified Broyden-mixing scheme, WC =      100.0
 initial mixing is a Kerker type mixing with AMIX =  0.4000 and BMIX =      1.0000
 Hartree-type preconditioning will be used
 using additional bands            48
 real space projection scheme for non local part
 use partial core corrections
 calculate Harris-corrections to forces 
   (improved forces if not selfconsistent)
 use gradient corrections 
 use of overlap-Matrix (Vanderbilt PP)
 Gauss-broadening in eV      SIGMA  =   0.20


--------------------------------------------------------------------------------------------------------


  energy-cutoff  :      500.00
  volume of cell :     7611.37
      direct lattice vectors                 reciprocal lattice vectors
    28.050000000  0.000000000  0.000000000     0.035650624  0.000000000  0.000000000
     0.000000000  8.100000000  0.000000000     0.000000000  0.123456790  0.000000000
     0.000000000  0.000000000 33.500000000     0.000000000  0.000000000  0.029850746

  length of vectors
    28.050000000  8.100000000 33.500000000     0.035650624  0.123456790  0.029850746


 
 k-points in units of 2pi/SCALE and weight: K-Spacing Value to Generate K-Mesh: 0.03
   0.00000000  0.00000000  0.00000000       0.250
   0.00000000  0.03086420  0.00000000       0.500
   0.00000000  0.06172840  0.00000000       0.250
 
 k-points in reciprocal lattice and weights: K-Spacing Value to Generate K-Mesh: 0.03
   0.00000000  0.00000000  0.00000000       0.250
   0.00000000  0.25000000  0.00000000       0.500
   0.00000000  0.50000000  0.00000000       0.250
 
 position of ions in fractional coordinates (direct lattice) 
   0.00382763  0.09592049  0.46853731
   0.00654627  0.26928272  0.47236716
   0.04639501  0.01790025  0.45446866
   0.04915865  0.35389012  0.46680299
   0.09124563  0.10107247  0.45001791
   0.09187130  0.26520000  0.45857015
   0.13615152  0.02191691  0.44752836
   0.13424670  0.35328889  0.45522388
   0.17994581  0.10096716  0.44799104
   0.17869020  0.27116914  0.45193731
   0.22635936  0.01431012  0.44885970
   0.22393191  0.35119630  0.45644478
   0.27062139  0.09797691  0.45606269
   0.26999144  0.26721235  0.46020000
   0.31302888  0.01910198  0.46591642
   0.31254403  0.34780864  0.46971343
   0.35515045  0.09808358  0.48141194
   0.35475900  0.26730370  0.48095224
   0.39697683  0.02039605  0.49272836
   0.39632086  0.34673086  0.49760000
   0.44004991  0.10147778  0.50714030
   0.43903743  0.27333210  0.50894030
   0.48077005  0.01964012  0.52023284
   0.47850624  0.35691235  0.52528358
   0.52177897  0.09847864  0.53158209
   0.52003922  0.26986173  0.53596716
   0.56638859  0.01695321  0.54036716
   0.56506239  0.35628642  0.54361194
   0.61105882  0.10693864  0.54338806
   0.61037433  0.27560864  0.54517313
   0.65455971  0.02657580  0.54605075
   0.65622103  0.36003457  0.54902090
   0.69804635  0.10657358  0.54386866
   0.69924064  0.27950370  0.54685672
   0.74151872  0.02437099  0.53641194
   0.74409269  0.35880494  0.54165970
   0.78506595  0.10821358  0.52357313
   0.78700891  0.28067778  0.52916716
   0.82861319  0.03077049  0.51687761
   0.83142959  0.36316420  0.52344776
   0.87195365  0.11228346  0.50765075
   0.87233868  0.28231235  0.50895522
   0.91365062  0.03167185  0.49396716
   0.91495544  0.35586790  0.49681493
   0.95730125  0.10930901  0.48351940
   0.95672371  0.27754074  0.48597313
   0.00559494  0.60458889  0.47737910
   0.00530378  0.77547037  0.47141791
   0.04723387  0.52274321  0.46692836
   0.04677932  0.85204444  0.45737612
   0.09075971  0.60671111  0.46160299
   0.09172299  0.77423210  0.45668657
   0.13517932  0.52761358  0.45648358
   0.13674225  0.85037160  0.44680299
   0.17818217  0.60505802  0.45211343
   0.18118075  0.77182963  0.45048657
   0.22217683  0.52201852  0.45486866
   0.22718824  0.84859753  0.45239104
   0.26926488  0.59556420  0.46200000
   0.27021141  0.76926914  0.46026567
   0.31036506  0.51622716  0.47381791
   0.31246988  0.85070494  0.46933134
   0.35364171  0.60259136  0.48643284
   0.35465597  0.77205062  0.48184478
   0.39399643  0.51537160  0.50148955
   0.39809269  0.84672346  0.49148060
   0.43698039  0.59814444  0.51257910
   0.43691979  0.76488519  0.50868955
   0.47802139  0.51887778  0.52850149
   0.48090553  0.84877531  0.51946269
   0.52070232  0.59948765  0.53907463
   0.52007487  0.76495432  0.53410448
   0.56451337  0.52265185  0.54978507
   0.56588948  0.85337778  0.54175224
   0.61148307  0.60339259  0.55349851
   0.61024242  0.77086049  0.55115224
   0.65541533  0.52458395  0.55601194
   0.65520499  0.85453457  0.55135522
   0.70116221  0.60432346  0.55774030
   0.70024599  0.77300864  0.55249851
   0.74671658  0.53006296  0.54778806
   0.74335472  0.85720247  0.54331343
   0.78969340  0.61088272  0.53841194
   0.78838503  0.77938148  0.53525970
   0.83400000  0.53258272  0.52627463
   0.82952585  0.86240617  0.51727463
   0.87344742  0.61128642  0.51309851
   0.87039929  0.77948025  0.50634328
   0.91578610  0.52769136  0.50222687
   0.91349733  0.85739753  0.49397910
   0.95675936  0.60277160  0.48813731
   0.95406774  0.77431481  0.48165075
 
 position of ions in cartesian coordinates  (Angst):
   0.10736500  0.77695600 15.69600000
   0.18362300  2.18119000 15.82430000
   1.30138000  0.14499200 15.22470000
   1.37890000  2.86651000 15.63790000
   2.55944000  0.81868700 15.07560000
   2.57699000  2.14812000 15.36210000
   3.81905000  0.17752700 14.99220000
   3.76562000  2.86164000 15.25000000
   5.04748000  0.81783400 15.00770000
   5.01226000  2.19647000 15.13990000
   6.34938000  0.11591200 15.03680000
   6.28129000  2.84469000 15.29090000
   7.59093000  0.79361300 15.27810000
   7.57326000  2.16442000 15.41670000
   8.78046000  0.15472600 15.60820000
   8.76686000  2.81725000 15.73540000
   9.96197000  0.79447700 16.12730000
   9.95099000  2.16516000 16.11190000
  11.13520000  0.16520800 16.50640000
  11.11680000  2.80852000 16.66960000
  12.34340000  0.82197000 16.98920000
  12.31500000  2.21399000 17.04950000
  13.48560000  0.15908500 17.42780000
  13.42210000  2.89099000 17.59700000
  14.63590000  0.79767700 17.80800000
  14.58710000  2.18588000 17.95490000
  15.88720000  0.13732100 18.10230000
  15.85000000  2.88592000 18.21100000
  17.14020000  0.86620300 18.20350000
  17.12100000  2.23243000 18.26330000
  18.36040000  0.21526400 18.29270000
  18.40700000  2.91628000 18.39220000
  19.58020000  0.86324600 18.21960000
  19.61370000  2.26398000 18.31970000
  20.79960000  0.19740500 17.96980000
  20.87180000  2.90632000 18.14560000
  22.02110000  0.87653000 17.53970000
  22.07560000  2.27349000 17.72710000
  23.24260000  0.24924100 17.31540000
  23.32160000  2.94163000 17.53550000
  24.45830000  0.90949600 17.00630000
  24.46910000  2.28673000 17.05000000
  25.62790000  0.25654200 16.54790000
  25.66450000  2.88253000 16.64330000
  26.85230000  0.88540300 16.19790000
  26.83610000  2.24808000 16.28010000
   0.15693800  4.89717000 15.99220000
   0.14877100  6.28131000 15.79250000
   1.32491000  4.23422000 15.64210000
   1.31216000  6.90156000 15.32210000
   2.54581000  4.91436000 15.46370000
   2.57283000  6.27128000 15.29900000
   3.79178000  4.27367000 15.29220000
   3.83562000  6.88801000 14.96790000
   4.99801000  4.90097000 15.14580000
   5.08212000  6.25182000 15.09130000
   6.23206000  4.22835000 15.23810000
   6.37263000  6.87364000 15.15510000
   7.55288000  4.82407000 15.47700000
   7.57943000  6.23108000 15.41890000
   8.70574000  4.18144000 15.87290000
   8.76478000  6.89071000 15.72260000
   9.91965000  4.88099000 16.29550000
   9.94810000  6.25361000 16.14180000
  11.05160000  4.17451000 16.79990000
  11.16650000  6.85846000 16.46460000
  12.25730000  4.84497000 17.17140000
  12.25560000  6.19557000 17.04110000
  13.40850000  4.20291000 17.70480000
  13.48940000  6.87508000 17.40200000
  14.60570000  4.85585000 18.05900000
  14.58810000  6.19613000 17.89250000
  15.83460000  4.23348000 18.41780000
  15.87320000  6.91236000 18.14870000
  17.15210000  4.88748000 18.54220000
  17.11730000  6.24397000 18.46360000
  18.38440000  4.24913000 18.62640000
  18.37850000  6.92173000 18.47040000
  19.66760000  4.89502000 18.68430000
  19.64190000  6.26137000 18.50870000
  20.94540000  4.29351000 18.35090000
  20.85110000  6.94334000 18.20100000
  22.15090000  4.94815000 18.03680000
  22.11420000  6.31299000 17.93120000
  23.39370000  4.31392000 17.63020000
  23.26820000  6.98549000 17.32870000
  24.50020000  4.95142000 17.18880000
  24.41470000  6.31379000 16.96250000
  25.68780000  4.27430000 16.82460000
  25.62360000  6.94492000 16.54830000
  26.83710000  4.88245000 16.35260000
  26.76160000  6.27195000 16.13530000
 


--------------------------------------------------------------------------------------------------------


 k-point     1 :   0.0000 0.0000 0.0000  plane waves:  193173
 k-point     2 :   0.0000 0.2500 0.0000  plane waves:  193166
 k-point     3 :   0.0000 0.5000 0.0000  plane waves:  193226

 maximum and minimum number of plane-waves per node :    193226   193166

 maximum number of plane-waves:    193226
 maximum index in each direction: 
   IXMAX=   51   IYMAX=   14   IZMAX=   61
   IXMIN=  -51   IYMIN=  -15   IZMIN=  -61


 serial   3D FFT for wavefunctions
 parallel 3D FFT for charge:
    minimum data exchange during FFTs selected (reduces bandwidth)


 total amount of memory used by VASP MPI-rank0  2294519. kBytes
=======================================================================

   base                                    :      30000. kBytes
   nonlr-proj                              :      15085. kBytes
   fftplans                                :     436558. kBytes
   grid                                    :     732614. kBytes
   one-center                              :        282. kBytes
   wavefun                                 :    1079980. kBytes
 
     INWAV:  cpu time      0.0000: real time      0.0000
 Broyden mixing: mesh for mixing (old mesh)
   NGX =103   NGY = 29   NGZ =123
  (NGX  =420   NGY  =120   NGZ  =500)
  gives a total of 367401 points

 initial charge density was supplied:
 charge density of overlapping atoms calculated
 number of electron     368.0000000 magnetization 
 keeping initial charge density in first step


--------------------------------------------------------------------------------------------------------


 Maximum index for non-local projection operator          1875
 Maximum index for augmentation-charges          2384 (set IRDMAX)


--------------------------------------------------------------------------------------------------------


 First call to EWALD:  gamma=   0.090
 Maximum number of real-space cells   2x   6x   2
 Maximum number of reciprocal cells   4x   1x   4

    FEWALD:  cpu time      0.1621: real time      0.1621


--------------------------------------- Ionic step        1  -------------------------------------------




--------------------------------------- Iteration      1(   1)  ---------------------------------------


    POTLOK:  cpu time      0.4195: real time      0.4357
    SETDIJ:  cpu time      0.0418: real time      0.0418
     EDDAV:  cpu time     11.1380: real time     11.1424
       DOS:  cpu time      0.0008: real time      0.0008
    --------------------------------------------
      LOOP:  cpu time     11.6001: real time     11.6208

 eigenvalue-minimisations  :  1728
 total energy-change (2. order) : 0.3633324E+04  (-0.1197273E+05)
 number of electron     368.0000000 magnetization 
 augmentation part      368.0000000 magnetization 

 Free energy of the ion-electron system (eV)
  ---------------------------------------------------
  alpha Z        PSCENC =        91.34886789
  Ewald energy   TEWEN  =    119219.19216993
  -Hartree energ DENC   =   -128544.42540975
  -exchange      EXHF   =         0.00000000
  -V(xc)+E(xc)   XCENC  =      1221.54849712
  PAW double counting   =      9984.02826696   -10036.41360137
  entropy T*S    EENTRO =        -0.86196483
  eigenvalues    EBANDS =     -1838.74803499
  atomic energy  EATOM  =     13537.65479391
  Solvation  Ediel_sol  =         0.00000000
  ---------------------------------------------------
  free energy    TOTEN  =      3633.32358487 eV

  energy without entropy =     3634.18554970  energy(sigma->0) =     3633.75456729


--------------------------------------------------------------------------------------------------------




--------------------------------------- Iteration      1(   2)  ---------------------------------------


     EDDAV:  cpu time     13.1318: real time     13.1366
       DOS:  cpu time      0.0007: real time      0.0007
    --------------------------------------------
      LOOP:  cpu time     13.1325: real time     13.1373

 eigenvalue-minimisations  :  2144
 total energy-change (2. order) :-0.3464529E+04  (-0.3208854E+04)
 number of electron     368.0000000 magnetization 
 augmentation part      368.0000000 magnetization 

 Free energy of the ion-electron system (eV)
  ---------------------------------------------------
  alpha Z        PSCENC =        91.34886789
  Ewald energy   TEWEN  =    119219.19216993
  -Hartree energ DENC   =   -128544.42540975
  -exchange      EXHF   =         0.00000000
  -V(xc)+E(xc)   XCENC  =      1221.54849712
  PAW double counting   =      9984.02826696   -10036.41360137
  entropy T*S    EENTRO =        -0.20977176
  eigenvalues    EBANDS =     -5303.92926886
  atomic energy  EATOM  =     13537.65479391
  Solvation  Ediel_sol  =         0.00000000
  ---------------------------------------------------
  free energy    TOTEN  =       168.79454408 eV

  energy without entropy =      169.00431584  energy(sigma->0) =      168.89942996


--------------------------------------------------------------------------------------------------------




--------------------------------------- Iteration      1(   3)  ---------------------------------------


     EDDAV:  cpu time     11.2414: real time     11.2462
       DOS:  cpu time      0.0007: real time      0.0007
    --------------------------------------------
      LOOP:  cpu time     11.2420: real time     11.2469

 eigenvalue-minimisations  :  1784
 total energy-change (2. order) :-0.1003309E+04  (-0.9789387E+03)
 number of electron     368.0000000 magnetization 
 augmentation part      368.0000000 magnetization 

 Free energy of the ion-electron system (eV)
  ---------------------------------------------------
  alpha Z        PSCENC =        91.34886789
  Ewald energy   TEWEN  =    119219.19216993
  -Hartree energ DENC   =   -128544.42540975
  -exchange      EXHF   =         0.00000000
  -V(xc)+E(xc)   XCENC  =      1221.54849712
  PAW double counting   =      9984.02826696   -10036.41360137
  entropy T*S    EENTRO =        -0.04098396
  eigenvalues    EBANDS =     -6307.40736554
  atomic energy  EATOM  =     13537.65479391
  Solvation  Ediel_sol  =         0.00000000
  ---------------------------------------------------
  free energy    TOTEN  =      -834.51476480 eV

  energy without entropy =     -834.47378084  energy(sigma->0) =     -834.49427282


--------------------------------------------------------------------------------------------------------




--------------------------------------- Iteration      1(   4)  ---------------------------------------


     EDDAV:  cpu time     10.9691: real time     10.9759
       DOS:  cpu time      0.0007: real time      0.0007
    --------------------------------------------
      LOOP:  cpu time     10.9698: real time     10.9766

 eigenvalue-minimisations  :  1728
 total energy-change (2. order) :-0.6156275E+02  (-0.6048851E+02)
 number of electron     368.0000000 magnetization 
 augmentation part      368.0000000 magnetization 

 Free energy of the ion-electron system (eV)
  ---------------------------------------------------
  alpha Z        PSCENC =        91.34886789
  Ewald energy   TEWEN  =    119219.19216993
  -Hartree energ DENC   =   -128544.42540975
  -exchange      EXHF   =         0.00000000
  -V(xc)+E(xc)   XCENC  =      1221.54849712
  PAW double counting   =      9984.02826696   -10036.41360137
  entropy T*S    EENTRO =        -0.06183174
  eigenvalues    EBANDS =     -6368.94926410
  atomic energy  EATOM  =     13537.65479391
  Solvation  Ediel_sol  =         0.00000000
  ---------------------------------------------------
  free energy    TOTEN  =      -896.07751115 eV

  energy without entropy =     -896.01567941  energy(sigma->0) =     -896.04659528


--------------------------------------------------------------------------------------------------------




--------------------------------------- Iteration      1(   5)  ---------------------------------------


     EDDAV:  cpu time     11.3283: real time     11.3322
       DOS:  cpu time      0.0007: real time      0.0007
    CHARGE:  cpu time      1.2049: real time      1.2051
    MIXING:  cpu time      0.2756: real time      0.2761
    --------------------------------------------
      LOOP:  cpu time     12.8095: real time     12.8141

 eigenvalue-minimisations  :  1792
 total energy-change (2. order) :-0.1523079E+01  (-0.1500460E+01)
 number of electron     367.9999999 magnetization 
 augmentation part       10.1632622 magnetization 

 Broyden mixing:
  rms(total) = 0.45528E+01    rms(broyden)= 0.45522E+01
  rms(prec ) = 0.46701E+01
  weight for this iteration     100.00

 Free energy of the ion-electron system (eV)
  ---------------------------------------------------
  alpha Z        PSCENC =        91.34886789
  Ewald energy   TEWEN  =    119219.19216993
  -Hartree energ DENC   =   -128544.42540975
  -exchange      EXHF   =         0.00000000
  -V(xc)+E(xc)   XCENC  =      1221.54849712
  PAW double counting   =      9984.02826696   -10036.41360137
  entropy T*S    EENTRO =        -0.06221162
  eigenvalues    EBANDS =     -6370.47196362
  atomic energy  EATOM  =     13537.65479391
  Solvation  Ediel_sol  =         0.00000000
  ---------------------------------------------------
  free energy    TOTEN  =      -897.60059054 eV

  energy without entropy =     -897.53837892  energy(sigma->0) =     -897.56948473


--------------------------------------------------------------------------------------------------------




--------------------------------------- Iteration      1(   6)  ---------------------------------------


    POTLOK:  cpu time      0.3214: real time      0.3212
    SETDIJ:  cpu time      0.0402: real time      0.0402
     EDDAV:  cpu time     10.3298: real time     10.3332
       DOS:  cpu time      0.0007: real time      0.0007
    CHARGE:  cpu time      1.1579: real time      1.1593
    MIXING:  cpu time      0.2788: real time      0.2788
    --------------------------------------------
      LOOP:  cpu time     12.1288: real time     12.1334

 eigenvalue-minimisations  :  1592
 total energy-change (2. order) : 0.4963646E+02  (-0.4753105E+01)
 number of electron     367.9999999 magnetization 
 augmentation part        9.7378720 magnetization 

 Broyden mixing:
  rms(total) = 0.26739E+01    rms(broyden)= 0.26738E+01
  rms(prec ) = 0.27320E+01
  weight for this iteration     100.00

 eigenvalues of (default mixing * dielectric matrix)
  average eigenvalue GAMMA=   2.1836
  2.1836

 Free energy of the ion-electron system (eV)
  ---------------------------------------------------
  alpha Z        PSCENC =        91.34886789
  Ewald energy   TEWEN  =    119219.19216993
  -Hartree energ DENC   =   -129114.74704315
  -exchange      EXHF   =         0.00000000
  -V(xc)+E(xc)   XCENC  =      1244.88556744
  PAW double counting   =     18945.71808753   -19005.72750684
  entropy T*S    EENTRO =        -0.07027915
  eigenvalues    EBANDS =     -5766.21878438
  atomic energy  EATOM  =     13537.65479391
  Solvation  Ediel_sol  =         0.00000000
  ---------------------------------------------------
  free energy    TOTEN  =      -847.96412681 eV

  energy without entropy =     -847.89384766  energy(sigma->0) =     -847.92898724


--------------------------------------------------------------------------------------------------------




--------------------------------------- Iteration      1(   7)  ---------------------------------------


    POTLOK:  cpu time      0.3207: real time      0.3207
    SETDIJ:  cpu time      0.0401: real time      0.0401
     EDDAV:  cpu time     10.1646: real time     10.1680
       DOS:  cpu time      0.0007: real time      0.0007
    CHARGE:  cpu time      1.1566: real time      1.1572
    MIXING:  cpu time      0.2811: real time      0.2810
    --------------------------------------------
      LOOP:  cpu time     11.9638: real time     11.9677

 eigenvalue-minimisations  :  1560
 total energy-change (2. order) : 0.1851811E+02  (-0.6565248E+01)
 number of electron     367.9999999 magnetization 
 augmentation part        9.1839905 magnetization 

 Broyden mixing:
  rms(total) = 0.73174E+00    rms(broyden)= 0.73146E+00
  rms(prec ) = 0.74157E+00
  weight for this iteration     100.00

 eigenvalues of (default mixing * dielectric matrix)
  average eigenvalue GAMMA=   2.2059
  2.2059  2.2059

 Free energy of the ion-electron system (eV)
  ---------------------------------------------------
  alpha Z        PSCENC =        91.34886789
  Ewald energy   TEWEN  =    119219.19216993
  -Hartree energ DENC   =   -129880.58332963
  -exchange      EXHF   =         0.00000000
  -V(xc)+E(xc)   XCENC  =      1276.01090452
  PAW double counting   =     36593.93134129   -36660.85228570
  entropy T*S    EENTRO =        -0.07892220
  eigenvalues    EBANDS =     -5006.06955288
  atomic energy  EATOM  =     13537.65479391
  Solvation  Ediel_sol  =         0.00000000
  ---------------------------------------------------
  free energy    TOTEN  =      -829.44601287 eV

  energy without entropy =     -829.36709066  energy(sigma->0) =     -829.40655177


--------------------------------------------------------------------------------------------------------




--------------------------------------- Iteration      1(   8)  ---------------------------------------


    POTLOK:  cpu time      0.3203: real time      0.3203
    SETDIJ:  cpu time      0.0400: real time      0.0400
     EDDAV:  cpu time     10.3736: real time     10.3772
       DOS:  cpu time      0.0007: real time      0.0007
    CHARGE:  cpu time      1.1569: real time      1.1575
    MIXING:  cpu time      0.2830: real time      0.2828
    --------------------------------------------
      LOOP:  cpu time     12.1745: real time     12.1786

 eigenvalue-minimisations  :  1600
 total energy-change (2. order) : 0.2999268E+00  (-0.2423606E+00)
 number of electron     367.9999999 magnetization 
 augmentation part        9.1688256 magnetization 

 Broyden mixing:
  rms(total) = 0.97243E-01    rms(broyden)= 0.97209E-01
  rms(prec ) = 0.12011E+00
  weight for this iteration     100.00

 eigenvalues of (default mixing * dielectric matrix)
  average eigenvalue GAMMA=   1.8636
  1.2405  2.4388  1.9114

 Free energy of the ion-electron system (eV)
  ---------------------------------------------------
  alpha Z        PSCENC =        91.34886789
  Ewald energy   TEWEN  =    119219.19216993
  -Hartree energ DENC   =   -129976.44003186
  -exchange      EXHF   =         0.00000000
  -V(xc)+E(xc)   XCENC  =      1275.79562275
  PAW double counting   =     40879.72327502   -40943.95511723
  entropy T*S    EENTRO =        -0.07577059
  eigenvalues    EBANDS =     -4912.38989593
  atomic energy  EATOM  =     13537.65479391
  Solvation  Ediel_sol  =         0.00000000
  ---------------------------------------------------
  free energy    TOTEN  =      -829.14608610 eV

  energy without entropy =     -829.07031551  energy(sigma->0) =     -829.10820081


--------------------------------------------------------------------------------------------------------




--------------------------------------- Iteration      1(   9)  ---------------------------------------


    POTLOK:  cpu time      0.3204: real time      0.3204
    SETDIJ:  cpu time      0.0401: real time      0.0401
     EDDAV:  cpu time     10.6174: real time     10.6215
       DOS:  cpu time      0.0007: real time      0.0007
    CHARGE:  cpu time      1.1561: real time      1.1587
    MIXING:  cpu time      0.2843: real time      0.2851
    --------------------------------------------
      LOOP:  cpu time     12.4189: real time     12.4265

 eigenvalue-minimisations  :  1648
 total energy-change (2. order) : 0.1074051E+00  (-0.2692795E-01)
 number of electron     367.9999999 magnetization 
 augmentation part        9.1445701 magnetization 

 Broyden mixing:
  rms(total) = 0.57106E-01    rms(broyden)= 0.57097E-01
  rms(prec ) = 0.78749E-01
  weight for this iteration     100.00

 eigenvalues of (default mixing * dielectric matrix)
  average eigenvalue GAMMA=   1.7142
  2.2184  2.2184  1.1099  1.3101

 Free energy of the ion-electron system (eV)
  ---------------------------------------------------
  alpha Z        PSCENC =        91.34886789
  Ewald energy   TEWEN  =    119219.19216993
  -Hartree energ DENC   =   -130046.20978726
  -exchange      EXHF   =         0.00000000
  -V(xc)+E(xc)   XCENC  =      1277.22991217
  PAW double counting   =     41376.49592373   -41440.82591079
  entropy T*S    EENTRO =        -0.07630108
  eigenvalues    EBANDS =     -4843.84834948
  atomic energy  EATOM  =     13537.65479391
  Solvation  Ediel_sol  =         0.00000000
  ---------------------------------------------------
  free energy    TOTEN  =      -829.03868098 eV

  energy without entropy =     -828.96237991  energy(sigma->0) =     -829.00053045


--------------------------------------------------------------------------------------------------------




--------------------------------------- Iteration      1(  10)  ---------------------------------------


    POTLOK:  cpu time      0.3204: real time      0.3205
    SETDIJ:  cpu time      0.0400: real time      0.0400
     EDDAV:  cpu time     10.9239: real time     10.9277
       DOS:  cpu time      0.0008: real time      0.0008
    CHARGE:  cpu time      1.1529: real time      1.1550
    MIXING:  cpu time      0.2935: real time      0.2954
    --------------------------------------------
      LOOP:  cpu time     12.7315: real time     12.7394

 eigenvalue-minimisations  :  1712
 total energy-change (2. order) : 0.4138056E-01  (-0.5087625E-02)
 number of electron     367.9999999 magnetization 
 augmentation part        9.1351435 magnetization 

 Broyden mixing:
  rms(total) = 0.35695E-01    rms(broyden)= 0.35692E-01
  rms(prec ) = 0.54948E-01
  weight for this iteration     100.00

 eigenvalues of (default mixing * dielectric matrix)
  average eigenvalue GAMMA=   1.7383
  2.5050  2.5050  1.6251  1.2581  0.7982

 Free energy of the ion-electron system (eV)
  ---------------------------------------------------
  alpha Z        PSCENC =        91.34886789
  Ewald energy   TEWEN  =    119219.19216993
  -Hartree energ DENC   =   -130099.42753231
  -exchange      EXHF   =         0.00000000
  -V(xc)+E(xc)   XCENC  =      1277.57108247
  PAW double counting   =     41128.27339305   -41192.45032587
  entropy T*S    EENTRO =        -0.07637510
  eigenvalues    EBANDS =     -4791.08337441
  atomic energy  EATOM  =     13537.65479391
  Solvation  Ediel_sol  =         0.00000000
  ---------------------------------------------------
  free energy    TOTEN  =      -828.99730043 eV

  energy without entropy =     -828.92092533  energy(sigma->0) =     -828.95911288


--------------------------------------------------------------------------------------------------------




--------------------------------------- Iteration      1(  11)  ---------------------------------------


    POTLOK:  cpu time      0.3206: real time      0.3207
    SETDIJ:  cpu time      0.0400: real time      0.0399
     EDDAV:  cpu time     10.1208: real time     10.1243
       DOS:  cpu time      0.0007: real time      0.0007
    CHARGE:  cpu time      1.1631: real time      1.1664
    MIXING:  cpu time      0.2980: real time      0.2991
    --------------------------------------------
      LOOP:  cpu time     11.9431: real time     11.9510

 eigenvalue-minimisations  :  1552
 total energy-change (2. order) : 0.2825770E-01  (-0.2074925E-02)
 number of electron     367.9999999 magnetization 
 augmentation part        9.1302342 magnetization 

 Broyden mixing:
  rms(total) = 0.24496E-01    rms(broyden)= 0.24494E-01
  rms(prec ) = 0.37891E-01
  weight for this iteration     100.00

 eigenvalues of (default mixing * dielectric matrix)
  average eigenvalue GAMMA=   1.8007
  3.1100  2.4867  1.9354  0.9189  1.1766  1.1766

 Free energy of the ion-electron system (eV)
  ---------------------------------------------------
  alpha Z        PSCENC =        91.34886789
  Ewald energy   TEWEN  =    119219.19216993
  -Hartree energ DENC   =   -130162.44259099
  -exchange      EXHF   =         0.00000000
  -V(xc)+E(xc)   XCENC  =      1278.13192773
  PAW double counting   =     41068.61343790   -41132.69094986
  entropy T*S    EENTRO =        -0.07641760
  eigenvalues    EBANDS =     -4728.70028164
  atomic energy  EATOM  =     13537.65479391
  Solvation  Ediel_sol  =         0.00000000
  ---------------------------------------------------
  free energy    TOTEN  =      -828.96904272 eV

  energy without entropy =     -828.89262513  energy(sigma->0) =     -828.93083392


--------------------------------------------------------------------------------------------------------




--------------------------------------- Iteration      1(  12)  ---------------------------------------


    POTLOK:  cpu time      0.3207: real time      0.3205
    SETDIJ:  cpu time      0.0400: real time      0.0400
     EDDAV:  cpu time     10.0264: real time     10.0299
       DOS:  cpu time      0.0007: real time      0.0007
    CHARGE:  cpu time      1.1534: real time      1.1553
    MIXING:  cpu time      0.3082: real time      0.3082
    --------------------------------------------
      LOOP:  cpu time     11.8494: real time     11.8547

 eigenvalue-minimisations  :  1536
 total energy-change (2. order) : 0.3998641E-02  (-0.2404078E-02)
 number of electron     367.9999999 magnetization 
 augmentation part        9.1228489 magnetization 

 Broyden mixing:
  rms(total) = 0.14857E-01    rms(broyden)= 0.14853E-01
  rms(prec ) = 0.22794E-01
  weight for this iteration     100.00

 eigenvalues of (default mixing * dielectric matrix)
  average eigenvalue GAMMA=   2.0929
  5.0116  2.3627  2.2228  1.9087  0.9825  1.0810  1.0810

 Free energy of the ion-electron system (eV)
  ---------------------------------------------------
  alpha Z        PSCENC =        91.34886789
  Ewald energy   TEWEN  =    119219.19216993
  -Hartree energ DENC   =   -130227.32985149
  -exchange      EXHF   =         0.00000000
  -V(xc)+E(xc)   XCENC  =      1278.76044924
  PAW double counting   =     41131.76449598   -41195.83457617
  entropy T*S    EENTRO =        -0.07653200
  eigenvalues    EBANDS =     -4664.44486137
  atomic energy  EATOM  =     13537.65479391
  Solvation  Ediel_sol  =         0.00000000
  ---------------------------------------------------
  free energy    TOTEN  =      -828.96504408 eV

  energy without entropy =     -828.88851209  energy(sigma->0) =     -828.92677808


--------------------------------------------------------------------------------------------------------




--------------------------------------- Iteration      1(  13)  ---------------------------------------


    POTLOK:  cpu time      0.3211: real time      0.3212
    SETDIJ:  cpu time      0.0401: real time      0.0401
     EDDAV:  cpu time     10.1860: real time     10.1896
       DOS:  cpu time      0.0008: real time      0.0008
    CHARGE:  cpu time      1.1549: real time      1.1561
    MIXING:  cpu time      0.3149: real time      0.3149
    --------------------------------------------
      LOOP:  cpu time     12.0178: real time     12.0225

 eigenvalue-minimisations  :  1568
 total energy-change (2. order) :-0.1191455E-01  (-0.8862289E-03)
 number of electron     367.9999999 magnetization 
 augmentation part        9.1201607 magnetization 

 Broyden mixing:
  rms(total) = 0.85712E-02    rms(broyden)= 0.85691E-02
  rms(prec ) = 0.11916E-01
  weight for this iteration     100.00

 eigenvalues of (default mixing * dielectric matrix)
  average eigenvalue GAMMA=   2.0953
  5.4702  2.4733  2.4733  1.9160  1.2401  1.2401  1.0621  0.8869

 Free energy of the ion-electron system (eV)
  ---------------------------------------------------
  alpha Z        PSCENC =        91.34886789
  Ewald energy   TEWEN  =    119219.19216993
  -Hartree energ DENC   =   -130278.84252220
  -exchange      EXHF   =         0.00000000
  -V(xc)+E(xc)   XCENC  =      1278.96211689
  PAW double counting   =     41080.19670263   -41144.26601170
  entropy T*S    EENTRO =        -0.07647431
  eigenvalues    EBANDS =     -4613.14660167
  atomic energy  EATOM  =     13537.65479391
  Solvation  Ediel_sol  =         0.00000000
  ---------------------------------------------------
  free energy    TOTEN  =      -828.97695864 eV

  energy without entropy =     -828.90048433  energy(sigma->0) =     -828.93872148


--------------------------------------------------------------------------------------------------------




--------------------------------------- Iteration      1(  14)  ---------------------------------------


    POTLOK:  cpu time      0.3209: real time      0.3210
    SETDIJ:  cpu time      0.0400: real time      0.0400
     EDDAV:  cpu time     10.1998: real time     10.2037
       DOS:  cpu time      0.0007: real time      0.0007
    CHARGE:  cpu time      1.1568: real time      1.1566
    MIXING:  cpu time      0.3234: real time      0.3234
    --------------------------------------------
      LOOP:  cpu time     12.0416: real time     12.0454

 eigenvalue-minimisations  :  1568
 total energy-change (2. order) :-0.1943984E-01  (-0.1277107E-03)
 number of electron     367.9999999 magnetization 
 augmentation part        9.1194355 magnetization 

 Broyden mixing:
  rms(total) = 0.52818E-02    rms(broyden)= 0.52814E-02
  rms(prec ) = 0.74920E-02
  weight for this iteration     100.00

 eigenvalues of (default mixing * dielectric matrix)
  average eigenvalue GAMMA=   2.2513
  6.6000  3.0665  2.5501  1.8679  1.8679  1.2120  1.2120  0.9427  0.9427

 Free energy of the ion-electron system (eV)
  ---------------------------------------------------
  alpha Z        PSCENC =        91.34886789
  Ewald energy   TEWEN  =    119219.19216993
  -Hartree energ DENC   =   -130292.27504560
  -exchange      EXHF   =         0.00000000
  -V(xc)+E(xc)   XCENC  =      1278.96268528
  PAW double counting   =     41088.28043786   -41152.35616707
  entropy T*S    EENTRO =        -0.07647232
  eigenvalues    EBANDS =     -4599.72766837
  atomic energy  EATOM  =     13537.65479391
  Solvation  Ediel_sol  =         0.00000000
  ---------------------------------------------------
  free energy    TOTEN  =      -828.99639848 eV

  energy without entropy =     -828.91992616  energy(sigma->0) =     -828.95816232


--------------------------------------------------------------------------------------------------------




--------------------------------------- Iteration      1(  15)  ---------------------------------------


    POTLOK:  cpu time      0.3209: real time      0.3210
    SETDIJ:  cpu time      0.0399: real time      0.0399
     EDDAV:  cpu time     10.2320: real time     10.2354
       DOS:  cpu time      0.0007: real time      0.0007
    CHARGE:  cpu time      1.1552: real time      1.1570
    MIXING:  cpu time      0.3303: real time      0.3318
    --------------------------------------------
      LOOP:  cpu time     12.0791: real time     12.0858

 eigenvalue-minimisations  :  1576
 total energy-change (2. order) :-0.2078808E-01  (-0.1906571E-03)
 number of electron     367.9999999 magnetization 
 augmentation part        9.1190777 magnetization 

 Broyden mixing:
  rms(total) = 0.30483E-02    rms(broyden)= 0.30480E-02
  rms(prec ) = 0.40251E-02
  weight for this iteration     100.00

 eigenvalues of (default mixing * dielectric matrix)
  average eigenvalue GAMMA=   2.2493
  7.0744  3.5415  2.2689  2.2689  1.7063  1.3056  1.3056  1.1300  0.9460  0.9460

 Free energy of the ion-electron system (eV)
  ---------------------------------------------------
  alpha Z        PSCENC =        91.34886789
  Ewald energy   TEWEN  =    119219.19216993
  -Hartree energ DENC   =   -130303.14438665
  -exchange      EXHF   =         0.00000000
  -V(xc)+E(xc)   XCENC  =      1278.94102173
  PAW double counting   =     41090.28085920   -41154.35849204
  entropy T*S    EENTRO =        -0.07651720
  eigenvalues    EBANDS =     -4588.85550333
  atomic energy  EATOM  =     13537.65479391
  Solvation  Ediel_sol  =         0.00000000
  ---------------------------------------------------
  free energy    TOTEN  =      -829.01718656 eV

  energy without entropy =     -828.94066937  energy(sigma->0) =     -828.97892796


--------------------------------------------------------------------------------------------------------




--------------------------------------- Iteration      1(  16)  ---------------------------------------


    POTLOK:  cpu time      0.3210: real time      0.3210
    SETDIJ:  cpu time      0.0405: real time      0.0405
     EDDAV:  cpu time     10.6175: real time     10.6213
       DOS:  cpu time      0.0007: real time      0.0007
    CHARGE:  cpu time      1.1618: real time      1.1631
    MIXING:  cpu time      0.3396: real time      0.3396
    --------------------------------------------
      LOOP:  cpu time     12.4811: real time     12.4863

 eigenvalue-minimisations  :  1656
 total energy-change (2. order) :-0.7148608E-02  (-0.3606209E-04)
 number of electron     367.9999999 magnetization 
 augmentation part        9.1190133 magnetization 

 Broyden mixing:
  rms(total) = 0.20587E-02    rms(broyden)= 0.20587E-02
  rms(prec ) = 0.26258E-02
  weight for this iteration     100.00

 eigenvalues of (default mixing * dielectric matrix)
  average eigenvalue GAMMA=   2.3471
  7.9718  4.0351  2.4019  2.4019  1.8573  1.5388  1.5388  0.9566  0.9566  1.0797
  1.0797

 Free energy of the ion-electron system (eV)
  ---------------------------------------------------
  alpha Z        PSCENC =        91.34886789
  Ewald energy   TEWEN  =    119219.19216993
  -Hartree energ DENC   =   -130306.04798339
  -exchange      EXHF   =         0.00000000
  -V(xc)+E(xc)   XCENC  =      1278.92478332
  PAW double counting   =     41084.87266850   -41148.94744351
  entropy T*S    EENTRO =        -0.07650134
  eigenvalues    EBANDS =     -4585.94569048
  atomic energy  EATOM  =     13537.65479391
  Solvation  Ediel_sol  =         0.00000000
  ---------------------------------------------------
  free energy    TOTEN  =      -829.02433517 eV

  energy without entropy =     -828.94783383  energy(sigma->0) =     -828.98608450


--------------------------------------------------------------------------------------------------------




--------------------------------------- Iteration      1(  17)  ---------------------------------------


    POTLOK:  cpu time      0.3210: real time      0.3211
    SETDIJ:  cpu time      0.0402: real time      0.0402
     EDDAV:  cpu time     10.0799: real time     10.0857
       DOS:  cpu time      0.0007: real time      0.0007
    CHARGE:  cpu time      1.1501: real time      1.1514
    MIXING:  cpu time      0.3513: real time      0.3513
    --------------------------------------------
      LOOP:  cpu time     11.9433: real time     11.9505

 eigenvalue-minimisations  :  1552
 total energy-change (2. order) :-0.4924526E-02  (-0.2922513E-04)
 number of electron     367.9999999 magnetization 
 augmentation part        9.1189408 magnetization 

 Broyden mixing:
  rms(total) = 0.10658E-02    rms(broyden)= 0.10656E-02
  rms(prec ) = 0.13842E-02
  weight for this iteration     100.00

 eigenvalues of (default mixing * dielectric matrix)
  average eigenvalue GAMMA=   2.4025
  8.3985  4.7563  2.5215  2.5215  2.0769  1.3894  1.3894  1.5248  1.2719  0.9629
  0.9629  1.0542

 Free energy of the ion-electron system (eV)
  ---------------------------------------------------
  alpha Z        PSCENC =        91.34886789
  Ewald energy   TEWEN  =    119219.19216993
  -Hartree energ DENC   =   -130308.29125312
  -exchange      EXHF   =         0.00000000
  -V(xc)+E(xc)   XCENC  =      1278.92377991
  PAW double counting   =     41087.67802436   -41151.75050284
  entropy T*S    EENTRO =        -0.07650449
  eigenvalues    EBANDS =     -4583.70863524
  atomic energy  EATOM  =     13537.65479391
  Solvation  Ediel_sol  =         0.00000000
  ---------------------------------------------------
  free energy    TOTEN  =      -829.02925970 eV

  energy without entropy =     -828.95275521  energy(sigma->0) =     -828.99100745


--------------------------------------------------------------------------------------------------------




--------------------------------------- Iteration      1(  18)  ---------------------------------------


    POTLOK:  cpu time      0.3202: real time      0.3208
    SETDIJ:  cpu time      0.0400: real time      0.0400
     EDDAV:  cpu time     10.4038: real time     10.4101
       DOS:  cpu time      0.0008: real time      0.0008
    CHARGE:  cpu time      1.1543: real time      1.1545
    MIXING:  cpu time      0.3624: real time      0.3625
    --------------------------------------------
      LOOP:  cpu time     12.2815: real time     12.2886

 eigenvalue-minimisations  :  1616
 total energy-change (2. order) :-0.2219697E-02  (-0.1043726E-04)
 number of electron     367.9999999 magnetization 
 augmentation part        9.1188404 magnetization 

 Broyden mixing:
  rms(total) = 0.58532E-03    rms(broyden)= 0.58525E-03
  rms(prec ) = 0.75133E-03
  weight for this iteration     100.00

 eigenvalues of (default mixing * dielectric matrix)
  average eigenvalue GAMMA=   2.4207
  8.8675  5.0818  2.8815  2.5743  1.9189  1.9189  1.5309  1.5309  1.1501  1.1501
  0.9375  0.9375  0.9893

 Free energy of the ion-electron system (eV)
  ---------------------------------------------------
  alpha Z        PSCENC =        91.34886789
  Ewald energy   TEWEN  =    119219.19216993
  -Hartree energ DENC   =   -130309.20945983
  -exchange      EXHF   =         0.00000000
  -V(xc)+E(xc)   XCENC  =      1278.92525612
  PAW double counting   =     41087.18001717   -41151.25271027
  entropy T*S    EENTRO =        -0.07650722
  eigenvalues    EBANDS =     -4582.79390709
  atomic energy  EATOM  =     13537.65479391
  Solvation  Ediel_sol  =         0.00000000
  ---------------------------------------------------
  free energy    TOTEN  =      -829.03147939 eV

  energy without entropy =     -828.95497217  energy(sigma->0) =     -828.99322578


--------------------------------------------------------------------------------------------------------




--------------------------------------- Iteration      1(  19)  ---------------------------------------


    POTLOK:  cpu time      0.3209: real time      0.3210
    SETDIJ:  cpu time      0.0401: real time      0.0401
     EDDAV:  cpu time      9.0958: real time      9.0990
       DOS:  cpu time      0.0007: real time      0.0007
    CHARGE:  cpu time      1.1557: real time      1.1559
    MIXING:  cpu time      0.3719: real time      0.3721
    --------------------------------------------
      LOOP:  cpu time     10.9851: real time     10.9888

 eigenvalue-minimisations  :  1352
 total energy-change (2. order) :-0.8804161E-03  (-0.2595609E-05)
 number of electron     367.9999999 magnetization 
 augmentation part        9.1188708 magnetization 

 Broyden mixing:
  rms(total) = 0.38786E-03    rms(broyden)= 0.38784E-03
  rms(prec ) = 0.46646E-03
  weight for this iteration     100.00

 eigenvalues of (default mixing * dielectric matrix)
  average eigenvalue GAMMA=   2.4233
  8.9618  5.5445  3.1638  2.4156  2.4156  1.8731  1.4094  1.4094  1.3890  1.3890
  0.9446  0.9752  0.9752  1.0596

 Free energy of the ion-electron system (eV)
  ---------------------------------------------------
  alpha Z        PSCENC =        91.34886789
  Ewald energy   TEWEN  =    119219.19216993
  -Hartree energ DENC   =   -130309.48400882
  -exchange      EXHF   =         0.00000000
  -V(xc)+E(xc)   XCENC  =      1278.92234764
  PAW double counting   =     41086.12984317   -41150.20108446
  entropy T*S    EENTRO =        -0.07650247
  eigenvalues    EBANDS =     -4582.51878661
  atomic energy  EATOM  =     13537.65479391
  Solvation  Ediel_sol  =         0.00000000
  ---------------------------------------------------
  free energy    TOTEN  =      -829.03235981 eV

  energy without entropy =     -828.95585734  energy(sigma->0) =     -828.99410858


--------------------------------------------------------------------------------------------------------




--------------------------------------- Iteration      1(  20)  ---------------------------------------


    POTLOK:  cpu time      0.3211: real time      0.3208
    SETDIJ:  cpu time      0.0400: real time      0.0400
     EDDAV:  cpu time      9.1092: real time      9.1156
       DOS:  cpu time      0.0007: real time      0.0007
    CHARGE:  cpu time      1.1600: real time      1.1604
    MIXING:  cpu time      0.3826: real time      0.3848
    --------------------------------------------
      LOOP:  cpu time     11.0136: real time     11.0224

 eigenvalue-minimisations  :  1352
 total energy-change (2. order) :-0.3541175E-03  (-0.5291454E-06)
 number of electron     367.9999999 magnetization 
 augmentation part        9.1188469 magnetization 

 Broyden mixing:
  rms(total) = 0.21625E-03    rms(broyden)= 0.21623E-03
  rms(prec ) = 0.26305E-03
  weight for this iteration     100.00

 eigenvalues of (default mixing * dielectric matrix)
  average eigenvalue GAMMA=   2.4638
  9.1972  5.9193  3.7328  2.6250  2.4155  1.9770  1.5929  1.5929  1.5228  1.2933
  0.9602  0.9602  1.0443  1.0618  1.0618

 Free energy of the ion-electron system (eV)
  ---------------------------------------------------
  alpha Z        PSCENC =        91.34886789
  Ewald energy   TEWEN  =    119219.19216993
  -Hartree energ DENC   =   -130309.64933031
  -exchange      EXHF   =         0.00000000
  -V(xc)+E(xc)   XCENC  =      1278.92268823
  PAW double counting   =     41086.93775045   -41151.00953162
  entropy T*S    EENTRO =        -0.07650436
  eigenvalues    EBANDS =     -4582.35361806
  atomic energy  EATOM  =     13537.65479391
  Solvation  Ediel_sol  =         0.00000000
  ---------------------------------------------------
  free energy    TOTEN  =      -829.03271393 eV

  energy without entropy =     -828.95620957  energy(sigma->0) =     -828.99446175


--------------------------------------------------------------------------------------------------------




--------------------------------------- Iteration      1(  21)  ---------------------------------------


    POTLOK:  cpu time      0.3213: real time      0.3212
    SETDIJ:  cpu time      0.0402: real time      0.0402
     EDDAV:  cpu time      8.5945: real time      8.5975
       DOS:  cpu time      0.0008: real time      0.0008
    CHARGE:  cpu time      1.1625: real time      1.1635
    MIXING:  cpu time      0.3989: real time      0.3989
    --------------------------------------------
      LOOP:  cpu time     10.5182: real time     10.5220

 eigenvalue-minimisations  :  1248
 total energy-change (2. order) :-0.1949150E-03  (-0.2436377E-06)
 number of electron     367.9999999 magnetization 
 augmentation part        9.1188554 magnetization 

 Broyden mixing:
  rms(total) = 0.10178E-03    rms(broyden)= 0.10177E-03
  rms(prec ) = 0.12674E-03
  weight for this iteration     100.00

 eigenvalues of (default mixing * dielectric matrix)
  average eigenvalue GAMMA=   2.4297
  9.1969  6.2076  3.8604  2.5808  2.5808  2.0490  1.8058  1.5111  1.5111  1.2664
  1.2664  1.0925  1.0321  1.0321  0.9411  0.9411

 Free energy of the ion-electron system (eV)
  ---------------------------------------------------
  alpha Z        PSCENC =        91.34886789
  Ewald energy   TEWEN  =    119219.19216993
  -Hartree energ DENC   =   -130309.72392271
  -exchange      EXHF   =         0.00000000
  -V(xc)+E(xc)   XCENC  =      1278.92145345
  PAW double counting   =     41085.92427641   -41149.99625134
  entropy T*S    EENTRO =        -0.07650553
  eigenvalues    EBANDS =     -4582.27779085
  atomic energy  EATOM  =     13537.65479391
  Solvation  Ediel_sol  =         0.00000000
  ---------------------------------------------------
  free energy    TOTEN  =      -829.03290884 eV

  energy without entropy =     -828.95640331  energy(sigma->0) =     -828.99465608


[...]
   -.218E+02 -.171E+02 0.715E+02   0.227E+02 0.172E+02 -.715E+02   0.313E+00 -.379E-01 0.105E+01   -.182E-04 0.415E-06 -.772E-05
   -.202E+02 -.847E+01 0.351E+02   0.218E+02 0.773E+01 -.346E+02   0.733E+00 -.567E+00 0.535E-01   -.610E-05 -.151E-05 -.225E-05
   0.118E+02 0.144E+02 0.175E+01   -.128E+02 -.147E+02 -.208E+01   -.491E+00 0.100E+01 -.260E+00   -.821E-05 -.458E-05 -.397E-05
   0.678E+01 0.121E+02 0.686E+01   -.788E+01 -.117E+02 -.741E+01   -.761E+00 0.219E+00 -.149E+00   0.792E-05 -.520E-05 0.281E-05
   -.245E+01 -.337E+01 -.420E+01   0.286E+01 0.251E+01 0.399E+01   -.831E+00 -.870E+00 0.547E+00   0.442E-05 -.289E-05 0.788E-06
   0.124E+02 -.224E+01 -.416E+02   -.130E+02 0.143E+01 0.416E+02   0.632E-01 -.643E+00 -.868E+00   0.730E-05 -.128E-05 0.266E-05
   0.170E+02 0.216E+02 -.856E+02   -.168E+02 -.237E+02 0.856E+02   -.631E-01 -.159E+01 0.180E+00   0.201E-05 -.485E-05 0.620E-06
   -.518E+01 0.418E+01 -.722E+02   0.690E+01 -.328E+01 0.723E+02   0.248E+00 0.902E+00 0.879E+00   0.117E-05 -.876E-05 -.831E-06
   0.977E+01 -.300E+01 -.132E+03   -.894E+01 0.274E+01 0.132E+03   0.131E+01 0.285E+00 -.101E+01   0.148E-05 -.763E-05 0.249E-06
   0.648E+01 -.237E+02 -.999E+02   -.638E+01 0.259E+02 0.100E+03   -.324E+00 0.974E+00 -.950E+00   0.514E-05 0.205E-05 -.709E-06
   0.139E+02 0.210E+02 -.113E+03   -.144E+02 -.218E+02 0.113E+03   0.136E+00 -.757E+00 0.102E+01   0.902E-05 -.503E-05 -.101E-05
   0.154E+02 0.961E+01 -.764E+02   -.165E+02 -.975E+01 0.761E+02   -.518E+00 -.409E+00 0.419E+00   0.119E-04 -.502E-05 -.462E-06
   0.416E+01 -.164E+02 -.928E+02   -.390E+01 0.172E+02 0.928E+02   0.131E+00 -.232E+00 -.727E-01   0.205E-04 -.321E-06 -.113E-06
   0.573E+00 0.122E+01 -.953E+02   -.668E+00 -.252E+01 0.954E+02   0.266E+00 -.649E+00 0.309E+00   0.804E-05 -.115E-06 -.920E-06
   0.101E+02 0.142E+02 -.111E+03   -.116E+02 -.148E+02 0.111E+03   -.981E+00 -.647E+00 0.792E+00   0.107E-04 0.119E-04 0.159E-05
   -.156E+02 0.277E+01 -.960E+02   0.163E+02 -.180E+01 0.959E+02   0.483E+00 0.599E+00 -.420E+00   -.537E-05 0.108E-05 0.264E-06
   -.225E+02 -.225E+01 -.130E+03   0.235E+02 0.121E+01 0.130E+03   0.372E+00 -.664E+00 -.110E+01   -.939E-05 0.159E-05 -.201E-06
   -.161E+02 -.138E+02 -.476E+02   0.167E+02 0.141E+02 0.472E+02   0.447E+00 0.349E+00 -.480E-01   -.982E-05 -.711E-05 0.347E-05
   -.168E+02 0.119E+02 -.104E+03   0.172E+02 -.112E+02 0.104E+03   0.331E+00 0.378E+00 0.255E+00   -.937E-05 0.359E-05 0.237E-05
   0.203E+02 0.552E+01 0.284E+02   -.215E+02 -.497E+01 -.287E+02   0.212E+00 0.563E+00 0.199E+01   0.657E-06 -.466E-05 0.412E-06
   -.793E+01 -.746E+01 -.452E+02   0.768E+01 0.696E+01 0.451E+02   -.167E+00 -.344E+00 0.918E-01   0.309E-06 0.517E-05 0.107E-05
   -.671E+01 -.118E+02 -.145E+02   0.695E+01 0.123E+02 0.147E+02   0.272E-01 -.523E+00 -.106E+01   -.111E-05 -.420E-05 0.152E-05
   -.128E+02 0.148E+02 -.842E+02   0.124E+02 -.148E+02 0.847E+02   0.315E-02 -.289E+00 -.900E+00   0.120E-05 0.757E-05 0.137E-05
   -.108E+02 0.144E+02 -.174E+02   0.109E+02 -.140E+02 0.174E+02   -.111E+00 -.163E+00 -.759E+00   -.989E-05 0.253E-05 0.384E-05
   -.416E+01 -.944E+01 -.139E+02   0.370E+01 0.882E+01 0.138E+02   0.458E+00 -.103E+01 0.125E+00   -.333E-05 0.512E-05 0.182E-05
   -.588E+01 0.135E+01 0.424E+02   0.625E+01 -.212E+01 -.433E+02   0.735E+00 -.747E+00 0.805E+00   -.243E-05 0.562E-05 0.836E-06
   -.987E+01 -.555E+00 0.330E+02   0.963E+01 0.189E+01 -.329E+02   0.823E+00 0.716E+00 0.140E+01   -.685E-05 0.106E-05 0.242E-05
   0.108E+02 0.700E+02 0.384E+02   -.164E+02 -.720E+02 -.366E+02   -.711E-01 0.714E+00 -.464E+00   0.686E-05 0.443E-05 -.247E-05
   -.941E+01 -.693E+02 0.233E+02   0.740E+01 0.710E+02 -.223E+02   0.943E+00 -.193E+01 -.944E+00   -.286E-06 -.217E-05 -.391E-06
   0.340E+01 0.597E+02 0.873E+00   0.389E+00 -.605E+02 -.137E+01   -.823E+00 0.148E+01 -.878E+00   0.686E-05 -.265E-05 -.209E-05
   0.259E+02 -.638E+02 0.712E+02   -.231E+02 0.646E+02 -.713E+02   -.132E+01 -.198E+01 -.446E+00   0.408E-05 -.524E-05 -.991E-06
   0.276E+02 0.756E+00 0.676E+02   -.279E+02 -.623E+00 -.680E+02   0.567E+00 -.350E-01 0.188E+01   0.217E-05 -.653E-05 0.271E-06
   0.429E+02 0.134E+02 0.161E+03   -.432E+02 -.143E+02 -.162E+03   -.226E+00 -.102E+00 0.188E+01   0.106E-05 0.385E-05 -.746E-06
   0.128E+02 0.128E+02 0.440E+02   -.127E+02 -.126E+02 -.438E+02   0.716E+00 -.265E-01 -.806E+00   -.325E-05 -.876E-05 0.135E-05
   0.839E+01 -.183E+02 0.904E+02   -.772E+01 0.186E+02 -.900E+02   -.312E+00 -.757E+00 -.160E+01   -.403E-05 -.180E-05 0.162E-05
   0.124E+02 0.246E+01 0.785E+02   -.138E+02 -.370E+01 -.781E+02   -.429E+00 -.146E+01 -.197E+00   0.212E-05 -.668E-05 0.112E-05
   0.174E+02 0.123E+02 0.197E+03   -.177E+02 -.121E+02 -.198E+03   -.518E+00 0.655E+00 0.245E+01   0.175E-05 0.556E-05 0.168E-05
   -.510E+01 0.144E+02 0.133E+03   0.580E+01 -.144E+02 -.133E+03   0.134E+01 -.516E+00 0.822E+00   -.617E-06 -.532E-05 0.274E-05
   -.883E+01 -.182E+02 0.131E+03   0.921E+01 0.192E+02 -.130E+03   -.568E+00 -.458E+00 -.113E+01   0.399E-05 -.386E-05 0.262E-05
   -.152E+02 -.111E+02 0.126E+03   0.162E+02 0.106E+02 -.126E+03   0.174E+01 -.821E+00 0.762E+00   -.106E-05 -.230E-05 0.172E-05
   -.488E+01 0.172E+02 0.139E+03   0.430E+01 -.179E+02 -.139E+03   -.119E+01 0.265E+00 -.496E+00   0.275E-05 -.241E-05 0.226E-05
   -.201E+01 0.118E+02 0.105E+03   0.488E+00 -.110E+02 -.106E+03   -.993E+00 0.136E+01 0.272E+00   0.391E-05 -.402E-05 0.213E-05
   -.140E+02 0.260E+01 0.114E+03   0.144E+02 -.431E+01 -.114E+03   -.440E+00 -.377E+00 0.156E+00   0.909E-06 0.140E-06 0.114E-05
   -.119E+02 -.113E+02 0.316E+02   0.133E+02 0.117E+02 -.306E+02   0.540E+00 0.228E+00 -.945E+00   -.628E-05 -.878E-05 -.342E-05
   -.179E+02 0.130E+02 0.830E+02   0.180E+02 -.128E+02 -.830E+02   0.406E+00 -.726E-01 -.591E+00   -.255E-05 -.107E-06 -.116E-05
   0.695E+01 0.136E+02 0.544E+01   -.745E+01 -.140E+02 -.573E+01   -.711E+00 -.807E+00 0.582E-01   -.157E-04 0.275E-05 -.667E-05
   -.917E+01 -.674E+01 0.578E+02   0.909E+01 0.641E+01 -.577E+02   0.208E+00 -.131E+01 0.412E-01   -.833E-05 0.242E-05 -.386E-05
   0.271E+02 -.112E+02 -.601E+02   -.274E+02 0.116E+02 0.606E+02   0.659E+00 0.719E+00 -.121E+01   -.768E-05 0.346E-05 -.140E-05
   -.274E+02 0.446E+01 0.764E+02   0.278E+02 -.338E+01 -.771E+02   -.974E+00 0.883E+00 0.144E+01   -.676E-05 -.355E-05 -.399E-05
   0.134E+02 0.114E+02 -.479E+02   -.136E+02 -.121E+02 0.475E+02   -.647E+00 0.347E+00 0.109E+01   0.132E-05 0.360E-05 0.196E-06
   0.169E+01 -.180E+02 -.229E+02   -.943E+00 0.189E+02 0.238E+02   0.111E+01 0.403E+00 -.114E+01   0.197E-05 0.740E-05 0.166E-08
   0.313E+02 -.228E+02 -.131E+03   -.317E+02 0.250E+02 0.132E+03   0.126E+00 0.286E+00 -.118E+01   0.307E-05 0.225E-05 0.215E-05
   0.672E+01 0.750E+01 -.110E+02   -.789E+01 -.770E+01 0.988E+01   -.840E+00 -.161E+00 0.110E+01   0.325E-05 0.609E-05 0.813E-06
   0.166E+02 0.111E+02 -.149E+03   -.161E+02 -.118E+02 0.149E+03   -.236E+00 0.619E+00 0.349E+00   0.126E-05 0.416E-05 0.386E-06
   0.632E+00 -.174E+02 -.980E+02   0.692E+00 0.186E+02 0.988E+02   0.170E+01 0.111E+01 -.308E+00   0.115E-05 0.699E-05 -.790E-06
   0.158E+02 -.190E+02 -.206E+03   -.150E+02 0.195E+02 0.207E+03   0.229E+00 -.280E+00 -.195E+01   0.132E-04 0.565E-05 0.237E-05
   0.138E+02 0.267E+02 -.100E+03   -.145E+02 -.293E+02 0.997E+02   0.173E+00 -.697E+00 0.849E+00   0.816E-05 0.283E-05 0.445E-06
   0.213E+02 0.159E+02 -.175E+03   -.227E+02 -.162E+02 0.175E+03   -.124E+01 0.145E+00 0.709E+00   0.261E-04 -.572E-06 0.534E-06
   0.156E+02 -.191E+02 -.161E+03   -.158E+02 0.200E+02 0.161E+03   0.350E+00 0.453E+00 -.659E+00   0.135E-04 -.354E-05 0.846E-07
   -.515E+01 -.126E+02 -.201E+03   0.597E+01 0.131E+02 0.202E+03   0.487E+00 -.324E-01 -.341E+00   0.762E-05 -.370E-05 -.312E-05
   -.547E+00 0.575E+01 -.152E+03   0.344E+00 -.558E+01 0.152E+03   -.205E+00 0.378E+00 -.199E+00   0.104E-04 -.105E-05 -.208E-05
   -.248E+02 0.170E+02 -.251E+03   0.252E+02 -.173E+02 0.252E+03   0.506E-01 0.828E+00 -.201E+01   -.928E-05 0.359E-05 -.363E-05
   -.153E+02 -.150E+02 -.175E+03   0.150E+02 0.149E+02 0.175E+03   -.663E-01 0.783E+00 0.377E+00   0.108E-05 -.466E-05 -.128E-05
   -.260E+02 -.731E+01 -.175E+03   0.252E+02 0.637E+01 0.175E+03   -.831E+00 -.900E+00 0.386E+00   -.609E-05 0.396E-05 0.506E-06
   -.241E+02 0.953E+01 -.134E+03   0.246E+02 -.985E+01 0.134E+03   0.403E+00 0.322E+00 -.576E+00   -.901E-05 -.403E-05 0.153E-05
   -.335E+02 0.150E+02 -.145E+03   0.347E+02 -.151E+02 0.144E+03   -.238E-01 0.240E+00 -.848E-02   0.548E-08 0.527E-07 -.126E-06
   -.288E+02 -.222E+02 -.117E+03   0.292E+02 0.230E+02 0.117E+03   -.461E+00 0.244E-01 -.778E+00   -.511E-05 -.222E-05 0.190E-05
   -.159E+02 -.778E+01 -.117E+03   0.138E+02 0.734E+01 0.118E+03   -.171E+01 -.851E+00 0.300E+00   -.208E-05 0.257E-06 0.148E-05
   0.116E+02 0.132E+02 -.315E+01   -.132E+02 -.136E+02 0.338E+01   -.435E+00 -.588E+00 0.135E+01   -.401E-05 0.147E-05 0.254E-05
   -.320E+02 0.109E+01 -.602E+02   0.334E+02 0.791E-01 0.597E+02   0.227E+00 0.449E-01 -.449E+00   -.737E-05 -.448E-05 0.398E-05
   -.835E+00 -.861E+01 0.326E+02   0.164E+01 0.829E+01 -.330E+02   0.104E+01 -.409E+00 0.832E+00   -.920E-05 -.474E-05 0.436E-05
   -.284E+02 -.708E+00 -.568E+02   0.287E+02 -.416E+00 0.576E+02   0.669E+00 0.753E-01 -.180E+01   -.627E-05 -.514E-07 0.302E-05
   -.504E+01 -.323E+01 0.396E+02   0.505E+01 0.440E+01 -.392E+02   -.141E+00 0.267E+00 -.135E+01   -.608E-05 -.529E-05 0.226E-05
   -.666E+01 0.589E+02 0.616E+01   0.286E+01 -.596E+02 -.519E+01   0.679E+00 0.274E+01 -.407E+00   0.995E-06 -.104E-05 0.527E-06
   0.147E+02 -.595E+02 0.102E+03   -.177E+02 0.598E+02 -.102E+03   0.169E+01 -.875E+00 0.107E+01   0.351E-05 -.680E-05 -.107E-05
 -----------------------------------------------------------------------------------------------
   -.279E+00 -.114E+01 -.888E-01   0.842E-12 0.689E-12 -.126E-11   0.110E+00 0.126E+01 0.118E+00   0.112E-04 -.568E-05 0.271E-04
 
 
 POSITION                                       TOTAL-FORCE (eV/Angst)
 -----------------------------------------------------------------------------------
      0.10737      0.77696     15.69600         4.624554      2.124217     -1.795934
      0.18362      2.18119     15.82430         2.185334     -0.144514     -0.601951
      1.30138      0.14499     15.22470        -1.342239      2.053176      0.722019
      1.37890      2.86651     15.63790        -1.266001     -1.652995     -0.027182
      2.55944      0.81869     15.07560        -0.704355     -0.333678      0.758677
      2.57699      2.14812     15.36210        -0.747130      1.870611     -0.596517
      3.81905      0.17753     14.99220        -0.585269     -1.143140     -0.971083
      3.76562      2.86164     15.25000         1.788085      0.696732      0.194906
      5.04748      0.81783     15.00770         1.606825      0.047126     -0.027123
      5.01226      2.19647     15.13990         1.295536     -0.276690      0.170005
      6.34938      0.11591     15.03680        -0.627316      2.651920      0.528089
      6.28129      2.84469     15.29090         0.073384     -0.047295     -0.525986
      7.59093      0.79361     15.27810        -1.146799      0.600872     -0.104909
      7.57326      2.16442     15.41670        -1.946925      0.517783     -0.595676
      8.78046      0.15473     15.60820         1.176290     -0.320666      1.007481
      8.76686      2.81725     15.73540        -0.063266      0.217459      0.827513
      9.96197      0.79448     16.12730        -1.010784      0.605125     -1.591278
      9.95099      2.16516     16.11190         1.156355      0.064614      0.975415
     11.13520      0.16521     16.50640         2.315989     -1.299393      0.560340
     11.11680      2.80852     16.66960        -1.566654      0.668214     -0.594090
     12.34340      0.82197     16.98920        -1.858309      0.592363     -0.699491
     12.31500      2.21399     17.04950        -0.412438     -1.734950      0.342767
     13.48560      0.15908     17.42780        -0.516821     -1.455256     -0.875126
     13.42210      2.89099     17.59700         0.129585     -3.663336      0.221194
     14.63590      0.79768     17.80800         1.964483      1.802446      0.984067
     14.58710      2.18588     17.95490         2.146299      0.023606     -0.490951
     15.88720      0.13732     18.10230        -0.217894      3.131505     -0.797220
     15.85000      2.88592     18.21100        -0.422771     -1.625925      0.636449
     17.14020      0.86620     18.20350        -1.648985     -0.545879      0.139612
     17.12100      2.23243     18.26330         0.395213      0.625015     -0.058351
     18.36040      0.21526     18.29270         0.172914     -1.952707      0.347385
     18.40700      2.91628     18.39220        -2.516507     -1.299213      0.528231
     19.58020      0.86325     18.21960         1.214622      1.565943     -0.527767
     19.61370      2.26398     18.31970         1.339733     -1.704990     -1.119861
     20.79960      0.19741     17.96980         1.037712      0.693639     -0.404085
     20.87180      2.90632     18.14560         0.753058      1.018471      0.376110
     22.02110      0.87653     17.53970        -0.984228      1.108260      1.698818
     22.07560      2.27349     17.72710        -0.416687     -0.851280      0.035648
     23.24260      0.24924     17.31540         0.263053     -0.068544     -0.856858
     23.32160      2.94163     17.53550        -0.358612     -0.353482     -0.342308
     24.45830      0.90950     17.00630        -0.076769      0.226111     -0.719372
     24.46910      2.28673     17.05000         0.004009     -1.647835      0.026048
     25.62790      0.25654     16.54790         1.105165     -1.517495     -0.083435
     25.66450      2.88253     16.64330         0.591568      2.054144      1.403523
     26.85230      0.88540     16.19790        -5.608023     -1.332101      1.385337
     26.83610      2.24808     16.28010        -1.062179     -0.320738      0.071946
      0.15694      4.89717     15.99220         2.968159      0.657859     -1.372672
      0.14877      6.28131     15.79250         1.535176     -1.265056     -0.609661
      1.32491      4.23422     15.64210         0.317813      0.096789      1.418541
      1.31216      6.90156     15.32210        -0.533397     -1.020814      0.714459
      2.54581      4.91436     15.46370         0.777262      0.086433     -0.533321
      2.57283      6.27128     15.29900         0.361630     -0.479033     -1.178782
      3.79178      4.27367     15.29220        -1.821007     -2.704878      0.191516
      3.83562      6.88801     14.96790        -0.909714      0.887403      1.433404
      4.99801      4.90097     15.14580         2.042857     -0.493828      0.506090
      5.08212      6.25182     15.09130        -0.188964      0.524279     -0.572105
      6.23206      4.22835     15.23810         2.771300     -1.282253      0.878570
      6.37263      6.87364     15.15510        -1.767120     -0.389764     -0.604817
      7.55288      4.82407     15.47700        -2.516150      2.130416     -0.300782
      7.57943      6.23108     15.41890        -0.073634     -2.088660      0.300783
      8.70574      4.18144     15.87290         1.952007      0.567736      0.142102
      8.76478      6.89071     15.72260         0.476761      0.096964     -0.567864
      9.91965      4.88099     16.29550        -1.209744     -1.187657     -0.239481
      9.94810      6.25361     16.14180         0.128455     -1.643342      0.219205
     11.05160      4.17451     16.79990         0.400662      1.066090     -0.797001
     11.16650      6.85846     16.46460        -0.615802      1.961203      0.815112
     12.25730      4.84497     17.17140        -0.813740     -0.394909      0.695462
     12.25560      6.19557     17.04110         1.860319      1.316789     -0.288752
     13.40850      4.20291     17.70480        -0.260621      2.441666     -0.474835
     13.48940      6.87508     17.40200        -2.010028     -0.360352      0.031771
     14.60570      4.85585     18.05900         0.207827     -0.019602      0.541539
     14.58810      6.19613     17.89250         3.028259      2.284550      0.520704
     15.83460      4.23348     18.41780         1.032679      0.267639     -0.974181
     15.87320      6.91236     18.14870        -0.513081     -3.300851      0.424065
     17.15210      4.88748     18.54220        -2.621113     -0.175013      0.413881
     17.11730      6.24397     18.46360         0.156739      1.382924     -0.419348
     18.38440      4.24913     18.62640         1.309184      0.405770      0.093104
     18.37850      6.92173     18.47040        -0.405290      0.547701     -0.346066
     19.66760      4.89502     18.68430         0.527857      0.574000     -1.272407
     19.64190      6.26137     18.50870        -0.358616      0.722272      0.597470
     20.94540      4.29351     18.35090        -1.587602     -1.835126      0.505279
     20.85110      6.94334     18.20100         0.907199      0.006621     -0.643910
     22.15090      4.94815     18.03680         1.121944      0.176419     -0.273687
     22.11420      6.31299     17.93120        -0.028536      0.792657     -0.747387
     23.39370      4.31392     17.63020        -3.779267     -1.294240      1.272831
     23.26820      6.98549     17.32870        -2.014077     -1.072046      1.583819
     24.50020      4.95142     17.18880         1.635626      1.213108     -0.916644
     24.41470      6.31379     16.96250         1.843667     -0.723978      0.445794
     25.68780      4.27430     16.82460         0.975510     -1.049681     -1.048862
     25.62360      6.94492     16.54830        -0.125758      1.428332     -1.013927
     26.83710      4.88245     16.35260        -3.115213      2.038773      0.564219
     26.76160      6.27195     16.13530        -1.303222     -0.560564      1.351750
 -----------------------------------------------------------------------------------
    total drift:                               -0.168118      0.113044      0.029176


--------------------------------------------------------------------------------------------------------



  FREE ENERGIE OF THE ION-ELECTRON SYSTEM (eV)
  ---------------------------------------------------
  free  energy   TOTEN  =      -829.03301527 eV

  energy  without entropy=     -828.95651035  energy(sigma->0) =     -828.99476281
 


--------------------------------------------------------------------------------------------------------


    POTLOK:  cpu time      0.4556: real time      0.4555


--------------------------------------------------------------------------------------------------------


     LOOP+:  cpu time    333.4782: real time    333.6584
    4ORBIT:  cpu time      0.0000: real time      0.0000

 total amount of memory used by VASP MPI-rank0  2294519. kBytes
=======================================================================

   base                                    :      30000. kBytes
   nonlr-proj                              :      15085. kBytes
   fftplans                                :     436558. kBytes
   grid                                    :     732614. kBytes
   one-center                              :        282. kBytes
   wavefun                                 :    1079980. kBytes
 
  
  
 General timing and accounting informations for this job:
 ========================================================
  
                  Total CPU time used (sec):      366.810
                            User time (sec):      358.341
                          System time (sec):        8.469
                         Elapsed time (sec):      367.094
  
                   Maximum memory used (kb):     3735596.
                   Average memory used (kb):          N/A
  
                          Minor page faults:      3179524
                          Major page faults:         4999
                 Voluntary context switches:         9562
