unknown system                          
            1
    28.050000    0.000000    0.000000
     0.000000    8.100000    0.000000
     0.000000    0.000000   33.500000
   C 
    92
Direct configuration=     1
   0.00382763  0.09592049  0.46853731
   0.00654627  0.26928272  0.47236716
   0.04639501  0.01790025  0.45446866
   0.04915865  0.35389012  0.46680299
   0.09124563  0.10107247  0.45001791
   0.09187130  0.26520000  0.45857015
   0.13615152  0.02191691  0.44752836
   0.13424670  0.35328889  0.45522388
   0.17994581  0.10096716  0.44799104
   0.17869020  0.27116914  0.45193731
   0.22635936  0.01431012  0.44885970
   0.22393191  0.35119630  0.45644478
   0.27062139  0.09797691  0.45606269
   0.26999144  0.26721235  0.46020000
   0.31302888  0.01910198  0.46591642
   0.31254403  0.34780864  0.46971343
   0.35515045  0.09808358  0.48141194
   0.35475900  0.26730370  0.48095224
   0.39697683  0.02039605  0.49272836
   0.39632086  0.34673086  0.49760000
   0.44004991  0.10147778  0.50714030
   0.43903743  0.27333210  0.50894030
   0.48077005  0.01964012  0.52023284
   0.47850624  0.35691235  0.52528358
   0.52177897  0.09847864  0.53158209
   0.52003922  0.26986173  0.53596716
   0.56638859  0.01695321  0.54036716
   0.56506239  0.35628642  0.54361194
   0.61105882  0.10693864  0.54338806
   0.61037433  0.27560864  0.54517313
   0.65455971  0.02657580  0.54605075
   0.65622103  0.36003457  0.54902090
   0.69804635  0.10657358  0.54386866
   0.69924064  0.27950370  0.54685672
   0.74151872  0.02437099  0.53641194
   0.74409269  0.35880494  0.54165970
   0.78506595  0.10821358  0.52357313
   0.78700891  0.28067778  0.52916716
   0.82861319  0.03077049  0.51687761
   0.83142959  0.36316420  0.52344776
   0.87195365  0.11228346  0.50765075
   0.87233868  0.28231235  0.50895522
   0.91365062  0.03167185  0.49396716
   0.91495544  0.35586790  0.49681493
   0.95730125  0.10930901  0.48351940
   0.95672371  0.27754074  0.48597313
   0.00559494  0.60458889  0.47737910
   0.00530378  0.77547037  0.47141791
   0.04723387  0.52274321  0.46692836
   0.04677932  0.85204444  0.45737612
   0.09075971  0.60671111  0.46160299
   0.09172299  0.77423210  0.45668657
   0.13517932  0.52761358  0.45648358
   0.13674225  0.85037160  0.44680299
   0.17818217  0.60505802  0.45211343
   0.18118075  0.77182963  0.45048657
   0.22217683  0.52201852  0.45486866
   0.22718824  0.84859753  0.45239104
   0.26926488  0.59556420  0.46200000
   0.27021141  0.76926914  0.46026567
   0.31036506  0.51622716  0.47381791
   0.31246988  0.85070494  0.46933134
   0.35364171  0.60259136  0.48643284
   0.35465597  0.77205062  0.48184478
   0.39399643  0.51537160  0.50148955
   0.39809269  0.84672346  0.49148060
   0.43698039  0.59814444  0.51257910
   0.43691979  0.76488519  0.50868955
   0.47802139  0.51887778  0.52850149
   0.48090553  0.84877531  0.51946269
   0.52070232  0.59948765  0.53907463
   0.52007487  0.76495432  0.53410448
   0.56451337  0.52265185  0.54978507
   0.56588948  0.85337778  0.54175224
   0.61148307  0.60339259  0.55349851
   0.61024242  0.77086049  0.55115224
   0.65541533  0.52458395  0.55601194
   0.65520499  0.85453457  0.55135522
   0.70116221  0.60432346  0.55774030
   0.70024599  0.77300864  0.55249851
   0.74671658  0.53006296  0.54778806
   0.74335472  0.85720247  0.54331343
   0.78969340  0.61088272  0.53841194
   0.78838503  0.77938148  0.53525970
   0.83400000  0.53258272  0.52627463
   0.82952585  0.86240617  0.51727463
   0.87344742  0.61128642  0.51309851
   0.87039929  0.77948025  0.50634328
   0.91578610  0.52769136  0.50222687
   0.91349733  0.85739753  0.49397910
   0.95675936  0.60277160  0.48813731
   0.95406774  0.77431481  0.48165075
