       N       E                     dE             d eps       ncg     rms          rms(c)
DAV:   1     0.364732880494E+04    0.36473E+04   -0.11985E+05  1728   0.105E+03
DAV:   2     0.171702987593E+03   -0.34756E+04   -0.32112E+04  2128   0.237E+02
DAV:   3    -0.835437365443E+03   -0.10071E+04   -0.98236E+03  1792   0.134E+02
DAV:   4    -0.897643716842E+03   -0.62206E+02   -0.61145E+02  1736   0.425E+01
DAV:   5    -0.899158294603E+03   -0.15146E+01   -0.14886E+01  1760   0.642E+00    0.460E+01
DAV:   6    -0.848324688077E+03    0.50834E+02   -0.48502E+01  1584   0.128E+01    0.270E+01
DAV:   7    -0.829371214402E+03    0.18953E+02   -0.67110E+01  1560   0.146E+01    0.745E+00
DAV:   8    -0.829064477805E+03    0.30674E+00   -0.24117E+00  1592   0.337E+00    0.104E+00
DAV:   9    -0.828952952828E+03    0.11152E+00   -0.26298E-01  1640   0.101E+00    0.587E-01
DAV:  10    -0.828914508214E+03    0.38445E-01   -0.47057E-02  1768   0.435E-01    0.391E-01
DAV:  11    -0.828879330856E+03    0.35177E-01   -0.21706E-02  1552   0.246E-01    0.251E-01
DAV:  12    -0.828870989021E+03    0.83418E-02   -0.27342E-02  1552   0.235E-01    0.159E-01
DAV:  13    -0.828882742114E+03   -0.11753E-01   -0.10333E-02  1552   0.159E-01    0.873E-02
DAV:  14    -0.828899071035E+03   -0.16329E-01   -0.10972E-03  1576   0.702E-02    0.622E-02
DAV:  15    -0.828921248477E+03   -0.22177E-01   -0.21617E-03  1528   0.703E-02    0.335E-02
DAV:  16    -0.828930071906E+03   -0.88234E-02   -0.46401E-04  1600   0.381E-02    0.240E-02
DAV:  17    -0.828936333486E+03   -0.62616E-02   -0.45994E-04  1560   0.272E-02    0.118E-02
DAV:  18    -0.828938050190E+03   -0.17167E-02   -0.64766E-05  1696   0.127E-02    0.716E-03
DAV:  19    -0.828939334569E+03   -0.12844E-02   -0.54871E-05  1528   0.103E-02    0.427E-03
DAV:  20    -0.828939703090E+03   -0.36852E-03   -0.67413E-06  1368   0.382E-03    0.254E-03
DAV:  21    -0.828939955867E+03   -0.25278E-03   -0.30793E-06  1256   0.278E-03    0.112E-03
DAV:  22    -0.828940020364E+03   -0.64496E-04   -0.35405E-07  1040   0.115E-03    0.777E-04
DAV:  23    -0.828940056050E+03   -0.35686E-04   -0.24750E-07   928   0.929E-04    0.505E-04
DAV:  24    -0.828940072035E+03   -0.15985E-04   -0.10978E-07   944   0.586E-04    0.352E-04
DAV:  25    -0.828940078812E+03   -0.67771E-05   -0.49175E-08   920   0.538E-04    0.194E-04
DAV:  26    -0.828940082128E+03   -0.33155E-05   -0.26929E-08   968   0.302E-04    0.223E-04
DAV:  27    -0.828940083801E+03   -0.16732E-05   -0.84464E-09   944   0.260E-04    0.724E-05
DAV:  28    -0.828940085693E+03   -0.18924E-05   -0.88111E-09   936   0.185E-04    0.129E-04
DAV:  29    -0.828940086292E+03   -0.59890E-06   -0.32189E-09   952   0.147E-04
   1 F= -.82894009E+03 E0= -.82890465E+03  d E =-.708679E-01
