 vasp.6.5.0 16Dec24 (build Feb 19 2025 19:45:31) complex                         
 executed on              LinuxNV date 2025.10.25  13:23:45
 running    2 mpi-ranks, on    1 nodes
 distrk:  each k-point on    2 cores,    1 groups
 distr:  one band on NCORE=   1 cores,    2 groups
 Offloading initialized ...    2 GPUs detected


--------------------------------------------------------------------------------------------------------


 INCAR:
   ISTART = 0            (Not Read existing wavefunction
   ISPIN = 1            (Non-Spin polarised DFT, Default\=1)
   ICHARG = 2            (The initial guess charge density is generated by superposition of atomic charge density)
   LREAL = Auto         (Projection operators: automatic)
   ENCUT = 500          (Cut-off energy for plane wave basis set, in eV)
   LWAVE = .FALSE.       (Write WAVECAR or not)
   LCHARG = .FALSE.       (Write CHGCAR or not)
   PREC = Accurate   (Precision level)
   KGAMMA = .TRUE.
   ALGO = Normal
   NSW = 0           (Default: NSW \= 0)
   IBRION = -1           (Ions are not moved)
   ISMEAR = 0
   EDIFF = 1E-06        (SCF energy convergence
   NELM = 150          (Max electronic SCF steps)

 POTCAR:    PAW_PBE C 08Apr2002                   
 POTCAR:    PAW_PBE C 08Apr2002                   
   SHA256 =  253f7b50bb8d59471dbedb8285d89021f4a42ed1a2c5d38a03a736e69125dd95 C/POTCAR              
   COPYR  = (c) Copyright 08Apr2002 Georg Kresse                                                    
   COPYR  = This file is part of the software VASP. Any use, copying, and all other rights are regul
   COPYR  = If you do not have a valid VASP license, you may not use, copy or distribute this file. 
   VRHFIN =C: s2p2                                                                                  
   LEXCH  = PE                                                                                      
   EATOM  =   147.1560 eV,   10.8157 Ry                                                             
                                                                                                    
   TITEL  = PAW_PBE C 08Apr2002                                                                     
   LULTRA =        F    use ultrasoft PP ?                                                          
   IUNSCR =        1    unscreen: 0-lin 1-nonlin 2-no                                               
   RPACOR =    1.200    partial core radius                                                         
   POMASS =   12.011; ZVAL   =    4.000    mass and valenz                                          
   RCORE  =    1.500    outmost cutoff radius                                                       
   RWIGS  =    1.630; RWIGS  =    0.863    wigner-seitz radius (au A)                               
   ENMAX  =  400.000; ENMIN  =  300.000 eV                                                          
   ICORE  =        2    local potential                                                             
   LCOR   =        T    correct aug charges                                                         
   LPAW   =        T    paw PP                                                                      
   EAUG   =  644.873                                                                                
   DEXC   =    0.000                                                                                
   RMAX   =    1.529    core radius for proj-oper                                                   
   RAUG   =    1.300    factor for augmentation sphere                                              
   RDEP   =    1.501    radius for radial grids                                                     
   RDEPT  =    1.300    core radius for aug-charge                                                  
                                                                                                    
   Atomic configuration                                                                             
    4 entries                                                                                       
     n  l   j            E        occ.                                                              
     1  0  0.50      -273.3789   2.0000                                                             
     2  0  0.50       -13.7508   2.0000                                                             
     2  1  0.50        -5.2854   2.0000                                                             
     3  2  1.50        -5.4423   0.0000                                                             
   Description                                                                                      
     l       E           TYP  RCUT    TYP  RCUT                                                     
     0    -13.7508458     23  1.200                                                                 
     0     -8.2022199     23  1.200                                                                 
     1     -5.2854383     23  1.500                                                                 
     1     34.0145650     23  1.500                                                                 
     2     -5.4423304      7  1.500                                                                 
  local pseudopotential read in
  partial core-charges read in
  partial kinetic energy density read in
  atomic valenz-charges read in
  non local Contribution for L=            0  read in
    real space projection operators read in
  non local Contribution for L=            0  read in
    real space projection operators read in
  non local Contribution for L=            1  read in
    real space projection operators read in
  non local Contribution for L=            1  read in
    real space projection operators read in
    PAW grid and wavefunctions read in
 
   number of l-projection  operators is LMAX  =            4
   number of lm-projection operators is LMMAX =            8
 
 Optimization of the real space projectors (new method)

 maximal supplied QI-value         = 25.13
 optimisation between [QCUT,QGAM] = [ 11.31, 22.87] = [ 35.82,146.48] Ry 
 Optimized for a Real-space Cutoff    1.03 Angstroem

   l    n(q)    QCUT    max X(q) W(low)/X(q) W(high)/X(q)  e(spline) 
   0      7    11.310   115.676    0.20E-03    0.90E-03    0.20E-06
   0      7    11.310    87.132    0.20E-03    0.89E-03    0.19E-06
   1      6    11.310     4.429    0.16E-03    0.28E-03    0.12E-06
   1      6    11.310     2.733    0.12E-03    0.21E-03    0.99E-07
  PAW_PBE C 08Apr2002                   :
 energy of atom  1       EATOM= -147.1560
 kinetic energy error for atom=    0.0076 (will be added to EATOM!!)
 
 
 POSCAR:  C
  positions in cartesian coordinates
  No initial velocities read in


 exchange-correlation table for PE
   RHO(1)=    0.500       N(1)  =     2000
   RHO(2)=  100.500       N(2)  =     4000
 


--------------------------------------------------------------------------------------------------------


 ion  position               nearest neighbor table
   1  0.009  0.105  0.526-   3 1.32   2 1.40  45 1.45  46 2.01
   2  0.007  0.278  0.525-   1 1.40   4 1.40  46 1.42  45 2.01
   3  0.049  0.024  0.533-   1 1.32  50 1.34   5 1.44
   4  0.050  0.362  0.532-  49 1.39   2 1.40   6 1.41
   5  0.094  0.108  0.537-   6 1.36   7 1.37   3 1.44
   6  0.093  0.275  0.535-   5 1.36   8 1.39   4 1.41
   7  0.136  0.028  0.545-  54 1.37   5 1.37   9 1.42
   8  0.136  0.358  0.539-  53 1.35   6 1.39  10 1.40
   9  0.181  0.107  0.541-  10 1.33  11 1.42   7 1.42
  10  0.179  0.270  0.537-   9 1.33   8 1.40  12 1.43
  11  0.225  0.021  0.541-  58 1.39  13 1.39   9 1.42
  12  0.223  0.359  0.533-  57 1.34  14 1.42  10 1.43
  13  0.267  0.101  0.530-  14 1.38  11 1.39  15 1.43
  14  0.266  0.271  0.525-  13 1.38  16 1.41  12 1.42
  15  0.311  0.022  0.520-  62 1.38  17 1.39  13 1.43
  16  0.310  0.352  0.521-  18 1.40  61 1.40  14 1.41
  17  0.351  0.102  0.506-  18 1.35  15 1.39  19 1.41
  18  0.351  0.269  0.509-  17 1.35  16 1.40  20 1.42
  19  0.395  0.022  0.497-  66 1.39  17 1.41  21 1.42
  20  0.395  0.352  0.501-  65 1.34  18 1.42  22 1.44
  21  0.438  0.105  0.486-  22 1.38  19 1.42  23 1.43
  22  0.440  0.274  0.491-  24 1.37  21 1.38  20 1.44
  23  0.480  0.018  0.475-  70 1.34  25 1.42  21 1.43
  24  0.482  0.350  0.483-  22 1.37  69 1.38  26 1.47
  25  0.523  0.098  0.464-  26 1.38  23 1.42  27 1.46
  26  0.526  0.266  0.470-  25 1.38  28 1.40  24 1.47
  27  0.567  0.014  0.455-  74 1.34  29 1.42  25 1.46
  28  0.567  0.349  0.457-  73 1.38  30 1.40  26 1.40
  29  0.611  0.103  0.450-  30 1.37  31 1.41  27 1.42
  30  0.611  0.271  0.452-  29 1.37  28 1.40  32 1.42
  31  0.655  0.020  0.446-  78 1.37  29 1.41  33 1.44
  32  0.655  0.358  0.455-  77 1.34  34 1.39  30 1.42
  33  0.700  0.106  0.452-  34 1.37  35 1.42  31 1.44
  34  0.698  0.274  0.458-  33 1.37  32 1.39  36 1.43
  35  0.744  0.024  0.458-  82 1.38  37 1.42  33 1.42
  36  0.743  0.353  0.462-  81 1.39  38 1.39  34 1.43
  37  0.786  0.106  0.471-  38 1.38  35 1.42  39 1.47
  38  0.786  0.275  0.470-  37 1.38  36 1.39  40 1.50
  39  0.830  0.022  0.483-  86 1.32  37 1.47  41 1.47
  40  0.830  0.359  0.487-  85 1.37  42 1.39  38 1.50
  41  0.875  0.101  0.494-  43 1.40  42 1.43  39 1.47
  42  0.873  0.277  0.496-  40 1.39  44 1.41  41 1.43
  43  0.916  0.019  0.507-  90 1.38  45 1.40  41 1.40
  44  0.913  0.359  0.512-  89 1.36  42 1.41  46 1.43
  45  0.958  0.098  0.520-  43 1.40  46 1.41   1 1.45   2 2.01
  46  0.956  0.272  0.520-  45 1.41   2 1.42  44 1.43   1 2.01
  47  0.005  0.608  0.530-  49 1.38  48 1.39  91 1.46  92 2.03
  48  0.004  0.779  0.531-  47 1.39  50 1.42  92 1.47  91 2.00
  49  0.048  0.532  0.538-  47 1.38   4 1.39  51 1.40
  50  0.048  0.861  0.539-   3 1.34  48 1.42  52 1.42
  51  0.093  0.606  0.544-  52 1.35  49 1.40  53 1.43
  52  0.090  0.773  0.547-  51 1.35  50 1.42  54 1.47
  53  0.137  0.523  0.544-   8 1.35  55 1.38  51 1.43
  54  0.137  0.860  0.546-   7 1.37  56 1.44  52 1.47
  55  0.181  0.602  0.547-  53 1.38  57 1.39  56 1.40
  56  0.182  0.776  0.547-  58 1.38  55 1.40  54 1.44
  57  0.224  0.523  0.539-  12 1.34  55 1.39  59 1.41
  58  0.226  0.851  0.544-  56 1.38  11 1.39  60 1.40
  59  0.269  0.601  0.538-  60 1.39  61 1.41  57 1.41
  60  0.270  0.772  0.537-  59 1.39  58 1.40  62 1.42
  61  0.310  0.524  0.522-  63 1.38  16 1.40  59 1.41
  62  0.312  0.853  0.525-  15 1.38  60 1.42  64 1.44
  63  0.353  0.597  0.512-  64 1.37  61 1.38  65 1.45
  64  0.355  0.767  0.513-  63 1.37  66 1.42  62 1.44
  65  0.396  0.517  0.498-  20 1.34  67 1.43  63 1.45
  66  0.396  0.851  0.500-  19 1.39  64 1.42  68 1.43
  67  0.439  0.603  0.488-  68 1.34  69 1.43  65 1.43
  68  0.439  0.768  0.489-  67 1.34  66 1.43  70 1.44
  69  0.481  0.519  0.477-  24 1.38  71 1.41  67 1.43
  70  0.482  0.853  0.476-  23 1.34  72 1.42  68 1.44
  71  0.523  0.601  0.466-  72 1.36  69 1.41  73 1.42
  72  0.525  0.768  0.466-  71 1.36  74 1.40  70 1.42
  73  0.567  0.519  0.456-  28 1.38  71 1.42  75 1.43
  74  0.567  0.848  0.456-  27 1.34  72 1.40  76 1.43
  75  0.612  0.599  0.450-  76 1.36  77 1.43  73 1.43
  76  0.612  0.767  0.452-  75 1.36  78 1.42  74 1.43
  77  0.657  0.523  0.456-  32 1.34  79 1.38  75 1.43
  78  0.656  0.851  0.448-  31 1.37  76 1.42  80 1.46
  79  0.700  0.603  0.459-  77 1.38  80 1.39  81 1.39
  80  0.703  0.772  0.453-  79 1.39  82 1.43  78 1.46
  81  0.743  0.523  0.467-  36 1.39  79 1.39  83 1.42
  82  0.747  0.855  0.461-  35 1.38  84 1.41  80 1.43
  83  0.785  0.604  0.481-  84 1.35  81 1.42  85 1.43
  84  0.786  0.771  0.477-  83 1.35  82 1.41  86 1.44
  85  0.828  0.526  0.494-  40 1.37  83 1.43  87 1.43
  86  0.829  0.860  0.487-  39 1.32  88 1.36  84 1.44
  87  0.868  0.611  0.510-  88 1.38  85 1.43  89 1.47
  88  0.866  0.779  0.504-  86 1.36  87 1.38  90 1.44
  89  0.913  0.525  0.516-  91 1.35  44 1.36  87 1.47
  90  0.911  0.853  0.515-  92 1.36  43 1.38  88 1.44
  91  0.953  0.607  0.526-  89 1.35  92 1.37  47 1.46  48 2.00
  92  0.952  0.776  0.527-  90 1.36  91 1.37  48 1.47  47 2.03
 
  LATTYP: Found a simple orthorhombic cell.
 ALAT       =     8.1000000000
 B/A-ratio  =     3.4629629630
 C/A-ratio  =     4.1358024691
  
  Lattice vectors:
  
 A1 = (   0.0000000000,  -8.1000000000,   0.0000000000)
 A2 = (  28.0500000000,   0.0000000000,   0.0000000000)
 A3 = (   0.0000000000,   0.0000000000,  33.5000000000)


Analysis of symmetry for initial positions (statically):
=====================================================================
 Subroutine PRICEL returns:
 Original cell was already a primitive cell.
 

 Routine SETGRP: Setting up the symmetry group for a 
 simple orthorhombic supercell.


 Subroutine GETGRP returns: Found  1 space group operations
 (whereof  1 operations were pure point group operations)
 out of a pool of  8 trial point group operations.


The static configuration has the point symmetry C_1 .


Analysis of symmetry for dynamics (positions and initial velocities):
=====================================================================
 Subroutine PRICEL returns:
 Original cell was already a primitive cell.
 

 Routine SETGRP: Setting up the symmetry group for a 
 simple orthorhombic supercell.


 Subroutine GETGRP returns: Found  1 space group operations
 (whereof  1 operations were pure point group operations)
 out of a pool of  8 trial point group operations.


The dynamic configuration has the point symmetry C_1 .


 Subroutine INISYM returns: Found  1 space group operations
 (whereof  1 operations are pure point group operations),
 and found     1 'primitive' translations


----------------------------------------------------------------------------------------

                                     Primitive cell                                     

  volume of cell :    7611.3675

  direct lattice vectors                    reciprocal lattice vectors
    28.050000000  0.000000000  0.000000000     0.035650624  0.000000000  0.000000000
     0.000000000  8.100000000  0.000000000     0.000000000  0.123456790  0.000000000
     0.000000000  0.000000000 33.500000000     0.000000000  0.000000000  0.029850746

  length of vectors
    28.050000000  8.100000000 33.500000000     0.035650624  0.123456790  0.029850746

  position of ions in fractional coordinates (direct lattice)
     0.008801319  0.105310988  0.526283582
     0.006691408  0.278162963  0.524785075
     0.048913725  0.024315926  0.533208955
     0.049617469  0.362408642  0.532008955
     0.094073440  0.107832469  0.536626866
     0.093119786  0.275498765  0.534719403
     0.136034581  0.028237654  0.545140299
     0.136156150  0.358097531  0.538743284
     0.180879144  0.106951605  0.540740299
     0.179047059  0.270427160  0.536871642
     0.224896613  0.021453951  0.540588060
     0.222903743  0.359265432  0.532638806
     0.266885205  0.101283580  0.529552239
     0.265757932  0.271079012  0.524782090
     0.310752228  0.021765556  0.519623881
     0.309957219  0.351553086  0.520534328
     0.351498039  0.102457160  0.506000000
     0.351452406  0.268593827  0.508994030
     0.394866310  0.022039136  0.497188060
     0.394983957  0.351758025  0.501352239
     0.437629234  0.104846667  0.486334328
     0.439586453  0.274486420  0.490635821
     0.479775401  0.018480247  0.474955224
     0.482121212  0.349920988  0.482632836
     0.522944742  0.098161358  0.464343284
     0.526042781  0.266338272  0.470008955
     0.567461676  0.014379753  0.454647761
     0.567051693  0.349260494  0.457095522
     0.610923351  0.102785062  0.449623881
     0.611087344  0.271486420  0.451853731
     0.655030303  0.020117037  0.446435821
     0.654873440  0.357590123  0.455477612
     0.699572193  0.105862840  0.451943284
     0.698146168  0.273671605  0.457883582
     0.743775401  0.024453827  0.458038806
     0.743344029  0.352928395  0.461922388
     0.785550802  0.105712963  0.471310448
     0.786467023  0.275437037  0.470459701
     0.829864528  0.022045309  0.482838806
     0.830135472  0.358577778  0.486853731
     0.875055258  0.100973704  0.493976119
     0.872609626  0.277272840  0.495874627
     0.916135472  0.019143951  0.507110448
     0.913137255  0.358598765  0.511531343
     0.957796791  0.098023333  0.519817910
     0.956417112  0.271858025  0.519686567
     0.005145704  0.607816049  0.529635821
     0.004095900  0.779219753  0.531214925
     0.048075223  0.531648148  0.538331343
     0.047704813  0.861291358  0.539179104
     0.092542602  0.606434568  0.543988060
     0.090467380  0.772787654  0.546558209
     0.137440998  0.523037037  0.544179104
     0.136624242  0.859611111  0.545755224
     0.180830303  0.602380247  0.546704478
     0.181834938  0.775688889  0.546752239
     0.223809982  0.523111111  0.539068657
     0.225976471  0.850693827  0.543832836
     0.268776114  0.600760494  0.537740299
     0.269619608  0.772293827  0.536752239
     0.309696257  0.524303704  0.521755224
     0.312385740  0.853175309  0.525268657
     0.352633512  0.597425926  0.511677612
     0.354969340  0.766770370  0.513253731
     0.395789661  0.516944444  0.498185075
     0.396474153  0.850744444  0.500322388
     0.438545455  0.603135802  0.487719403
     0.439219251  0.767971605  0.488946269
     0.481336898  0.518695062  0.476859701
     0.481668449  0.853054321  0.475826866
     0.523436720  0.600840741  0.465802985
     0.524570410  0.768309877  0.466253731
     0.566598930  0.519064198  0.455820896
     0.567247772  0.848476543  0.456008955
     0.611543672  0.598935802  0.450280597
     0.612174688  0.766943210  0.452110448
     0.656973262  0.522892593  0.455698507
     0.656142602  0.851128395  0.448113433
     0.700064171  0.602851852  0.458719403
     0.702680927  0.772202469  0.453340299
     0.742837790  0.523029630  0.466889552
     0.746852050  0.854853086  0.461173134
     0.784759358  0.604224691  0.480650746
     0.786217469  0.770606173  0.477274627
     0.827540107  0.525533333  0.493716418
     0.828973262  0.859528395  0.487035821
     0.867618538  0.610798765  0.510477612
     0.866146168  0.779435802  0.504373134
     0.913204991  0.525019753  0.515743284
     0.911383244  0.852611111  0.514752239
     0.953326203  0.607411111  0.525540299
     0.951900178  0.776392593  0.527029851

  ion indices of the primitive-cell ions
   primitive index   ion index
                 1           1
                 2           2
                 3           3
                 4           4
                 5           5
                 6           6
                 7           7
                 8           8
                 9           9
                10          10
                11          11
                12          12
                13          13
                14          14
                15          15
                16          16
                17          17
                18          18
                19          19
                20          20
                21          21
                22          22
                23          23
                24          24
                25          25
                26          26
                27          27
                28          28
                29          29
                30          30
                31          31
                32          32
                33          33
                34          34
                35          35
                36          36
                37          37
                38          38
                39          39
                40          40
                41          41
                42          42
                43          43
                44          44
                45          45
                46          46
                47          47
                48          48
                49          49
                50          50
                51          51
                52          52
                53          53
                54          54
                55          55
                56          56
                57          57
                58          58
                59          59
                60          60
                61          61
                62          62
                63          63
                64          64
                65          65
                66          66
                67          67
                68          68
                69          69
                70          70
                71          71
                72          72
                73          73
                74          74
                75          75
                76          76
                77          77
                78          78
                79          79
                80          80
                81          81
                82          82
                83          83
                84          84
                85          85
                86          86
                87          87
                88          88
                89          89
                90          90
                91          91
                92          92

----------------------------------------------------------------------------------------

 
 
 KPOINTS: K-Spacing Value to Generate K-Mesh: 0.03

Automatic generation of k-mesh.
 Grid dimensions read from file:
 generate k-points for:    1    4    1

 Generating k-lattice:

  Cartesian coordinates                     Fractional coordinates (reciprocal lattice)
     0.035650624  0.000000000  0.000000000     1.000000000  0.000000000  0.000000000
     0.000000000  0.030864198  0.000000000     0.000000000  0.250000000  0.000000000
     0.000000000  0.000000000  0.029850746     0.000000000  0.000000000  1.000000000

  Length of vectors
     0.035650624  0.030864198  0.029850746

  Shift w.r.t. Gamma in fractional coordinates (k-lattice)
     0.000000000  0.000000000  0.000000000

 
 Subroutine IBZKPT returns following result:
 ===========================================
 
 Found      3 irreducible k-points:
 
 Following reciprocal coordinates:
            Coordinates               Weight
  0.000000  0.000000  0.000000      1.000000
  0.000000  0.250000  0.000000      2.000000
  0.000000  0.500000  0.000000      1.000000
 
 Following cartesian coordinates:
            Coordinates               Weight
  0.000000  0.000000  0.000000      1.000000
  0.000000  0.030864  0.000000      2.000000
  0.000000  0.061728  0.000000      1.000000
 


--------------------------------------------------------------------------------------------------------




 Dimension of arrays:
   k-points           NKPTS =      3   k-points in BZ     NKDIM =      3   number of bands    NBANDS=    232
   number of dos      NEDOS =    301   number of ions     NIONS =     92
   non local maximal  LDIM  =      4   non local SUM 2l+1 LMDIM =      8
   total plane-waves  NPLWV = ******
   max r-space proj   IRMAX =   1967   max aug-charges    IRDMAX=   5083
   dimension x,y,z NGX =   210 NGY =   60 NGZ =  250
   dimension x,y,z NGXF=   420 NGYF=  120 NGZF=  500
   support grid    NGXF=   420 NGYF=  120 NGZF=  500
   ions per type =              92
   NGX,Y,Z   is equivalent  to a cutoff of  12.45, 12.31, 12.41 a.u.
   NGXF,Y,Z  is equivalent  to a cutoff of  24.89, 24.63, 24.81 a.u.

 SYSTEM =  unknown system                          
 POSCAR =   C                                      

 Startparameter for this run:
   NWRITE =      2    write-flag & timer
   PREC   = accura    normal or accurate (medium, high low for compatibility)
   ISTART =      0    job   : 0-new  1-cont  2-samecut
   ICHARG =      2    charge: 1-file 2-atom 10-const
   ISPIN  =      1    spin polarized calculation?
   LNONCOLLINEAR =      F non collinear calculations
   LSORBIT =      F    spin-orbit coupling
   INIWAV =      1    electr: 0-lowe 1-rand  2-diag
   LASPH  =      F    aspherical Exc in radial PAW
 Electronic Relaxation 1
   ENCUT  =  500.0 eV  36.75 Ry    6.06 a.u.  51.14 14.77 61.08*2*pi/ulx,y,z
   ENINI  =  500.0     initial cutoff
   ENAUG  =  644.9 eV  augmentation charge cutoff
   NELM   =    150;   NELMIN=  2; NELMDL= -5     # of ELM steps 
   EDIFF  = 0.1E-05   stopping-criterion for ELM
   LREAL  =      T    real-space projection
   NLSPLINE    = F    spline interpolate recip. space projectors
   LCOMPAT=      F    compatible to vasp.4.4
   GGA_COMPAT  = T    GGA compatible to vasp.4.4-vasp.4.6
   LMAXPAW     = -100 max onsite density
   LMAXMIX     =    2 max onsite mixed and CHGCAR
   VOSKOWN=      0    Vosko Wilk Nusair interpolation
   ROPT   =   -0.00025
 Ionic relaxation
   EDIFFG = 0.1E-04   stopping-criterion for IOM
   NSW    =      0    number of steps for IOM
   NBLOCK =      1;   KBLOCK =      1    inner block; outer block 
   IBRION =     -1    ionic relax: 0-MD 1-quasi-New 2-CG
   NFREE  =      0    steps in history (QN), initial steepest desc. (CG)
   ISIF   =      2    stress and relaxation
   IWAVPR =     10    prediction:  0-non 1-charg 2-wave 3-comb
   ISYM   =      2    0-nonsym 1-usesym 2-fastsym
   LCORR  =      T    Harris-Foulkes like correction to forces

   POTIM  = 0.5000    time-step for ionic-motion
   TEIN   =    0.0    initial temperature
   TEBEG  =    0.0;   TEEND  =   0.0 temperature during run
   SMASS  =  -3.00    Nose mass-parameter (am)
   estimated Nose-frequenzy (Omega)   =  0.10E-29 period in steps = 0.13E+47 mass=  -0.180E-25a.u.
   SCALEE = 1.0000    scale energy and forces
   NPACO  =    256;   APACO  = 10.0  distance and # of slots for P.C.
   PSTRESS=    0.0 pullay stress

  Mass of Ions in am
   POMASS =  12.01
  Ionic Valenz
   ZVAL   =   4.00
  Atomic Wigner-Seitz radii
   RWIGS  =  -1.00
  virtual crystal weights 
   VCA    =   1.00
   NELECT =     368.0000    total number of electrons
   NUPDOWN=      -1.0000    fix difference up-down

 DOS related values:
   EMIN   =  10.00;   EMAX   =-10.00  energy-range for DOS
   EFERMI =   0.00;   METHOD = LEGACY      
   ISMEAR =     0;   SIGMA  =   0.20  broadening in eV -4-tet -1-fermi 0-gaus
   EFERMI_NEDOS =   21; number of points for ismear=-14 and -15

 Electronic relaxation 2 (details)
   IALGO  =     38    algorithm
   LDIAG  =      T    sub-space diagonalisation (order eigenvalues)
   LSUBROT=      F    optimize rotation matrix (better conditioning)
   TURBO    =      0    0=normal 1=particle mesh
   IRESTART =      0    0=no restart 2=restart with 2 vectors
   NREBOOT  =      0    no. of reboots
   NMIN     =      0    reboot dimension
   EREF     =   0.00    reference energy to select bands
   IMIX   =      4    mixing-type and parameters
     AMIX     =   0.40;   BMIX     =  1.00
     AMIX_MAG =   1.60;   BMIX_MAG =  1.00
     AMIN     =   0.10
     WC   =   100.;   INIMIX=   1;  MIXPRE=   1;  MAXMIX= -45

 Intra band minimization:
   WEIMIN = 0.0000     energy-eigenvalue tresh-hold
   EBREAK =  0.11E-08  absolut break condition
   DEPER  =   0.30     relativ break condition  

   TIME   =   0.40     timestep for ELM

  volume/ion in A,a.u.               =      82.73       558.30
  Fermi-wavevector in a.u.,A,eV,Ry     =   0.596398  1.127030  4.839472  0.355691
  Thomas-Fermi vector in A             =   1.646729
 
 Write flags
   LWAVE        =      F    write WAVECAR
   LDOWNSAMPLE  =      F    k-point downsampling of WAVECAR
   LCHARG       =      F    write CHGCAR
   LVTOT        =      F    write LOCPOT, total local potential
   LVHAR        =      F    write LOCPOT, Hartree potential only
   WRT_POTENTIAL= false  ! write potential to hdf5 file
   LELF         =      F    write electronic localiz. function (ELF)
   LORBIT       =      0    0 simple, 1 ext, 2 COOP (PROOUT), +10 PAW based schemes


 Python interface
   PLUGINS active      =      F    recompile with -DPLUGINS to activate
 
 Dipole corrections
   LMONO      =      F    monopole corrections only (constant potential shift)
   LDIPOL     =      F    correct potential (dipole corrections)
   IDIPOL     =      0    1-x, 2-y, 3-z, 4-all directions 
   EPSILON    =  1.0000000 bulk dielectric constant
   LVACPOTAV  =      F  vacuum potentials using an averaging scheme for the charge density
   VACPOTFLAT =  0.1000000 required flatness to determine vacuum potential
 
Coulomb truncation method
  LTRUNCATE          =      F  Coulomb kernel truncation to be used
  IDIMENSIONALITY    =      3  Dimensionality of cutoff (0 molecules / 2 surfaces)
  ISURFACE           =     -1  Direction of surface normal
  LCOARSEN           =      F  Coarsen the charge grid before padding, preferred

 
 Exchange correlation treatment:
   GGA     = PE    functional components
   XC_C    = 1    coefficients multiplying the functional components
   LIBXC   =     F    Libxc                    
   VOSKOWN =     0    Vosko Wilk Nusair interpolation
   LHFCALC =     F    Hartree Fock is set to
   LHFONE  =     F    Hartree Fock one center treatment
   AEXX    =    0.0000 exact exchange contribution

 Parameters of functionals:
   PE:
     No parameter
 
 Van der Waals corrections
   IVDW    =     0    specifies the selected vdW correction

 Linear response parameters
   LEPSILON=     F    determine dielectric tensor
   LRPA    =     F    only Hartree local field effects (RPA)
   LNABLA  =     F    use nabla operator in PAW spheres
   LVEL    =     F    velocity operator in full k-point grid
   CSHIFT  =0.1000    complex shift for real part using Kramers Kronig
   OMEGAMAX=  -1.0    maximum frequency
   DEG_THRESHOLD= 0.2000000E-02 threshold for treating states as degnerate
   RTIME   =   -0.100 relaxation time in fs
  (WPLASMAI=    0.000 imaginary part of plasma frequency in eV, 0.658/RTIME)
   DFIELD  = 0.0000000 0.0000000 0.0000000 field for delta impulse in time
 
  Optional k-point grid parameters
   LKPOINTS_OPT  =     F    use optional k-point grid
   KPOINTS_OPT_MODE=     1    mode for optional k-point grid
 
 Orbital magnetization related:
   ORBITALMAG=     F  switch on orbital magnetization
   LCHIMAG   =     F  perturbation theory with respect to B field
   DQ        =  0.001000  dq finite difference perturbation B field
   LLRAUG    =     F  two centre corrections for induced B field
   LBONE     =     F  B-component reconstruction in AE one-centre
   LVGVCALC  =     T  calculate vGv susceptibility
   LVGVAPPL  =     F  apply vGv susceptibility instead of pGv for G=0

 Random number generation:
   RANDOM_GENERATOR = DEFAULT
   PCG_SEED         = not used


--------------------------------------------------------------------------------------------------------


 Static calculation
 charge density and potential will be updated during run
 non-spin polarized calculation
 Variant of blocked Davidson
 Davidson routine will perform the subspace rotation
 perform sub-space diagonalisation
    after iterative eigenvector-optimisation
 modified Broyden-mixing scheme, WC =      100.0
 initial mixing is a Kerker type mixing with AMIX =  0.4000 and BMIX =      1.0000
 Hartree-type preconditioning will be used
 using additional bands            48
 real space projection scheme for non local part
 use partial core corrections
 calculate Harris-corrections to forces 
   (improved forces if not selfconsistent)
 use gradient corrections 
 use of overlap-Matrix (Vanderbilt PP)
 Gauss-broadening in eV      SIGMA  =   0.20


--------------------------------------------------------------------------------------------------------


  energy-cutoff  :      500.00
  volume of cell :     7611.37
      direct lattice vectors                 reciprocal lattice vectors
    28.050000000  0.000000000  0.000000000     0.035650624  0.000000000  0.000000000
     0.000000000  8.100000000  0.000000000     0.000000000  0.123456790  0.000000000
     0.000000000  0.000000000 33.500000000     0.000000000  0.000000000  0.029850746

  length of vectors
    28.050000000  8.100000000 33.500000000     0.035650624  0.123456790  0.029850746


 
 k-points in units of 2pi/SCALE and weight: K-Spacing Value to Generate K-Mesh: 0.03
   0.00000000  0.00000000  0.00000000       0.250
   0.00000000  0.03086420  0.00000000       0.500
   0.00000000  0.06172840  0.00000000       0.250
 
 k-points in reciprocal lattice and weights: K-Spacing Value to Generate K-Mesh: 0.03
   0.00000000  0.00000000  0.00000000       0.250
   0.00000000  0.25000000  0.00000000       0.500
   0.00000000  0.50000000  0.00000000       0.250
 
 position of ions in fractional coordinates (direct lattice) 
   0.00880132  0.10531099  0.52628358
   0.00669141  0.27816296  0.52478507
   0.04891373  0.02431593  0.53320896
   0.04961747  0.36240864  0.53200896
   0.09407344  0.10783247  0.53662687
   0.09311979  0.27549877  0.53471940
   0.13603458  0.02823765  0.54514030
   0.13615615  0.35809753  0.53874328
   0.18087914  0.10695160  0.54074030
   0.17904706  0.27042716  0.53687164
   0.22489661  0.02145395  0.54058806
   0.22290374  0.35926543  0.53263881
   0.26688520  0.10128358  0.52955224
   0.26575793  0.27107901  0.52478209
   0.31075223  0.02176556  0.51962388
   0.30995722  0.35155309  0.52053433
   0.35149804  0.10245716  0.50600000
   0.35145241  0.26859383  0.50899403
   0.39486631  0.02203914  0.49718806
   0.39498396  0.35175802  0.50135224
   0.43762923  0.10484667  0.48633433
   0.43958645  0.27448642  0.49063582
   0.47977540  0.01848025  0.47495522
   0.48212121  0.34992099  0.48263284
   0.52294474  0.09816136  0.46434328
   0.52604278  0.26633827  0.47000896
   0.56746168  0.01437975  0.45464776
   0.56705169  0.34926049  0.45709552
   0.61092335  0.10278506  0.44962388
   0.61108734  0.27148642  0.45185373
   0.65503030  0.02011704  0.44643582
   0.65487344  0.35759012  0.45547761
   0.69957219  0.10586284  0.45194328
   0.69814617  0.27367160  0.45788358
   0.74377540  0.02445383  0.45803881
   0.74334403  0.35292840  0.46192239
   0.78555080  0.10571296  0.47131045
   0.78646702  0.27543704  0.47045970
   0.82986453  0.02204531  0.48283881
   0.83013547  0.35857778  0.48685373
   0.87505526  0.10097370  0.49397612
   0.87260963  0.27727284  0.49587463
   0.91613547  0.01914395  0.50711045
   0.91313725  0.35859877  0.51153134
   0.95779679  0.09802333  0.51981791
   0.95641711  0.27185802  0.51968657
   0.00514570  0.60781605  0.52963582
   0.00409590  0.77921975  0.53121493
   0.04807522  0.53164815  0.53833134
   0.04770481  0.86129136  0.53917910
   0.09254260  0.60643457  0.54398806
   0.09046738  0.77278765  0.54655821
   0.13744100  0.52303704  0.54417910
   0.13662424  0.85961111  0.54575522
   0.18083030  0.60238025  0.54670448
   0.18183494  0.77568889  0.54675224
   0.22380998  0.52311111  0.53906866
   0.22597647  0.85069383  0.54383284
   0.26877611  0.60076049  0.53774030
   0.26961961  0.77229383  0.53675224
   0.30969626  0.52430370  0.52175522
   0.31238574  0.85317531  0.52526866
   0.35263351  0.59742593  0.51167761
   0.35496934  0.76677037  0.51325373
   0.39578966  0.51694444  0.49818507
   0.39647415  0.85074444  0.50032239
   0.43854545  0.60313580  0.48771940
   0.43921925  0.76797160  0.48894627
   0.48133690  0.51869506  0.47685970
   0.48166845  0.85305432  0.47582687
   0.52343672  0.60084074  0.46580299
   0.52457041  0.76830988  0.46625373
   0.56659893  0.51906420  0.45582090
   0.56724777  0.84847654  0.45600896
   0.61154367  0.59893580  0.45028060
   0.61217469  0.76694321  0.45211045
   0.65697326  0.52289259  0.45569851
   0.65614260  0.85112840  0.44811343
   0.70006417  0.60285185  0.45871940
   0.70268093  0.77220247  0.45334030
   0.74283779  0.52302963  0.46688955
   0.74685205  0.85485309  0.46117313
   0.78475936  0.60422469  0.48065075
   0.78621747  0.77060617  0.47727463
   0.82754011  0.52553333  0.49371642
   0.82897326  0.85952840  0.48703582
   0.86761854  0.61079877  0.51047761
   0.86614617  0.77943580  0.50437313
   0.91320499  0.52501975  0.51574328
   0.91138324  0.85261111  0.51475224
   0.95332620  0.60741111  0.52554030
   0.95190018  0.77639259  0.52702985
 
 position of ions in cartesian coordinates  (Angst):
   0.24687700  0.85301900 17.63050000
   0.18769400  2.25312000 17.58030000
   1.37203000  0.19695900 17.86250000
   1.39177000  2.93551000 17.82230000
   2.63876000  0.87344300 17.97700000
   2.61201000  2.23154000 17.91310000
   3.81577000  0.22872500 18.26220000
   3.81918000  2.90059000 18.04790000
   5.07366000  0.86630800 18.11480000
   5.02227000  2.19046000 17.98520000
   6.30835000  0.17377700 18.10970000
   6.25245000  2.91005000 17.84340000
   7.48613000  0.82039700 17.74000000
   7.45451000  2.19574000 17.58020000
   8.71660000  0.17630100 17.40740000
   8.69430000  2.84758000 17.43790000
   9.85952000  0.82990300 16.95100000
   9.85824000  2.17561000 17.05130000
  11.07600000  0.17851700 16.65580000
  11.07930000  2.84924000 16.79530000
  12.27550000  0.84925800 16.29220000
  12.33040000  2.22334000 16.43630000
  13.45770000  0.14969000 15.91100000
  13.52350000  2.83436000 16.16820000
  14.66860000  0.79510700 15.55550000
  14.75550000  2.15734000 15.74530000
  15.91730000  0.11647600 15.23070000
  15.90580000  2.82901000 15.31270000
  17.13640000  0.83255900 15.06240000
  17.14100000  2.19904000 15.13710000
  18.37360000  0.16294800 14.95560000
  18.36920000  2.89648000 15.25850000
  19.62300000  0.85748900 15.14010000
  19.58300000  2.21674000 15.33910000
  20.86290000  0.19807600 15.34430000
  20.85080000  2.85872000 15.47440000
  22.03470000  0.85627500 15.78890000
  22.06040000  2.23104000 15.76040000
  23.27770000  0.17856700 16.17510000
  23.28530000  2.90448000 16.30960000
  24.54530000  0.81788700 16.54820000
  24.47670000  2.24591000 16.61180000
  25.69760000  0.15506600 16.98820000
  25.61350000  2.90465000 17.13630000
  26.86620000  0.79398900 17.41390000
  26.82750000  2.20205000 17.40950000
   0.14433700  4.92331000 17.74280000
   0.11489000  6.31168000 17.79570000
   1.34851000  4.30635000 18.03410000
   1.33812000  6.97646000 18.06250000
   2.59582000  4.91212000 18.22360000
   2.53761000  6.25958000 18.30970000
   3.85522000  4.23660000 18.23000000
   3.83231000  6.96285000 18.28280000
   5.07229000  4.87928000 18.31460000
   5.10047000  6.28308000 18.31620000
   6.27787000  4.23720000 18.05880000
   6.33864000  6.89062000 18.21840000
   7.53917000  4.86616000 18.01430000
   7.56283000  6.25558000 17.98120000
   8.68698000  4.24686000 17.47880000
   8.76242000  6.91072000 17.59650000
   9.89137000  4.83915000 17.14120000
   9.95689000  6.21084000 17.19400000
  11.10190000  4.18725000 16.68920000
  11.12110000  6.89103000 16.76080000
  12.30120000  4.88540000 16.33860000
  12.32010000  6.22057000 16.37970000
  13.50150000  4.20143000 15.97480000
  13.51080000  6.90974000 15.94020000
  14.68240000  4.86681000 15.60440000
  14.71420000  6.22331000 15.61950000
  15.89310000  4.20442000 15.27000000
  15.91130000  6.87266000 15.27630000
  17.15380000  4.85138000 15.08440000
  17.17150000  6.21224000 15.14570000
  18.42810000  4.23543000 15.26590000
  18.40480000  6.89414000 15.01180000
  19.63680000  4.88310000 15.36710000
  19.71020000  6.25484000 15.18690000
  20.83660000  4.23654000 15.64080000
  20.94920000  6.92431000 15.44930000
  22.01250000  4.89422000 16.10180000
  22.05340000  6.24191000 15.98870000
  23.21250000  4.25682000 16.53950000
  23.25270000  6.96218000 16.31570000
  24.33670000  4.94747000 17.10100000
  24.29540000  6.31343000 16.89650000
  25.61540000  4.25266000 17.27740000
  25.56430000  6.90615000 17.24420000
  26.74080000  4.92003000 17.60560000
  26.70080000  6.28878000 17.65550000
 


--------------------------------------------------------------------------------------------------------


 k-point     1 :   0.0000 0.0000 0.0000  plane waves:  193173
 k-point     2 :   0.0000 0.2500 0.0000  plane waves:  193166
 k-point     3 :   0.0000 0.5000 0.0000  plane waves:  193226

 maximum and minimum number of plane-waves per node :    193226   193166

 maximum number of plane-waves:    193226
 maximum index in each direction: 
   IXMAX=   51   IYMAX=   14   IZMAX=   61
   IXMIN=  -51   IYMIN=  -15   IZMIN=  -61


 serial   3D FFT for wavefunctions
 parallel 3D FFT for charge:
    minimum data exchange during FFTs selected (reduces bandwidth)


 total amount of memory used by VASP MPI-rank0  2294507. kBytes
=======================================================================

   base                                    :      30000. kBytes
   nonlr-proj                              :      15073. kBytes
   fftplans                                :     436558. kBytes
   grid                                    :     732614. kBytes
   one-center                              :        282. kBytes
   wavefun                                 :    1079980. kBytes
 
     INWAV:  cpu time      0.0000: real time      0.0000
 Broyden mixing: mesh for mixing (old mesh)
   NGX =103   NGY = 29   NGZ =123
  (NGX  =420   NGY  =120   NGZ  =500)
  gives a total of 367401 points

 initial charge density was supplied:
 charge density of overlapping atoms calculated
 number of electron     368.0000000 magnetization 
 keeping initial charge density in first step


--------------------------------------------------------------------------------------------------------


 Maximum index for non-local projection operator          1870
 Maximum index for augmentation-charges          2388 (set IRDMAX)


--------------------------------------------------------------------------------------------------------


 First call to EWALD:  gamma=   0.090
 Maximum number of real-space cells   2x   6x   2
 Maximum number of reciprocal cells   4x   1x   4

    FEWALD:  cpu time      0.1593: real time      0.1594


--------------------------------------- Ionic step        1  -------------------------------------------




--------------------------------------- Iteration      1(   1)  ---------------------------------------


    POTLOK:  cpu time      0.4223: real time      0.4491
    SETDIJ:  cpu time      0.0415: real time      0.0415
     EDDAV:  cpu time     11.1464: real time     11.1557
       DOS:  cpu time      0.0008: real time      0.0008
    --------------------------------------------
      LOOP:  cpu time     11.6110: real time     11.6472

 eigenvalue-minimisations  :  1728
 total energy-change (2. order) : 0.3647329E+04  (-0.1198519E+05)
 number of electron     368.0000000 magnetization 
 augmentation part      368.0000000 magnetization 

 Free energy of the ion-electron system (eV)
  ---------------------------------------------------
  alpha Z        PSCENC =        91.34886789
  Ewald energy   TEWEN  =    120121.02544078
  -Hartree energ DENC   =   -129420.28642442
  -exchange      EXHF   =         0.00000000
  -V(xc)+E(xc)   XCENC  =      1223.13897752
  PAW double counting   =      9984.02826696   -10036.41360137
  entropy T*S    EENTRO =        -0.85956029
  eigenvalues    EBANDS =     -1852.30795605
  atomic energy  EATOM  =     13537.65479391
  Solvation  Ediel_sol  =         0.00000000
  ---------------------------------------------------
  free energy    TOTEN  =      3647.32880494 eV

  energy without entropy =     3648.18836523  energy(sigma->0) =     3647.75858509


--------------------------------------------------------------------------------------------------------




--------------------------------------- Iteration      1(   2)  ---------------------------------------


     EDDAV:  cpu time     13.0540: real time     13.0585
       DOS:  cpu time      0.0007: real time      0.0007
    --------------------------------------------
      LOOP:  cpu time     13.0547: real time     13.0592

 eigenvalue-minimisations  :  2128
 total energy-change (2. order) :-0.3475626E+04  (-0.3211209E+04)
 number of electron     368.0000000 magnetization 
 augmentation part      368.0000000 magnetization 

 Free energy of the ion-electron system (eV)
  ---------------------------------------------------
  alpha Z        PSCENC =        91.34886789
  Ewald energy   TEWEN  =    120121.02544078
  -Hartree energ DENC   =   -129420.28642442
  -exchange      EXHF   =         0.00000000
  -V(xc)+E(xc)   XCENC  =      1223.13897752
  PAW double counting   =      9984.02826696   -10036.41360137
  entropy T*S    EENTRO =        -0.27802150
  eigenvalues    EBANDS =     -5328.51531218
  atomic energy  EATOM  =     13537.65479391
  Solvation  Ediel_sol  =         0.00000000
  ---------------------------------------------------
  free energy    TOTEN  =       171.70298759 eV

  energy without entropy =      171.98100910  energy(sigma->0) =      171.84199835


--------------------------------------------------------------------------------------------------------




--------------------------------------- Iteration      1(   3)  ---------------------------------------


     EDDAV:  cpu time     11.3117: real time     11.3158
       DOS:  cpu time      0.0007: real time      0.0007
    --------------------------------------------
      LOOP:  cpu time     11.3124: real time     11.3165

 eigenvalue-minimisations  :  1792
 total energy-change (2. order) :-0.1007140E+04  (-0.9823558E+03)
 number of electron     368.0000000 magnetization 
 augmentation part      368.0000000 magnetization 

 Free energy of the ion-electron system (eV)
  ---------------------------------------------------
  alpha Z        PSCENC =        91.34886789
  Ewald energy   TEWEN  =    120121.02544078
  -Hartree energ DENC   =   -129420.28642442
  -exchange      EXHF   =         0.00000000
  -V(xc)+E(xc)   XCENC  =      1223.13897752
  PAW double counting   =      9984.02826696   -10036.41360137
  entropy T*S    EENTRO =        -0.05568409
  eigenvalues    EBANDS =     -6335.87800263
  atomic energy  EATOM  =     13537.65479391
  Solvation  Ediel_sol  =         0.00000000
  ---------------------------------------------------
  free energy    TOTEN  =      -835.43736544 eV

  energy without entropy =     -835.38168135  energy(sigma->0) =     -835.40952340


--------------------------------------------------------------------------------------------------------




--------------------------------------- Iteration      1(   4)  ---------------------------------------


     EDDAV:  cpu time     11.0647: real time     11.0689
       DOS:  cpu time      0.0007: real time      0.0007
    --------------------------------------------
      LOOP:  cpu time     11.0653: real time     11.0696

 eigenvalue-minimisations  :  1736
 total energy-change (2. order) :-0.6220635E+02  (-0.6114456E+02)
 number of electron     368.0000000 magnetization 
 augmentation part      368.0000000 magnetization 

 Free energy of the ion-electron system (eV)
  ---------------------------------------------------
  alpha Z        PSCENC =        91.34886789
  Ewald energy   TEWEN  =    120121.02544078
  -Hartree energ DENC   =   -129420.28642442
  -exchange      EXHF   =         0.00000000
  -V(xc)+E(xc)   XCENC  =      1223.13897752
  PAW double counting   =      9984.02826696   -10036.41360137
  entropy T*S    EENTRO =        -0.05800362
  eigenvalues    EBANDS =     -6398.08203451
  atomic energy  EATOM  =     13537.65479391
  Solvation  Ediel_sol  =         0.00000000
  ---------------------------------------------------
  free energy    TOTEN  =      -897.64371684 eV

  energy without entropy =     -897.58571323  energy(sigma->0) =     -897.61471503


--------------------------------------------------------------------------------------------------------




--------------------------------------- Iteration      1(   5)  ---------------------------------------


     EDDAV:  cpu time     11.1698: real time     11.1737
       DOS:  cpu time      0.0007: real time      0.0007
    CHARGE:  cpu time      1.2074: real time      1.2099
    MIXING:  cpu time      0.2768: real time      0.2769
    --------------------------------------------
      LOOP:  cpu time     12.6547: real time     12.6611

 eigenvalue-minimisations  :  1760
 total energy-change (2. order) :-0.1514578E+01  (-0.1488650E+01)
 number of electron     368.0000008 magnetization 
 augmentation part       10.2313178 magnetization 

 Broyden mixing:
  rms(total) = 0.46000E+01    rms(broyden)= 0.45994E+01
  rms(prec ) = 0.47186E+01
  weight for this iteration     100.00

 Free energy of the ion-electron system (eV)
  ---------------------------------------------------
  alpha Z        PSCENC =        91.34886789
  Ewald energy   TEWEN  =    120121.02544078
  -Hartree energ DENC   =   -129420.28642442
  -exchange      EXHF   =         0.00000000
  -V(xc)+E(xc)   XCENC  =      1223.13897752
  PAW double counting   =      9984.02826696   -10036.41360137
  entropy T*S    EENTRO =        -0.05842375
  eigenvalues    EBANDS =     -6399.59619213
  atomic energy  EATOM  =     13537.65479391
  Solvation  Ediel_sol  =         0.00000000
  ---------------------------------------------------
  free energy    TOTEN  =      -899.15829460 eV

  energy without entropy =     -899.09987085  energy(sigma->0) =     -899.12908273


--------------------------------------------------------------------------------------------------------




--------------------------------------- Iteration      1(   6)  ---------------------------------------


    POTLOK:  cpu time      0.3199: real time      0.3199
    SETDIJ:  cpu time      0.0403: real time      0.0403
     EDDAV:  cpu time     10.3026: real time     10.3073
       DOS:  cpu time      0.0007: real time      0.0007
    CHARGE:  cpu time      1.1620: real time      1.1637
    MIXING:  cpu time      0.2766: real time      0.2778
    --------------------------------------------
      LOOP:  cpu time     12.1021: real time     12.1097

 eigenvalue-minimisations  :  1584
 total energy-change (2. order) : 0.5083361E+02  (-0.4850245E+01)
 number of electron     368.0000008 magnetization 
 augmentation part        9.8011578 magnetization 

 Broyden mixing:
  rms(total) = 0.27031E+01    rms(broyden)= 0.27031E+01
  rms(prec ) = 0.27619E+01
  weight for this iteration     100.00

 eigenvalues of (default mixing * dielectric matrix)
  average eigenvalue GAMMA=   2.1817
  2.1817

 Free energy of the ion-electron system (eV)
  ---------------------------------------------------
  alpha Z        PSCENC =        91.34886789
  Ewald energy   TEWEN  =    120121.02544078
  -Hartree energ DENC   =   -129997.87623697
  -exchange      EXHF   =         0.00000000
  -V(xc)+E(xc)   XCENC  =      1246.71371106
  PAW double counting   =     19061.51279949   -19121.64130816
  entropy T*S    EENTRO =        -0.06551332
  eigenvalues    EBANDS =     -5786.99724275
  atomic energy  EATOM  =     13537.65479391
  Solvation  Ediel_sol  =         0.00000000
  ---------------------------------------------------
  free energy    TOTEN  =      -848.32468808 eV

  energy without entropy =     -848.25917476  energy(sigma->0) =     -848.29193142


--------------------------------------------------------------------------------------------------------




--------------------------------------- Iteration      1(   7)  ---------------------------------------


    POTLOK:  cpu time      0.3200: real time      0.3198
    SETDIJ:  cpu time      0.0405: real time      0.0405
     EDDAV:  cpu time     10.1726: real time     10.1782
       DOS:  cpu time      0.0007: real time      0.0007
    CHARGE:  cpu time      1.1555: real time      1.1559
    MIXING:  cpu time      0.2798: real time      0.2804
    --------------------------------------------
      LOOP:  cpu time     11.9691: real time     11.9756

 eigenvalue-minimisations  :  1560
 total energy-change (2. order) : 0.1895347E+02  (-0.6710985E+01)
 number of electron     368.0000008 magnetization 
 augmentation part        9.2396720 magnetization 

 Broyden mixing:
  rms(total) = 0.74495E+00    rms(broyden)= 0.74467E+00
  rms(prec ) = 0.75484E+00
  weight for this iteration     100.00

 eigenvalues of (default mixing * dielectric matrix)
  average eigenvalue GAMMA=   2.1876
  2.1876  2.1876

 Free energy of the ion-electron system (eV)
  ---------------------------------------------------
  alpha Z        PSCENC =        91.34886789
  Ewald energy   TEWEN  =    120121.02544078
  -Hartree energ DENC   =   -130773.56423240
  -exchange      EXHF   =         0.00000000
  -V(xc)+E(xc)   XCENC  =      1278.15962748
  PAW double counting   =     36991.93931812   -37059.09169869
  entropy T*S    EENTRO =        -0.07372552
  eigenvalues    EBANDS =     -5016.76960598
  atomic energy  EATOM  =     13537.65479391
  Solvation  Ediel_sol  =         0.00000000
  ---------------------------------------------------
  free energy    TOTEN  =      -829.37121440 eV

  energy without entropy =     -829.29748889  energy(sigma->0) =     -829.33435164


--------------------------------------------------------------------------------------------------------




--------------------------------------- Iteration      1(   8)  ---------------------------------------


    POTLOK:  cpu time      0.3197: real time      0.3197
    SETDIJ:  cpu time      0.0401: real time      0.0401
     EDDAV:  cpu time     10.3392: real time     10.3429
       DOS:  cpu time      0.0008: real time      0.0008
    CHARGE:  cpu time      1.1555: real time      1.1559
    MIXING:  cpu time      0.2828: real time      0.2828
    --------------------------------------------
      LOOP:  cpu time     12.1381: real time     12.1421

 eigenvalue-minimisations  :  1592
 total energy-change (2. order) : 0.3067366E+00  (-0.2411717E+00)
 number of electron     368.0000008 magnetization 
 augmentation part        9.2230460 magnetization 

 Broyden mixing:
  rms(total) = 0.10357E+00    rms(broyden)= 0.10354E+00
  rms(prec ) = 0.12607E+00
  weight for this iteration     100.00

 eigenvalues of (default mixing * dielectric matrix)
  average eigenvalue GAMMA=   1.8435
  1.1574  1.9556  2.4177

 Free energy of the ion-electron system (eV)
  ---------------------------------------------------
  alpha Z        PSCENC =        91.34886789
  Ewald energy   TEWEN  =    120121.02544078
  -Hartree energ DENC   =   -130869.58157378
  -exchange      EXHF   =         0.00000000
  -V(xc)+E(xc)   XCENC  =      1277.95266684
  PAW double counting   =     41319.04155920   -41383.51847087
  entropy T*S    EENTRO =        -0.07007219
  eigenvalues    EBANDS =     -4922.91768958
  atomic energy  EATOM  =     13537.65479391
  Solvation  Ediel_sol  =         0.00000000
  ---------------------------------------------------
  free energy    TOTEN  =      -829.06447781 eV

  energy without entropy =     -828.99440562  energy(sigma->0) =     -829.02944171


--------------------------------------------------------------------------------------------------------




--------------------------------------- Iteration      1(   9)  ---------------------------------------


    POTLOK:  cpu time      0.3209: real time      0.3209
    SETDIJ:  cpu time      0.0403: real time      0.0403
     EDDAV:  cpu time     10.5822: real time     10.5860
       DOS:  cpu time      0.0007: real time      0.0007
    CHARGE:  cpu time      1.1546: real time      1.1549
    MIXING:  cpu time      0.2862: real time      0.2862
    --------------------------------------------
      LOOP:  cpu time     12.3849: real time     12.3889

 eigenvalue-minimisations  :  1640
 total energy-change (2. order) : 0.1115250E+00  (-0.2629769E-01)
 number of electron     368.0000008 magnetization 
 augmentation part        9.2006059 magnetization 

 Broyden mixing:
  rms(total) = 0.58713E-01    rms(broyden)= 0.58704E-01
  rms(prec ) = 0.80855E-01
  weight for this iteration     100.00

 eigenvalues of (default mixing * dielectric matrix)
  average eigenvalue GAMMA=   1.6591
  2.1928  2.1928  1.0195  1.2314

 Free energy of the ion-electron system (eV)
  ---------------------------------------------------
  alpha Z        PSCENC =        91.34886789
  Ewald energy   TEWEN  =    120121.02544078
  -Hartree energ DENC   =   -130938.90944251
  -exchange      EXHF   =         0.00000000
  -V(xc)+E(xc)   XCENC  =      1279.33635782
  PAW double counting   =     41894.23933815   -41958.75670620
  entropy T*S    EENTRO =        -0.07056953
  eigenvalues    EBANDS =     -4854.82103315
  atomic energy  EATOM  =     13537.65479391
  Solvation  Ediel_sol  =         0.00000000
  ---------------------------------------------------
  free energy    TOTEN  =      -828.95295283 eV

  energy without entropy =     -828.88238330  energy(sigma->0) =     -828.91766807


--------------------------------------------------------------------------------------------------------




--------------------------------------- Iteration      1(  10)  ---------------------------------------


    POTLOK:  cpu time      0.3195: real time      0.3196
    SETDIJ:  cpu time      0.0403: real time      0.0403
     EDDAV:  cpu time     11.2128: real time     11.2191
       DOS:  cpu time      0.0007: real time      0.0007
    CHARGE:  cpu time      1.1542: real time      1.1562
    MIXING:  cpu time      0.2924: real time      0.2940
    --------------------------------------------
      LOOP:  cpu time     13.0199: real time     13.0299

 eigenvalue-minimisations  :  1768
 total energy-change (2. order) : 0.3844461E-01  (-0.4705688E-02)
 number of electron     368.0000008 magnetization 
 augmentation part        9.1898102 magnetization 

 Broyden mixing:
  rms(total) = 0.39113E-01    rms(broyden)= 0.39110E-01
  rms(prec ) = 0.59507E-01
  weight for this iteration     100.00

 eigenvalues of (default mixing * dielectric matrix)
  average eigenvalue GAMMA=   1.6885
  2.4011  2.4011  1.5627  1.2116  0.8660

 Free energy of the ion-electron system (eV)
  ---------------------------------------------------
  alpha Z        PSCENC =        91.34886789
  Ewald energy   TEWEN  =    120121.02544078
  -Hartree energ DENC   =   -130984.42466028
  -exchange      EXHF   =         0.00000000
  -V(xc)+E(xc)   XCENC  =      1279.68551155
  PAW double counting   =     41704.89115012   -41769.30655586
  entropy T*S    EENTRO =        -0.07081308
  eigenvalues    EBANDS =     -4809.71824324
  atomic energy  EATOM  =     13537.65479391
  Solvation  Ediel_sol  =         0.00000000
  ---------------------------------------------------
  free energy    TOTEN  =      -828.91450821 eV

  energy without entropy =     -828.84369514  energy(sigma->0) =     -828.87910168


--------------------------------------------------------------------------------------------------------




--------------------------------------- Iteration      1(  11)  ---------------------------------------


    POTLOK:  cpu time      0.3198: real time      0.3198
    SETDIJ:  cpu time      0.0401: real time      0.0401
     EDDAV:  cpu time     10.1261: real time     10.1295
       DOS:  cpu time      0.0007: real time      0.0007
    CHARGE:  cpu time      1.1628: real time      1.1666
    MIXING:  cpu time      0.2976: real time      0.2993
    --------------------------------------------
      LOOP:  cpu time     11.9471: real time     11.9561

 eigenvalue-minimisations  :  1552
 total energy-change (2. order) : 0.3517736E-01  (-0.2170572E-02)
 number of electron     368.0000008 magnetization 
 augmentation part        9.1854713 magnetization 

 Broyden mixing:
  rms(total) = 0.25080E-01    rms(broyden)= 0.25078E-01
  rms(prec ) = 0.40101E-01
  weight for this iteration     100.00

 eigenvalues of (default mixing * dielectric matrix)
  average eigenvalue GAMMA=   1.7720
  3.0229  2.5263  1.9264  0.9579  1.0994  1.0994

 Free energy of the ion-electron system (eV)
  ---------------------------------------------------
  alpha Z        PSCENC =        91.34886789
  Ewald energy   TEWEN  =    120121.02544078
  -Hartree energ DENC   =   -131049.84998108
  -exchange      EXHF   =         0.00000000
  -V(xc)+E(xc)   XCENC  =      1280.23610948
  PAW double counting   =     41609.24448622   -41673.54012546
  entropy T*S    EENTRO =        -0.07085262
  eigenvalues    EBANDS =     -4744.92806997
  atomic energy  EATOM  =     13537.65479391
  Solvation  Ediel_sol  =         0.00000000
  ---------------------------------------------------
  free energy    TOTEN  =      -828.87933086 eV

  energy without entropy =     -828.80847824  energy(sigma->0) =     -828.84390455


--------------------------------------------------------------------------------------------------------




--------------------------------------- Iteration      1(  12)  ---------------------------------------


    POTLOK:  cpu time      0.3196: real time      0.3197
    SETDIJ:  cpu time      0.0402: real time      0.0402
     EDDAV:  cpu time     10.1182: real time     10.1219
       DOS:  cpu time      0.0007: real time      0.0007
    CHARGE:  cpu time      1.1556: real time      1.1575
    MIXING:  cpu time      0.3061: real time      0.3067
    --------------------------------------------
      LOOP:  cpu time     11.9405: real time     11.9468

 eigenvalue-minimisations  :  1552
 total energy-change (2. order) : 0.8341835E-02  (-0.2734241E-02)
 number of electron     368.0000008 magnetization 
 augmentation part        9.1779580 magnetization 

 Broyden mixing:
  rms(total) = 0.15921E-01    rms(broyden)= 0.15917E-01
  rms(prec ) = 0.24303E-01
  weight for this iteration     100.00

 eigenvalues of (default mixing * dielectric matrix)
  average eigenvalue GAMMA=   2.0521
  4.7791  2.2986  2.2986  1.9154  1.0346  1.0193  1.0193

 Free energy of the ion-electron system (eV)
  ---------------------------------------------------
  alpha Z        PSCENC =        91.34886789
  Ewald energy   TEWEN  =    120121.02544078
  -Hartree energ DENC   =   -131121.31670857
  -exchange      EXHF   =         0.00000000
  -V(xc)+E(xc)   XCENC  =      1280.92150825
  PAW double counting   =     41648.47725798   -41712.74403573
  entropy T*S    EENTRO =        -0.07090218
  eigenvalues    EBANDS =     -4674.16721135
  atomic energy  EATOM  =     13537.65479391
  Solvation  Ediel_sol  =         0.00000000
  ---------------------------------------------------
  free energy    TOTEN  =      -828.87098902 eV

  energy without entropy =     -828.80008684  energy(sigma->0) =     -828.83553793


--------------------------------------------------------------------------------------------------------




--------------------------------------- Iteration      1(  13)  ---------------------------------------


    POTLOK:  cpu time      0.3197: real time      0.3198
    SETDIJ:  cpu time      0.0402: real time      0.0402
     EDDAV:  cpu time     10.1134: real time     10.1172
       DOS:  cpu time      0.0008: real time      0.0008
    CHARGE:  cpu time      1.1531: real time      1.1558
    MIXING:  cpu time      0.3155: real time      0.3155
    --------------------------------------------
      LOOP:  cpu time     11.9428: real time     11.9492

 eigenvalue-minimisations  :  1552
 total energy-change (2. order) :-0.1175309E-01  (-0.1033323E-02)
 number of electron     368.0000008 magnetization 
 augmentation part        9.1747157 magnetization 

 Broyden mixing:
  rms(total) = 0.87337E-02    rms(broyden)= 0.87311E-02
  rms(prec ) = 0.12389E-01
  weight for this iteration     100.00

 eigenvalues of (default mixing * dielectric matrix)
  average eigenvalue GAMMA=   2.0606
  5.4813  2.5444  2.1115  2.1115  1.1827  1.1827  0.9353  0.9353

 Free energy of the ion-electron system (eV)
  ---------------------------------------------------
  alpha Z        PSCENC =        91.34886789
  Ewald energy   TEWEN  =    120121.02544078
  -Hartree energ DENC   =   -131176.59696095
  -exchange      EXHF   =         0.00000000
  -V(xc)+E(xc)   XCENC  =      1281.16441907
  PAW double counting   =     41621.54231814   -41685.80896315
  entropy T*S    EENTRO =        -0.07083239
  eigenvalues    EBANDS =     -4619.14182541
  atomic energy  EATOM  =     13537.65479391
  Solvation  Ediel_sol  =         0.00000000
  ---------------------------------------------------
  free energy    TOTEN  =      -828.88274211 eV

  energy without entropy =     -828.81190972  energy(sigma->0) =     -828.84732592


--------------------------------------------------------------------------------------------------------




--------------------------------------- Iteration      1(  14)  ---------------------------------------


    POTLOK:  cpu time      0.3200: real time      0.3201
    SETDIJ:  cpu time      0.0401: real time      0.0401
     EDDAV:  cpu time     10.2399: real time     10.2437
       DOS:  cpu time      0.0008: real time      0.0008
    CHARGE:  cpu time      1.1587: real time      1.1590
    MIXING:  cpu time      0.3220: real time      0.3221
    --------------------------------------------
      LOOP:  cpu time     12.0814: real time     12.0857

 eigenvalue-minimisations  :  1576
 total energy-change (2. order) :-0.1632892E-01  (-0.1097169E-03)
 number of electron     368.0000008 magnetization 
 augmentation part        9.1743328 magnetization 

 Broyden mixing:
  rms(total) = 0.62199E-02    rms(broyden)= 0.62195E-02
  rms(prec ) = 0.85642E-02
  weight for this iteration     100.00

 eigenvalues of (default mixing * dielectric matrix)
  average eigenvalue GAMMA=   2.1746
  6.2404  2.7116  2.7116  1.8204  1.8204  1.2858  1.1004  0.9403  0.9403

 Free energy of the ion-electron system (eV)
  ---------------------------------------------------
  alpha Z        PSCENC =        91.34886789
  Ewald energy   TEWEN  =    120121.02544078
  -Hartree energ DENC   =   -131189.78928788
  -exchange      EXHF   =         0.00000000
  -V(xc)+E(xc)   XCENC  =      1281.14679795
  PAW double counting   =     41591.86888576   -41656.13887332
  entropy T*S    EENTRO =        -0.07083371
  eigenvalues    EBANDS =     -4605.94486241
  atomic energy  EATOM  =     13537.65479391
  Solvation  Ediel_sol  =         0.00000000
  ---------------------------------------------------
  free energy    TOTEN  =      -828.89907103 eV

  energy without entropy =     -828.82823732  energy(sigma->0) =     -828.86365418


--------------------------------------------------------------------------------------------------------




--------------------------------------- Iteration      1(  15)  ---------------------------------------


    POTLOK:  cpu time      0.3199: real time      0.3200
    SETDIJ:  cpu time      0.0402: real time      0.0402
     EDDAV:  cpu time      9.9982: real time     10.0018
       DOS:  cpu time      0.0008: real time      0.0008
    CHARGE:  cpu time      1.1567: real time      1.1569
    MIXING:  cpu time      0.3324: real time      0.3325
    --------------------------------------------
      LOOP:  cpu time     11.8482: real time     11.8521

 eigenvalue-minimisations  :  1528
 total energy-change (2. order) :-0.2217744E-01  (-0.2161681E-03)
 number of electron     368.0000008 magnetization 
 augmentation part        9.1736132 magnetization 

 Broyden mixing:
  rms(total) = 0.33490E-02    rms(broyden)= 0.33484E-02
  rms(prec ) = 0.45357E-02
  weight for this iteration     100.00

 eigenvalues of (default mixing * dielectric matrix)
  average eigenvalue GAMMA=   2.2323
  7.1380  3.4803  2.2384  2.0478  1.7917  1.3536  1.3536  0.9457  0.9457  1.0278

 Free energy of the ion-electron system (eV)
  ---------------------------------------------------
  alpha Z        PSCENC =        91.34886789
  Ewald energy   TEWEN  =    120121.02544078
  -Hartree energ DENC   =   -131201.96938243
  -exchange      EXHF   =         0.00000000
  -V(xc)+E(xc)   XCENC  =      1281.15120344
  PAW double counting   =     41620.45481704   -41684.72859067
  entropy T*S    EENTRO =        -0.07088563
  eigenvalues    EBANDS =     -4593.78751282
  atomic energy  EATOM  =     13537.65479391
  Solvation  Ediel_sol  =         0.00000000
  ---------------------------------------------------
  free energy    TOTEN  =      -828.92124848 eV

  energy without entropy =     -828.85036285  energy(sigma->0) =     -828.88580566


--------------------------------------------------------------------------------------------------------




--------------------------------------- Iteration      1(  16)  ---------------------------------------


    POTLOK:  cpu time      0.3204: real time      0.3204
    SETDIJ:  cpu time      0.0402: real time      0.0402
     EDDAV:  cpu time     10.3631: real time     10.3669
       DOS:  cpu time      0.0008: real time      0.0008
    CHARGE:  cpu time      1.1639: real time      1.1655
    MIXING:  cpu time      0.3386: real time      0.3402
    --------------------------------------------
      LOOP:  cpu time     12.2268: real time     12.2339

 eigenvalue-minimisations  :  1600
 total energy-change (2. order) :-0.8823429E-02  (-0.4640063E-04)
 number of electron     368.0000008 magnetization 
 augmentation part        9.1735074 magnetization 

 Broyden mixing:
  rms(total) = 0.23985E-02    rms(broyden)= 0.23983E-02
  rms(prec ) = 0.29913E-02
  weight for this iteration     100.00

 eigenvalues of (default mixing * dielectric matrix)
  average eigenvalue GAMMA=   2.3391
  7.8409  4.0753  2.4747  2.4747  1.8904  1.4879  1.4879  0.9795  0.9795  1.0200
  1.0200

 Free energy of the ion-electron system (eV)
  ---------------------------------------------------
  alpha Z        PSCENC =        91.34886789
  Ewald energy   TEWEN  =    120121.02544078
  -Hartree energ DENC   =   -131206.24134515
  -exchange      EXHF   =         0.00000000
  -V(xc)+E(xc)   XCENC  =      1281.12838164
  PAW double counting   =     41601.54004706   -41665.81627196
  entropy T*S    EENTRO =        -0.07087306
  eigenvalues    EBANDS =     -4589.49911301
  atomic energy  EATOM  =     13537.65479391
  Solvation  Ediel_sol  =         0.00000000
  ---------------------------------------------------
  free energy    TOTEN  =      -828.93007191 eV

  energy without entropy =     -828.85919885  energy(sigma->0) =     -828.89463538


--------------------------------------------------------------------------------------------------------




--------------------------------------- Iteration      1(  17)  ---------------------------------------


    POTLOK:  cpu time      0.3203: real time      0.3201
    SETDIJ:  cpu time      0.0402: real time      0.0402
     EDDAV:  cpu time     10.1484: real time     10.1519
       DOS:  cpu time      0.0007: real time      0.0007
    CHARGE:  cpu time      1.1578: real time      1.1587
    MIXING:  cpu time      0.3513: real time      0.3514
    --------------------------------------------
      LOOP:  cpu time     12.0187: real time     12.0231

 eigenvalue-minimisations  :  1560
 total energy-change (2. order) :-0.6261580E-02  (-0.4599415E-04)
 number of electron     368.0000008 magnetization 
 augmentation part        9.1734900 magnetization 

 Broyden mixing:
  rms(total) = 0.11803E-02    rms(broyden)= 0.11803E-02
  rms(prec ) = 0.14816E-02
  weight for this iteration     100.00

 eigenvalues of (default mixing * dielectric matrix)
  average eigenvalue GAMMA=   2.3437
  8.3809  4.4893  2.4851  2.2036  2.2036  1.5178  1.3936  1.3936  1.1767  0.9551
  0.9551  0.9697

 Free energy of the ion-electron system (eV)
  ---------------------------------------------------
  alpha Z        PSCENC =        91.34886789
  Ewald energy   TEWEN  =    120121.02544078
  -Hartree energ DENC   =   -131208.61031452
  -exchange      EXHF   =         0.00000000
  -V(xc)+E(xc)   XCENC  =      1281.12396433
  PAW double counting   =     41610.84562987   -41675.11437901
  entropy T*S    EENTRO =        -0.07086666
  eigenvalues    EBANDS =     -4587.13947007
  atomic energy  EATOM  =     13537.65479391
  Solvation  Ediel_sol  =         0.00000000
  ---------------------------------------------------
  free energy    TOTEN  =      -828.93633349 eV

  energy without entropy =     -828.86546682  energy(sigma->0) =     -828.90090015


--------------------------------------------------------------------------------------------------------




--------------------------------------- Iteration      1(  18)  ---------------------------------------


    POTLOK:  cpu time      0.3202: real time      0.3202
    SETDIJ:  cpu time      0.0402: real time      0.0403
     EDDAV:  cpu time     10.8407: real time     10.8453
       DOS:  cpu time      0.0008: real time      0.0008
    CHARGE:  cpu time      1.1571: real time      1.1572
    MIXING:  cpu time      0.3597: real time      0.3611
    --------------------------------------------
      LOOP:  cpu time     12.7187: real time     12.7248

 eigenvalue-minimisations  :  1696
 total energy-change (2. order) :-0.1716704E-02  (-0.6476612E-05)
 number of electron     368.0000008 magnetization 
 augmentation part        9.1733329 magnetization 

 Broyden mixing:
  rms(total) = 0.71623E-03    rms(broyden)= 0.71611E-03
  rms(prec ) = 0.91507E-03
  weight for this iteration     100.00

 eigenvalues of (default mixing * dielectric matrix)
  average eigenvalue GAMMA=   2.3945
  8.8900  4.9508  2.8966  2.5745  1.7555  1.7555  1.5371  1.5371  0.9527  0.9527
  0.9920  1.1673  1.1673

 Free energy of the ion-electron system (eV)
  ---------------------------------------------------
  alpha Z        PSCENC =        91.34886789
  Ewald energy   TEWEN  =    120121.02544078
  -Hartree energ DENC   =   -131209.53673089
  -exchange      EXHF   =         0.00000000
  -V(xc)+E(xc)   XCENC  =      1281.12674104
  PAW double counting   =     41610.03322264   -41674.30429447
  entropy T*S    EENTRO =        -0.07087029
  eigenvalues    EBANDS =     -4586.21522080
  atomic energy  EATOM  =     13537.65479391
  Solvation  Ediel_sol  =         0.00000000
  ---------------------------------------------------
  free energy    TOTEN  =      -828.93805019 eV

  energy without entropy =     -828.86717990  energy(sigma->0) =     -828.90261505


--------------------------------------------------------------------------------------------------------




--------------------------------------- Iteration      1(  19)  ---------------------------------------


    POTLOK:  cpu time      0.3204: real time      0.3204
    SETDIJ:  cpu time      0.0401: real time      0.0401
     EDDAV:  cpu time      9.9862: real time      9.9897
       DOS:  cpu time      0.0007: real time      0.0007
    CHARGE:  cpu time      1.1557: real time      1.1567
    MIXING:  cpu time      0.3707: real time      0.3730
    --------------------------------------------
      LOOP:  cpu time     11.8738: real time     11.8806

 eigenvalue-minimisations  :  1528
 total energy-change (2. order) :-0.1284379E-02  (-0.5487133E-05)
 number of electron     368.0000008 magnetization 
 augmentation part        9.1734321 magnetization 

 Broyden mixing:
  rms(total) = 0.42720E-03    rms(broyden)= 0.42718E-03
  rms(prec ) = 0.51472E-03
  weight for this iteration     100.00

 eigenvalues of (default mixing * dielectric matrix)
  average eigenvalue GAMMA=   2.3885
  8.9568  5.5140  3.1295  2.4066  2.0769  2.0769  1.5062  1.5062  1.2325  1.2325
  0.9441  0.9441  0.9566  0.9566

 Free energy of the ion-electron system (eV)
  ---------------------------------------------------
  alpha Z        PSCENC =        91.34886789
  Ewald energy   TEWEN  =    120121.02544078
  -Hartree energ DENC   =   -131209.74050901
  -exchange      EXHF   =         0.00000000
  -V(xc)+E(xc)   XCENC  =      1281.11998436
  PAW double counting   =     41606.61439696   -41670.88274923
  entropy T*S    EENTRO =        -0.07086728
  eigenvalues    EBANDS =     -4586.00869294
  atomic energy  EATOM  =     13537.65479391
  Solvation  Ediel_sol  =         0.00000000
  ---------------------------------------------------
  free energy    TOTEN  =      -828.93933457 eV

  energy without entropy =     -828.86846729  energy(sigma->0) =     -828.90390093


--------------------------------------------------------------------------------------------------------




--------------------------------------- Iteration      1(  20)  ---------------------------------------


    POTLOK:  cpu time      0.3199: real time      0.3199
    SETDIJ:  cpu time      0.0405: real time      0.0404
     EDDAV:  cpu time      9.2234: real time      9.2267
       DOS:  cpu time      0.0008: real time      0.0008
    CHARGE:  cpu time      1.1549: real time      1.1572
    MIXING:  cpu time      0.3848: real time      0.3848
    --------------------------------------------
      LOOP:  cpu time     11.1242: real time     11.1298

 eigenvalue-minimisations  :  1368
 total energy-change (2. order) :-0.3685206E-03  (-0.6741317E-06)
 number of electron     368.0000008 magnetization 
 augmentation part        9.1734019 magnetization 

 Broyden mixing:
  rms(total) = 0.25387E-03    rms(broyden)= 0.25386E-03
  rms(prec ) = 0.30843E-03
  weight for this iteration     100.00

 eigenvalues of (default mixing * dielectric matrix)
  average eigenvalue GAMMA=   2.4262
  9.1962  5.8150  3.6073  2.4898  2.4898  1.9196  1.5809  1.5809  1.3682  1.3682
  0.9527  0.9527  1.0613  1.0051  1.0051

 Free energy of the ion-electron system (eV)
  ---------------------------------------------------
  alpha Z        PSCENC =        91.34886789
  Ewald energy   TEWEN  =    120121.02544078
  -Hartree energ DENC   =   -131209.97675065
  -exchange      EXHF   =         0.00000000
  -V(xc)+E(xc)   XCENC  =      1281.12123837
  PAW double counting   =     41607.62545233   -41671.89452995
  entropy T*S    EENTRO =        -0.07086637
  eigenvalues    EBANDS =     -4585.77334940
  atomic energy  EATOM  =     13537.65479391
  Solvation  Ediel_sol  =         0.00000000
  ---------------------------------------------------
  free energy    TOTEN  =      -828.93970309 eV

  energy without entropy =     -828.86883672  energy(sigma->0) =     -828.90426990


--------------------------------------------------------------------------------------------------------




--------------------------------------- Iteration      1(  21)  ---------------------------------------


    POTLOK:  cpu time      0.3201: real time      0.3201
    SETDIJ:  cpu time      0.0401: real time      0.0401
     EDDAV:  cpu time      8.6580: real time      8.6612
       DOS:  cpu time      0.0008: real time      0.0008
    CHARGE:  cpu time      1.1633: real time      1.1652
    MIXING:  cpu time      0.3966: real time      0.3973
    --------------------------------------------
      LOOP:  cpu time     10.5790: real time     10.5848

 eigenvalue-minimisations  :  1256
 total energy-change (2. order) :-0.2527774E-03  (-0.3079324E-06)
 number of electron     368.0000008 magnetization 
 augmentation part        9.1733799 magnetization 

 Broyden mixing:
  rms(total) = 0.11217E-03    rms(broyden)= 0.11215E-03
  rms(prec ) = 0.13947E-03
  weight for this iteration     100.00

 eigenvalues of (default mixing * dielectric matrix)
  average eigenvalue GAMMA=   2.4092
  9.2151  6.1868  3.9033  2.6521  2.4312  1.9121  1.8695  1.5438  1.5438  1.2405
  1.2405  1.0152  0.9468  0.9468  0.9500  0.9500

 Free energy of the ion-electron system (eV)
  ---------------------------------------------------
  alpha Z        PSCENC =        91.34886789
  Ewald energy   TEWEN  =    120121.02544078
  -Hartree energ DENC   =   -131210.11467730
  -exchange      EXHF   =         0.00000000
  -V(xc)+E(xc)   XCENC  =      1281.12159625
  PAW double counting   =     41606.91846277   -41671.18850949
  entropy T*S    EENTRO =        -0.07086782
  eigenvalues    EBANDS =     -4585.63506287
  atomic energy  EATOM  =     13537.65479391
  Solvation  Ediel_sol  =         0.00000000
  ---------------------------------------------------
  free energy    TOTEN  =      -828.93995587 eV

  energy without entropy =     -828.86908805  energy(sigma->0) =     -828.90452196


[...]
   -.523E+01 -.134E+02 -.859E+01   0.521E+01 0.143E+02 0.836E+01   0.898E+00 0.609E+00 0.152E+00   0.110E-05 -.348E-05 -.899E-06
   0.338E+01 -.493E+01 0.263E+02   -.297E+01 0.470E+01 -.262E+02   0.147E-01 -.420E+00 -.263E+00   -.462E-05 0.231E-05 -.385E-06
   -.101E+02 0.196E+02 -.334E+02   0.106E+02 -.206E+02 0.338E+02   0.104E+01 -.420E-01 -.152E+01   -.200E-05 -.130E-06 -.468E-06
   0.112E+02 0.107E+02 0.518E+02   -.113E+02 -.106E+02 -.519E+02   0.227E+00 -.715E+00 0.501E+00   -.117E-05 0.318E-05 -.750E-06
   0.339E+01 -.750E+01 -.143E+02   -.508E+01 0.698E+01 0.146E+02   -.479E+00 -.143E+01 0.186E+00   -.377E-05 0.743E-06 0.394E-06
   0.211E+02 -.174E+02 0.768E+02   -.214E+02 0.188E+02 -.766E+02   0.647E+00 0.391E+00 -.374E+00   -.471E-05 -.361E-05 -.763E-06
   -.238E+02 0.118E+02 -.279E+02   0.259E+02 -.115E+02 0.277E+02   0.229E+00 0.545E+00 -.171E+01   -.735E-05 0.173E-05 0.136E-05
   0.185E+02 0.107E+02 0.121E+03   -.179E+02 -.109E+02 -.121E+03   0.821E+00 0.346E+00 0.104E+01   -.489E-05 -.146E-05 0.325E-06
   0.766E+01 -.103E+02 0.213E+02   -.853E+01 0.102E+02 -.205E+02   -.135E+01 0.246E+00 -.116E+01   -.241E-05 0.128E-05 0.530E-06
   0.207E+02 -.189E+02 0.152E+03   -.214E+02 0.204E+02 -.152E+03   -.670E+00 0.994E+00 0.234E+00   -.142E-05 -.479E-05 0.341E-06
   0.221E+02 0.931E+01 0.135E+03   -.223E+02 -.901E+01 -.135E+03   0.819E-01 0.352E+00 0.942E+00   0.937E-07 0.233E-06 0.375E-06
   0.983E+01 0.105E+02 0.169E+03   -.989E+01 -.110E+02 -.169E+03   0.687E-01 -.411E+00 -.310E+00   -.294E-05 0.343E-05 0.136E-05
   0.187E+01 -.749E+01 0.154E+03   -.162E+01 0.776E+01 -.155E+03   -.116E+00 -.149E+00 0.563E+00   0.117E-05 0.164E-05 0.186E-05
   -.127E+02 -.106E+02 0.208E+03   0.131E+02 0.110E+02 -.208E+03   0.553E+00 0.305E+00 0.874E+00   -.158E-05 0.257E-05 0.120E-05
   0.196E+01 0.166E+02 0.956E+02   -.236E+01 -.176E+02 -.956E+02   0.581E+00 -.112E+01 -.214E+00   0.250E-05 0.470E-05 0.226E-05
   -.185E+02 0.139E+02 0.171E+03   0.177E+02 -.143E+02 -.171E+03   0.264E+00 -.499E+00 0.173E+00   0.991E-06 0.641E-05 0.947E-06
   -.150E+02 -.402E+01 0.852E+02   0.153E+02 0.390E+01 -.848E+02   0.129E+01 -.424E+00 -.138E+01   -.251E-05 0.391E-05 0.379E-06
   -.278E+02 -.934E+01 0.168E+03   0.279E+02 0.962E+01 -.169E+03   0.900E+00 -.261E+00 0.138E+01   -.263E-06 -.177E-05 -.167E-05
   -.275E+02 0.955E+01 0.139E+03   0.270E+02 -.914E+01 -.139E+03   -.365E-01 0.792E+00 0.158E+01   -.605E-05 0.458E-05 -.119E-05
   -.301E+02 0.114E+02 0.730E+02   0.305E+02 -.113E+02 -.725E+02   0.161E+01 0.362E-01 -.113E+01   0.536E-06 -.224E-05 -.196E-05
   -.512E+02 -.172E+02 0.111E+03   0.529E+02 0.174E+02 -.110E+03   0.249E+00 -.152E+00 0.109E+01   -.329E-05 0.151E-05 -.315E-05
   -.206E+02 -.363E+02 0.732E+02   0.206E+02 0.392E+02 -.736E+02   0.367E+00 0.315E+00 0.274E+00   0.221E-05 -.146E-04 -.209E-06
   -.160E+01 0.198E+02 0.407E+02   0.298E-01 -.204E+02 -.410E+02   -.542E+00 -.267E+00 -.727E+00   0.270E-05 0.342E-05 0.916E-07
   -.140E+02 -.242E+00 0.636E+02   0.131E+02 0.149E+01 -.640E+02   -.126E+01 0.108E+01 -.262E+00   0.439E-05 -.402E-05 -.439E-06
   -.144E+02 0.578E+00 0.383E+02   0.150E+02 -.219E+01 -.386E+02   0.267E+00 -.589E+00 0.820E+00   0.385E-05 0.129E-05 0.335E-06
   -.226E+02 -.731E+01 0.217E+02   0.230E+02 0.665E+01 -.222E+02   -.352E+00 0.727E+00 0.122E+01   0.112E-05 -.895E-05 0.115E-05
   -.485E+01 0.124E+02 -.498E+02   0.514E+01 -.137E+02 0.500E+02   0.121E+01 -.689E+00 -.427E+00   -.677E-06 0.818E-05 0.725E-06
   0.971E+01 0.600E+02 -.674E+02   -.128E+02 -.608E+02 0.673E+02   0.466E+00 0.277E+01 -.129E+01   -.617E-05 -.428E-05 -.792E-06
   0.193E+02 -.610E+02 -.598E+02   -.238E+02 0.615E+02 0.588E+02   0.890E+00 -.105E+01 0.865E-01   -.288E-05 0.953E-06 -.230E-06
   0.157E+02 0.654E+02 -.419E+02   -.129E+02 -.660E+02 0.418E+02   -.104E+01 0.208E+01 0.138E+01   -.716E-06 -.287E-05 0.277E-05
   0.177E+02 -.648E+02 -.706E+02   -.142E+02 0.659E+02 0.711E+02   -.109E+01 -.143E+01 0.446E+00   -.184E-05 -.216E-05 0.247E-05
   0.343E+02 0.751E+00 -.126E+03   -.344E+02 -.156E+01 0.127E+03   -.661E-01 -.115E+01 -.219E+01   0.273E-05 -.161E-05 0.213E-05
   0.299E+02 0.112E+02 -.129E+03   -.304E+02 -.130E+02 0.130E+03   -.790E+00 -.141E+01 -.815E+00   0.191E-06 0.820E-05 0.719E-06
   0.831E+01 0.143E+02 -.135E+03   -.773E+01 -.147E+02 0.135E+03   -.932E+00 0.503E+00 0.629E+00   -.235E-05 -.537E-05 0.677E-06
   0.135E+02 -.181E+02 -.178E+03   -.124E+02 0.193E+02 0.179E+03   0.115E+01 0.121E+01 -.138E+01   -.445E-05 -.591E-05 0.748E-06
   0.149E+02 -.166E+02 -.130E+03   -.153E+02 0.175E+02 0.130E+03   -.101E+01 0.137E+00 0.106E+00   -.867E-06 -.531E-05 -.762E-06
   0.101E+02 0.202E+02 -.129E+03   -.107E+02 -.214E+02 0.128E+03   0.122E+00 -.473E+00 0.157E+01   0.233E-06 0.227E-05 0.742E-06
   -.289E+01 -.104E+01 -.176E+03   0.291E+01 0.236E+01 0.176E+03   0.670E-01 0.563E+00 -.129E+01   0.354E-05 -.503E-05 -.656E-06
   0.783E+01 -.834E+01 -.155E+03   -.923E+01 0.780E+01 0.156E+03   -.580E+00 -.685E+00 0.298E+00   0.860E-05 -.371E-05 0.328E-06
   -.135E+02 -.137E+02 -.110E+03   0.137E+02 0.146E+02 0.109E+03   0.645E+00 -.520E+00 0.978E+00   0.257E-05 -.782E-06 0.873E-06
   -.190E+02 0.528E+01 -.168E+03   0.194E+02 -.464E+01 0.168E+03   -.351E+00 0.126E+01 -.420E+00   0.693E-05 0.398E-06 -.747E-07
   -.316E+02 0.121E+02 -.180E+03   0.320E+02 -.117E+02 0.181E+03   -.852E-02 0.785E+00 -.284E+01   0.123E-05 -.227E-06 0.335E-07
   -.291E+02 -.111E+02 -.140E+03   0.298E+02 0.106E+02 0.139E+03   -.981E-01 -.266E+00 0.969E+00   0.137E-05 -.519E-06 0.152E-05
   -.334E+01 -.941E+01 -.431E+02   0.235E+01 0.861E+01 0.426E+02   0.111E+01 -.150E+01 0.169E+01   0.331E-05 -.132E-05 0.867E-07
   -.267E+02 0.102E+02 -.103E+03   0.274E+02 -.105E+02 0.103E+03   -.416E+00 -.255E+00 -.568E+00   0.325E-06 0.279E-05 0.442E-06
   -.142E+02 0.104E+02 -.289E+02   0.156E+02 -.104E+02 0.288E+02   0.364E+00 0.127E+01 -.497E+00   0.204E-06 -.127E-05 -.472E-06
   -.148E+02 -.132E+02 -.604E+02   0.144E+02 0.134E+02 0.606E+02   -.494E+00 0.818E+00 0.105E+00   0.104E-06 -.343E-05 0.427E-06
   0.563E+01 -.216E+02 0.276E+02   -.607E+01 0.227E+02 -.280E+02   -.620E+00 0.669E+00 0.155E+01   -.451E-07 -.215E-05 -.332E-06
   -.604E+01 0.691E+01 -.169E+02   0.617E+01 -.676E+01 0.167E+02   0.343E-01 0.147E+00 -.781E-01   0.663E-06 -.156E-06 -.736E-06
   0.973E+01 0.162E+02 0.326E+02   -.952E+01 -.178E+02 -.326E+02   -.209E+00 -.903E+00 -.250E-01   -.277E-05 0.160E-05 -.735E-06
   -.162E+01 -.205E+02 0.493E+01   0.203E+01 0.224E+02 -.488E+01   -.338E+00 0.450E+00 -.549E+00   -.543E-06 -.407E-05 -.122E-05
   0.147E+02 -.765E+01 0.659E+02   -.153E+02 0.747E+01 -.661E+02   0.138E+00 0.306E+00 0.119E+01   -.474E-05 0.507E-06 0.540E-06
   0.145E+02 0.163E+02 0.595E+02   -.149E+02 -.179E+02 -.595E+02   -.532E+00 -.703E+00 0.517E+00   -.325E-05 0.119E-05 -.419E-06
   0.165E+02 0.145E+02 0.945E+02   -.163E+02 -.152E+02 -.945E+02   0.466E+00 -.106E+00 -.249E+00   -.506E-05 0.344E-05 0.726E-06
   0.137E+02 -.131E+02 0.745E+02   -.141E+02 0.138E+02 -.741E+02   -.485E+00 0.307E+00 -.685E+00   -.241E-05 -.793E-06 -.316E-06
   0.195E+02 -.126E+02 0.151E+03   -.195E+02 0.127E+02 -.150E+03   0.420E+00 -.197E+00 0.211E-01   -.504E-05 -.245E-05 0.128E-05
   0.124E+02 0.147E+02 0.135E+03   -.118E+02 -.158E+02 -.135E+03   0.453E+00 0.164E+00 0.581E+00   -.486E-05 0.688E-06 0.156E-05
   0.951E+01 0.153E+02 0.186E+03   -.947E+01 -.157E+02 -.187E+03   -.160E-01 0.621E+00 0.201E+01   0.366E-05 -.821E-06 0.258E-05
   0.290E+01 -.153E+02 0.128E+03   -.312E+01 0.155E+02 -.127E+03   -.366E+00 0.471E+00 -.147E+01   -.645E-05 -.495E-06 0.198E-05
   -.605E+00 -.183E+02 0.941E+02   -.637E+00 0.193E+02 -.940E+02   -.120E+01 -.502E+00 -.111E+01   0.636E-05 -.479E-05 0.211E-05
   -.159E+02 0.149E+02 0.184E+03   0.169E+02 -.155E+02 -.184E+03   0.315E+00 0.123E+00 0.336E+00   -.240E-05 0.583E-06 0.108E-05
   -.119E+02 -.684E+00 0.953E+02   0.126E+02 0.207E+01 -.952E+02   0.286E+00 0.325E+00 -.221E+00   -.213E-05 -.686E-05 0.153E-05
   -.192E+02 -.170E+02 0.170E+03   0.191E+02 0.176E+02 -.170E+03   -.137E+01 -.462E+00 0.458E+00   0.201E-05 -.887E-05 0.183E-05
   -.251E+02 -.642E+01 0.677E+02   0.257E+02 0.570E+01 -.674E+02   0.295E+00 -.180E+00 0.491E-01   -.488E-05 -.246E-06 -.150E-05
   -.288E+02 0.833E+01 0.139E+03   0.284E+02 -.872E+01 -.140E+03   -.206E+01 -.331E+00 -.245E+00   0.558E-05 0.141E-06 0.328E-06
   -.797E+00 0.199E+02 -.492E+01   0.665E+00 -.211E+02 0.533E+01   0.219E+00 0.442E+00 -.533E+00   -.117E-05 0.327E-05 -.887E-06
   -.110E+02 -.138E+02 0.339E+02   0.115E+02 0.148E+02 -.334E+02   -.153E+00 0.112E+01 -.919E+00   0.823E-05 0.145E-05 0.165E-05
   0.643E+01 -.399E+01 -.438E+02   -.588E+01 0.422E+01 0.440E+02   -.819E+00 -.523E+00 0.116E+00   0.159E-05 0.423E-05 0.195E-05
   -.543E+01 0.109E+02 0.405E+02   0.352E+01 -.121E+02 -.416E+02   -.617E+00 -.130E+01 0.987E+00   0.558E-05 -.411E-05 0.170E-05
   0.269E+02 0.196E+02 -.150E+03   -.269E+02 -.201E+02 0.151E+03   -.377E+00 -.618E+00 -.279E+01   0.337E-05 0.521E-05 0.216E-05
   0.729E+01 -.107E+02 -.683E+02   -.562E+01 0.100E+02 0.690E+02   0.242E+01 -.938E+00 0.136E+01   -.208E-05 0.538E-05 -.171E-05
   0.132E+02 0.270E+01 -.714E+02   -.145E+02 -.211E+01 0.705E+02   -.115E+01 0.555E+00 0.146E+01   0.371E-05 0.305E-05 0.251E-05
   0.166E+02 -.328E+00 -.826E+02   -.182E+02 0.689E+00 0.819E+02   0.546E+00 0.968E+00 -.240E+00   -.237E-05 0.205E-06 -.326E-06
   0.263E+01 0.663E+02 -.111E+03   -.480E+01 -.675E+02 0.112E+03   0.166E+01 0.119E+01 -.404E+00   -.677E-05 -.148E-06 0.233E-06
   0.115E+02 -.634E+02 -.146E+03   -.138E+02 0.642E+02 0.147E+03   0.156E+01 -.176E+01 -.112E+01   -.873E-05 -.252E-05 -.616E-06
 -----------------------------------------------------------------------------------------------
   0.847E-01 -.373E+00 0.198E+01   0.409E-13 -.142E-13 0.313E-12   -.187E-01 0.432E+00 -.198E+01   -.179E-05 -.278E-05 0.323E-04
 
 
 POSITION                                       TOTAL-FORCE (eV/Angst)
 -----------------------------------------------------------------------------------
      0.24688      0.85302     17.63050        -0.411513      1.994203     -0.493784
      0.18769      2.25312     17.58030         3.801497     -0.334276      0.986590
      1.37203      0.19696     17.86250         2.594651      1.405167      0.604316
      1.39177      2.93551     17.82230        -1.891538     -0.841104     -0.161528
      2.63876      0.87344     17.97700        -2.252783     -0.009525      0.124882
      2.61201      2.23154     17.91310        -0.689559      0.695374      0.130935
      3.81577      0.22873     18.26220         1.579067     -0.773596     -1.128447
      3.81918      2.90059     18.04790         0.444691     -1.322731     -0.115469
      5.07366      0.86631     18.11480        -0.344731     -2.110471      0.670728
      5.02227      2.19046     17.98520         1.647526      3.039687     -0.427030
      6.30835      0.17378     18.10970        -0.155670     -0.067124     -0.449631
      6.25245      2.91005     17.84340        -0.042254     -2.862589     -0.189298
      7.48613      0.82040     17.74000         0.796423      0.637786     -0.832906
      7.45451      2.19574     17.58020         0.051382      0.415310      1.050494
      8.71660      0.17630     17.40740        -1.078513     -0.761957      0.694395
      8.69430      2.84758     17.43790        -0.840314      0.649107     -1.135852
      9.85952      0.82990     16.95100         0.425283     -0.914059      0.549142
      9.85824      2.17561     17.05130         0.882752      1.595464     -0.077847
     11.07600      0.17852     16.65580         0.423669     -0.656276     -0.239835
     11.07930      2.84924     16.79530         1.497916     -1.107224     -1.085558
     12.27550      0.84926     16.29220         0.082998     -0.635941      0.398822
     12.33040      2.22334     16.43630        -2.175353     -1.953048      0.503381
     13.45770      0.14969     15.91100         0.379291      1.789225     -0.149195
     13.52350      2.83436     16.16820         2.397504      0.845707     -1.826781
     14.66860      0.79511     15.55550         1.386048      0.147765      0.518656
     14.75550      2.15734     15.74530        -2.231366      0.069392     -0.454270
     15.91730      0.11648     15.23070        -1.327638      2.515311      0.182010
     15.90580      2.82901     15.31270        -0.117027      0.650371      0.699473
     17.13640      0.83256     15.06240         0.015104     -0.923366     -0.169908
     17.14100      2.19904     15.13710         0.141351      0.121062      0.284989
     18.37360      0.16295     14.95560         1.024563      0.702580      0.677629
     18.36920      2.89648     15.25850         0.174487     -2.195904     -0.221151
     19.62300      0.85749     15.14010        -0.576571     -0.966371     -0.130300
     19.58300      2.21674     15.33910         1.596489     -0.537333     -0.971005
     20.86290      0.19808     15.34430         1.000655      0.018348      0.895395
     20.85080      2.85872     15.47440        -0.527372      1.202279      1.288268
     22.03470      0.85627     15.78890         2.053951      0.085924     -0.624298
     22.06040      2.23104     15.76040         1.998417      0.039382      1.215085
     23.27770      0.17857     16.17510         0.426738      3.247701     -0.189014
     23.28530      2.90448     16.30960        -2.118214     -0.810509     -1.062538
     24.54530      0.81789     16.54820        -2.199297      2.320395     -0.678773
     24.47670      2.24591     16.61180         0.816456     -2.201386      0.484093
     25.69760      0.15507     16.98820         0.118601      0.070873      0.710545
     25.61350      2.90465     17.13630         1.503246     -2.030062     -0.300730
     26.86620      0.79399     17.41390        -2.663952      1.975800     -1.389661
     26.82750      2.20205     17.40950        -3.564243     -0.518239     -0.890892
      0.14434      4.92331     17.74280         1.723011      1.501897      1.341702
      0.11489      6.31168     17.79570         2.389022     -0.356646      0.983532
      1.34851      4.30635     18.03410        -0.107124     -1.959454     -1.346766
      1.33812      6.97646     18.06250        -1.268681     -3.227540     -0.138132
      2.59582      4.91212     18.22360        -0.347596      0.076793      0.513907
      2.53761      6.25958     18.30970         2.197965      2.335212     -0.753143
      3.85522      4.23660     18.23000        -1.494222      1.036930      0.068899
      3.83231      6.96285     18.28280        -0.486883     -1.720355      1.213752
      5.07229      4.87928     18.31460         0.087120      1.883813     -0.387753
      5.10047      6.28308     18.31620        -1.977336     -1.223986      0.596545
      6.27787      4.23720     18.05880         0.911651      0.384616      0.693550
      6.33864      6.89062     18.21840         0.029940      1.898154     -0.206401
      7.53917      4.86616     18.01430         0.388073      1.217554     -1.706197
      7.56283      6.25558     17.98120         0.528931     -0.732575      0.631779
      8.68698      4.24686     17.47880         0.113122     -2.295168      1.193115
      8.76242      6.91072     17.59650         0.274272     -0.530137     -0.459311
      9.89137      4.83915     17.14120         1.730262      1.317065     -0.608090
      9.95689      6.21084     17.19400        -0.856345      1.030904      0.263360
     11.10190      4.18725     16.68920        -1.062021      1.819646      1.186762
     11.12110      6.89103     16.76080         0.172506      0.298271     -0.248075
     12.30120      4.88540     16.33860        -0.002695     -2.500694     -0.020162
     12.32010      6.22057     16.37970         0.077956      2.371357     -0.502858
     13.50150      4.20143     15.97480        -0.404163      0.125506      1.007568
     13.51080      6.90974     15.94020        -0.949539     -2.248423      0.509212
     14.68240      4.86681     15.60440         0.668277     -0.829842     -0.254086
     14.71420      6.22331     15.61950        -0.860920      0.994599     -0.332929
     15.89310      4.20442     15.27000         0.448787     -0.077997      0.306286
     15.91130      6.87266     15.27630         1.032102     -0.926300      0.004514
     17.15380      4.85138     15.08440         0.016725      0.190579      1.326271
     17.17150      6.21224     15.14570        -0.584811      0.660740     -1.006802
     18.42810      4.23543     15.26590        -2.446383      0.525129     -0.961437
     18.40480      6.89414     15.01180         1.313415     -0.409846      0.303146
     19.63680      4.88310     15.36710         1.007342      1.714396     -0.054602
     19.71020      6.25484     15.18690        -1.499045      0.149909      0.422543
     20.83660      4.23654     15.64080         0.893564     -0.902510      0.315190
     20.94920      6.92431     15.44930        -2.418949     -0.713959     -0.650031
     22.01250      4.89422     16.10180         0.086762     -0.771822     -0.124133
     22.05340      6.24191     15.98870         0.409396      2.156966     -0.367403
     23.21250      4.25682     16.53950        -0.270939     -0.286865      0.347883
     23.25270      6.96218     16.31570        -2.530676     -2.488336     -0.115203
     24.33670      4.94747     17.10100        -0.335655     -1.122279     -1.882745
     24.29540      6.31343     16.89650         4.090433     -1.635684      2.094963
     25.61540      4.25266     17.27740        -2.448922      1.140116      0.486616
     25.56430      6.90615     17.24420        -1.058785      1.327730     -0.896695
     26.74080      4.92003     17.60560        -0.502472     -0.023713      0.195668
     26.70080      6.28878     17.65550        -0.729323     -0.874874     -0.257936
 -----------------------------------------------------------------------------------
    total drift:                                0.065926      0.059304      0.001842


--------------------------------------------------------------------------------------------------------



  FREE ENERGIE OF THE ION-ELECTRON SYSTEM (eV)
  ---------------------------------------------------
  free  energy   TOTEN  =      -828.94008629 eV

  energy  without entropy=     -828.86921844  energy(sigma->0) =     -828.90465236
 


--------------------------------------------------------------------------------------------------------


    POTLOK:  cpu time      0.4541: real time      0.4540


--------------------------------------------------------------------------------------------------------


     LOOP+:  cpu time    334.5609: real time    334.7461
    4ORBIT:  cpu time      0.0000: real time      0.0000

 total amount of memory used by VASP MPI-rank0  2294507. kBytes
=======================================================================

   base                                    :      30000. kBytes
   nonlr-proj                              :      15073. kBytes
   fftplans                                :     436558. kBytes
   grid                                    :     732614. kBytes
   one-center                              :        282. kBytes
   wavefun                                 :    1079980. kBytes
 
  
  
 General timing and accounting informations for this job:
 ========================================================
  
                  Total CPU time used (sec):      367.974
                            User time (sec):      359.509
                          System time (sec):        8.465
                         Elapsed time (sec):      368.223
  
                   Maximum memory used (kb):     3733408.
                   Average memory used (kb):          N/A
  
                          Minor page faults:      3179202
                          Major page faults:         5021
                 Voluntary context switches:        10442
