unknown system                          
            1
    28.050000    0.000000    0.000000
     0.000000    8.100000    0.000000
     0.000000    0.000000   33.500000
   C 
    92
Direct configuration=     1
   0.00880132  0.10531099  0.52628358
   0.00669141  0.27816296  0.52478507
   0.04891373  0.02431593  0.53320896
   0.04961747  0.36240864  0.53200896
   0.09407344  0.10783247  0.53662687
   0.09311979  0.27549877  0.53471940
   0.13603458  0.02823765  0.54514030
   0.13615615  0.35809753  0.53874328
   0.18087914  0.10695160  0.54074030
   0.17904706  0.27042716  0.53687164
   0.22489661  0.02145395  0.54058806
   0.22290374  0.35926543  0.53263881
   0.26688520  0.10128358  0.52955224
   0.26575793  0.27107901  0.52478209
   0.31075223  0.02176556  0.51962388
   0.30995722  0.35155309  0.52053433
   0.35149804  0.10245716  0.50600000
   0.35145241  0.26859383  0.50899403
   0.39486631  0.02203914  0.49718806
   0.39498396  0.35175802  0.50135224
   0.43762923  0.10484667  0.48633433
   0.43958645  0.27448642  0.49063582
   0.47977540  0.01848025  0.47495522
   0.48212121  0.34992099  0.48263284
   0.52294474  0.09816136  0.46434328
   0.52604278  0.26633827  0.47000896
   0.56746168  0.01437975  0.45464776
   0.56705169  0.34926049  0.45709552
   0.61092335  0.10278506  0.44962388
   0.61108734  0.27148642  0.45185373
   0.65503030  0.02011704  0.44643582
   0.65487344  0.35759012  0.45547761
   0.69957219  0.10586284  0.45194328
   0.69814617  0.27367160  0.45788358
   0.74377540  0.02445383  0.45803881
   0.74334403  0.35292840  0.46192239
   0.78555080  0.10571296  0.47131045
   0.78646702  0.27543704  0.47045970
   0.82986453  0.02204531  0.48283881
   0.83013547  0.35857778  0.48685373
   0.87505526  0.10097370  0.49397612
   0.87260963  0.27727284  0.49587463
   0.91613547  0.01914395  0.50711045
   0.91313725  0.35859877  0.51153134
   0.95779679  0.09802333  0.51981791
   0.95641711  0.27185802  0.51968657
   0.00514570  0.60781605  0.52963582
   0.00409590  0.77921975  0.53121493
   0.04807522  0.53164815  0.53833134
   0.04770481  0.86129136  0.53917910
   0.09254260  0.60643457  0.54398806
   0.09046738  0.77278765  0.54655821
   0.13744100  0.52303704  0.54417910
   0.13662424  0.85961111  0.54575522
   0.18083030  0.60238025  0.54670448
   0.18183494  0.77568889  0.54675224
   0.22380998  0.52311111  0.53906866
   0.22597647  0.85069383  0.54383284
   0.26877611  0.60076049  0.53774030
   0.26961961  0.77229383  0.53675224
   0.30969626  0.52430370  0.52175522
   0.31238574  0.85317531  0.52526866
   0.35263351  0.59742593  0.51167761
   0.35496934  0.76677037  0.51325373
   0.39578966  0.51694444  0.49818507
   0.39647415  0.85074444  0.50032239
   0.43854545  0.60313580  0.48771940
   0.43921925  0.76797160  0.48894627
   0.48133690  0.51869506  0.47685970
   0.48166845  0.85305432  0.47582687
   0.52343672  0.60084074  0.46580299
   0.52457041  0.76830988  0.46625373
   0.56659893  0.51906420  0.45582090
   0.56724777  0.84847654  0.45600896
   0.61154367  0.59893580  0.45028060
   0.61217469  0.76694321  0.45211045
   0.65697326  0.52289259  0.45569851
   0.65614260  0.85112840  0.44811343
   0.70006417  0.60285185  0.45871940
   0.70268093  0.77220247  0.45334030
   0.74283779  0.52302963  0.46688955
   0.74685205  0.85485309  0.46117313
   0.78475936  0.60422469  0.48065075
   0.78621747  0.77060617  0.47727463
   0.82754011  0.52553333  0.49371642
   0.82897326  0.85952840  0.48703582
   0.86761854  0.61079877  0.51047761
   0.86614617  0.77943580  0.50437313
   0.91320499  0.52501975  0.51574328
   0.91138324  0.85261111  0.51475224
   0.95332620  0.60741111  0.52554030
   0.95190018  0.77639259  0.52702985
