       N       E                     dE             d eps       ncg     rms          rms(c)
DAV:   1     0.371512586735E+04    0.37151E+04   -0.11905E+05  1712   0.105E+03
DAV:   2     0.186092637918E+03   -0.35290E+04   -0.32698E+04  2144   0.238E+02
DAV:   3    -0.835160114242E+03   -0.10213E+04   -0.10001E+04  1792   0.135E+02
DAV:   4    -0.897774211515E+03   -0.62614E+02   -0.61536E+02  1704   0.430E+01
DAV:   5    -0.899351420159E+03   -0.15772E+01   -0.15519E+01  1776   0.664E+00    0.458E+01
DAV:   6    -0.848970862995E+03    0.50381E+02   -0.48005E+01  1576   0.127E+01    0.269E+01
DAV:   7    -0.830228534112E+03    0.18742E+02   -0.66384E+01  1552   0.146E+01    0.743E+00
DAV:   8    -0.829937802293E+03    0.29073E+00   -0.24551E+00  1592   0.340E+00    0.102E+00
DAV:   9    -0.829825494938E+03    0.11231E+00   -0.27829E-01  1632   0.105E+00    0.578E-01
DAV:  10    -0.829788043871E+03    0.37451E-01   -0.56398E-02  1736   0.475E-01    0.365E-01
DAV:  11    -0.829759733694E+03    0.28310E-01   -0.20085E-02  1560   0.246E-01    0.252E-01
DAV:  12    -0.829754596555E+03    0.51371E-02   -0.26480E-02  1560   0.238E-01    0.155E-01
DAV:  13    -0.829766070836E+03   -0.11474E-01   -0.90997E-03  1560   0.156E-01    0.905E-02
DAV:  14    -0.829783629255E+03   -0.17558E-01   -0.14742E-03  1592   0.787E-02    0.571E-02
DAV:  15    -0.829803197039E+03   -0.19568E-01   -0.17504E-03  1584   0.648E-02    0.322E-02
DAV:  16    -0.829812105765E+03   -0.89087E-02   -0.49934E-04  1592   0.370E-02    0.220E-02
DAV:  17    -0.829817485367E+03   -0.53796E-02   -0.33726E-04  1560   0.239E-02    0.117E-02
DAV:  18    -0.829819609145E+03   -0.21238E-02   -0.87012E-05  1640   0.134E-02    0.598E-03
DAV:  19    -0.829820811294E+03   -0.12021E-02   -0.48487E-05  1384   0.887E-03    0.395E-03
DAV:  20    -0.829821140859E+03   -0.32957E-03   -0.46485E-06  1400   0.319E-03    0.231E-03
DAV:  21    -0.829821386711E+03   -0.24585E-03   -0.37989E-06  1264   0.253E-03    0.963E-04
DAV:  22    -0.829821429120E+03   -0.42409E-04   -0.19189E-07  1040   0.902E-04    0.680E-04
DAV:  23    -0.829821471704E+03   -0.42585E-04   -0.34414E-07   944   0.836E-04    0.344E-04
DAV:  24    -0.829821481610E+03   -0.99062E-05   -0.83140E-08   968   0.486E-04    0.196E-04
DAV:  25    -0.829821487414E+03   -0.58037E-05   -0.39707E-08   912   0.360E-04    0.121E-04
DAV:  26    -0.829821489705E+03   -0.22909E-05   -0.22280E-08   904   0.231E-04    0.996E-05
DAV:  27    -0.829821491530E+03   -0.18244E-05   -0.81560E-09   928   0.179E-04    0.701E-05
DAV:  28    -0.829821492654E+03   -0.11249E-05   -0.57504E-09   928   0.127E-04    0.557E-05
DAV:  29    -0.829821493180E+03   -0.52582E-06   -0.21338E-09   880   0.987E-05
   1 F= -.82982149E+03 E0= -.82979663E+03  d E =-.497266E-01
