  92  92   0   0
  0.8273226E+02  0.2805000E-08  0.8100000E-09  0.3350000E-08  0.5000000E-15
   1.0000000000000000E-004
  CAR 
 unknown system                          
      3.82536837    -25.25723357  301     -3.17851181      1.00000000
    -25.257  0.0000E+00  0.0000E+00
    -25.160  0.0000E+00  0.0000E+00
    -25.063  0.0000E+00  0.0000E+00
    -24.966  0.0000E+00  0.0000E+00
    -24.869  0.0000E+00  0.0000E+00
    -24.773  0.0000E+00  0.0000E+00
    -24.676  0.0000E+00  0.0000E+00
    -24.579  0.0000E+00  0.0000E+00
    -24.482  0.0000E+00  0.0000E+00
    -24.385  0.4008E-14  0.3886E-15
    -24.288  0.8395E-12  0.8177E-13
    -24.191  0.1090E-09  0.1065E-10
    -24.094  0.8971E-08  0.8803E-09
    -23.997  0.4693E-06  0.4637E-07
    -23.900  0.1566E-04  0.1565E-05
    -23.803  0.3352E-03  0.3406E-04
    -23.706  0.4626E-02  0.4825E-03
    -23.609  0.4144E-01  0.4499E-02
    -23.512  0.2431E+00  0.2807E-01
    -23.415  0.9475E+00  0.1199E+00
    -23.318  0.2517E+01  0.3639E+00
    -23.221  0.4806E+01  0.8298E+00
    -23.125  0.7252E+01  0.1533E+01
    -23.028  0.9592E+01  0.2463E+01
    -22.931  0.1151E+02  0.3579E+01
    -22.834  0.1252E+02  0.4792E+01
    -22.737  0.1336E+02  0.6087E+01
    -22.640  0.1516E+02  0.7557E+01
    -22.543  0.1671E+02  0.9176E+01
    -22.446  0.1586E+02  0.1071E+02
    -22.349  0.1319E+02  0.1199E+02
    -22.252  0.1165E+02  0.1312E+02
    -22.155  0.1251E+02  0.1433E+02
    -22.058  0.1401E+02  0.1569E+02
    -21.961  0.1450E+02  0.1710E+02
    -21.864  0.1423E+02  0.1848E+02
    -21.767  0.1358E+02  0.1979E+02
    -21.670  0.1262E+02  0.2102E+02
    -21.573  0.1181E+02  0.2216E+02
    -21.476  0.1167E+02  0.2329E+02
    -21.380  0.1215E+02  0.2447E+02
    -21.283  0.1297E+02  0.2573E+02
    -21.186  0.1409E+02  0.2710E+02
    -21.089  0.1535E+02  0.2858E+02
    -20.992  0.1587E+02  0.3012E+02
    -20.895  0.1478E+02  0.3156E+02
    -20.798  0.1292E+02  0.3281E+02
    -20.701  0.1217E+02  0.3399E+02
    -20.604  0.1295E+02  0.3524E+02
    -20.507  0.1381E+02  0.3658E+02
    -20.410  0.1368E+02  0.3791E+02
    -20.313  0.1325E+02  0.3919E+02
    -20.216  0.1365E+02  0.4052E+02
    -20.119  0.1482E+02  0.4195E+02
    -20.022  0.1568E+02  0.4347E+02
    -19.925  0.1551E+02  0.4498E+02
    -19.828  0.1429E+02  0.4636E+02
    -19.732  0.1278E+02  0.4760E+02
    -19.635  0.1296E+02  0.4886E+02
    -19.538  0.1537E+02  0.5035E+02
    -19.441  0.1703E+02  0.5200E+02
    -19.344  0.1556E+02  0.5351E+02
    -19.247  0.1294E+02  0.5476E+02
    -19.150  0.1225E+02  0.5595E+02
    -19.053  0.1360E+02  0.5727E+02
    -18.956  0.1482E+02  0.5870E+02
    -18.859  0.1470E+02  0.6013E+02
    -18.762  0.1420E+02  0.6150E+02
    -18.665  0.1474E+02  0.6293E+02
    -18.568  0.1606E+02  0.6449E+02
    -18.471  0.1665E+02  0.6611E+02
    -18.374  0.1610E+02  0.6767E+02
    -18.277  0.1589E+02  0.6921E+02
    -18.180  0.1699E+02  0.7085E+02
    -18.084  0.1772E+02  0.7257E+02
    -17.987  0.1628E+02  0.7415E+02
    -17.890  0.1378E+02  0.7549E+02
    -17.793  0.1252E+02  0.7670E+02
    -17.696  0.1252E+02  0.7791E+02
    -17.599  0.1248E+02  0.7912E+02
    -17.502  0.1244E+02  0.8033E+02
    -17.405  0.1262E+02  0.8155E+02
    -17.308  0.1220E+02  0.8273E+02
    -17.211  0.1110E+02  0.8381E+02
    -17.114  0.1051E+02  0.8483E+02
    -17.017  0.1095E+02  0.8589E+02
    -16.920  0.1142E+02  0.8700E+02
    -16.823  0.1119E+02  0.8808E+02
    -16.726  0.1104E+02  0.8915E+02
    -16.629  0.1179E+02  0.9030E+02
    -16.532  0.1292E+02  0.9155E+02
    -16.436  0.1397E+02  0.9290E+02
    -16.339  0.1496E+02  0.9435E+02
    -16.242  0.1570E+02  0.9587E+02
    -16.145  0.1637E+02  0.9746E+02
    -16.048  0.1727E+02  0.9913E+02
    -15.951  0.1772E+02  0.1009E+03
    -15.854  0.1670E+02  0.1025E+03
    -15.757  0.1439E+02  0.1039E+03
    -15.660  0.1239E+02  0.1051E+03
    -15.563  0.1181E+02  0.1062E+03
    -15.466  0.1281E+02  0.1075E+03
    -15.369  0.1546E+02  0.1090E+03
    -15.272  0.1884E+02  0.1108E+03
    -15.175  0.2132E+02  0.1128E+03
    -15.078  0.2237E+02  0.1150E+03
    -14.981  0.2195E+02  0.1171E+03
    -14.884  0.1973E+02  0.1191E+03
    -14.787  0.1631E+02  0.1206E+03
    -14.691  0.1312E+02  0.1219E+03
    -14.594  0.1073E+02  0.1230E+03
    -14.497  0.9335E+01  0.1239E+03
    -14.400  0.9375E+01  0.1248E+03
    -14.303  0.1063E+02  0.1258E+03
    -14.206  0.1211E+02  0.1270E+03
    -14.109  0.1321E+02  0.1282E+03
    -14.012  0.1408E+02  0.1296E+03
    -13.915  0.1506E+02  0.1311E+03
    -13.818  0.1617E+02  0.1326E+03
    -13.721  0.1710E+02  0.1343E+03
    -13.624  0.1744E+02  0.1360E+03
    -13.527  0.1737E+02  0.1377E+03
    -13.430  0.1778E+02  0.1394E+03
    -13.333  0.1904E+02  0.1412E+03
    -13.236  0.1997E+02  0.1432E+03
    -13.139  0.1897E+02  0.1450E+03
    -13.043  0.1625E+02  0.1466E+03
    -12.946  0.1431E+02  0.1480E+03
    -12.849  0.1468E+02  0.1494E+03
    -12.752  0.1585E+02  0.1509E+03
    -12.655  0.1551E+02  0.1524E+03
    -12.558  0.1371E+02  0.1538E+03
    -12.461  0.1267E+02  0.1550E+03
    -12.364  0.1393E+02  0.1564E+03
    -12.267  0.1703E+02  0.1580E+03
    -12.170  0.2072E+02  0.1600E+03
    -12.073  0.2365E+02  0.1623E+03
    -11.976  0.2478E+02  0.1647E+03
    -11.879  0.2430E+02  0.1671E+03
    -11.782  0.2263E+02  0.1693E+03
    -11.685  0.1957E+02  0.1712E+03
    -11.588  0.1597E+02  0.1727E+03
    -11.491  0.1418E+02  0.1741E+03
    -11.395  0.1559E+02  0.1756E+03
    -11.298  0.1895E+02  0.1774E+03
    -11.201  0.2231E+02  0.1796E+03
    -11.104  0.2539E+02  0.1820E+03
    -11.007  0.2872E+02  0.1848E+03
    -10.910  0.3176E+02  0.1879E+03
    -10.813  0.3345E+02  0.1912E+03
    -10.716  0.3368E+02  0.1944E+03
    -10.619  0.3387E+02  0.1977E+03
    -10.522  0.3589E+02  0.2012E+03
    -10.425  0.3909E+02  0.2050E+03
    -10.328  0.4049E+02  0.2089E+03
    -10.231  0.3885E+02  0.2127E+03
    -10.134  0.3591E+02  0.2161E+03
    -10.037  0.3365E+02  0.2194E+03
     -9.940  0.3233E+02  0.2225E+03
     -9.843  0.3175E+02  0.2256E+03
     -9.747  0.3286E+02  0.2288E+03
     -9.650  0.3619E+02  0.2323E+03
     -9.553  0.4014E+02  0.2362E+03
     -9.456  0.4270E+02  0.2403E+03
     -9.359  0.4269E+02  0.2445E+03
     -9.262  0.3919E+02  0.2483E+03
     -9.165  0.3344E+02  0.2515E+03
     -9.068  0.2936E+02  0.2544E+03
     -8.971  0.2957E+02  0.2572E+03
     -8.874  0.3301E+02  0.2604E+03
     -8.777  0.3653E+02  0.2640E+03
     -8.680  0.3755E+02  0.2676E+03
     -8.583  0.3586E+02  0.2711E+03
     -8.486  0.3311E+02  0.2743E+03
     -8.389  0.3096E+02  0.2773E+03
     -8.292  0.2990E+02  0.2802E+03
     -8.195  0.2941E+02  0.2830E+03
     -8.098  0.2852E+02  0.2858E+03
     -8.002  0.2698E+02  0.2884E+03
     -7.905  0.2596E+02  0.2909E+03
     -7.808  0.2659E+02  0.2935E+03
     -7.711  0.2830E+02  0.2963E+03
     -7.614  0.2969E+02  0.2991E+03
     -7.517  0.3050E+02  0.3021E+03
     -7.420  0.3100E+02  0.3051E+03
     -7.323  0.3025E+02  0.3080E+03
     -7.226  0.2734E+02  0.3107E+03
     -7.129  0.2381E+02  0.3130E+03
     -7.032  0.2222E+02  0.3152E+03
     -6.935  0.2300E+02  0.3174E+03
     -6.838  0.2498E+02  0.3198E+03
     -6.741  0.2716E+02  0.3224E+03
     -6.644  0.2810E+02  0.3252E+03
     -6.547  0.2608E+02  0.3277E+03
     -6.450  0.2207E+02  0.3298E+03
     -6.354  0.1970E+02  0.3317E+03
     -6.257  0.2026E+02  0.3337E+03
     -6.160  0.2172E+02  0.3358E+03
     -6.063  0.2306E+02  0.3380E+03
     -5.966  0.2442E+02  0.3404E+03
     -5.869  0.2469E+02  0.3428E+03
     -5.772  0.2298E+02  0.3450E+03
     -5.675  0.2036E+02  0.3470E+03
     -5.578  0.1765E+02  0.3487E+03
     -5.481  0.1432E+02  0.3501E+03
     -5.384  0.1091E+02  0.3512E+03
     -5.287  0.9675E+01  0.3521E+03
     -5.190  0.1115E+02  0.3532E+03
     -5.093  0.1241E+02  0.3544E+03
     -4.996  0.1128E+02  0.3555E+03
     -4.899  0.9473E+01  0.3564E+03
     -4.802  0.9456E+01  0.3573E+03
     -4.706  0.1126E+02  0.3584E+03
     -4.609  0.1361E+02  0.3597E+03
     -4.512  0.1533E+02  0.3612E+03
     -4.415  0.1491E+02  0.3627E+03
     -4.318  0.1166E+02  0.3638E+03
     -4.221  0.7390E+01  0.3645E+03
     -4.124  0.4366E+01  0.3649E+03
     -4.027  0.2861E+01  0.3652E+03
     -3.930  0.2120E+01  0.3654E+03
     -3.833  0.2015E+01  0.3656E+03
     -3.736  0.2826E+01  0.3659E+03
     -3.639  0.4128E+01  0.3663E+03
     -3.542  0.4852E+01  0.3667E+03
     -3.445  0.4426E+01  0.3672E+03
     -3.348  0.3443E+01  0.3675E+03
     -3.251  0.2878E+01  0.3678E+03
     -3.154  0.2938E+01  0.3681E+03
     -3.058  0.3325E+01  0.3684E+03
     -2.961  0.3939E+01  0.3688E+03
     -2.864  0.4796E+01  0.3692E+03
     -2.767  0.6094E+01  0.3698E+03
     -2.670  0.7996E+01  0.3706E+03
     -2.573  0.9346E+01  0.3715E+03
     -2.476  0.8516E+01  0.3723E+03
     -2.379  0.6424E+01  0.3730E+03
     -2.282  0.5746E+01  0.3735E+03
     -2.185  0.6967E+01  0.3742E+03
     -2.088  0.7843E+01  0.3750E+03
     -1.991  0.6852E+01  0.3756E+03
     -1.894  0.5444E+01  0.3761E+03
     -1.797  0.6198E+01  0.3767E+03
     -1.700  0.1019E+02  0.3777E+03
     -1.603  0.1616E+02  0.3793E+03
     -1.506  0.2120E+02  0.3814E+03
     -1.409  0.2297E+02  0.3836E+03
     -1.313  0.2165E+02  0.3857E+03
     -1.216  0.1944E+02  0.3876E+03
     -1.119  0.1849E+02  0.3894E+03
     -1.022  0.1834E+02  0.3911E+03
     -0.925  0.1685E+02  0.3928E+03
     -0.828  0.1402E+02  0.3941E+03
     -0.731  0.1202E+02  0.3953E+03
     -0.634  0.1213E+02  0.3965E+03
     -0.537  0.1301E+02  0.3977E+03
     -0.440  0.1256E+02  0.3990E+03
     -0.343  0.1153E+02  0.4001E+03
     -0.246  0.1255E+02  0.4013E+03
     -0.149  0.1566E+02  0.4028E+03
     -0.052  0.1842E+02  0.4046E+03
      0.045  0.1962E+02  0.4065E+03
      0.142  0.2041E+02  0.4085E+03
      0.239  0.2170E+02  0.4106E+03
      0.335  0.2209E+02  0.4127E+03
      0.432  0.2026E+02  0.4147E+03
      0.529  0.1837E+02  0.4165E+03
      0.626  0.1967E+02  0.4184E+03
      0.723  0.2410E+02  0.4207E+03
      0.820  0.2870E+02  0.4235E+03
      0.917  0.3172E+02  0.4266E+03
      1.014  0.3452E+02  0.4299E+03
      1.111  0.3838E+02  0.4336E+03
      1.208  0.4291E+02  0.4378E+03
      1.305  0.4726E+02  0.4424E+03
      1.402  0.4988E+02  0.4472E+03
      1.499  0.4890E+02  0.4519E+03
      1.596  0.4376E+02  0.4562E+03
      1.693  0.3514E+02  0.4596E+03
      1.790  0.2429E+02  0.4619E+03
      1.887  0.1347E+02  0.4633E+03
      1.983  0.5614E+01  0.4638E+03
      2.080  0.1682E+01  0.4640E+03
      2.177  0.3546E+00  0.4640E+03
      2.274  0.5194E-01  0.4640E+03
      2.371  0.5217E-02  0.4640E+03
      2.468  0.3537E-03  0.4640E+03
      2.565  0.1591E-04  0.4640E+03
      2.662  0.4677E-06  0.4640E+03
      2.759  0.8869E-08  0.4640E+03
      2.856  0.1075E-09  0.4640E+03
      2.953  0.8286E-12  0.4640E+03
      3.050  0.4008E-14  0.4640E+03
      3.147  0.0000E+00  0.4640E+03
      3.244  0.0000E+00  0.4640E+03
      3.341  0.0000E+00  0.4640E+03
      3.438  0.0000E+00  0.4640E+03
      3.535  0.0000E+00  0.4640E+03
      3.631  0.0000E+00  0.4640E+03
      3.728  0.0000E+00  0.4640E+03
      3.825  0.0000E+00  0.4640E+03
