 vasp.6.5.0 16Dec24 (build Feb 19 2025 19:45:31) complex                         
 executed on              LinuxNV date 2025.10.25  16:41:08
 running    2 mpi-ranks, on    1 nodes
 distrk:  each k-point on    2 cores,    1 groups
 distr:  one band on NCORE=   1 cores,    2 groups
 Offloading initialized ...    2 GPUs detected


--------------------------------------------------------------------------------------------------------


 INCAR:
   ISTART = 0            (Not Read existing wavefunction
   ISPIN = 1            (Non-Spin polarised DFT, Default\=1)
   ICHARG = 2            (The initial guess charge density is generated by superposition of atomic charge density)
   LREAL = Auto         (Projection operators: automatic)
   ENCUT = 500          (Cut-off energy for plane wave basis set, in eV)
   LWAVE = .FALSE.       (Write WAVECAR or not)
   LCHARG = .FALSE.       (Write CHGCAR or not)
   PREC = Accurate   (Precision level)
   KGAMMA = .TRUE.
   ALGO = Normal
   NSW = 0           (Default: NSW \= 0)
   IBRION = -1           (Ions are not moved)
   ISMEAR = 0
   EDIFF = 1E-06        (SCF energy convergence
   NELM = 150          (Max electronic SCF steps)

 POTCAR:    PAW_PBE C 08Apr2002                   
 POTCAR:    PAW_PBE C 08Apr2002                   
   SHA256 =  253f7b50bb8d59471dbedb8285d89021f4a42ed1a2c5d38a03a736e69125dd95 C/POTCAR              
   COPYR  = (c) Copyright 08Apr2002 Georg Kresse                                                    
   COPYR  = This file is part of the software VASP. Any use, copying, and all other rights are regul
   COPYR  = If you do not have a valid VASP license, you may not use, copy or distribute this file. 
   VRHFIN =C: s2p2                                                                                  
   LEXCH  = PE                                                                                      
   EATOM  =   147.1560 eV,   10.8157 Ry                                                             
                                                                                                    
   TITEL  = PAW_PBE C 08Apr2002                                                                     
   LULTRA =        F    use ultrasoft PP ?                                                          
   IUNSCR =        1    unscreen: 0-lin 1-nonlin 2-no                                               
   RPACOR =    1.200    partial core radius                                                         
   POMASS =   12.011; ZVAL   =    4.000    mass and valenz                                          
   RCORE  =    1.500    outmost cutoff radius                                                       
   RWIGS  =    1.630; RWIGS  =    0.863    wigner-seitz radius (au A)                               
   ENMAX  =  400.000; ENMIN  =  300.000 eV                                                          
   ICORE  =        2    local potential                                                             
   LCOR   =        T    correct aug charges                                                         
   LPAW   =        T    paw PP                                                                      
   EAUG   =  644.873                                                                                
   DEXC   =    0.000                                                                                
   RMAX   =    1.529    core radius for proj-oper                                                   
   RAUG   =    1.300    factor for augmentation sphere                                              
   RDEP   =    1.501    radius for radial grids                                                     
   RDEPT  =    1.300    core radius for aug-charge                                                  
                                                                                                    
   Atomic configuration                                                                             
    4 entries                                                                                       
     n  l   j            E        occ.                                                              
     1  0  0.50      -273.3789   2.0000                                                             
     2  0  0.50       -13.7508   2.0000                                                             
     2  1  0.50        -5.2854   2.0000                                                             
     3  2  1.50        -5.4423   0.0000                                                             
   Description                                                                                      
     l       E           TYP  RCUT    TYP  RCUT                                                     
     0    -13.7508458     23  1.200                                                                 
     0     -8.2022199     23  1.200                                                                 
     1     -5.2854383     23  1.500                                                                 
     1     34.0145650     23  1.500                                                                 
     2     -5.4423304      7  1.500                                                                 
  local pseudopotential read in
  partial core-charges read in
  partial kinetic energy density read in
  atomic valenz-charges read in
  non local Contribution for L=            0  read in
    real space projection operators read in
  non local Contribution for L=            0  read in
    real space projection operators read in
  non local Contribution for L=            1  read in
    real space projection operators read in
  non local Contribution for L=            1  read in
    real space projection operators read in
    PAW grid and wavefunctions read in
 
   number of l-projection  operators is LMAX  =            4
   number of lm-projection operators is LMMAX =            8
 
 Optimization of the real space projectors (new method)

 maximal supplied QI-value         = 25.13
 optimisation between [QCUT,QGAM] = [ 11.31, 22.87] = [ 35.82,146.48] Ry 
 Optimized for a Real-space Cutoff    1.03 Angstroem

   l    n(q)    QCUT    max X(q) W(low)/X(q) W(high)/X(q)  e(spline) 
   0      7    11.310   115.676    0.20E-03    0.90E-03    0.20E-06
   0      7    11.310    87.132    0.20E-03    0.89E-03    0.19E-06
   1      6    11.310     4.429    0.16E-03    0.28E-03    0.12E-06
   1      6    11.310     2.733    0.12E-03    0.21E-03    0.99E-07
  PAW_PBE C 08Apr2002                   :
 energy of atom  1       EATOM= -147.1560
 kinetic energy error for atom=    0.0076 (will be added to EATOM!!)
 
 
 POSCAR:  C
  positions in cartesian coordinates
  No initial velocities read in


 exchange-correlation table for PE
   RHO(1)=    0.500       N(1)  =     2000
   RHO(2)=  100.500       N(2)  =     4000
 


--------------------------------------------------------------------------------------------------------


 ion  position               nearest neighbor table
   1  0.011  0.102  0.539-   3 1.37   2 1.41  45 1.52
   2  0.008  0.273  0.531-   4 1.39   1 1.41  46 1.44  45 1.98
   3  0.053  0.022  0.531-   1 1.37  50 1.38   5 1.43
   4  0.048  0.359  0.519-  49 1.38   2 1.39   6 1.42
   5  0.095  0.111  0.518-   6 1.34   7 1.42   3 1.43
   6  0.092  0.275  0.513-   5 1.34   4 1.42   8 1.49
   7  0.138  0.025  0.511-  54 1.37   5 1.42   9 1.42
   8  0.133  0.359  0.494-  53 1.38  10 1.41   6 1.49
   9  0.178  0.112  0.496-  10 1.37   7 1.42  11 1.46
  10  0.176  0.273  0.484-   9 1.37   8 1.41  12 1.42
  11  0.222  0.032  0.482-  58 1.37  13 1.41   9 1.46
  12  0.218  0.361  0.473-  57 1.39  10 1.42  14 1.44
  13  0.264  0.110  0.470-  14 1.38  15 1.40  11 1.41
  14  0.262  0.279  0.466-  13 1.38  16 1.38  12 1.44
  15  0.307  0.029  0.462-  62 1.36  13 1.40  17 1.40
  16  0.306  0.354  0.460-  14 1.38  61 1.40  18 1.46
  17  0.351  0.101  0.452-  18 1.37  15 1.40  19 1.42
  18  0.351  0.270  0.453-  17 1.37  20 1.41  16 1.46
  19  0.396  0.023  0.447-  66 1.40  17 1.42  21 1.45
  20  0.396  0.352  0.453-  65 1.40  18 1.41  22 1.44
  21  0.442  0.100  0.446-  22 1.36  23 1.44  19 1.45
  22  0.441  0.266  0.450-  21 1.36  20 1.44  24 1.47
  23  0.487  0.018  0.453-  70 1.38  25 1.43  21 1.44
  24  0.486  0.351  0.457-  69 1.39  26 1.45  22 1.47
  25  0.532  0.099  0.457-  26 1.36  23 1.43  27 1.46
  26  0.532  0.268  0.458-  25 1.36  28 1.44  24 1.45
  27  0.575  0.016  0.472-  74 1.38  29 1.43  25 1.46
  28  0.576  0.349  0.468-  73 1.39  30 1.43  26 1.44
  29  0.619  0.100  0.479-  30 1.42  31 1.42  27 1.43
  30  0.621  0.275  0.477-  32 1.38  29 1.42  28 1.43
  31  0.656  0.018  0.499-  78 1.39  29 1.42  33 1.42
  32  0.659  0.352  0.495-  77 1.37  30 1.38  34 1.43
  33  0.701  0.096  0.507-  34 1.37  31 1.42  35 1.49
  34  0.701  0.265  0.507-  33 1.37  36 1.41  32 1.43
  35  0.741  0.011  0.527-  82 1.36  37 1.39  33 1.49
  36  0.741  0.346  0.523-  81 1.35  34 1.41  38 1.43
  37  0.783  0.099  0.534-  38 1.35  35 1.39  39 1.40
  38  0.785  0.265  0.531-  37 1.35  40 1.36  36 1.43
  39  0.826  0.022  0.546-  86 1.38  41 1.39  37 1.40
  40  0.825  0.354  0.539-  85 1.36  38 1.36  42 1.43
  41  0.869  0.105  0.549-  42 1.35  39 1.39  43 1.45
  42  0.870  0.268  0.541-  41 1.35  44 1.40  40 1.43
  43  0.915  0.027  0.552-  90 1.34  45 1.38  41 1.45
  44  0.912  0.358  0.540-  89 1.38  42 1.40  46 1.41
  45  0.958  0.108  0.544-  46 1.38  43 1.38   1 1.52   2 1.98
  46  0.957  0.278  0.539-  45 1.38  44 1.41   2 1.44
  47  0.008  0.616  0.533-  48 1.37  49 1.42  91 1.46  92 1.98
  48  0.009  0.781  0.540-  47 1.37  50 1.39  92 1.44  91 2.01
  49  0.048  0.530  0.518-   4 1.38  51 1.41  47 1.42
  50  0.054  0.852  0.535-   3 1.38  48 1.39  52 1.45
  51  0.091  0.608  0.508-  52 1.36  53 1.38  49 1.41
  52  0.095  0.770  0.518-  51 1.36  54 1.42  50 1.45
  53  0.132  0.528  0.496-   8 1.38  51 1.38  55 1.45
  54  0.138  0.856  0.508-   7 1.37  56 1.39  52 1.42
  55  0.177  0.613  0.488-  56 1.38  57 1.41  53 1.45
  56  0.179  0.780  0.495-  55 1.38  54 1.39  58 1.43
  57  0.218  0.532  0.473-  12 1.39  55 1.41  59 1.41
  58  0.223  0.863  0.485-  11 1.37  60 1.37  56 1.43
  59  0.263  0.609  0.470-  61 1.36  60 1.39  57 1.41
  60  0.264  0.779  0.476-  58 1.37  59 1.39  62 1.45
  61  0.305  0.524  0.467-  59 1.36  16 1.40  63 1.49
  62  0.309  0.861  0.465-  15 1.36  64 1.42  60 1.45
  63  0.352  0.610  0.465-  64 1.36  65 1.43  61 1.49
  64  0.353  0.777  0.464-  63 1.36  62 1.42  66 1.45
  65  0.396  0.522  0.461-  67 1.39  20 1.40  63 1.43
  66  0.399  0.852  0.454-  19 1.40  68 1.42  64 1.45
  67  0.440  0.601  0.464-  68 1.37  65 1.39  69 1.41
  68  0.441  0.770  0.467-  67 1.37  70 1.41  66 1.42
  69  0.484  0.519  0.465-  71 1.37  24 1.39  67 1.41
  70  0.485  0.855  0.464-  72 1.38  23 1.38  68 1.41
  71  0.526  0.599  0.473-  69 1.37  72 1.41  73 1.46
  72  0.527  0.773  0.472-  70 1.38  74 1.39  71 1.41
  73  0.572  0.515  0.478-  75 1.39  28 1.39  71 1.46
  74  0.570  0.851  0.480-  27 1.38  72 1.39  76 1.44
  75  0.611  0.599  0.493-  76 1.35  73 1.39  77 1.48
  76  0.612  0.766  0.495-  75 1.35  74 1.44  78 1.45
  77  0.654  0.513  0.507-  32 1.37  79 1.44  75 1.48
  78  0.655  0.851  0.507-  31 1.39  80 1.41  76 1.45
  79  0.697  0.594  0.521-  80 1.39  81 1.42  77 1.44
  80  0.694  0.765  0.524-  79 1.39  78 1.41  82 1.45
  81  0.738  0.508  0.532-  36 1.35  79 1.42  83 1.44
  82  0.738  0.845  0.534-  35 1.36  84 1.42  80 1.45
  83  0.781  0.598  0.542-  84 1.33  85 1.39  81 1.44
  84  0.781  0.762  0.545-  83 1.33  82 1.42  86 1.46
  85  0.826  0.521  0.543-  40 1.36  83 1.39  87 1.43
  86  0.826  0.851  0.548-  39 1.38  88 1.39  84 1.46
  87  0.870  0.608  0.548-  88 1.35  89 1.40  85 1.43
  88  0.870  0.773  0.552-  87 1.35  86 1.39  90 1.44
  89  0.914  0.528  0.543-  44 1.38  91 1.39  87 1.40
  90  0.915  0.862  0.554-  43 1.34  92 1.42  88 1.44
  91  0.956  0.615  0.540-  92 1.38  89 1.39  47 1.46  48 2.01
  92  0.959  0.783  0.546-  91 1.38  90 1.42  48 1.44  47 1.98
 
  LATTYP: Found a simple orthorhombic cell.
 ALAT       =     8.1000000000
 B/A-ratio  =     3.4629629630
 C/A-ratio  =     4.1358024691
  
  Lattice vectors:
  
 A1 = (   0.0000000000,  -8.1000000000,   0.0000000000)
 A2 = (  28.0500000000,   0.0000000000,   0.0000000000)
 A3 = (   0.0000000000,   0.0000000000,  33.5000000000)


Analysis of symmetry for initial positions (statically):
=====================================================================
 Subroutine PRICEL returns:
 Original cell was already a primitive cell.
 

 Routine SETGRP: Setting up the symmetry group for a 
 simple orthorhombic supercell.


 Subroutine GETGRP returns: Found  1 space group operations
 (whereof  1 operations were pure point group operations)
 out of a pool of  8 trial point group operations.


The static configuration has the point symmetry C_1 .


Analysis of symmetry for dynamics (positions and initial velocities):
=====================================================================
 Subroutine PRICEL returns:
 Original cell was already a primitive cell.
 

 Routine SETGRP: Setting up the symmetry group for a 
 simple orthorhombic supercell.


 Subroutine GETGRP returns: Found  1 space group operations
 (whereof  1 operations were pure point group operations)
 out of a pool of  8 trial point group operations.


The dynamic configuration has the point symmetry C_1 .


 Subroutine INISYM returns: Found  1 space group operations
 (whereof  1 operations are pure point group operations),
 and found     1 'primitive' translations


----------------------------------------------------------------------------------------

                                     Primitive cell                                     

  volume of cell :    7611.3675

  direct lattice vectors                    reciprocal lattice vectors
    28.050000000  0.000000000  0.000000000     0.035650624  0.000000000  0.000000000
     0.000000000  8.100000000  0.000000000     0.000000000  0.123456790  0.000000000
     0.000000000  0.000000000 33.500000000     0.000000000  0.000000000  0.029850746

  length of vectors
    28.050000000  8.100000000 33.500000000     0.035650624  0.123456790  0.029850746

  position of ions in fractional coordinates (direct lattice)
     0.011403066  0.102034691  0.539062687
     0.007606774  0.272671605  0.531211940
     0.053120499  0.021652716  0.530549254
     0.047828520  0.359125926  0.518525373
     0.094754367  0.110968765  0.518307463
     0.091744029  0.274982716  0.512707463
     0.137797148  0.024949383  0.510865672
     0.133495544  0.358786420  0.494020896
     0.177887344  0.111522346  0.495638806
     0.175573262  0.272945679  0.483701493
     0.221628877  0.031801728  0.481737313
     0.217534759  0.360509877  0.473274627
     0.264172906  0.109786543  0.470035821
     0.262188592  0.279301235  0.465829851
     0.307275579  0.028939259  0.462379104
     0.305935829  0.353665432  0.459770149
     0.350854189  0.101279753  0.451814925
     0.351270945  0.269850617  0.453050746
     0.395604278  0.022637531  0.447283582
     0.395689840  0.352039506  0.453143284
     0.442153298  0.099582346  0.446062687
     0.440524064  0.265982716  0.450301493
     0.487030303  0.018343457  0.452731343
     0.486292335  0.351145679  0.456743284
     0.532049911  0.099376667  0.457044776
     0.532042781  0.267561728  0.457767164
     0.574834225  0.016357160  0.471635821
     0.575932264  0.348772840  0.468316418
     0.618959002  0.100286420  0.478620896
     0.621001783  0.274706173  0.476743284
     0.656484848  0.018290741  0.498832836
     0.659290553  0.351506173  0.494811940
     0.700741533  0.095540247  0.507071642
     0.700973262  0.264585185  0.507211940
     0.741130125  0.011094778  0.527188060
     0.741197861  0.346341975  0.522892537
     0.782994652  0.098707654  0.534065672
     0.785351159  0.265213580  0.530725373
     0.825557932  0.021692346  0.545656716
     0.825397504  0.354438272  0.539059701
     0.868795009  0.104650123  0.549450746
     0.869953654  0.268343210  0.541438806
     0.915290553  0.027156049  0.552131343
     0.912452763  0.358090123  0.540334328
     0.957540107  0.108270741  0.543841791
     0.957101604  0.277714815  0.538782090
     0.007573725  0.615581481  0.532561194
     0.009333226  0.781170370  0.540197015
     0.048152228  0.529522222  0.518029851
     0.054139394  0.852112346  0.534623881
     0.091264171  0.608285185  0.507546269
     0.095291622  0.769504938  0.517916418
     0.132229234  0.528398765  0.495528358
     0.137851693  0.855764198  0.507800000
     0.176992513  0.613146914  0.488005970
     0.179475579  0.780482716  0.494674627
     0.217874153  0.532158025  0.473468657
     0.223281996  0.863164198  0.485379104
     0.262890553  0.609148148  0.470035821
     0.264449911  0.779067901  0.476322388
     0.304522995  0.524139506  0.466982090
     0.308678788  0.861118519  0.465483582
     0.351663458  0.609907407  0.465382090
     0.353156863  0.777475309  0.463943284
     0.395732620  0.522220988  0.460570149
     0.398716578  0.852254321  0.454397015
     0.439636364  0.600791358  0.464310448
     0.440912656  0.770120988  0.466635821
     0.484074866  0.518902469  0.465131343
     0.484666667  0.854661728  0.464441791
     0.525982175  0.599279012  0.473486567
     0.526937611  0.773071605  0.471614925
     0.571511586  0.515265432  0.478188060
     0.570014260  0.850898765  0.480241791
     0.611008913  0.598914815  0.492934328
     0.611572193  0.765609877  0.494988060
     0.654377897  0.512574074  0.506785075
     0.654648841  0.850858025  0.507441791
     0.696502674  0.593814815  0.521429851
     0.693739750  0.765012346  0.523985075
     0.738470588  0.508160494  0.532450746
     0.738452763  0.845198765  0.533671642
     0.781365419  0.597970370  0.542337313
     0.780962567  0.762450617  0.544579104
     0.825689840  0.520860494  0.543247761
     0.826035651  0.851245679  0.548456716
     0.869953654  0.607540741  0.547841791
     0.870149733  0.773146914  0.552011940
     0.913746881  0.528035802  0.542540299
     0.914541889  0.861576543  0.553910448
     0.956449198  0.614581481  0.540110448
     0.958552585  0.782620988  0.546005970

  ion indices of the primitive-cell ions
   primitive index   ion index
                 1           1
                 2           2
                 3           3
                 4           4
                 5           5
                 6           6
                 7           7
                 8           8
                 9           9
                10          10
                11          11
                12          12
                13          13
                14          14
                15          15
                16          16
                17          17
                18          18
                19          19
                20          20
                21          21
                22          22
                23          23
                24          24
                25          25
                26          26
                27          27
                28          28
                29          29
                30          30
                31          31
                32          32
                33          33
                34          34
                35          35
                36          36
                37          37
                38          38
                39          39
                40          40
                41          41
                42          42
                43          43
                44          44
                45          45
                46          46
                47          47
                48          48
                49          49
                50          50
                51          51
                52          52
                53          53
                54          54
                55          55
                56          56
                57          57
                58          58
                59          59
                60          60
                61          61
                62          62
                63          63
                64          64
                65          65
                66          66
                67          67
                68          68
                69          69
                70          70
                71          71
                72          72
                73          73
                74          74
                75          75
                76          76
                77          77
                78          78
                79          79
                80          80
                81          81
                82          82
                83          83
                84          84
                85          85
                86          86
                87          87
                88          88
                89          89
                90          90
                91          91
                92          92

----------------------------------------------------------------------------------------

 
 
 KPOINTS: K-Spacing Value to Generate K-Mesh: 0.03

Automatic generation of k-mesh.
 Grid dimensions read from file:
 generate k-points for:    1    4    1

 Generating k-lattice:

  Cartesian coordinates                     Fractional coordinates (reciprocal lattice)
     0.035650624  0.000000000  0.000000000     1.000000000  0.000000000  0.000000000
     0.000000000  0.030864198  0.000000000     0.000000000  0.250000000  0.000000000
     0.000000000  0.000000000  0.029850746     0.000000000  0.000000000  1.000000000

  Length of vectors
     0.035650624  0.030864198  0.029850746

  Shift w.r.t. Gamma in fractional coordinates (k-lattice)
     0.000000000  0.000000000  0.000000000

 
 Subroutine IBZKPT returns following result:
 ===========================================
 
 Found      3 irreducible k-points:
 
 Following reciprocal coordinates:
            Coordinates               Weight
  0.000000  0.000000  0.000000      1.000000
  0.000000  0.250000  0.000000      2.000000
  0.000000  0.500000  0.000000      1.000000
 
 Following cartesian coordinates:
            Coordinates               Weight
  0.000000  0.000000  0.000000      1.000000
  0.000000  0.030864  0.000000      2.000000
  0.000000  0.061728  0.000000      1.000000
 


--------------------------------------------------------------------------------------------------------




 Dimension of arrays:
   k-points           NKPTS =      3   k-points in BZ     NKDIM =      3   number of bands    NBANDS=    232
   number of dos      NEDOS =    301   number of ions     NIONS =     92
   non local maximal  LDIM  =      4   non local SUM 2l+1 LMDIM =      8
   total plane-waves  NPLWV = ******
   max r-space proj   IRMAX =   1967   max aug-charges    IRDMAX=   5083
   dimension x,y,z NGX =   210 NGY =   60 NGZ =  250
   dimension x,y,z NGXF=   420 NGYF=  120 NGZF=  500
   support grid    NGXF=   420 NGYF=  120 NGZF=  500
   ions per type =              92
   NGX,Y,Z   is equivalent  to a cutoff of  12.45, 12.31, 12.41 a.u.
   NGXF,Y,Z  is equivalent  to a cutoff of  24.89, 24.63, 24.81 a.u.

 SYSTEM =  unknown system                          
 POSCAR =   C                                      

 Startparameter for this run:
   NWRITE =      2    write-flag & timer
   PREC   = accura    normal or accurate (medium, high low for compatibility)
   ISTART =      0    job   : 0-new  1-cont  2-samecut
   ICHARG =      2    charge: 1-file 2-atom 10-const
   ISPIN  =      1    spin polarized calculation?
   LNONCOLLINEAR =      F non collinear calculations
   LSORBIT =      F    spin-orbit coupling
   INIWAV =      1    electr: 0-lowe 1-rand  2-diag
   LASPH  =      F    aspherical Exc in radial PAW
 Electronic Relaxation 1
   ENCUT  =  500.0 eV  36.75 Ry    6.06 a.u.  51.14 14.77 61.08*2*pi/ulx,y,z
   ENINI  =  500.0     initial cutoff
   ENAUG  =  644.9 eV  augmentation charge cutoff
   NELM   =    150;   NELMIN=  2; NELMDL= -5     # of ELM steps 
   EDIFF  = 0.1E-05   stopping-criterion for ELM
   LREAL  =      T    real-space projection
   NLSPLINE    = F    spline interpolate recip. space projectors
   LCOMPAT=      F    compatible to vasp.4.4
   GGA_COMPAT  = T    GGA compatible to vasp.4.4-vasp.4.6
   LMAXPAW     = -100 max onsite density
   LMAXMIX     =    2 max onsite mixed and CHGCAR
   VOSKOWN=      0    Vosko Wilk Nusair interpolation
   ROPT   =   -0.00025
 Ionic relaxation
   EDIFFG = 0.1E-04   stopping-criterion for IOM
   NSW    =      0    number of steps for IOM
   NBLOCK =      1;   KBLOCK =      1    inner block; outer block 
   IBRION =     -1    ionic relax: 0-MD 1-quasi-New 2-CG
   NFREE  =      0    steps in history (QN), initial steepest desc. (CG)
   ISIF   =      2    stress and relaxation
   IWAVPR =     10    prediction:  0-non 1-charg 2-wave 3-comb
   ISYM   =      2    0-nonsym 1-usesym 2-fastsym
   LCORR  =      T    Harris-Foulkes like correction to forces

   POTIM  = 0.5000    time-step for ionic-motion
   TEIN   =    0.0    initial temperature
   TEBEG  =    0.0;   TEEND  =   0.0 temperature during run
   SMASS  =  -3.00    Nose mass-parameter (am)
   estimated Nose-frequenzy (Omega)   =  0.10E-29 period in steps = 0.13E+47 mass=  -0.180E-25a.u.
   SCALEE = 1.0000    scale energy and forces
   NPACO  =    256;   APACO  = 10.0  distance and # of slots for P.C.
   PSTRESS=    0.0 pullay stress

  Mass of Ions in am
   POMASS =  12.01
  Ionic Valenz
   ZVAL   =   4.00
  Atomic Wigner-Seitz radii
   RWIGS  =  -1.00
  virtual crystal weights 
   VCA    =   1.00
   NELECT =     368.0000    total number of electrons
   NUPDOWN=      -1.0000    fix difference up-down

 DOS related values:
   EMIN   =  10.00;   EMAX   =-10.00  energy-range for DOS
   EFERMI =   0.00;   METHOD = LEGACY      
   ISMEAR =     0;   SIGMA  =   0.20  broadening in eV -4-tet -1-fermi 0-gaus
   EFERMI_NEDOS =   21; number of points for ismear=-14 and -15

 Electronic relaxation 2 (details)
   IALGO  =     38    algorithm
   LDIAG  =      T    sub-space diagonalisation (order eigenvalues)
   LSUBROT=      F    optimize rotation matrix (better conditioning)
   TURBO    =      0    0=normal 1=particle mesh
   IRESTART =      0    0=no restart 2=restart with 2 vectors
   NREBOOT  =      0    no. of reboots
   NMIN     =      0    reboot dimension
   EREF     =   0.00    reference energy to select bands
   IMIX   =      4    mixing-type and parameters
     AMIX     =   0.40;   BMIX     =  1.00
     AMIX_MAG =   1.60;   BMIX_MAG =  1.00
     AMIN     =   0.10
     WC   =   100.;   INIMIX=   1;  MIXPRE=   1;  MAXMIX= -45

 Intra band minimization:
   WEIMIN = 0.0000     energy-eigenvalue tresh-hold
   EBREAK =  0.11E-08  absolut break condition
   DEPER  =   0.30     relativ break condition  

   TIME   =   0.40     timestep for ELM

  volume/ion in A,a.u.               =      82.73       558.30
  Fermi-wavevector in a.u.,A,eV,Ry     =   0.596398  1.127030  4.839472  0.355691
  Thomas-Fermi vector in A             =   1.646729
 
 Write flags
   LWAVE        =      F    write WAVECAR
   LDOWNSAMPLE  =      F    k-point downsampling of WAVECAR
   LCHARG       =      F    write CHGCAR
   LVTOT        =      F    write LOCPOT, total local potential
   LVHAR        =      F    write LOCPOT, Hartree potential only
   WRT_POTENTIAL= false  ! write potential to hdf5 file
   LELF         =      F    write electronic localiz. function (ELF)
   LORBIT       =      0    0 simple, 1 ext, 2 COOP (PROOUT), +10 PAW based schemes


 Python interface
   PLUGINS active      =      F    recompile with -DPLUGINS to activate
 
 Dipole corrections
   LMONO      =      F    monopole corrections only (constant potential shift)
   LDIPOL     =      F    correct potential (dipole corrections)
   IDIPOL     =      0    1-x, 2-y, 3-z, 4-all directions 
   EPSILON    =  1.0000000 bulk dielectric constant
   LVACPOTAV  =      F  vacuum potentials using an averaging scheme for the charge density
   VACPOTFLAT =  0.1000000 required flatness to determine vacuum potential
 
Coulomb truncation method
  LTRUNCATE          =      F  Coulomb kernel truncation to be used
  IDIMENSIONALITY    =      3  Dimensionality of cutoff (0 molecules / 2 surfaces)
  ISURFACE           =     -1  Direction of surface normal
  LCOARSEN           =      F  Coarsen the charge grid before padding, preferred

 
 Exchange correlation treatment:
   GGA     = PE    functional components
   XC_C    = 1    coefficients multiplying the functional components
   LIBXC   =     F    Libxc                    
   VOSKOWN =     0    Vosko Wilk Nusair interpolation
   LHFCALC =     F    Hartree Fock is set to
   LHFONE  =     F    Hartree Fock one center treatment
   AEXX    =    0.0000 exact exchange contribution

 Parameters of functionals:
   PE:
     No parameter
 
 Van der Waals corrections
   IVDW    =     0    specifies the selected vdW correction

 Linear response parameters
   LEPSILON=     F    determine dielectric tensor
   LRPA    =     F    only Hartree local field effects (RPA)
   LNABLA  =     F    use nabla operator in PAW spheres
   LVEL    =     F    velocity operator in full k-point grid
   CSHIFT  =0.1000    complex shift for real part using Kramers Kronig
   OMEGAMAX=  -1.0    maximum frequency
   DEG_THRESHOLD= 0.2000000E-02 threshold for treating states as degnerate
   RTIME   =   -0.100 relaxation time in fs
  (WPLASMAI=    0.000 imaginary part of plasma frequency in eV, 0.658/RTIME)
   DFIELD  = 0.0000000 0.0000000 0.0000000 field for delta impulse in time
 
  Optional k-point grid parameters
   LKPOINTS_OPT  =     F    use optional k-point grid
   KPOINTS_OPT_MODE=     1    mode for optional k-point grid
 
 Orbital magnetization related:
   ORBITALMAG=     F  switch on orbital magnetization
   LCHIMAG   =     F  perturbation theory with respect to B field
   DQ        =  0.001000  dq finite difference perturbation B field
   LLRAUG    =     F  two centre corrections for induced B field
   LBONE     =     F  B-component reconstruction in AE one-centre
   LVGVCALC  =     T  calculate vGv susceptibility
   LVGVAPPL  =     F  apply vGv susceptibility instead of pGv for G=0

 Random number generation:
   RANDOM_GENERATOR = DEFAULT
   PCG_SEED         = not used


--------------------------------------------------------------------------------------------------------


 Static calculation
 charge density and potential will be updated during run
 non-spin polarized calculation
 Variant of blocked Davidson
 Davidson routine will perform the subspace rotation
 perform sub-space diagonalisation
    after iterative eigenvector-optimisation
 modified Broyden-mixing scheme, WC =      100.0
 initial mixing is a Kerker type mixing with AMIX =  0.4000 and BMIX =      1.0000
 Hartree-type preconditioning will be used
 using additional bands            48
 real space projection scheme for non local part
 use partial core corrections
 calculate Harris-corrections to forces 
   (improved forces if not selfconsistent)
 use gradient corrections 
 use of overlap-Matrix (Vanderbilt PP)
 Gauss-broadening in eV      SIGMA  =   0.20


--------------------------------------------------------------------------------------------------------


  energy-cutoff  :      500.00
  volume of cell :     7611.37
      direct lattice vectors                 reciprocal lattice vectors
    28.050000000  0.000000000  0.000000000     0.035650624  0.000000000  0.000000000
     0.000000000  8.100000000  0.000000000     0.000000000  0.123456790  0.000000000
     0.000000000  0.000000000 33.500000000     0.000000000  0.000000000  0.029850746

  length of vectors
    28.050000000  8.100000000 33.500000000     0.035650624  0.123456790  0.029850746


 
 k-points in units of 2pi/SCALE and weight: K-Spacing Value to Generate K-Mesh: 0.03
   0.00000000  0.00000000  0.00000000       0.250
   0.00000000  0.03086420  0.00000000       0.500
   0.00000000  0.06172840  0.00000000       0.250
 
 k-points in reciprocal lattice and weights: K-Spacing Value to Generate K-Mesh: 0.03
   0.00000000  0.00000000  0.00000000       0.250
   0.00000000  0.25000000  0.00000000       0.500
   0.00000000  0.50000000  0.00000000       0.250
 
 position of ions in fractional coordinates (direct lattice) 
   0.01140307  0.10203469  0.53906269
   0.00760677  0.27267160  0.53121194
   0.05312050  0.02165272  0.53054925
   0.04782852  0.35912593  0.51852537
   0.09475437  0.11096877  0.51830746
   0.09174403  0.27498272  0.51270746
   0.13779715  0.02494938  0.51086567
   0.13349554  0.35878642  0.49402090
   0.17788734  0.11152235  0.49563881
   0.17557326  0.27294568  0.48370149
   0.22162888  0.03180173  0.48173731
   0.21753476  0.36050988  0.47327463
   0.26417291  0.10978654  0.47003582
   0.26218859  0.27930123  0.46582985
   0.30727558  0.02893926  0.46237910
   0.30593583  0.35366543  0.45977015
   0.35085419  0.10127975  0.45181493
   0.35127094  0.26985062  0.45305075
   0.39560428  0.02263753  0.44728358
   0.39568984  0.35203951  0.45314328
   0.44215330  0.09958235  0.44606269
   0.44052406  0.26598272  0.45030149
   0.48703030  0.01834346  0.45273134
   0.48629234  0.35114568  0.45674328
   0.53204991  0.09937667  0.45704478
   0.53204278  0.26756173  0.45776716
   0.57483422  0.01635716  0.47163582
   0.57593226  0.34877284  0.46831642
   0.61895900  0.10028642  0.47862090
   0.62100178  0.27470617  0.47674328
   0.65648485  0.01829074  0.49883284
   0.65929055  0.35150617  0.49481194
   0.70074153  0.09554025  0.50707164
   0.70097326  0.26458519  0.50721194
   0.74113012  0.01109478  0.52718806
   0.74119786  0.34634198  0.52289254
   0.78299465  0.09870765  0.53406567
   0.78535116  0.26521358  0.53072537
   0.82555793  0.02169235  0.54565672
   0.82539750  0.35443827  0.53905970
   0.86879501  0.10465012  0.54945075
   0.86995365  0.26834321  0.54143881
   0.91529055  0.02715605  0.55213134
   0.91245276  0.35809012  0.54033433
   0.95754011  0.10827074  0.54384179
   0.95710160  0.27771481  0.53878209
   0.00757373  0.61558148  0.53256119
   0.00933323  0.78117037  0.54019701
   0.04815223  0.52952222  0.51802985
   0.05413939  0.85211235  0.53462388
   0.09126417  0.60828519  0.50754627
   0.09529162  0.76950494  0.51791642
   0.13222923  0.52839877  0.49552836
   0.13785169  0.85576420  0.50780000
   0.17699251  0.61314691  0.48800597
   0.17947558  0.78048272  0.49467463
   0.21787415  0.53215802  0.47346866
   0.22328200  0.86316420  0.48537910
   0.26289055  0.60914815  0.47003582
   0.26444991  0.77906790  0.47632239
   0.30452299  0.52413951  0.46698209
   0.30867879  0.86111852  0.46548358
   0.35166346  0.60990741  0.46538209
   0.35315686  0.77747531  0.46394328
   0.39573262  0.52222099  0.46057015
   0.39871658  0.85225432  0.45439701
   0.43963636  0.60079136  0.46431045
   0.44091266  0.77012099  0.46663582
   0.48407487  0.51890247  0.46513134
   0.48466667  0.85466173  0.46444179
   0.52598217  0.59927901  0.47348657
   0.52693761  0.77307160  0.47161493
   0.57151159  0.51526543  0.47818806
   0.57001426  0.85089877  0.48024179
   0.61100891  0.59891481  0.49293433
   0.61157219  0.76560988  0.49498806
   0.65437790  0.51257407  0.50678507
   0.65464884  0.85085802  0.50744179
   0.69650267  0.59381481  0.52142985
   0.69373975  0.76501235  0.52398507
   0.73847059  0.50816049  0.53245075
   0.73845276  0.84519877  0.53367164
   0.78136542  0.59797037  0.54233731
   0.78096257  0.76245062  0.54457910
   0.82568984  0.52086049  0.54324776
   0.82603565  0.85124568  0.54845672
   0.86995365  0.60754074  0.54784179
   0.87014973  0.77314691  0.55201194
   0.91374688  0.52803580  0.54254030
   0.91454189  0.86157654  0.55391045
   0.95644920  0.61458148  0.54011045
   0.95855258  0.78262099  0.54600597
 
 position of ions in cartesian coordinates  (Angst):
   0.31985600  0.82648100 18.05860000
   0.21337000  2.20864000 17.79560000
   1.49003000  0.17538700 17.77340000
   1.34159000  2.90892000 17.37060000
   2.65786000  0.89884700 17.36330000
   2.57342000  2.22736000 17.17570000
   3.86521000  0.20209000 17.11400000
   3.74455000  2.90617000 16.54970000
   4.98974000  0.90333100 16.60390000
   4.92483000  2.21086000 16.20400000
   6.21669000  0.25759400 16.13820000
   6.10185000  2.92013000 15.85470000
   7.41005000  0.88927100 15.74620000
   7.35439000  2.26234000 15.60530000
   8.61908000  0.23440800 15.48970000
   8.58150000  2.86469000 15.40230000
   9.84146000  0.82036600 15.13580000
   9.85315000  2.18579000 15.17720000
  11.09670000  0.18336400 14.98400000
  11.09910000  2.85152000 15.18030000
  12.40240000  0.80661700 14.94310000
  12.35670000  2.15446000 15.08510000
  13.66120000  0.14858200 15.16650000
  13.64050000  2.84428000 15.30090000
  14.92400000  0.80495100 15.31100000
  14.92380000  2.16725000 15.33520000
  16.12410000  0.13249300 15.79980000
  16.15490000  2.82506000 15.68860000
  17.36180000  0.81232000 16.03380000
  17.41910000  2.22512000 15.97090000
  18.41440000  0.14815500 16.71090000
  18.49310000  2.84720000 16.57620000
  19.65580000  0.77387600 16.98690000
  19.66230000  2.14314000 16.99160000
  20.78870000  0.08986770 17.66080000
  20.79060000  2.80537000 17.51690000
  21.96300000  0.79953200 17.89120000
  22.02910000  2.14823000 17.77930000
  23.15690000  0.17570800 18.27950000
  23.15240000  2.87095000 18.05850000
  24.36970000  0.84766600 18.40660000
  24.40220000  2.17358000 18.13820000
  25.67390000  0.21996400 18.49640000
  25.59430000  2.90053000 18.10120000
  26.85900000  0.87699300 18.21870000
  26.84670000  2.24949000 18.04920000
   0.21244300  4.98621000 17.84080000
   0.26179700  6.32748000 18.09660000
   1.35067000  4.28913000 17.35400000
   1.51861000  6.90211000 17.90990000
   2.55996000  4.92711000 17.00280000
   2.67293000  6.23299000 17.35020000
   3.70903000  4.28003000 16.60020000
   3.86674000  6.93169000 17.01130000
   4.96464000  4.96649000 16.34820000
   5.03429000  6.32191000 16.57160000
   6.11137000  4.31048000 15.86120000
   6.26306000  6.99163000 16.26020000
   7.37408000  4.93410000 15.74620000
   7.41782000  6.31045000 15.95680000
   8.54187000  4.24553000 15.64390000
   8.65844000  6.97506000 15.59370000
   9.86416000  4.94025000 15.59030000
   9.90605000  6.29755000 15.54210000
  11.10030000  4.22999000 15.42910000
  11.18400000  6.90326000 15.22230000
  12.33180000  4.86641000 15.55440000
  12.36760000  6.23798000 15.63230000
  13.57830000  4.20311000 15.58190000
  13.59490000  6.92276000 15.55880000
  14.75380000  4.85416000 15.86180000
  14.78060000  6.26188000 15.79910000
  16.03090000  4.17365000 16.01930000
  15.98890000  6.89228000 16.08810000
  17.13880000  4.85121000 16.51330000
  17.15460000  6.20144000 16.58210000
  18.35530000  4.15185000 16.97730000
  18.36290000  6.89195000 16.99930000
  19.53690000  4.80990000 17.46790000
  19.45940000  6.19660000 17.55350000
  20.71410000  4.11610000 17.83710000
  20.71360000  6.84611000 17.87800000
  21.91730000  4.84356000 18.16830000
  21.90600000  6.17585000 18.24340000
  23.16060000  4.21897000 18.19880000
  23.17030000  6.89509000 18.37330000
  24.40220000  4.92108000 18.35270000
  24.40770000  6.26249000 18.49240000
  25.63060000  4.27709000 18.17510000
  25.65290000  6.97877000 18.55600000
  26.82840000  4.97811000 18.09370000
  26.88740000  6.33923000 18.29120000
 


--------------------------------------------------------------------------------------------------------


 k-point     1 :   0.0000 0.0000 0.0000  plane waves:  193173
 k-point     2 :   0.0000 0.2500 0.0000  plane waves:  193166
 k-point     3 :   0.0000 0.5000 0.0000  plane waves:  193226

 maximum and minimum number of plane-waves per node :    193226   193166

 maximum number of plane-waves:    193226
 maximum index in each direction: 
   IXMAX=   51   IYMAX=   14   IZMAX=   61
   IXMIN=  -51   IYMIN=  -15   IZMIN=  -61


 serial   3D FFT for wavefunctions
 parallel 3D FFT for charge:
    minimum data exchange during FFTs selected (reduces bandwidth)


 total amount of memory used by VASP MPI-rank0  2294522. kBytes
=======================================================================

   base                                    :      30000. kBytes
   nonlr-proj                              :      15088. kBytes
   fftplans                                :     436558. kBytes
   grid                                    :     732614. kBytes
   one-center                              :        282. kBytes
   wavefun                                 :    1079980. kBytes
 
     INWAV:  cpu time      0.0000: real time      0.0000
 Broyden mixing: mesh for mixing (old mesh)
   NGX =103   NGY = 29   NGZ =123
  (NGX  =420   NGY  =120   NGZ  =500)
  gives a total of 367401 points

 initial charge density was supplied:
 charge density of overlapping atoms calculated
 number of electron     368.0000000 magnetization 
 keeping initial charge density in first step


--------------------------------------------------------------------------------------------------------


 Maximum index for non-local projection operator          1873
 Maximum index for augmentation-charges          2388 (set IRDMAX)


--------------------------------------------------------------------------------------------------------


 First call to EWALD:  gamma=   0.090
 Maximum number of real-space cells   2x   6x   2
 Maximum number of reciprocal cells   4x   1x   4

    FEWALD:  cpu time      0.1606: real time      0.1607


--------------------------------------- Ionic step        1  -------------------------------------------




--------------------------------------- Iteration      1(   1)  ---------------------------------------


    POTLOK:  cpu time      0.4171: real time      0.4366
    SETDIJ:  cpu time      0.0429: real time      0.0428
     EDDAV:  cpu time     10.9641: real time     10.9738
       DOS:  cpu time      0.0008: real time      0.0008
    --------------------------------------------
      LOOP:  cpu time     11.4249: real time     11.4541

 eigenvalue-minimisations  :  1696
 total energy-change (2. order) : 0.3732099E+04  (-0.1185661E+05)
 number of electron     368.0000000 magnetization 
 augmentation part      368.0000000 magnetization 

 Free energy of the ion-electron system (eV)
  ---------------------------------------------------
  alpha Z        PSCENC =        91.34886789
  Ewald energy   TEWEN  =    119561.10736450
  -Hartree energ DENC   =   -128895.03627199
  -exchange      EXHF   =         0.00000000
  -V(xc)+E(xc)   XCENC  =      1220.94653171
  PAW double counting   =      9984.02826696   -10036.41360137
  entropy T*S    EENTRO =        -0.86056623
  eigenvalues    EBANDS =     -1730.67645366
  atomic energy  EATOM  =     13537.65479391
  Solvation  Ediel_sol  =         0.00000000
  ---------------------------------------------------
  free energy    TOTEN  =      3732.09893172 eV

  energy without entropy =     3732.95949796  energy(sigma->0) =     3732.52921484


--------------------------------------------------------------------------------------------------------




--------------------------------------- Iteration      1(   2)  ---------------------------------------


     EDDAV:  cpu time     13.0710: real time     13.0790
       DOS:  cpu time      0.0007: real time      0.0007
    --------------------------------------------
      LOOP:  cpu time     13.0717: real time     13.0797

 eigenvalue-minimisations  :  2136
 total energy-change (2. order) :-0.3538225E+04  (-0.3284884E+04)
 number of electron     368.0000000 magnetization 
 augmentation part      368.0000000 magnetization 

 Free energy of the ion-electron system (eV)
  ---------------------------------------------------
  alpha Z        PSCENC =        91.34886789
  Ewald energy   TEWEN  =    119561.10736450
  -Hartree energ DENC   =   -128895.03627199
  -exchange      EXHF   =         0.00000000
  -V(xc)+E(xc)   XCENC  =      1220.94653171
  PAW double counting   =      9984.02826696   -10036.41360137
  entropy T*S    EENTRO =        -0.27077905
  eigenvalues    EBANDS =     -5269.49080832
  atomic energy  EATOM  =     13537.65479391
  Solvation  Ediel_sol  =         0.00000000
  ---------------------------------------------------
  free energy    TOTEN  =       193.87436424 eV

  energy without entropy =      194.14514329  energy(sigma->0) =      194.00975377


--------------------------------------------------------------------------------------------------------




--------------------------------------- Iteration      1(   3)  ---------------------------------------


     EDDAV:  cpu time     11.2218: real time     11.2260
       DOS:  cpu time      0.0006: real time      0.0006
    --------------------------------------------
      LOOP:  cpu time     11.2225: real time     11.2267

 eigenvalue-minimisations  :  1776
 total energy-change (2. order) :-0.1026230E+04  (-0.1001705E+04)
 number of electron     368.0000000 magnetization 
 augmentation part      368.0000000 magnetization 

 Free energy of the ion-electron system (eV)
  ---------------------------------------------------
  alpha Z        PSCENC =        91.34886789
  Ewald energy   TEWEN  =    119561.10736450
  -Hartree energ DENC   =   -128895.03627199
  -exchange      EXHF   =         0.00000000
  -V(xc)+E(xc)   XCENC  =      1220.94653171
  PAW double counting   =      9984.02826696   -10036.41360137
  entropy T*S    EENTRO =        -0.04662417
  eigenvalues    EBANDS =     -6295.94503290
  atomic energy  EATOM  =     13537.65479391
  Solvation  Ediel_sol  =         0.00000000
  ---------------------------------------------------
  free energy    TOTEN  =      -832.35570546 eV

  energy without entropy =     -832.30908129  energy(sigma->0) =     -832.33239337


--------------------------------------------------------------------------------------------------------




--------------------------------------- Iteration      1(   4)  ---------------------------------------


     EDDAV:  cpu time     10.9322: real time     10.9362
       DOS:  cpu time      0.0007: real time      0.0007
    --------------------------------------------
      LOOP:  cpu time     10.9329: real time     10.9368

 eigenvalue-minimisations  :  1720
 total energy-change (2. order) :-0.6338730E+02  (-0.6239658E+02)
 number of electron     368.0000000 magnetization 
 augmentation part      368.0000000 magnetization 

 Free energy of the ion-electron system (eV)
  ---------------------------------------------------
  alpha Z        PSCENC =        91.34886789
  Ewald energy   TEWEN  =    119561.10736450
  -Hartree energ DENC   =   -128895.03627199
  -exchange      EXHF   =         0.00000000
  -V(xc)+E(xc)   XCENC  =      1220.94653171
  PAW double counting   =      9984.02826696   -10036.41360137
  entropy T*S    EENTRO =        -0.05273795
  eigenvalues    EBANDS =     -6359.32622359
  atomic energy  EATOM  =     13537.65479391
  Solvation  Ediel_sol  =         0.00000000
  ---------------------------------------------------
  free energy    TOTEN  =      -895.74300992 eV

  energy without entropy =     -895.69027198  energy(sigma->0) =     -895.71664095


--------------------------------------------------------------------------------------------------------




--------------------------------------- Iteration      1(   5)  ---------------------------------------


     EDDAV:  cpu time     11.2316: real time     11.2358
       DOS:  cpu time      0.0007: real time      0.0007
    CHARGE:  cpu time      1.2088: real time      1.2117
    MIXING:  cpu time      0.2744: real time      0.2753
    --------------------------------------------
      LOOP:  cpu time     12.7156: real time     12.7234

 eigenvalue-minimisations  :  1784
 total energy-change (2. order) :-0.1545797E+01  (-0.1526398E+01)
 number of electron     368.0000004 magnetization 
 augmentation part       10.1309293 magnetization 

 Broyden mixing:
  rms(total) = 0.45367E+01    rms(broyden)= 0.45361E+01
  rms(prec ) = 0.46536E+01
  weight for this iteration     100.00

 Free energy of the ion-electron system (eV)
  ---------------------------------------------------
  alpha Z        PSCENC =        91.34886789
  Ewald energy   TEWEN  =    119561.10736450
  -Hartree energ DENC   =   -128895.03627199
  -exchange      EXHF   =         0.00000000
  -V(xc)+E(xc)   XCENC  =      1220.94653171
  PAW double counting   =      9984.02826696   -10036.41360137
  entropy T*S    EENTRO =        -0.05314231
  eigenvalues    EBANDS =     -6360.87161664
  atomic energy  EATOM  =     13537.65479391
  Solvation  Ediel_sol  =         0.00000000
  ---------------------------------------------------
  free energy    TOTEN  =      -897.28880734 eV

  energy without entropy =     -897.23566503  energy(sigma->0) =     -897.26223619


--------------------------------------------------------------------------------------------------------




--------------------------------------- Iteration      1(   6)  ---------------------------------------


    POTLOK:  cpu time      0.3208: real time      0.3207
    SETDIJ:  cpu time      0.0408: real time      0.0408
     EDDAV:  cpu time     10.2537: real time     10.2575
       DOS:  cpu time      0.0007: real time      0.0007
    CHARGE:  cpu time      1.1570: real time      1.1592
    MIXING:  cpu time      0.2776: real time      0.2775
    --------------------------------------------
      LOOP:  cpu time     12.0506: real time     12.0564

 eigenvalue-minimisations  :  1584
 total energy-change (2. order) : 0.4926502E+02  (-0.4707838E+01)
 number of electron     368.0000003 magnetization 
 augmentation part        9.7107621 magnetization 

 Broyden mixing:
  rms(total) = 0.26643E+01    rms(broyden)= 0.26642E+01
  rms(prec ) = 0.27223E+01
  weight for this iteration     100.00

 eigenvalues of (default mixing * dielectric matrix)
  average eigenvalue GAMMA=   2.1850
  2.1850

 Free energy of the ion-electron system (eV)
  ---------------------------------------------------
  alpha Z        PSCENC =        91.34886789
  Ewald energy   TEWEN  =    119561.10736450
  -Hartree energ DENC   =   -129463.71093120
  -exchange      EXHF   =         0.00000000
  -V(xc)+E(xc)   XCENC  =      1244.21075076
  PAW double counting   =     18904.86081155   -18964.82694072
  entropy T*S    EENTRO =        -0.05701602
  eigenvalues    EBANDS =     -5758.61148748
  atomic energy  EATOM  =     13537.65479391
  Solvation  Ediel_sol  =         0.00000000
  ---------------------------------------------------
  free energy    TOTEN  =      -848.02378681 eV

  energy without entropy =     -847.96677079  energy(sigma->0) =     -847.99527880


--------------------------------------------------------------------------------------------------------




--------------------------------------- Iteration      1(   7)  ---------------------------------------


    POTLOK:  cpu time      0.3225: real time      0.3226
    SETDIJ:  cpu time      0.0405: real time      0.0405
     EDDAV:  cpu time     10.1268: real time     10.1321
       DOS:  cpu time      0.0007: real time      0.0007
    CHARGE:  cpu time      1.1540: real time      1.1555
    MIXING:  cpu time      0.2808: real time      0.2807
    --------------------------------------------
      LOOP:  cpu time     11.9253: real time     11.9321

 eigenvalue-minimisations  :  1560
 total energy-change (2. order) : 0.1833676E+02  (-0.6530784E+01)
 number of electron     368.0000003 magnetization 
 augmentation part        9.1567663 magnetization 

 Broyden mixing:
  rms(total) = 0.73046E+00    rms(broyden)= 0.73019E+00
  rms(prec ) = 0.74024E+00
  weight for this iteration     100.00

 eigenvalues of (default mixing * dielectric matrix)
  average eigenvalue GAMMA=   2.2126
  2.2126  2.2126

 Free energy of the ion-electron system (eV)
  ---------------------------------------------------
  alpha Z        PSCENC =        91.34886789
  Ewald energy   TEWEN  =    119561.10736450
  -Hartree energ DENC   =   -130226.93713139
  -exchange      EXHF   =         0.00000000
  -V(xc)+E(xc)   XCENC  =      1275.25038702
  PAW double counting   =     36459.38288054   -36526.23313355
  entropy T*S    EENTRO =        -0.06186608
  eigenvalues    EBANDS =     -5001.19918694
  atomic energy  EATOM  =     13537.65479391
  Solvation  Ediel_sol  =         0.00000000
  ---------------------------------------------------
  free energy    TOTEN  =      -829.68702412 eV

  energy without entropy =     -829.62515804  energy(sigma->0) =     -829.65609108


--------------------------------------------------------------------------------------------------------




--------------------------------------- Iteration      1(   8)  ---------------------------------------


    POTLOK:  cpu time      0.3199: real time      0.3199
    SETDIJ:  cpu time      0.0405: real time      0.0405
     EDDAV:  cpu time     10.3238: real time     10.3289
       DOS:  cpu time      0.0007: real time      0.0007
    CHARGE:  cpu time      1.1503: real time      1.1535
    MIXING:  cpu time      0.2809: real time      0.2809
    --------------------------------------------
      LOOP:  cpu time     12.1161: real time     12.1244

 eigenvalue-minimisations  :  1600
 total energy-change (2. order) : 0.2865349E+00  (-0.2492226E+00)
 number of electron     368.0000003 magnetization 
 augmentation part        9.1433128 magnetization 

 Broyden mixing:
  rms(total) = 0.98924E-01    rms(broyden)= 0.98893E-01
  rms(prec ) = 0.12128E+00
  weight for this iteration     100.00

 eigenvalues of (default mixing * dielectric matrix)
  average eigenvalue GAMMA=   1.8659
  1.2551  2.4453  1.8973

 Free energy of the ion-electron system (eV)
  ---------------------------------------------------
  alpha Z        PSCENC =        91.34886789
  Ewald energy   TEWEN  =    119561.10736450
  -Hartree energ DENC   =   -130319.63488854
  -exchange      EXHF   =         0.00000000
  -V(xc)+E(xc)   XCENC  =      1274.93857938
  PAW double counting   =     40707.95298197   -40772.08044256
  entropy T*S    EENTRO =        -0.05963874
  eigenvalues    EBANDS =     -4910.62810699
  atomic energy  EATOM  =     13537.65479391
  Solvation  Ediel_sol  =         0.00000000
  ---------------------------------------------------
  free energy    TOTEN  =      -829.40048918 eV

  energy without entropy =     -829.34085044  energy(sigma->0) =     -829.37066981


--------------------------------------------------------------------------------------------------------




--------------------------------------- Iteration      1(   9)  ---------------------------------------


    POTLOK:  cpu time      0.3208: real time      0.3209
    SETDIJ:  cpu time      0.0403: real time      0.0403
     EDDAV:  cpu time     10.5268: real time     10.5320
       DOS:  cpu time      0.0007: real time      0.0007
    CHARGE:  cpu time      1.1538: real time      1.1548
    MIXING:  cpu time      0.2862: real time      0.2863
    --------------------------------------------
      LOOP:  cpu time     12.3286: real time     12.3350

 eigenvalue-minimisations  :  1640
 total energy-change (2. order) : 0.1063937E+00  (-0.2898629E-01)
 number of electron     368.0000003 magnetization 
 augmentation part        9.1184666 magnetization 

 Broyden mixing:
  rms(total) = 0.57192E-01    rms(broyden)= 0.57182E-01
  rms(prec ) = 0.78426E-01
  weight for this iteration     100.00

 eigenvalues of (default mixing * dielectric matrix)
  average eigenvalue GAMMA=   1.6909
  2.2071  2.2071  1.1746  1.1746

 Free energy of the ion-electron system (eV)
  ---------------------------------------------------
  alpha Z        PSCENC =        91.34886789
  Ewald energy   TEWEN  =    119561.10736450
  -Hartree energ DENC   =   -130389.86060746
  -exchange      EXHF   =         0.00000000
  -V(xc)+E(xc)   XCENC  =      1276.42538157
  PAW double counting   =     41209.86205434   -41274.11990290
  entropy T*S    EENTRO =        -0.06001894
  eigenvalues    EBANDS =     -4841.65202841
  atomic energy  EATOM  =     13537.65479391
  Solvation  Ediel_sol  =         0.00000000
  ---------------------------------------------------
  free energy    TOTEN  =      -829.29409551 eV

  energy without entropy =     -829.23407657  energy(sigma->0) =     -829.26408604


--------------------------------------------------------------------------------------------------------




--------------------------------------- Iteration      1(  10)  ---------------------------------------


    POTLOK:  cpu time      0.3197: real time      0.3197
    SETDIJ:  cpu time      0.0403: real time      0.0403
     EDDAV:  cpu time     11.1228: real time     11.1268
       DOS:  cpu time      0.0007: real time      0.0007
    CHARGE:  cpu time      1.1546: real time      1.1562
    MIXING:  cpu time      0.2920: real time      0.2923
    --------------------------------------------
      LOOP:  cpu time     12.9302: real time     12.9360

 eigenvalue-minimisations  :  1760
 total energy-change (2. order) : 0.3594942E-01  (-0.4646567E-02)
 number of electron     368.0000003 magnetization 
 augmentation part        9.1091146 magnetization 

 Broyden mixing:
  rms(total) = 0.35972E-01    rms(broyden)= 0.35970E-01
  rms(prec ) = 0.55442E-01
  weight for this iteration     100.00

 eigenvalues of (default mixing * dielectric matrix)
  average eigenvalue GAMMA=   1.7413
  2.4932  2.4932  1.5967  1.2905  0.8328

 Free energy of the ion-electron system (eV)
  ---------------------------------------------------
  alpha Z        PSCENC =        91.34886789
  Ewald energy   TEWEN  =    119561.10736450
  -Hartree energ DENC   =   -130437.81646786
  -exchange      EXHF   =         0.00000000
  -V(xc)+E(xc)   XCENC  =      1276.71475253
  PAW double counting   =     40970.12190537   -41034.23554973
  entropy T*S    EENTRO =        -0.06001744
  eigenvalues    EBANDS =     -4794.09379525
  atomic energy  EATOM  =     13537.65479391
  Solvation  Ediel_sol  =         0.00000000
  ---------------------------------------------------
  free energy    TOTEN  =      -829.25814609 eV

  energy without entropy =     -829.19812864  energy(sigma->0) =     -829.22813736


--------------------------------------------------------------------------------------------------------




--------------------------------------- Iteration      1(  11)  ---------------------------------------


    POTLOK:  cpu time      0.3197: real time      0.3196
    SETDIJ:  cpu time      0.0403: real time      0.0403
     EDDAV:  cpu time     10.1677: real time     10.1714
       DOS:  cpu time      0.0007: real time      0.0007
    CHARGE:  cpu time      1.1665: real time      1.1667
    MIXING:  cpu time      0.3023: real time      0.3025
    --------------------------------------------
      LOOP:  cpu time     11.9972: real time     12.0013

 eigenvalue-minimisations  :  1568
 total energy-change (2. order) : 0.2939844E-01  (-0.2351282E-02)
 number of electron     368.0000003 magnetization 
 augmentation part        9.1040701 magnetization 

 Broyden mixing:
  rms(total) = 0.24438E-01    rms(broyden)= 0.24436E-01
  rms(prec ) = 0.37606E-01
  weight for this iteration     100.00

 eigenvalues of (default mixing * dielectric matrix)
  average eigenvalue GAMMA=   1.7813
  2.9973  2.5205  1.9197  0.9358  1.1572  1.1572

 Free energy of the ion-electron system (eV)
  ---------------------------------------------------
  alpha Z        PSCENC =        91.34886789
  Ewald energy   TEWEN  =    119561.10736450
  -Hartree energ DENC   =   -130504.29050379
  -exchange      EXHF   =         0.00000000
  -V(xc)+E(xc)   XCENC  =      1277.30264372
  PAW double counting   =     40891.88338824   -40955.88938820
  entropy T*S    EENTRO =        -0.05999278
  eigenvalues    EBANDS =     -4728.28592113
  atomic energy  EATOM  =     13537.65479391
  Solvation  Ediel_sol  =         0.00000000
  ---------------------------------------------------
  free energy    TOTEN  =      -829.22874765 eV

  energy without entropy =     -829.16875487  energy(sigma->0) =     -829.19875126


--------------------------------------------------------------------------------------------------------




--------------------------------------- Iteration      1(  12)  ---------------------------------------


    POTLOK:  cpu time      0.3216: real time      0.3215
    SETDIJ:  cpu time      0.0405: real time      0.0405
     EDDAV:  cpu time     10.1094: real time     10.1132
       DOS:  cpu time      0.0007: real time      0.0007
    CHARGE:  cpu time      1.1555: real time      1.1566
    MIXING:  cpu time      0.3052: real time      0.3061
    --------------------------------------------
      LOOP:  cpu time     11.9329: real time     11.9387

 eigenvalue-minimisations  :  1560
 total energy-change (2. order) : 0.3080017E-02  (-0.2135058E-02)
 number of electron     368.0000003 magnetization 
 augmentation part        9.0969662 magnetization 

 Broyden mixing:
  rms(total) = 0.15432E-01    rms(broyden)= 0.15429E-01
  rms(prec ) = 0.23465E-01
  weight for this iteration     100.00

 eigenvalues of (default mixing * dielectric matrix)
  average eigenvalue GAMMA=   2.0920
  4.9602  2.4582  2.0277  2.0277  0.9407  1.1148  1.1148

 Free energy of the ion-electron system (eV)
  ---------------------------------------------------
  alpha Z        PSCENC =        91.34886789
  Ewald energy   TEWEN  =    119561.10736450
  -Hartree energ DENC   =   -130564.82192665
  -exchange      EXHF   =         0.00000000
  -V(xc)+E(xc)   XCENC  =      1277.89748877
  PAW double counting   =     40960.07651575   -41024.07542341
  entropy T*S    EENTRO =        -0.06011084
  eigenvalues    EBANDS =     -4668.35323754
  atomic energy  EATOM  =     13537.65479391
  Solvation  Ediel_sol  =         0.00000000
  ---------------------------------------------------
  free energy    TOTEN  =      -829.22566763 eV

  energy without entropy =     -829.16555679  energy(sigma->0) =     -829.19561221


--------------------------------------------------------------------------------------------------------




--------------------------------------- Iteration      1(  13)  ---------------------------------------


    POTLOK:  cpu time      0.3224: real time      0.3225
    SETDIJ:  cpu time      0.0402: real time      0.0402
     EDDAV:  cpu time     10.0999: real time     10.1039
       DOS:  cpu time      0.0008: real time      0.0008
    CHARGE:  cpu time      1.1560: real time      1.1569
    MIXING:  cpu time      0.3133: real time      0.3151
    --------------------------------------------
      LOOP:  cpu time     11.9325: real time     11.9394

 eigenvalue-minimisations  :  1560
 total energy-change (2. order) :-0.1244971E-01  (-0.9497162E-03)
 number of electron     368.0000003 magnetization 
 augmentation part        9.0942355 magnetization 

 Broyden mixing:
  rms(total) = 0.85098E-02    rms(broyden)= 0.85078E-02
  rms(prec ) = 0.11875E-01
  weight for this iteration     100.00

 eigenvalues of (default mixing * dielectric matrix)
  average eigenvalue GAMMA=   2.0790
  5.4319  2.4505  2.4505  1.8926  1.2250  1.2250  0.8728  1.0839

 Free energy of the ion-electron system (eV)
  ---------------------------------------------------
  alpha Z        PSCENC =        91.34886789
  Ewald energy   TEWEN  =    119561.10736450
  -Hartree energ DENC   =   -130618.16290948
  -exchange      EXHF   =         0.00000000
  -V(xc)+E(xc)   XCENC  =      1278.10997640
  PAW double counting   =     40906.50847770   -40970.50308886
  entropy T*S    EENTRO =        -0.06007846
  eigenvalues    EBANDS =     -4615.24152093
  atomic energy  EATOM  =     13537.65479391
  Solvation  Ediel_sol  =         0.00000000
  ---------------------------------------------------
  free energy    TOTEN  =      -829.23811734 eV

  energy without entropy =     -829.17803888  energy(sigma->0) =     -829.20807811


--------------------------------------------------------------------------------------------------------




--------------------------------------- Iteration      1(  14)  ---------------------------------------


    POTLOK:  cpu time      0.3227: real time      0.3227
    SETDIJ:  cpu time      0.0404: real time      0.0404
     EDDAV:  cpu time     10.3648: real time     10.3685
       DOS:  cpu time      0.0008: real time      0.0008
    CHARGE:  cpu time      1.1562: real time      1.1574
    MIXING:  cpu time      0.3201: real time      0.3218
    --------------------------------------------
      LOOP:  cpu time     12.2050: real time     12.2117

 eigenvalue-minimisations  :  1608
 total energy-change (2. order) :-0.1604633E-01  (-0.1133186E-03)
 number of electron     368.0000003 magnetization 
 augmentation part        9.0933093 magnetization 

 Broyden mixing:
  rms(total) = 0.59370E-02    rms(broyden)= 0.59366E-02
  rms(prec ) = 0.81228E-02
  weight for this iteration     100.00

 eigenvalues of (default mixing * dielectric matrix)
  average eigenvalue GAMMA=   2.2377
  6.5301  2.9529  2.6147  1.8245  1.8245  1.2539  1.2539  0.9424  0.9424

 Free energy of the ion-electron system (eV)
  ---------------------------------------------------
  alpha Z        PSCENC =        91.34886789
  Ewald energy   TEWEN  =    119561.10736450
  -Hartree energ DENC   =   -130631.54233306
  -exchange      EXHF   =         0.00000000
  -V(xc)+E(xc)   XCENC  =      1278.13209904
  PAW double counting   =     40918.73453007   -40982.73724002
  entropy T*S    EENTRO =        -0.06004744
  eigenvalues    EBANDS =     -4601.89219855
  atomic energy  EATOM  =     13537.65479391
  Solvation  Ediel_sol  =         0.00000000
  ---------------------------------------------------
  free energy    TOTEN  =      -829.25416367 eV

  energy without entropy =     -829.19411623  energy(sigma->0) =     -829.22413995


--------------------------------------------------------------------------------------------------------




--------------------------------------- Iteration      1(  15)  ---------------------------------------


    POTLOK:  cpu time      0.3232: real time      0.3232
    SETDIJ:  cpu time      0.0404: real time      0.0405
     EDDAV:  cpu time      9.9756: real time      9.9823
       DOS:  cpu time      0.0007: real time      0.0007
    CHARGE:  cpu time      1.1515: real time      1.1580
    MIXING:  cpu time      0.3294: real time      0.3295
    --------------------------------------------
      LOOP:  cpu time     11.8209: real time     11.8343

 eigenvalue-minimisations  :  1528
 total energy-change (2. order) :-0.2199780E-01  (-0.2077235E-03)
 number of electron     368.0000003 magnetization 
 augmentation part        9.0929816 magnetization 

 Broyden mixing:
  rms(total) = 0.30314E-02    rms(broyden)= 0.30310E-02
  rms(prec ) = 0.40331E-02
  weight for this iteration     100.00

 eigenvalues of (default mixing * dielectric matrix)
  average eigenvalue GAMMA=   2.2407
  7.0170  3.5047  2.2743  2.2743  1.7425  1.2954  1.2954  1.1089  0.9472  0.9472

 Free energy of the ion-electron system (eV)
  ---------------------------------------------------
  alpha Z        PSCENC =        91.34886789
  Ewald energy   TEWEN  =    119561.10736450
  -Hartree energ DENC   =   -130643.02440887
  -exchange      EXHF   =         0.00000000
  -V(xc)+E(xc)   XCENC  =      1278.10562556
  PAW double counting   =     40918.45876256   -40982.46387318
  entropy T*S    EENTRO =        -0.06007793
  eigenvalues    EBANDS =     -4590.40321590
  atomic energy  EATOM  =     13537.65479391
  Solvation  Ediel_sol  =         0.00000000
  ---------------------------------------------------
  free energy    TOTEN  =      -829.27616146 eV

  energy without entropy =     -829.21608354  energy(sigma->0) =     -829.24612250


--------------------------------------------------------------------------------------------------------




--------------------------------------- Iteration      1(  16)  ---------------------------------------


    POTLOK:  cpu time      0.3201: real time      0.3201
    SETDIJ:  cpu time      0.0404: real time      0.0404
     EDDAV:  cpu time     10.5492: real time     10.5560
       DOS:  cpu time      0.0007: real time      0.0007
    CHARGE:  cpu time      1.1663: real time      1.1669
    MIXING:  cpu time      0.3384: real time      0.3389
    --------------------------------------------
      LOOP:  cpu time     12.4151: real time     12.4230

 eigenvalue-minimisations  :  1640
 total energy-change (2. order) :-0.7204699E-02  (-0.3922447E-04)
 number of electron     368.0000003 magnetization 
 augmentation part        9.0929405 magnetization 

 Broyden mixing:
  rms(total) = 0.23416E-02    rms(broyden)= 0.23415E-02
  rms(prec ) = 0.28744E-02
  weight for this iteration     100.00

 eigenvalues of (default mixing * dielectric matrix)
  average eigenvalue GAMMA=   2.3379
  7.9085  3.9682  2.3743  2.3743  1.8566  1.5668  1.5668  0.9310  0.9829  1.0936
  1.0936

 Free energy of the ion-electron system (eV)
  ---------------------------------------------------
  alpha Z        PSCENC =        91.34886789
  Ewald energy   TEWEN  =    119561.10736450
  -Hartree energ DENC   =   -130645.86618715
  -exchange      EXHF   =         0.00000000
  -V(xc)+E(xc)   XCENC  =      1278.08593150
  PAW double counting   =     40912.27345937   -40976.27544351
  entropy T*S    EENTRO =        -0.06008085
  eigenvalues    EBANDS =     -4587.55207181
  atomic energy  EATOM  =     13537.65479391
  Solvation  Ediel_sol  =         0.00000000
  ---------------------------------------------------
  free energy    TOTEN  =      -829.28336616 eV

  energy without entropy =     -829.22328532  energy(sigma->0) =     -829.25332574


--------------------------------------------------------------------------------------------------------




--------------------------------------- Iteration      1(  17)  ---------------------------------------


    POTLOK:  cpu time      0.3197: real time      0.3198
    SETDIJ:  cpu time      0.0404: real time      0.0404
     EDDAV:  cpu time     10.1873: real time     10.1938
       DOS:  cpu time      0.0008: real time      0.0008
    CHARGE:  cpu time      1.1581: real time      1.1586
    MIXING:  cpu time      0.3500: real time      0.3500
    --------------------------------------------
      LOOP:  cpu time     12.0562: real time     12.0634

 eigenvalue-minimisations  :  1568
 total energy-change (2. order) :-0.4907219E-02  (-0.2905285E-04)
 number of electron     368.0000003 magnetization 
 augmentation part        9.0928385 magnetization 

 Broyden mixing:
  rms(total) = 0.11603E-02    rms(broyden)= 0.11602E-02
  rms(prec ) = 0.14734E-02
  weight for this iteration     100.00

 eigenvalues of (default mixing * dielectric matrix)
  average eigenvalue GAMMA=   2.3669
  8.2910  4.6037  2.4613  2.4613  2.0336  1.3875  1.3875  1.4096  1.4096  0.9644
  0.9644  1.0293

 Free energy of the ion-electron system (eV)
  ---------------------------------------------------
  alpha Z        PSCENC =        91.34886789
  Ewald energy   TEWEN  =    119561.10736450
  -Hartree energ DENC   =   -130648.24609540
  -exchange      EXHF   =         0.00000000
  -V(xc)+E(xc)   XCENC  =      1278.08656446
  PAW double counting   =     40917.20885766   -40981.20907205
  entropy T*S    EENTRO =        -0.06007886
  eigenvalues    EBANDS =     -4585.17947549
  atomic energy  EATOM  =     13537.65479391
  Solvation  Ediel_sol  =         0.00000000
  ---------------------------------------------------
  free energy    TOTEN  =      -829.28827338 eV

  energy without entropy =     -829.22819452  energy(sigma->0) =     -829.25823395


--------------------------------------------------------------------------------------------------------




--------------------------------------- Iteration      1(  18)  ---------------------------------------


    POTLOK:  cpu time      0.3204: real time      0.3204
    SETDIJ:  cpu time      0.0403: real time      0.0403
     EDDAV:  cpu time     10.5565: real time     10.5604
       DOS:  cpu time      0.0007: real time      0.0007
    CHARGE:  cpu time      1.1555: real time      1.1572
    MIXING:  cpu time      0.3589: real time      0.3612
    --------------------------------------------
      LOOP:  cpu time     12.4324: real time     12.4401

 eigenvalue-minimisations  :  1640
 total energy-change (2. order) :-0.2141253E-02  (-0.9535808E-05)
 number of electron     368.0000003 magnetization 
 augmentation part        9.0927612 magnetization 

 Broyden mixing:
  rms(total) = 0.66309E-03    rms(broyden)= 0.66300E-03
  rms(prec ) = 0.84165E-03
  weight for this iteration     100.00

 eigenvalues of (default mixing * dielectric matrix)
  average eigenvalue GAMMA=   2.4010
  8.7876  4.9572  2.6891  2.6891  1.8410  1.8410  1.5709  1.5709  1.1988  1.1988
  0.9446  0.9446  0.9794

 Free energy of the ion-electron system (eV)
  ---------------------------------------------------
  alpha Z        PSCENC =        91.34886789
  Ewald energy   TEWEN  =    119561.10736450
  -Hartree energ DENC   =   -130649.02437170
  -exchange      EXHF   =         0.00000000
  -V(xc)+E(xc)   XCENC  =      1278.08588816
  PAW double counting   =     40915.82894600   -40979.82935938
  entropy T*S    EENTRO =        -0.06008322
  eigenvalues    EBANDS =     -4584.40246080
  atomic energy  EATOM  =     13537.65479391
  Solvation  Ediel_sol  =         0.00000000
  ---------------------------------------------------
  free energy    TOTEN  =      -829.29041463 eV

  energy without entropy =     -829.23033142  energy(sigma->0) =     -829.26037303


--------------------------------------------------------------------------------------------------------




--------------------------------------- Iteration      1(  19)  ---------------------------------------


    POTLOK:  cpu time      0.3203: real time      0.3203
    SETDIJ:  cpu time      0.0404: real time      0.0405
     EDDAV:  cpu time     10.3524: real time     10.3562
       DOS:  cpu time      0.0007: real time      0.0008
    CHARGE:  cpu time      1.1550: real time      1.1581
    MIXING:  cpu time      0.3734: real time      0.3733
    --------------------------------------------
      LOOP:  cpu time     12.2423: real time     12.2492

 eigenvalue-minimisations  :  1600
 total energy-change (2. order) :-0.1027287E-02  (-0.3372024E-05)
 number of electron     368.0000003 magnetization 
 augmentation part        9.0927982 magnetization 

 Broyden mixing:
  rms(total) = 0.40896E-03    rms(broyden)= 0.40893E-03
  rms(prec ) = 0.49637E-03
  weight for this iteration     100.00

 eigenvalues of (default mixing * dielectric matrix)
  average eigenvalue GAMMA=   2.3947
  8.9128  5.4357  3.0443  2.3631  2.3631  1.7904  1.4938  1.4938  1.3206  1.3206
  1.0725  0.9331  0.9909  0.9909

 Free energy of the ion-electron system (eV)
  ---------------------------------------------------
  alpha Z        PSCENC =        91.34886789
  Ewald energy   TEWEN  =    119561.10736450
  -Hartree energ DENC   =   -130649.37485909
  -exchange      EXHF   =         0.00000000
  -V(xc)+E(xc)   XCENC  =      1278.08317217
  PAW double counting   =     40914.51257362   -40978.51109458
  entropy T*S    EENTRO =        -0.06007810
  eigenvalues    EBANDS =     -4584.05218225
  atomic energy  EATOM  =     13537.65479391
  Solvation  Ediel_sol  =         0.00000000
  ---------------------------------------------------
  free energy    TOTEN  =      -829.29144192 eV

  energy without entropy =     -829.23136382  energy(sigma->0) =     -829.26140287


--------------------------------------------------------------------------------------------------------




--------------------------------------- Iteration      1(  20)  ---------------------------------------


    POTLOK:  cpu time      0.3201: real time      0.3201
    SETDIJ:  cpu time      0.0403: real time      0.0402
     EDDAV:  cpu time      9.3395: real time      9.3429
       DOS:  cpu time      0.0007: real time      0.0007
    CHARGE:  cpu time      1.1539: real time      1.1568
    MIXING:  cpu time      0.3836: real time      0.3852
    --------------------------------------------
      LOOP:  cpu time     11.2381: real time     11.2460

 eigenvalue-minimisations  :  1392
 total energy-change (2. order) :-0.3824379E-03  (-0.7457284E-06)
 number of electron     368.0000003 magnetization 
 augmentation part        9.0927564 magnetization 

 Broyden mixing:
  rms(total) = 0.26789E-03    rms(broyden)= 0.26787E-03
  rms(prec ) = 0.31837E-03
  weight for this iteration     100.00

 eigenvalues of (default mixing * dielectric matrix)
  average eigenvalue GAMMA=   2.4287
  9.1688  5.7316  3.5494  2.5438  2.3524  1.9288  1.6324  1.6324  1.4115  1.4115
  0.9451  0.9451  1.1103  1.0337  1.0337

 Free energy of the ion-electron system (eV)
  ---------------------------------------------------
  alpha Z        PSCENC =        91.34886789
  Ewald energy   TEWEN  =    119561.10736450
  -Hartree energ DENC   =   -130649.57599427
  -exchange      EXHF   =         0.00000000
  -V(xc)+E(xc)   XCENC  =      1278.08461993
  PAW double counting   =     40915.43719903   -40979.43644384
  entropy T*S    EENTRO =        -0.06007825
  eigenvalues    EBANDS =     -4583.85215326
  atomic energy  EATOM  =     13537.65479391
  Solvation  Ediel_sol  =         0.00000000
  ---------------------------------------------------
  free energy    TOTEN  =      -829.29182436 eV

  energy without entropy =     -829.23174611  energy(sigma->0) =     -829.26178523


--------------------------------------------------------------------------------------------------------




--------------------------------------- Iteration      1(  21)  ---------------------------------------


    POTLOK:  cpu time      0.3202: real time      0.3201
    SETDIJ:  cpu time      0.0403: real time      0.0403
     EDDAV:  cpu time      8.8083: real time      8.8114
       DOS:  cpu time      0.0007: real time      0.0008
    CHARGE:  cpu time      1.1706: real time      1.1712
    MIXING:  cpu time      0.3980: real time      0.3981
    --------------------------------------------
      LOOP:  cpu time     10.7382: real time     10.7418

 eigenvalue-minimisations  :  1288
 total energy-change (2. order) :-0.2326758E-03  (-0.3268403E-06)
 number of electron     368.0000003 magnetization 
 augmentation part        9.0927679 magnetization 

 Broyden mixing:
  rms(total) = 0.13424E-03    rms(broyden)= 0.13423E-03
  rms(prec ) = 0.15985E-03
  weight for this iteration     100.00

 eigenvalues of (default mixing * dielectric matrix)
  average eigenvalue GAMMA=   2.3979
  9.1690  6.1101  3.7194  2.5249  2.5249  1.9945  1.6002  1.6002  1.6672  1.1899
  1.1899  1.1975  1.0047  1.0047  0.9344  0.9344

 Free energy of the ion-electron system (eV)
  ---------------------------------------------------
  alpha Z        PSCENC =        91.34886789
  Ewald energy   TEWEN  =    119561.10736450
  -Hartree energ DENC   =   -130649.64812376
  -exchange      EXHF   =         0.00000000
  -V(xc)+E(xc)   XCENC  =      1278.08318271
  PAW double counting   =     40914.39349433   -40978.39286422
  entropy T*S    EENTRO =        -0.06007982
  eigenvalues    EBANDS =     -4583.77869257
  atomic energy  EATOM  =     13537.65479391
  Solvation  Ediel_sol  =         0.00000000
  ---------------------------------------------------
  free energy    TOTEN  =      -829.29205704 eV

  energy without entropy =     -829.23197721  energy(sigma->0) =     -829.26201712


[...]
   0.152E+02 -.246E+02 0.157E+03   -.155E+02 0.254E+02 -.157E+03   -.645E+00 0.850E+00 0.234E+00   -.380E-05 -.706E-05 -.180E-05
   0.448E+01 -.590E+01 0.215E+03   -.358E+01 0.514E+01 -.215E+03   0.964E+00 -.122E+01 0.189E+00   -.439E-05 0.205E-05 -.664E-06
   -.114E+01 0.102E+01 0.142E+03   0.136E+01 -.821E+00 -.142E+03   0.103E+00 0.419E-01 0.174E+00   0.132E-05 0.526E-06 -.108E-05
   -.122E+02 0.184E+02 0.229E+03   0.119E+02 -.193E+02 -.230E+03   -.731E+00 0.454E+00 0.783E+00   0.138E-05 0.292E-05 -.125E-05
   -.842E+01 -.249E+02 0.166E+03   0.922E+01 0.263E+02 -.165E+03   0.699E+00 0.129E+01 -.579E-01   -.672E-06 -.106E-05 -.180E-05
   -.177E+02 -.889E+01 0.193E+03   0.179E+02 0.905E+01 -.193E+03   -.667E+00 -.205E+00 0.535E+00   -.992E-06 -.681E-05 -.231E-07
   -.984E+01 0.126E+02 0.139E+03   0.922E+01 -.132E+02 -.139E+03   -.332E-01 -.122E+00 -.188E+00   -.504E-05 0.517E-05 -.695E-06
   -.346E+02 0.179E+02 0.194E+03   0.354E+02 -.190E+02 -.195E+03   -.518E+00 -.243E+00 0.639E+00   0.184E-05 -.280E-05 -.319E-05
   -.232E+02 -.220E+02 0.183E+03   0.230E+02 0.231E+02 -.184E+03   -.322E-02 0.441E+00 0.362E+00   0.282E-05 -.144E-05 -.335E-05
   -.228E+02 -.114E+02 0.112E+03   0.225E+02 0.121E+02 -.112E+03   -.589E+00 0.423E+00 -.888E+00   0.269E-05 -.218E-05 -.110E-05
   -.271E+02 0.646E+01 0.159E+03   0.269E+02 -.636E+01 -.159E+03   -.360E+00 0.102E+01 0.410E+00   0.613E-05 -.809E-06 -.205E-05
   -.324E+02 0.135E+02 0.146E+03   0.324E+02 -.132E+02 -.147E+03   -.439E+00 -.348E+00 0.143E+01   0.390E-05 0.143E-05 -.208E-05
   -.380E+02 -.814E+01 0.174E+03   0.373E+02 0.732E+01 -.175E+03   -.150E+01 -.159E+01 0.269E+00   0.742E-05 0.347E-06 -.211E-05
   0.349E+01 -.378E+01 0.104E+02   -.365E+01 0.419E+01 -.982E+01   0.141E+01 -.835E+00 -.112E+01   -.241E-06 0.355E-08 -.999E-06
   -.253E+02 0.341E+00 0.721E+02   0.264E+02 0.105E+00 -.718E+02   -.300E+00 -.477E+00 0.551E+00   0.316E-06 -.218E-05 -.248E-05
   -.270E+02 0.259E+02 0.538E+02   0.281E+02 -.273E+02 -.542E+02   -.513E+00 0.419E+00 0.205E+01   -.279E-05 0.159E-05 -.160E-05
   -.943E+01 -.951E+01 0.394E+02   0.929E+01 0.984E+01 -.395E+02   0.288E+00 0.266E+00 -.436E+00   -.260E-05 0.200E-05 -.273E-05
   0.303E+02 -.105E+02 -.751E+02   -.320E+02 0.112E+02 0.749E+02   -.303E+00 0.933E+00 -.162E+01   0.208E-05 0.101E-05 0.124E-05
   0.684E+01 0.111E+02 -.291E+02   -.627E+01 -.121E+02 0.287E+02   -.172E+00 0.121E+00 0.472E+00   0.558E-06 -.199E-05 0.493E-06
   0.134E+02 0.140E+02 -.726E+02   -.132E+02 -.150E+02 0.724E+02   0.973E+00 -.372E-01 0.503E+00   -.248E-05 0.501E-05 -.856E-06
   0.483E+01 -.580E+01 -.263E+02   -.612E+01 0.648E+01 0.255E+02   -.160E+01 0.523E+00 0.442E+00   -.283E-05 -.331E-05 0.465E-06
   0.103E+02 -.369E+01 -.146E+03   -.111E+02 0.306E+01 0.147E+03   0.494E+00 -.649E+00 -.639E-02   -.642E-05 0.436E-05 -.173E-05
   -.717E+01 0.303E+01 -.815E+02   0.870E+01 -.363E+01 0.820E+02   0.977E+00 -.803E+00 -.740E+00   -.692E-05 -.235E-05 -.225E-05
   -.974E+01 0.129E+02 -.176E+03   0.109E+02 -.136E+02 0.177E+03   0.973E+00 0.472E+00 -.127E+01   -.310E-05 0.237E-05 -.135E-05
   -.111E+02 -.105E+02 -.615E+02   0.104E+02 0.111E+02 0.610E+02   -.116E+00 0.142E+01 0.115E+01   -.423E-05 -.195E-05 -.320E-06
   -.228E+02 -.157E+02 -.193E+03   0.221E+02 0.170E+02 0.194E+03   -.568E+00 0.105E+00 -.912E+00   0.548E-05 -.229E-05 -.856E-06
   -.254E+02 -.109E+01 -.580E+02   0.258E+02 0.106E+01 0.578E+02   0.205E+01 -.533E+00 -.147E+00   0.528E-05 0.348E-05 -.128E-05
   -.314E+02 0.579E+02 -.118E+03   0.293E+02 -.585E+02 0.118E+03   0.135E+01 0.828E+00 0.929E+00   -.327E-05 -.153E-05 0.247E-05
   -.172E+02 -.680E+02 -.716E+02   0.139E+02 0.696E+02 0.721E+02   0.943E+00 -.255E+01 -.491E+00   -.162E-05 0.259E-05 0.566E-06
   -.785E+01 0.728E+02 -.657E+02   0.116E+02 -.751E+02 0.651E+02   -.107E+01 0.528E+00 -.519E+00   -.424E-05 -.545E-05 0.187E-05
   -.191E+02 -.636E+02 -.161E+03   0.230E+02 0.654E+02 0.160E+03   -.564E+00 -.235E+01 0.631E-01   -.401E-05 0.268E-05 0.492E-05
   0.284E+02 -.151E+01 0.113E+02   -.294E+02 0.185E+01 -.116E+02   -.660E+00 0.455E-01 0.348E+00   -.126E-05 -.127E-05 -.730E-06
   -.347E+02 0.104E+02 -.185E+03   0.359E+02 -.105E+02 0.186E+03   -.122E+01 0.478E+00 -.187E+01   0.424E-06 0.333E-05 0.511E-05
   0.267E+02 0.800E+01 0.511E+02   -.277E+02 -.808E+01 -.514E+02   0.144E+00 0.110E+00 0.159E+01   0.178E-05 0.695E-07 -.293E-06
   -.110E+02 -.136E+02 -.846E+02   0.108E+02 0.142E+02 0.851E+02   -.512E+00 0.989E+00 -.160E+00   0.293E-05 -.314E-05 0.117E-05
   0.123E+02 -.791E+01 0.698E+02   -.108E+02 0.781E+01 -.705E+02   0.816E+00 -.135E+00 -.595E+00   -.280E-05 0.444E-05 -.899E-06
   -.329E+01 0.826E+01 -.542E+02   0.276E+01 -.858E+01 0.543E+02   -.117E-01 0.624E+00 0.101E+01   0.235E-05 -.110E-05 0.240E-05
   0.182E+02 0.128E+02 0.469E+02   -.188E+02 -.132E+02 -.466E+02   -.389E+00 -.137E+00 -.769E+00   0.543E-05 0.199E-05 -.323E-05
   -.964E+01 -.900E+01 -.175E+02   0.105E+02 0.905E+01 0.173E+02   -.295E+00 -.612E+00 -.159E+00   0.688E-05 0.120E-05 -.187E-05
   0.308E+02 -.106E+02 0.138E+03   -.312E+02 0.104E+02 -.139E+03   0.188E+00 -.887E+00 0.130E+01   0.964E-05 0.483E-05 -.438E-05
   0.381E+01 0.731E+01 -.135E+02   -.460E+01 -.691E+01 0.139E+02   -.863E+00 -.570E+00 -.206E+00   0.672E-05 -.382E-05 -.318E-05
   0.172E+02 0.722E+00 0.969E+02   -.183E+02 0.598E-01 -.970E+02   -.496E+00 0.146E+00 0.131E+01   0.470E-06 0.440E-05 -.147E-05
   -.118E+02 -.379E+01 0.595E+01   0.136E+02 0.367E+01 -.579E+01   0.444E+00 -.174E+00 -.161E+01   -.263E-05 -.526E-05 -.348E-05
   -.157E+02 -.292E+01 0.443E+02   0.184E+02 0.228E+01 -.443E+02   0.184E+01 0.456E+00 -.149E+01   -.974E-05 0.133E-05 -.271E-05
   0.105E+02 0.189E+02 0.814E+02   -.113E+02 -.199E+02 -.816E+02   -.218E+00 -.295E+00 0.166E+01   -.273E-05 0.954E-05 -.174E-05
   0.119E+02 0.252E+02 0.255E+02   -.132E+02 -.268E+02 -.252E+02   0.156E+00 -.917E+00 -.173E+00   -.105E-05 0.149E-05 -.113E-05
   0.453E+00 -.160E+02 0.385E+02   0.451E+00 0.172E+02 -.380E+02   -.748E+00 -.767E+00 -.163E+01   -.354E-05 0.318E-05 -.171E-05
   0.126E+02 0.266E+01 0.706E+02   -.137E+02 -.304E+01 -.708E+02   0.147E+00 -.355E+00 0.325E+00   0.954E-05 0.174E-05 -.852E-07
   0.186E+01 0.122E+02 0.159E+03   -.219E+01 -.121E+02 -.160E+03   -.201E+01 0.619E+00 0.298E+01   0.294E-05 -.272E-05 0.210E-05
   0.798E+00 0.161E+02 0.381E+02   -.694E+00 -.168E+02 -.382E+02   0.447E+00 0.534E+00 0.854E+00   0.378E-05 0.240E-05 0.102E-05
   0.735E+01 -.156E+02 -.244E+02   -.768E+01 0.165E+02 0.257E+02   -.200E+00 0.566E+00 -.352E+01   0.636E-05 -.570E-05 -.632E-06
   0.308E+01 0.590E+01 0.559E+02   -.374E+01 -.684E+01 -.562E+02   -.681E-01 -.481E+00 0.187E-02   -.674E-05 0.626E-05 0.571E-06
   0.359E+01 -.421E+01 0.535E+02   -.426E+01 0.473E+01 -.539E+02   0.313E+00 -.271E+00 -.238E+00   -.381E-06 -.484E-05 0.769E-06
   -.112E+02 0.107E+02 0.114E+02   0.126E+02 -.102E+02 -.105E+02   0.101E+01 0.335E+00 -.803E+00   -.422E-05 0.384E-05 -.260E-06
   -.115E+02 -.101E+01 0.528E+02   0.119E+02 -.619E-01 -.527E+02   0.380E+00 -.964E+00 0.145E+01   -.432E-05 0.209E-05 0.642E-06
   0.280E+01 -.361E+01 0.495E+02   -.413E+01 0.313E+01 -.501E+02   -.292E+00 0.501E+00 0.670E-01   0.136E-05 0.243E-05 0.792E-06
   -.826E+01 0.440E+01 0.147E+02   0.929E+01 -.457E+01 -.142E+02   0.823E+00 0.359E+00 -.480E+00   -.186E-05 -.195E-05 -.103E-06
   -.486E+01 0.151E+02 -.152E+02   0.631E+01 -.161E+02 0.157E+02   0.970E+00 -.453E+00 0.105E+01   0.132E-05 0.149E-05 0.230E-05
   0.696E+01 -.201E+02 -.377E+02   -.676E+01 0.216E+02 0.383E+02   -.232E+00 0.401E+00 -.408E+00   -.106E-05 -.551E-06 0.165E-05
   0.321E+02 -.133E+02 -.801E+02   -.327E+02 0.143E+02 0.808E+02   0.677E+00 0.356E+00 -.218E+01   -.246E-05 -.452E-05 -.179E-05
   0.219E+02 0.509E+01 -.646E+02   -.227E+02 -.552E+01 0.641E+02   -.103E+01 -.479E+00 0.176E+00   -.376E-05 0.425E-05 0.188E-06
   0.272E+02 0.676E+01 -.943E+02   -.276E+02 -.690E+01 0.938E+02   -.173E+01 0.194E+00 0.123E+01   -.582E-07 -.137E-05 0.287E-05
   0.401E+02 -.127E+02 -.144E+03   -.396E+02 0.128E+02 0.145E+03   0.130E+01 0.191E+00 -.103E+01   -.304E-06 0.714E-06 0.371E-05
   0.323E+02 -.106E+02 -.153E+03   -.321E+02 0.116E+02 0.154E+03   0.131E+00 0.137E+01 -.152E+01   0.158E-05 -.112E-05 0.119E-05
   0.371E+02 0.992E+01 -.141E+03   -.378E+02 -.108E+02 0.140E+03   -.311E+00 0.659E+00 0.241E+00   0.492E-06 0.626E-06 0.288E-05
   0.319E+02 0.158E+02 -.161E+03   -.326E+02 -.174E+02 0.161E+03   0.178E-01 -.588E+00 -.769E-01   -.399E-05 0.205E-05 0.501E-06
   0.225E+02 -.215E+02 -.187E+03   -.220E+02 0.235E+02 0.188E+03   0.110E+00 0.996E+00 -.837E+00   -.626E-05 -.491E-05 -.840E-07
   -.630E+01 -.128E+02 -.117E+03   0.685E+01 0.140E+02 0.117E+03   0.264E-01 -.325E+00 0.544E+00   -.399E-05 -.207E-07 -.507E-06
   0.191E+02 0.906E+01 -.160E+03   -.202E+02 -.914E+01 0.160E+03   -.560E+00 0.116E-01 0.519E+00   -.228E-05 -.566E-06 0.161E-06
   -.120E+01 0.168E+02 -.143E+03   0.880E+00 -.178E+02 0.143E+03   -.203E+00 -.429E+00 -.609E+00   0.170E-05 0.325E-05 -.552E-06
   -.111E+02 -.134E+02 -.182E+03   0.116E+02 0.144E+02 0.183E+03   -.848E-02 0.326E+00 0.550E-02   0.214E-05 -.534E-05 -.271E-06
   -.288E+02 0.248E+01 -.815E+02   0.289E+02 -.262E+01 0.811E+02   0.264E+00 0.732E-01 0.535E-01   0.608E-05 0.372E-05 -.968E-06
   -.222E+02 0.134E+02 -.212E+03   0.224E+02 -.146E+02 0.213E+03   0.105E+01 -.111E+01 -.144E+01   0.543E-05 -.264E-05 -.110E-05
   -.149E+02 0.667E+02 -.730E+02   0.120E+02 -.683E+02 0.734E+02   0.122E+01 0.900E+00 -.160E+00   -.598E-05 -.299E-05 0.157E-05
   -.211E+02 -.649E+02 -.144E+03   0.165E+02 0.666E+02 0.145E+03   0.966E+00 -.208E+01 0.312E+00   -.502E-05 -.455E-08 0.311E-05
 -----------------------------------------------------------------------------------------------
   -.131E+00 0.516E+00 0.158E+01   0.227E-12 0.128E-12 0.455E-12   0.732E-01 -.607E+00 -.163E+01   0.510E-06 0.481E-06 -.352E-04
 
 
 POSITION                                       TOTAL-FORCE (eV/Angst)
 -----------------------------------------------------------------------------------
      0.31986      0.82648     18.05860        -0.767460      2.177061     -1.035177
      0.21337      2.20864     17.79560         2.842099     -0.110969     -0.118152
      1.49003      0.17539     17.77340         0.486668      0.778275      1.131460
      1.34159      2.90892     17.37060        -0.433736     -0.718902      0.389720
      2.65786      0.89885     17.36330        -0.409989     -2.044911      0.759525
      2.57342      2.22736     17.17570         1.274599      2.073745     -2.136014
      3.86521      0.20209     17.11400         0.428384      1.503215     -0.826648
      3.74455      2.90617     16.54970        -1.754672     -0.943641      1.236646
      4.98974      0.90333     16.60390         1.663743     -1.399925     -1.713533
      4.92483      2.21086     16.20400        -0.586576      1.593697      1.355685
      6.21669      0.25759     16.13820        -0.613843     -0.242482      1.774283
      6.10185      2.92013     15.85470         0.896100     -0.278384     -0.922941
      7.41005      0.88927     15.74620        -1.124672      0.660165     -0.427621
      7.35439      2.26234     15.60530        -0.913713     -0.811693      0.142206
      8.61908      0.23441     15.48970         0.265818     -1.035586     -0.388758
      8.58150      2.86469     15.40230         1.233217      1.680169      0.319334
      9.84146      0.82037     15.13580         0.606865      0.832186     -0.311754
      9.85315      2.18579     15.17720        -0.918283      1.644081      0.122386
     11.09670      0.18336     14.98400         1.861254     -1.979452      0.333681
     11.09910      2.85152     15.18030         0.324859      0.238330      0.111720
     12.40240      0.80662     14.94310        -0.956308     -0.404791      0.200877
     12.35670      2.15446     15.08510         1.498321      2.707007      0.046326
     13.66120      0.14858     15.16650        -0.521009     -0.037918      0.365393
     13.64050      2.84428     15.30090        -0.650813     -0.771949     -0.195898
     14.92400      0.80495     15.31100         0.221748     -1.377447      0.304687
     14.92380      2.16725     15.33520        -0.217900      1.518726     -0.004529
     16.12410      0.13249     15.79980        -0.877705      1.198195     -0.824111
     16.15490      2.82506     15.68860        -0.614163      1.125560      0.373321
     17.36180      0.81232     16.03380        -0.464891     -0.040141      0.586687
     17.41910      2.22512     15.97090        -2.148696     -2.409465     -0.613252
     18.41440      0.14815     16.71090         1.249152     -0.420965     -0.584019
     18.49310      2.84720     16.57620         0.791666     -0.030538      0.849081
     19.65580      0.77388     16.98690         0.607470     -1.004527      1.658497
     19.66230      2.14314     16.99160         0.146117      0.595461     -0.503600
     20.78870      0.08987     17.66080        -2.040705      1.633135     -1.787444
     20.79060      2.80537     17.51690         0.399979     -0.928847      0.094817
     21.96300      0.79953     17.89120         1.186407     -0.998584      0.289751
     22.02910      2.14823     17.77930        -2.885630      1.195252     -0.309712
     23.15690      0.17571     18.27950        -0.250250     -1.277009      0.259736
     23.15240      2.87095     18.05850         2.504727     -1.403583     -0.298732
     24.36970      0.84767     18.40660         2.084841     -0.214319     -0.647971
     24.40220      2.17358     18.13820        -0.877807      2.027726      0.618491
     25.67390      0.21996     18.49640        -1.273904      1.405200     -0.086072
     25.59430      2.90053     18.10120         2.488998     -0.568244     -0.398298
     26.85900      0.87699     18.21870        -0.778592      0.233164      0.954308
     26.84670      2.24949     18.04920        -2.338750     -0.974027      0.040167
      0.21244      4.98621     17.84080         2.641087     -1.749864     -1.122391
      0.26180      6.32748     18.09660         3.308719     -0.608705     -0.483440
      1.35067      4.28913     17.35400        -1.609075      0.388843      0.043307
      1.51861      6.90211     17.90990         0.038642      0.374390     -1.006042
      2.55996      4.92711     17.00280        -0.826245      0.024155      1.280379
      2.67293      6.23299     17.35020        -0.728848      1.651301      0.321365
      3.70903      4.28003     16.60020         2.338874     -0.236204     -1.290092
      3.86674      6.93169     17.01130        -0.544782      0.300594      1.156663
      4.96464      4.96649     16.34820        -1.043458     -0.543351     -0.417586
      5.03429      6.32191     16.57160         0.572540     -0.558217     -0.338819
      6.11137      4.31048     15.86120        -0.189733     -1.085403      0.720928
      6.26306      6.99163     16.26020        -1.649145     -0.167291      0.248396
      7.37408      4.93410     15.74620        -1.516317      0.929044      1.202717
      7.41782      6.31045     15.95680         2.206146     -0.289201     -1.451254
      8.54187      4.24553     15.64390         4.554530     -0.179818     -1.506209
      8.65844      6.97506     15.59370        -0.990290     -1.235793      1.401263
      9.86416      4.94025     15.59030        -1.096517     -2.474067      0.085951
      9.90605      6.29755     15.54210         0.156472      0.427666     -1.172294
     11.10030      4.22999     15.42910        -0.932249     -0.733601      0.114403
     11.18400      6.90326     15.22230        -2.344031      0.734498      2.056793
     12.33180      4.86641     15.55440         0.551247     -0.134365      0.745252
     12.36760      6.23798     15.63230        -0.527626      1.385749     -2.257384
     13.57830      4.20311     15.58190        -0.725335     -1.415307     -0.328043
     13.59490      6.92276     15.55880        -0.360208      0.241983     -0.585198
     14.75380      4.85416     15.86180         2.425240      0.886352      0.034741
     14.78060      6.26188     15.79910         0.737603     -2.037370      1.476447
     16.03090      4.17365     16.01930        -1.621026      0.027494     -0.546291
     15.98890      6.89228     16.08810         1.852614      0.188679     -0.018107
     17.13880      4.85121     16.51330         2.421360     -1.429890      1.627269
     17.15460      6.20144     16.58210        -0.033335      1.912070      0.178020
     18.35530      4.15185     16.97730         0.001454      1.410551     -1.489072
     18.36290      6.89195     16.99930        -1.772930     -0.904767     -0.373144
     19.53690      4.80990     17.46790        -2.153000      0.063954      0.737683
     19.45940      6.19660     17.55350         1.729477      0.298075     -0.116277
     20.71410      4.11610     17.83710         0.348806      2.315782     -0.710450
     20.71360      6.84611     17.87800        -0.954706     -0.233616      0.151256
     21.91730      4.84356     18.16830        -0.688501     -2.241004     -0.024213
     21.90600      6.17585     18.24340         0.636451      3.009688     -0.158265
     23.16060      4.21897     18.19880         0.584877      0.866242      0.356514
     23.17030      6.89509     18.37330        -1.688123     -0.069195      0.451204
     24.40220      4.92108     18.35270        -0.519260     -1.421047     -0.318814
     24.40770      6.26249     18.49240         0.465750      1.271070      0.399406
     25.63060      4.27709     18.17510         0.363497     -0.061475     -0.344919
     25.65290      6.97877     18.55600         1.266456     -2.339223     -0.511122
     26.82840      4.97811     18.09370        -1.658336     -0.653901      0.326386
     26.88740      6.33923     18.29120        -3.671735     -0.297558      1.268535
 -----------------------------------------------------------------------------------
    total drift:                               -0.057824     -0.091043     -0.050575


--------------------------------------------------------------------------------------------------------



  FREE ENERGIE OF THE ION-ELECTRON SYSTEM (eV)
  ---------------------------------------------------
  free  energy   TOTEN  =      -829.29219463 eV

  energy  without entropy=     -829.23211493  energy(sigma->0) =     -829.26215478
 


--------------------------------------------------------------------------------------------------------


    POTLOK:  cpu time      0.4519: real time      0.4519


--------------------------------------------------------------------------------------------------------


     LOOP+:  cpu time    335.0259: real time    335.2431
    4ORBIT:  cpu time      0.0000: real time      0.0000

 total amount of memory used by VASP MPI-rank0  2294522. kBytes
=======================================================================

   base                                    :      30000. kBytes
   nonlr-proj                              :      15088. kBytes
   fftplans                                :     436558. kBytes
   grid                                    :     732614. kBytes
   one-center                              :        282. kBytes
   wavefun                                 :    1079980. kBytes
 
  
  
 General timing and accounting informations for this job:
 ========================================================
  
                  Total CPU time used (sec):      368.374
                            User time (sec):      360.023
                          System time (sec):        8.351
                         Elapsed time (sec):      368.622
  
                   Maximum memory used (kb):     3734732.
                   Average memory used (kb):          N/A
  
                          Minor page faults:      3179203
                          Major page faults:         5226
                 Voluntary context switches:         9402
