  92  92   0   0
  0.8273226E+02  0.2805000E-08  0.8100000E-09  0.3350000E-08  0.5000000E-15
   1.0000000000000000E-004
  CAR 
 unknown system                          
      3.79161360    -25.44958736  301     -3.11806767      1.00000000
    -25.450  0.0000E+00  0.0000E+00
    -25.352  0.0000E+00  0.0000E+00
    -25.255  0.0000E+00  0.0000E+00
    -25.157  0.0000E+00  0.0000E+00
    -25.060  0.0000E+00  0.0000E+00
    -24.962  0.0000E+00  0.0000E+00
    -24.865  0.0000E+00  0.0000E+00
    -24.767  0.0000E+00  0.0000E+00
    -24.670  0.0000E+00  0.0000E+00
    -24.572  0.5695E-14  0.5551E-15
    -24.475  0.1150E-11  0.1127E-12
    -24.377  0.1510E-09  0.1483E-10
    -24.280  0.1251E-07  0.1234E-08
    -24.182  0.6569E-06  0.6526E-07
    -24.085  0.2192E-04  0.2202E-05
    -23.988  0.4667E-03  0.4769E-04
    -23.890  0.6369E-02  0.6685E-03
    -23.793  0.5599E-01  0.6126E-02
    -23.695  0.3189E+00  0.3721E-01
    -23.598  0.1185E+01  0.1527E+00
    -23.500  0.2900E+01  0.4353E+00
    -23.403  0.4761E+01  0.8994E+00
    -23.305  0.5541E+01  0.1439E+01
    -23.208  0.5506E+01  0.1976E+01
    -23.110  0.6579E+01  0.2617E+01
    -23.013  0.9543E+01  0.3547E+01
    -22.915  0.1274E+02  0.4789E+01
    -22.818  0.1449E+02  0.6201E+01
    -22.720  0.1517E+02  0.7680E+01
    -22.623  0.1536E+02  0.9177E+01
    -22.525  0.1418E+02  0.1056E+02
    -22.428  0.1156E+02  0.1169E+02
    -22.331  0.9644E+01  0.1263E+02
    -22.233  0.1019E+02  0.1362E+02
    -22.136  0.1242E+02  0.1483E+02
    -22.038  0.1436E+02  0.1623E+02
    -21.941  0.1481E+02  0.1767E+02
    -21.843  0.1402E+02  0.1904E+02
    -21.746  0.1297E+02  0.2030E+02
    -21.648  0.1217E+02  0.2149E+02
    -21.551  0.1149E+02  0.2261E+02
    -21.453  0.1120E+02  0.2370E+02
    -21.356  0.1192E+02  0.2486E+02
    -21.258  0.1380E+02  0.2621E+02
    -21.161  0.1604E+02  0.2777E+02
    -21.063  0.1719E+02  0.2945E+02
    -20.966  0.1619E+02  0.3102E+02
    -20.868  0.1359E+02  0.3235E+02
    -20.771  0.1135E+02  0.3346E+02
    -20.674  0.1108E+02  0.3454E+02
    -20.576  0.1243E+02  0.3575E+02
    -20.479  0.1380E+02  0.3709E+02
    -20.381  0.1452E+02  0.3851E+02
    -20.284  0.1523E+02  0.3999E+02
    -20.186  0.1607E+02  0.4156E+02
    -20.089  0.1614E+02  0.4313E+02
    -19.991  0.1510E+02  0.4460E+02
    -19.894  0.1335E+02  0.4591E+02
    -19.796  0.1160E+02  0.4704E+02
    -19.699  0.1146E+02  0.4815E+02
    -19.601  0.1391E+02  0.4951E+02
    -19.504  0.1663E+02  0.5113E+02
    -19.406  0.1664E+02  0.5275E+02
    -19.309  0.1447E+02  0.5416E+02
    -19.211  0.1305E+02  0.5543E+02
    -19.114  0.1358E+02  0.5676E+02
    -19.017  0.1454E+02  0.5818E+02
    -18.919  0.1412E+02  0.5955E+02
    -18.822  0.1276E+02  0.6080E+02
    -18.724  0.1270E+02  0.6203E+02
    -18.627  0.1460E+02  0.6346E+02
    -18.529  0.1648E+02  0.6506E+02
    -18.432  0.1651E+02  0.6667E+02
    -18.334  0.1573E+02  0.6821E+02
    -18.237  0.1636E+02  0.6980E+02
    -18.139  0.1790E+02  0.7154E+02
    -18.042  0.1779E+02  0.7328E+02
    -17.944  0.1565E+02  0.7480E+02
    -17.847  0.1374E+02  0.7614E+02
    -17.749  0.1298E+02  0.7741E+02
    -17.652  0.1214E+02  0.7859E+02
    -17.554  0.1083E+02  0.7965E+02
    -17.457  0.1035E+02  0.8066E+02
    -17.360  0.1131E+02  0.8176E+02
    -17.262  0.1257E+02  0.8298E+02
    -17.165  0.1320E+02  0.8427E+02
    -17.067  0.1321E+02  0.8556E+02
    -16.970  0.1229E+02  0.8676E+02
    -16.872  0.1058E+02  0.8779E+02
    -16.775  0.9707E+01  0.8873E+02
    -16.677  0.1098E+02  0.8980E+02
    -16.580  0.1353E+02  0.9112E+02
    -16.482  0.1548E+02  0.9263E+02
    -16.385  0.1623E+02  0.9421E+02
    -16.287  0.1638E+02  0.9581E+02
    -16.190  0.1678E+02  0.9745E+02
    -16.092  0.1771E+02  0.9917E+02
    -15.995  0.1819E+02  0.1009E+03
    -15.897  0.1696E+02  0.1026E+03
    -15.800  0.1438E+02  0.1040E+03
    -15.703  0.1205E+02  0.1052E+03
    -15.605  0.1078E+02  0.1062E+03
    -15.508  0.1078E+02  0.1073E+03
    -15.410  0.1293E+02  0.1085E+03
    -15.313  0.1695E+02  0.1102E+03
    -15.215  0.2049E+02  0.1122E+03
    -15.118  0.2198E+02  0.1143E+03
    -15.020  0.2208E+02  0.1165E+03
    -14.923  0.2138E+02  0.1186E+03
    -14.825  0.1911E+02  0.1204E+03
    -14.728  0.1504E+02  0.1219E+03
    -14.630  0.1083E+02  0.1229E+03
    -14.533  0.8503E+01  0.1238E+03
    -14.435  0.8627E+01  0.1246E+03
    -14.338  0.1030E+02  0.1256E+03
    -14.240  0.1213E+02  0.1268E+03
    -14.143  0.1339E+02  0.1281E+03
    -14.046  0.1422E+02  0.1295E+03
    -13.948  0.1466E+02  0.1309E+03
    -13.851  0.1461E+02  0.1323E+03
    -13.753  0.1475E+02  0.1338E+03
    -13.656  0.1596E+02  0.1353E+03
    -13.558  0.1789E+02  0.1371E+03
    -13.461  0.1961E+02  0.1390E+03
    -13.363  0.2066E+02  0.1410E+03
    -13.266  0.2072E+02  0.1430E+03
    -13.168  0.1918E+02  0.1449E+03
    -13.071  0.1625E+02  0.1465E+03
    -12.973  0.1413E+02  0.1479E+03
    -12.876  0.1450E+02  0.1493E+03
    -12.778  0.1582E+02  0.1508E+03
    -12.681  0.1565E+02  0.1523E+03
    -12.583  0.1395E+02  0.1537E+03
    -12.486  0.1253E+02  0.1549E+03
    -12.389  0.1285E+02  0.1562E+03
    -12.291  0.1517E+02  0.1577E+03
    -12.194  0.1886E+02  0.1595E+03
    -12.096  0.2263E+02  0.1617E+03
    -11.999  0.2510E+02  0.1641E+03
    -11.901  0.2551E+02  0.1666E+03
    -11.804  0.2379E+02  0.1689E+03
    -11.706  0.2084E+02  0.1710E+03
    -11.609  0.1789E+02  0.1727E+03
    -11.511  0.1572E+02  0.1743E+03
    -11.414  0.1494E+02  0.1757E+03
    -11.316  0.1632E+02  0.1773E+03
    -11.219  0.2029E+02  0.1793E+03
    -11.121  0.2592E+02  0.1818E+03
    -11.024  0.3079E+02  0.1848E+03
    -10.926  0.3313E+02  0.1880E+03
    -10.829  0.3368E+02  0.1913E+03
    -10.732  0.3434E+02  0.1947E+03
    -10.634  0.3602E+02  0.1982E+03
    -10.537  0.3805E+02  0.2019E+03
    -10.439  0.3868E+02  0.2057E+03
    -10.342  0.3705E+02  0.2093E+03
    -10.244  0.3465E+02  0.2126E+03
    -10.147  0.3351E+02  0.2159E+03
    -10.049  0.3363E+02  0.2192E+03
     -9.952  0.3353E+02  0.2225E+03
     -9.854  0.3330E+02  0.2257E+03
     -9.757  0.3454E+02  0.2291E+03
     -9.659  0.3699E+02  0.2327E+03
     -9.562  0.3883E+02  0.2365E+03
     -9.464  0.3961E+02  0.2403E+03
     -9.367  0.3946E+02  0.2442E+03
     -9.269  0.3741E+02  0.2478E+03
     -9.172  0.3351E+02  0.2511E+03
     -9.075  0.3032E+02  0.2540E+03
     -8.977  0.3000E+02  0.2570E+03
     -8.880  0.3184E+02  0.2601E+03
     -8.782  0.3442E+02  0.2634E+03
     -8.685  0.3686E+02  0.2670E+03
     -8.587  0.3754E+02  0.2707E+03
     -8.490  0.3571E+02  0.2741E+03
     -8.392  0.3309E+02  0.2774E+03
     -8.295  0.3143E+02  0.2804E+03
     -8.197  0.3069E+02  0.2834E+03
     -8.100  0.2972E+02  0.2863E+03
     -8.002  0.2745E+02  0.2890E+03
     -7.905  0.2482E+02  0.2914E+03
     -7.807  0.2412E+02  0.2938E+03
     -7.710  0.2556E+02  0.2963E+03
     -7.612  0.2716E+02  0.2989E+03
     -7.515  0.2818E+02  0.3017E+03
     -7.418  0.2932E+02  0.3045E+03
     -7.320  0.3007E+02  0.3074E+03
     -7.223  0.2913E+02  0.3103E+03
     -7.125  0.2711E+02  0.3129E+03
     -7.028  0.2575E+02  0.3154E+03
     -6.930  0.2515E+02  0.3179E+03
     -6.833  0.2460E+02  0.3203E+03
     -6.735  0.2414E+02  0.3226E+03
     -6.638  0.2377E+02  0.3250E+03
     -6.540  0.2290E+02  0.3272E+03
     -6.443  0.2100E+02  0.3292E+03
     -6.345  0.1880E+02  0.3311E+03
     -6.248  0.1835E+02  0.3329E+03
     -6.150  0.2037E+02  0.3348E+03
     -6.053  0.2306E+02  0.3371E+03
     -5.955  0.2486E+02  0.3395E+03
     -5.858  0.2600E+02  0.3420E+03
     -5.761  0.2650E+02  0.3446E+03
     -5.663  0.2492E+02  0.3471E+03
     -5.566  0.2046E+02  0.3491E+03
     -5.468  0.1471E+02  0.3505E+03
     -5.371  0.1071E+02  0.3515E+03
     -5.273  0.1056E+02  0.3526E+03
     -5.176  0.1267E+02  0.3538E+03
     -5.078  0.1298E+02  0.3551E+03
     -4.981  0.1031E+02  0.3561E+03
     -4.883  0.7309E+01  0.3568E+03
     -4.786  0.6611E+01  0.3574E+03
     -4.688  0.8776E+01  0.3583E+03
     -4.591  0.1262E+02  0.3595E+03
     -4.493  0.1587E+02  0.3611E+03
     -4.396  0.1587E+02  0.3626E+03
     -4.298  0.1197E+02  0.3638E+03
     -4.201  0.6979E+01  0.3644E+03
     -4.104  0.3842E+01  0.3648E+03
     -4.006  0.2862E+01  0.3651E+03
     -3.909  0.3060E+01  0.3654E+03
     -3.811  0.3570E+01  0.3657E+03
     -3.714  0.3864E+01  0.3661E+03
     -3.616  0.3913E+01  0.3665E+03
     -3.519  0.3831E+01  0.3669E+03
     -3.421  0.3366E+01  0.3672E+03
     -3.324  0.2575E+01  0.3675E+03
     -3.226  0.2261E+01  0.3677E+03
     -3.129  0.2906E+01  0.3680E+03
     -3.031  0.4184E+01  0.3684E+03
     -2.934  0.5510E+01  0.3689E+03
     -2.836  0.6567E+01  0.3695E+03
     -2.739  0.7695E+01  0.3703E+03
     -2.641  0.8912E+01  0.3712E+03
     -2.544  0.8783E+01  0.3720E+03
     -2.447  0.6623E+01  0.3727E+03
     -2.349  0.4438E+01  0.3731E+03
     -2.252  0.4328E+01  0.3735E+03
     -2.154  0.5884E+01  0.3741E+03
     -2.057  0.7078E+01  0.3748E+03
     -1.959  0.6779E+01  0.3754E+03
     -1.862  0.6254E+01  0.3761E+03
     -1.764  0.7825E+01  0.3768E+03
     -1.667  0.1222E+02  0.3780E+03
     -1.569  0.1746E+02  0.3797E+03
     -1.472  0.2077E+02  0.3817E+03
     -1.374  0.2136E+02  0.3838E+03
     -1.277  0.2047E+02  0.3858E+03
     -1.179  0.1929E+02  0.3877E+03
     -1.082  0.1808E+02  0.3895E+03
     -0.984  0.1678E+02  0.3911E+03
     -0.887  0.1555E+02  0.3926E+03
     -0.790  0.1458E+02  0.3940E+03
     -0.692  0.1381E+02  0.3954E+03
     -0.595  0.1316E+02  0.3967E+03
     -0.497  0.1268E+02  0.3979E+03
     -0.400  0.1217E+02  0.3991E+03
     -0.302  0.1187E+02  0.4002E+03
     -0.205  0.1306E+02  0.4015E+03
     -0.107  0.1601E+02  0.4031E+03
     -0.010  0.1901E+02  0.4049E+03
      0.088  0.2087E+02  0.4070E+03
      0.185  0.2186E+02  0.4091E+03
      0.283  0.2200E+02  0.4112E+03
      0.380  0.2059E+02  0.4132E+03
      0.478  0.1836E+02  0.4150E+03
      0.575  0.1812E+02  0.4168E+03
      0.673  0.2153E+02  0.4189E+03
      0.770  0.2666E+02  0.4215E+03
      0.867  0.3049E+02  0.4245E+03
      0.965  0.3283E+02  0.4277E+03
      1.062  0.3580E+02  0.4312E+03
      1.160  0.4037E+02  0.4351E+03
      1.257  0.4557E+02  0.4395E+03
      1.355  0.4967E+02  0.4444E+03
      1.452  0.5063E+02  0.4493E+03
      1.550  0.4732E+02  0.4539E+03
      1.647  0.4032E+02  0.4578E+03
      1.745  0.3060E+02  0.4608E+03
      1.842  0.1931E+02  0.4627E+03
      1.940  0.9250E+01  0.4636E+03
      2.037  0.3132E+01  0.4639E+03
      2.135  0.7194E+00  0.4640E+03
      2.232  0.1098E+00  0.4640E+03
      2.330  0.1102E-01  0.4640E+03
      2.427  0.7228E-03  0.4640E+03
      2.524  0.3087E-04  0.4640E+03
      2.622  0.8546E-06  0.4640E+03
      2.719  0.1526E-07  0.4640E+03
      2.817  0.1751E-09  0.4640E+03
      2.914  0.1285E-11  0.4640E+03
      3.012  0.5126E-14  0.4640E+03
      3.109  0.0000E+00  0.4640E+03
      3.207  0.0000E+00  0.4640E+03
      3.304  0.0000E+00  0.4640E+03
      3.402  0.0000E+00  0.4640E+03
      3.499  0.0000E+00  0.4640E+03
      3.597  0.0000E+00  0.4640E+03
      3.694  0.0000E+00  0.4640E+03
      3.792  0.0000E+00  0.4640E+03
