 vasp.6.5.0 16Dec24 (build Feb 19 2025 19:45:31) complex                         
 executed on              LinuxNV date 2025.10.25  18:20:08
 running    2 mpi-ranks, on    1 nodes
 distrk:  each k-point on    2 cores,    1 groups
 distr:  one band on NCORE=   1 cores,    2 groups
 Offloading initialized ...    2 GPUs detected


--------------------------------------------------------------------------------------------------------


 INCAR:
   ISTART = 0            (Not Read existing wavefunction
   ISPIN = 1            (Non-Spin polarised DFT, Default\=1)
   ICHARG = 2            (The initial guess charge density is generated by superposition of atomic charge density)
   LREAL = Auto         (Projection operators: automatic)
   ENCUT = 500          (Cut-off energy for plane wave basis set, in eV)
   LWAVE = .FALSE.       (Write WAVECAR or not)
   LCHARG = .FALSE.       (Write CHGCAR or not)
   PREC = Accurate   (Precision level)
   KGAMMA = .TRUE.
   ALGO = Normal
   NSW = 0           (Default: NSW \= 0)
   IBRION = -1           (Ions are not moved)
   ISMEAR = 0
   EDIFF = 1E-06        (SCF energy convergence
   NELM = 150          (Max electronic SCF steps)

 POTCAR:    PAW_PBE C 08Apr2002                   
 POTCAR:    PAW_PBE C 08Apr2002                   
   SHA256 =  253f7b50bb8d59471dbedb8285d89021f4a42ed1a2c5d38a03a736e69125dd95 C/POTCAR              
   COPYR  = (c) Copyright 08Apr2002 Georg Kresse                                                    
   COPYR  = This file is part of the software VASP. Any use, copying, and all other rights are regul
   COPYR  = If you do not have a valid VASP license, you may not use, copy or distribute this file. 
   VRHFIN =C: s2p2                                                                                  
   LEXCH  = PE                                                                                      
   EATOM  =   147.1560 eV,   10.8157 Ry                                                             
                                                                                                    
   TITEL  = PAW_PBE C 08Apr2002                                                                     
   LULTRA =        F    use ultrasoft PP ?                                                          
   IUNSCR =        1    unscreen: 0-lin 1-nonlin 2-no                                               
   RPACOR =    1.200    partial core radius                                                         
   POMASS =   12.011; ZVAL   =    4.000    mass and valenz                                          
   RCORE  =    1.500    outmost cutoff radius                                                       
   RWIGS  =    1.630; RWIGS  =    0.863    wigner-seitz radius (au A)                               
   ENMAX  =  400.000; ENMIN  =  300.000 eV                                                          
   ICORE  =        2    local potential                                                             
   LCOR   =        T    correct aug charges                                                         
   LPAW   =        T    paw PP                                                                      
   EAUG   =  644.873                                                                                
   DEXC   =    0.000                                                                                
   RMAX   =    1.529    core radius for proj-oper                                                   
   RAUG   =    1.300    factor for augmentation sphere                                              
   RDEP   =    1.501    radius for radial grids                                                     
   RDEPT  =    1.300    core radius for aug-charge                                                  
                                                                                                    
   Atomic configuration                                                                             
    4 entries                                                                                       
     n  l   j            E        occ.                                                              
     1  0  0.50      -273.3789   2.0000                                                             
     2  0  0.50       -13.7508   2.0000                                                             
     2  1  0.50        -5.2854   2.0000                                                             
     3  2  1.50        -5.4423   0.0000                                                             
   Description                                                                                      
     l       E           TYP  RCUT    TYP  RCUT                                                     
     0    -13.7508458     23  1.200                                                                 
     0     -8.2022199     23  1.200                                                                 
     1     -5.2854383     23  1.500                                                                 
     1     34.0145650     23  1.500                                                                 
     2     -5.4423304      7  1.500                                                                 
  local pseudopotential read in
  partial core-charges read in
  partial kinetic energy density read in
  atomic valenz-charges read in
  non local Contribution for L=            0  read in
    real space projection operators read in
  non local Contribution for L=            0  read in
    real space projection operators read in
  non local Contribution for L=            1  read in
    real space projection operators read in
  non local Contribution for L=            1  read in
    real space projection operators read in
    PAW grid and wavefunctions read in
 
   number of l-projection  operators is LMAX  =            4
   number of lm-projection operators is LMMAX =            8
 
 Optimization of the real space projectors (new method)

 maximal supplied QI-value         = 25.13
 optimisation between [QCUT,QGAM] = [ 11.31, 22.87] = [ 35.82,146.48] Ry 
 Optimized for a Real-space Cutoff    1.03 Angstroem

   l    n(q)    QCUT    max X(q) W(low)/X(q) W(high)/X(q)  e(spline) 
   0      7    11.310   115.676    0.20E-03    0.90E-03    0.20E-06
   0      7    11.310    87.132    0.20E-03    0.89E-03    0.19E-06
   1      6    11.310     4.429    0.16E-03    0.28E-03    0.12E-06
   1      6    11.310     2.733    0.12E-03    0.21E-03    0.99E-07
  PAW_PBE C 08Apr2002                   :
 energy of atom  1       EATOM= -147.1560
 kinetic energy error for atom=    0.0076 (will be added to EATOM!!)
 
 
 POSCAR:  C
  positions in cartesian coordinates
  No initial velocities read in


 exchange-correlation table for PE
   RHO(1)=    0.500       N(1)  =     2000
   RHO(2)=  100.500       N(2)  =     4000
 


--------------------------------------------------------------------------------------------------------


 ion  position               nearest neighbor table
   1  0.130  0.270  0.249-   3 1.37   2 1.38  45 1.41  46 1.97
   2  0.130  0.439  0.254-   4 1.37   1 1.38  46 1.41  45 1.96
   3  0.173  0.192  0.256-  50 1.36   1 1.37   5 1.41
   4  0.170  0.524  0.267-   2 1.37   6 1.38  49 1.39
   5  0.216  0.269  0.267-   3 1.41   7 1.42   6 1.45
   6  0.212  0.444  0.274-   4 1.38   8 1.44   5 1.45
   7  0.260  0.186  0.275-   9 1.38  54 1.41   5 1.42
   8  0.257  0.517  0.285-  53 1.35  10 1.38   6 1.44
   9  0.302  0.263  0.285-   7 1.38  11 1.40  10 1.40
  10  0.299  0.433  0.293-   8 1.38  12 1.40   9 1.40
  11  0.347  0.186  0.287-  58 1.39   9 1.40  13 1.45
  12  0.342  0.513  0.300-  57 1.36  10 1.40  14 1.41
  13  0.391  0.270  0.297-  14 1.39  15 1.39  11 1.45
  14  0.387  0.437  0.306-  13 1.39  16 1.40  12 1.41
  15  0.434  0.191  0.303-  13 1.39  17 1.42  62 1.42
  16  0.429  0.521  0.317-  61 1.37  14 1.40  18 1.42
  17  0.476  0.271  0.318-  19 1.40  18 1.40  15 1.42
  18  0.472  0.439  0.326-  17 1.40  16 1.42  20 1.44
  19  0.519  0.191  0.322-  21 1.39  17 1.40  66 1.41
  20  0.517  0.522  0.330-  65 1.39  22 1.40  18 1.44
  21  0.562  0.275  0.330-  22 1.37  19 1.39  23 1.44
  22  0.561  0.442  0.336-  21 1.37  20 1.40  24 1.44
  23  0.606  0.186  0.329-  70 1.36  25 1.40  21 1.44
  24  0.607  0.522  0.335-  69 1.34  22 1.44  26 1.44
  25  0.651  0.261  0.327-  27 1.39  23 1.40  26 1.44
  26  0.652  0.438  0.331-  28 1.40  25 1.44  24 1.44
  27  0.694  0.186  0.318-  25 1.39  29 1.41  74 1.43
  28  0.695  0.521  0.323-  73 1.36  26 1.40  30 1.46
  29  0.738  0.265  0.310-  30 1.38  27 1.41  31 1.45
  30  0.739  0.434  0.314-  29 1.38  32 1.40  28 1.46
  31  0.777  0.181  0.291-  78 1.37  33 1.44  29 1.45
  32  0.780  0.514  0.300-  77 1.37  30 1.40  34 1.43
  33  0.820  0.264  0.277-  35 1.39  34 1.43  31 1.44
  34  0.823  0.435  0.287-  36 1.41  32 1.43  33 1.43
  35  0.861  0.191  0.263-  33 1.39  82 1.41  37 1.47
  36  0.865  0.517  0.277-  81 1.40  34 1.41  38 1.42
  37  0.907  0.276  0.259-  39 1.35  38 1.39  35 1.47
  38  0.910  0.443  0.268-  40 1.34  37 1.39  36 1.42
  39  0.948  0.192  0.250-  37 1.35  86 1.39  41 1.47
  40  0.952  0.523  0.261-  38 1.34  85 1.37  42 1.44
  41  0.994  0.274  0.249-  42 1.33  43 1.40  39 1.47
  42  0.996  0.435  0.256-  41 1.33  44 1.40  40 1.44
  43  0.037  0.194  0.239-  90 1.38  45 1.39  41 1.40
  44  0.039  0.523  0.253-  46 1.34  89 1.38  42 1.40
  45  0.080  0.274  0.245-  46 1.36  43 1.39   1 1.41   2 1.96
  46  0.080  0.440  0.250-  44 1.34  45 1.36   2 1.41   1 1.97
  47  0.130  0.772  0.245-  48 1.39  49 1.40  91 1.42  92 1.96
  48  0.133  0.941  0.238-  50 1.37  47 1.39  92 1.44  91 2.03
  49  0.170  0.694  0.261-   4 1.39  47 1.40  51 1.40
  50  0.173  0.029  0.247-   3 1.36  48 1.37  52 1.48
  51  0.215  0.769  0.265-  52 1.38  49 1.40  53 1.46
  52  0.216  0.937  0.257-  51 1.38  54 1.41  50 1.48
  53  0.256  0.683  0.281-   8 1.35  55 1.42  51 1.46
  54  0.259  0.013  0.270-   7 1.41  52 1.41  56 1.42
  55  0.301  0.763  0.286-  57 1.42  53 1.42  56 1.42
  56  0.303  0.936  0.279-  58 1.41  55 1.42  54 1.42
  57  0.342  0.680  0.299-  12 1.36  55 1.42  59 1.43
  58  0.348  0.015  0.286-  11 1.39  56 1.41  60 1.42
  59  0.387  0.765  0.300-  60 1.37  61 1.42  57 1.43
  60  0.391  0.931  0.293-  59 1.37  58 1.42  62 1.44
  61  0.430  0.688  0.312-  16 1.37  59 1.42  63 1.44
  62  0.436  0.018  0.297-  64 1.38  15 1.42  60 1.44
  63  0.473  0.775  0.322-  64 1.38  65 1.39  61 1.44
  64  0.475  0.941  0.312-  62 1.38  66 1.38  63 1.38
  65  0.516  0.694  0.330-  63 1.39  20 1.39  67 1.43
  66  0.518  0.017  0.321-  68 1.37  64 1.38  19 1.41
  67  0.561  0.775  0.335-  68 1.35  65 1.43  69 1.46
  68  0.560  0.940  0.330-  67 1.35  66 1.37  70 1.42
  69  0.606  0.688  0.335-  24 1.34  71 1.38  67 1.46
  70  0.606  0.019  0.333-  23 1.36  68 1.42  72 1.45
  71  0.650  0.766  0.331-  72 1.37  69 1.38  73 1.48
  72  0.651  0.935  0.330-  71 1.37  74 1.43  70 1.45
  73  0.697  0.688  0.324-  28 1.36  75 1.39  71 1.48
  74  0.694  0.009  0.317-  76 1.35  27 1.43  72 1.43
  75  0.737  0.767  0.309-  76 1.35  73 1.39  77 1.43
  76  0.734  0.932  0.304-  74 1.35  75 1.35  78 1.45
  77  0.781  0.683  0.301-  32 1.37  75 1.43  79 1.46
  78  0.776  0.013  0.288-  31 1.37  80 1.44  76 1.45
  79  0.822  0.766  0.283-  80 1.37  81 1.37  77 1.46
  80  0.819  0.932  0.275-  79 1.37  82 1.43  78 1.44
  81  0.864  0.690  0.275-  79 1.37  36 1.40  83 1.41
  82  0.860  0.018  0.261-  35 1.41  84 1.42  80 1.43
  83  0.906  0.776  0.264-  84 1.37  85 1.40  81 1.41
  84  0.905  0.941  0.255-  83 1.37  86 1.40  82 1.42
  85  0.949  0.691  0.259-  40 1.37  83 1.40  87 1.46
  86  0.949  0.020  0.249-  39 1.39  84 1.40  88 1.41
  87  0.994  0.776  0.249-  88 1.36  89 1.39  85 1.46
  88  0.994  0.943  0.244-  87 1.36  86 1.41  90 1.44
  89  0.037  0.691  0.248-  44 1.38  91 1.38  87 1.39
  90  0.038  0.024  0.237-  43 1.38  92 1.39  88 1.44
  91  0.080  0.769  0.242-  89 1.38  92 1.40  47 1.42  48 2.03
  92  0.081  0.940  0.236-  90 1.39  91 1.40  48 1.44  47 1.96
 
  LATTYP: Found a simple orthorhombic cell.
 ALAT       =     8.1000000000
 B/A-ratio  =     3.4629629630
 C/A-ratio  =     4.1358024691
  
  Lattice vectors:
  
 A1 = (   0.0000000000,  -8.1000000000,   0.0000000000)
 A2 = (  28.0500000000,   0.0000000000,   0.0000000000)
 A3 = (   0.0000000000,   0.0000000000,  33.5000000000)


Analysis of symmetry for initial positions (statically):
=====================================================================
 Subroutine PRICEL returns:
 Original cell was already a primitive cell.
 

 Routine SETGRP: Setting up the symmetry group for a 
 simple orthorhombic supercell.


 Subroutine GETGRP returns: Found  1 space group operations
 (whereof  1 operations were pure point group operations)
 out of a pool of  8 trial point group operations.


The static configuration has the point symmetry C_1 .


Analysis of symmetry for dynamics (positions and initial velocities):
=====================================================================
 Subroutine PRICEL returns:
 Original cell was already a primitive cell.
 

 Routine SETGRP: Setting up the symmetry group for a 
 simple orthorhombic supercell.


 Subroutine GETGRP returns: Found  1 space group operations
 (whereof  1 operations were pure point group operations)
 out of a pool of  8 trial point group operations.


The dynamic configuration has the point symmetry C_1 .


 Subroutine INISYM returns: Found  1 space group operations
 (whereof  1 operations are pure point group operations),
 and found     1 'primitive' translations


----------------------------------------------------------------------------------------

                                     Primitive cell                                     

  volume of cell :    7611.3675

  direct lattice vectors                    reciprocal lattice vectors
    28.050000000  0.000000000  0.000000000     0.035650624  0.000000000  0.000000000
     0.000000000  8.100000000  0.000000000     0.000000000  0.123456790  0.000000000
     0.000000000  0.000000000 33.500000000     0.000000000  0.000000000  0.029850746

  length of vectors
    28.050000000  8.100000000 33.500000000     0.035650624  0.123456790  0.029850746

  position of ions in fractional coordinates (direct lattice)
     0.130423529  0.269911111  0.249464478
     0.130387522  0.438704938  0.254291343
     0.172963993  0.192439506  0.256154030
     0.169956863  0.524271605  0.266858507
     0.216353654  0.268639506  0.266651642
     0.212353654  0.444461728  0.274360597
     0.259970410  0.185509877  0.274622985
     0.257409982  0.517129630  0.284681791
     0.302029947  0.262841975  0.285071642
     0.299067736  0.432825926  0.292688657
     0.346585027  0.185818519  0.287403881
     0.342311230  0.512619753  0.300253731
     0.390969697  0.269913580  0.296862687
     0.387112299  0.436734568  0.305638806
     0.434399287  0.191223457  0.303026866
     0.428545455  0.520704938  0.317483582
     0.475679144  0.270834568  0.317898507
     0.472413547  0.439490123  0.326092537
     0.519468806  0.191177778  0.322402985
     0.517436720  0.521982716  0.330426866
     0.561732620  0.274841975  0.330205970
     0.561165775  0.442291358  0.335549254
     0.606117647  0.185707407  0.328564179
     0.606916221  0.521901235  0.334600000
     0.651165775  0.261085185  0.327155224
     0.652024955  0.438156790  0.330579104
     0.694196078  0.185549383  0.318176119
     0.694855615  0.520569136  0.323400000
     0.737504456  0.265349383  0.309600000
     0.739326203  0.434129630  0.314116418
     0.777397504  0.181274074  0.291231045
     0.780420677  0.513660494  0.300400000
     0.819547237  0.264282716  0.276890448
     0.823251337  0.434737037  0.287422388
     0.861233512  0.191435802  0.263019701
     0.865404635  0.517271605  0.276620597
     0.907354724  0.275674074  0.258769552
     0.910278075  0.443423457  0.267741493
     0.947700535  0.191920988  0.250303582
     0.951714795  0.522846914  0.261475522
     0.994363636  0.274093827  0.248670149
     0.996032086  0.435039506  0.256342985
     0.037179323  0.194162963  0.239348358
     0.038972193  0.523240741  0.253479104
     0.080448841  0.274388889  0.244840597
     0.080249198  0.440218519  0.250384776
     0.130334403  0.771996296  0.244618806
     0.132530125  0.940667901  0.237897015
     0.170485918  0.693511111  0.260632239
     0.172580036  0.029119506  0.246763284
     0.215096970  0.769254321  0.264817313
     0.216235651  0.936744444  0.257385970
     0.256093761  0.682585185  0.281392537
     0.258770766  0.012640864  0.270460299
     0.300690196  0.763156790  0.285645373
     0.303416756  0.936002469  0.278577313
     0.342407843  0.680277778  0.298506866
     0.347592157  0.014861358  0.285791940
     0.386844920  0.765287654  0.300182090
     0.391183601  0.931329630  0.293194030
     0.430106952  0.688192593  0.311859701
     0.435836007  0.018160000  0.297025373
     0.473436720  0.774596296  0.321835821
     0.475447415  0.940581481  0.312414925
     0.515882353  0.693679012  0.330107463
     0.518160428  0.017045185  0.321405970
     0.560962567  0.774653086  0.334600000
     0.560484848  0.940127160  0.330020896
     0.606395722  0.687679012  0.335179104
     0.605543672  0.019496296  0.333173134
     0.649846702  0.766286420  0.330561194
     0.651080214  0.934788889  0.330208955
     0.696955437  0.687955556  0.323617910
     0.694481283  0.009400358  0.317113433
     0.737276292  0.766738272  0.308650746
     0.733982175  0.932245679  0.303579104
     0.781151515  0.683104938  0.301214925
     0.776067736  0.013134938  0.287685373
     0.821939394  0.766460494  0.282954328
     0.819105169  0.931985185  0.275290746
     0.864456328  0.689764198  0.274608060
     0.860003565  0.017962469  0.260914030
     0.906142602  0.775717284  0.263512836
     0.904869875  0.941312346  0.254973731
     0.949169340  0.691423457  0.258633433
     0.948855615  0.020420741  0.249009254
     0.993532977  0.776056790  0.248650448
     0.993554367  0.943151852  0.244432836
     0.036758289  0.691162963  0.247616418
     0.038204278  0.024164938  0.236625970
     0.079881640  0.769441975  0.242063881
     0.081285561  0.939532099  0.235539701

  ion indices of the primitive-cell ions
   primitive index   ion index
                 1           1
                 2           2
                 3           3
                 4           4
                 5           5
                 6           6
                 7           7
                 8           8
                 9           9
                10          10
                11          11
                12          12
                13          13
                14          14
                15          15
                16          16
                17          17
                18          18
                19          19
                20          20
                21          21
                22          22
                23          23
                24          24
                25          25
                26          26
                27          27
                28          28
                29          29
                30          30
                31          31
                32          32
                33          33
                34          34
                35          35
                36          36
                37          37
                38          38
                39          39
                40          40
                41          41
                42          42
                43          43
                44          44
                45          45
                46          46
                47          47
                48          48
                49          49
                50          50
                51          51
                52          52
                53          53
                54          54
                55          55
                56          56
                57          57
                58          58
                59          59
                60          60
                61          61
                62          62
                63          63
                64          64
                65          65
                66          66
                67          67
                68          68
                69          69
                70          70
                71          71
                72          72
                73          73
                74          74
                75          75
                76          76
                77          77
                78          78
                79          79
                80          80
                81          81
                82          82
                83          83
                84          84
                85          85
                86          86
                87          87
                88          88
                89          89
                90          90
                91          91
                92          92

----------------------------------------------------------------------------------------

 
 
 KPOINTS: K-Spacing Value to Generate K-Mesh: 0.03

Automatic generation of k-mesh.
 Grid dimensions read from file:
 generate k-points for:    1    4    1

 Generating k-lattice:

  Cartesian coordinates                     Fractional coordinates (reciprocal lattice)
     0.035650624  0.000000000  0.000000000     1.000000000  0.000000000  0.000000000
     0.000000000  0.030864198  0.000000000     0.000000000  0.250000000  0.000000000
     0.000000000  0.000000000  0.029850746     0.000000000  0.000000000  1.000000000

  Length of vectors
     0.035650624  0.030864198  0.029850746

  Shift w.r.t. Gamma in fractional coordinates (k-lattice)
     0.000000000  0.000000000  0.000000000

 
 Subroutine IBZKPT returns following result:
 ===========================================
 
 Found      3 irreducible k-points:
 
 Following reciprocal coordinates:
            Coordinates               Weight
  0.000000  0.000000  0.000000      1.000000
  0.000000  0.250000  0.000000      2.000000
  0.000000  0.500000  0.000000      1.000000
 
 Following cartesian coordinates:
            Coordinates               Weight
  0.000000  0.000000  0.000000      1.000000
  0.000000  0.030864  0.000000      2.000000
  0.000000  0.061728  0.000000      1.000000
 


--------------------------------------------------------------------------------------------------------




 Dimension of arrays:
   k-points           NKPTS =      3   k-points in BZ     NKDIM =      3   number of bands    NBANDS=    232
   number of dos      NEDOS =    301   number of ions     NIONS =     92
   non local maximal  LDIM  =      4   non local SUM 2l+1 LMDIM =      8
   total plane-waves  NPLWV = ******
   max r-space proj   IRMAX =   1967   max aug-charges    IRDMAX=   5083
   dimension x,y,z NGX =   210 NGY =   60 NGZ =  250
   dimension x,y,z NGXF=   420 NGYF=  120 NGZF=  500
   support grid    NGXF=   420 NGYF=  120 NGZF=  500
   ions per type =              92
   NGX,Y,Z   is equivalent  to a cutoff of  12.45, 12.31, 12.41 a.u.
   NGXF,Y,Z  is equivalent  to a cutoff of  24.89, 24.63, 24.81 a.u.

 SYSTEM =  unknown system                          
 POSCAR =   C                                      

 Startparameter for this run:
   NWRITE =      2    write-flag & timer
   PREC   = accura    normal or accurate (medium, high low for compatibility)
   ISTART =      0    job   : 0-new  1-cont  2-samecut
   ICHARG =      2    charge: 1-file 2-atom 10-const
   ISPIN  =      1    spin polarized calculation?
   LNONCOLLINEAR =      F non collinear calculations
   LSORBIT =      F    spin-orbit coupling
   INIWAV =      1    electr: 0-lowe 1-rand  2-diag
   LASPH  =      F    aspherical Exc in radial PAW
 Electronic Relaxation 1
   ENCUT  =  500.0 eV  36.75 Ry    6.06 a.u.  51.14 14.77 61.08*2*pi/ulx,y,z
   ENINI  =  500.0     initial cutoff
   ENAUG  =  644.9 eV  augmentation charge cutoff
   NELM   =    150;   NELMIN=  2; NELMDL= -5     # of ELM steps 
   EDIFF  = 0.1E-05   stopping-criterion for ELM
   LREAL  =      T    real-space projection
   NLSPLINE    = F    spline interpolate recip. space projectors
   LCOMPAT=      F    compatible to vasp.4.4
   GGA_COMPAT  = T    GGA compatible to vasp.4.4-vasp.4.6
   LMAXPAW     = -100 max onsite density
   LMAXMIX     =    2 max onsite mixed and CHGCAR
   VOSKOWN=      0    Vosko Wilk Nusair interpolation
   ROPT   =   -0.00025
 Ionic relaxation
   EDIFFG = 0.1E-04   stopping-criterion for IOM
   NSW    =      0    number of steps for IOM
   NBLOCK =      1;   KBLOCK =      1    inner block; outer block 
   IBRION =     -1    ionic relax: 0-MD 1-quasi-New 2-CG
   NFREE  =      0    steps in history (QN), initial steepest desc. (CG)
   ISIF   =      2    stress and relaxation
   IWAVPR =     10    prediction:  0-non 1-charg 2-wave 3-comb
   ISYM   =      2    0-nonsym 1-usesym 2-fastsym
   LCORR  =      T    Harris-Foulkes like correction to forces

   POTIM  = 0.5000    time-step for ionic-motion
   TEIN   =    0.0    initial temperature
   TEBEG  =    0.0;   TEEND  =   0.0 temperature during run
   SMASS  =  -3.00    Nose mass-parameter (am)
   estimated Nose-frequenzy (Omega)   =  0.10E-29 period in steps = 0.13E+47 mass=  -0.180E-25a.u.
   SCALEE = 1.0000    scale energy and forces
   NPACO  =    256;   APACO  = 10.0  distance and # of slots for P.C.
   PSTRESS=    0.0 pullay stress

  Mass of Ions in am
   POMASS =  12.01
  Ionic Valenz
   ZVAL   =   4.00
  Atomic Wigner-Seitz radii
   RWIGS  =  -1.00
  virtual crystal weights 
   VCA    =   1.00
   NELECT =     368.0000    total number of electrons
   NUPDOWN=      -1.0000    fix difference up-down

 DOS related values:
   EMIN   =  10.00;   EMAX   =-10.00  energy-range for DOS
   EFERMI =   0.00;   METHOD = LEGACY      
   ISMEAR =     0;   SIGMA  =   0.20  broadening in eV -4-tet -1-fermi 0-gaus
   EFERMI_NEDOS =   21; number of points for ismear=-14 and -15

 Electronic relaxation 2 (details)
   IALGO  =     38    algorithm
   LDIAG  =      T    sub-space diagonalisation (order eigenvalues)
   LSUBROT=      F    optimize rotation matrix (better conditioning)
   TURBO    =      0    0=normal 1=particle mesh
   IRESTART =      0    0=no restart 2=restart with 2 vectors
   NREBOOT  =      0    no. of reboots
   NMIN     =      0    reboot dimension
   EREF     =   0.00    reference energy to select bands
   IMIX   =      4    mixing-type and parameters
     AMIX     =   0.40;   BMIX     =  1.00
     AMIX_MAG =   1.60;   BMIX_MAG =  1.00
     AMIN     =   0.10
     WC   =   100.;   INIMIX=   1;  MIXPRE=   1;  MAXMIX= -45

 Intra band minimization:
   WEIMIN = 0.0000     energy-eigenvalue tresh-hold
   EBREAK =  0.11E-08  absolut break condition
   DEPER  =   0.30     relativ break condition  

   TIME   =   0.40     timestep for ELM

  volume/ion in A,a.u.               =      82.73       558.30
  Fermi-wavevector in a.u.,A,eV,Ry     =   0.596398  1.127030  4.839472  0.355691
  Thomas-Fermi vector in A             =   1.646729
 
 Write flags
   LWAVE        =      F    write WAVECAR
   LDOWNSAMPLE  =      F    k-point downsampling of WAVECAR
   LCHARG       =      F    write CHGCAR
   LVTOT        =      F    write LOCPOT, total local potential
   LVHAR        =      F    write LOCPOT, Hartree potential only
   WRT_POTENTIAL= false  ! write potential to hdf5 file
   LELF         =      F    write electronic localiz. function (ELF)
   LORBIT       =      0    0 simple, 1 ext, 2 COOP (PROOUT), +10 PAW based schemes


 Python interface
   PLUGINS active      =      F    recompile with -DPLUGINS to activate
 
 Dipole corrections
   LMONO      =      F    monopole corrections only (constant potential shift)
   LDIPOL     =      F    correct potential (dipole corrections)
   IDIPOL     =      0    1-x, 2-y, 3-z, 4-all directions 
   EPSILON    =  1.0000000 bulk dielectric constant
   LVACPOTAV  =      F  vacuum potentials using an averaging scheme for the charge density
   VACPOTFLAT =  0.1000000 required flatness to determine vacuum potential
 
Coulomb truncation method
  LTRUNCATE          =      F  Coulomb kernel truncation to be used
  IDIMENSIONALITY    =      3  Dimensionality of cutoff (0 molecules / 2 surfaces)
  ISURFACE           =     -1  Direction of surface normal
  LCOARSEN           =      F  Coarsen the charge grid before padding, preferred

 
 Exchange correlation treatment:
   GGA     = PE    functional components
   XC_C    = 1    coefficients multiplying the functional components
   LIBXC   =     F    Libxc                    
   VOSKOWN =     0    Vosko Wilk Nusair interpolation
   LHFCALC =     F    Hartree Fock is set to
   LHFONE  =     F    Hartree Fock one center treatment
   AEXX    =    0.0000 exact exchange contribution

 Parameters of functionals:
   PE:
     No parameter
 
 Van der Waals corrections
   IVDW    =     0    specifies the selected vdW correction

 Linear response parameters
   LEPSILON=     F    determine dielectric tensor
   LRPA    =     F    only Hartree local field effects (RPA)
   LNABLA  =     F    use nabla operator in PAW spheres
   LVEL    =     F    velocity operator in full k-point grid
   CSHIFT  =0.1000    complex shift for real part using Kramers Kronig
   OMEGAMAX=  -1.0    maximum frequency
   DEG_THRESHOLD= 0.2000000E-02 threshold for treating states as degnerate
   RTIME   =   -0.100 relaxation time in fs
  (WPLASMAI=    0.000 imaginary part of plasma frequency in eV, 0.658/RTIME)
   DFIELD  = 0.0000000 0.0000000 0.0000000 field for delta impulse in time
 
  Optional k-point grid parameters
   LKPOINTS_OPT  =     F    use optional k-point grid
   KPOINTS_OPT_MODE=     1    mode for optional k-point grid
 
 Orbital magnetization related:
   ORBITALMAG=     F  switch on orbital magnetization
   LCHIMAG   =     F  perturbation theory with respect to B field
   DQ        =  0.001000  dq finite difference perturbation B field
   LLRAUG    =     F  two centre corrections for induced B field
   LBONE     =     F  B-component reconstruction in AE one-centre
   LVGVCALC  =     T  calculate vGv susceptibility
   LVGVAPPL  =     F  apply vGv susceptibility instead of pGv for G=0

 Random number generation:
   RANDOM_GENERATOR = DEFAULT
   PCG_SEED         = not used


--------------------------------------------------------------------------------------------------------


 Static calculation
 charge density and potential will be updated during run
 non-spin polarized calculation
 Variant of blocked Davidson
 Davidson routine will perform the subspace rotation
 perform sub-space diagonalisation
    after iterative eigenvector-optimisation
 modified Broyden-mixing scheme, WC =      100.0
 initial mixing is a Kerker type mixing with AMIX =  0.4000 and BMIX =      1.0000
 Hartree-type preconditioning will be used
 using additional bands            48
 real space projection scheme for non local part
 use partial core corrections
 calculate Harris-corrections to forces 
   (improved forces if not selfconsistent)
 use gradient corrections 
 use of overlap-Matrix (Vanderbilt PP)
 Gauss-broadening in eV      SIGMA  =   0.20


--------------------------------------------------------------------------------------------------------


  energy-cutoff  :      500.00
  volume of cell :     7611.37
      direct lattice vectors                 reciprocal lattice vectors
    28.050000000  0.000000000  0.000000000     0.035650624  0.000000000  0.000000000
     0.000000000  8.100000000  0.000000000     0.000000000  0.123456790  0.000000000
     0.000000000  0.000000000 33.500000000     0.000000000  0.000000000  0.029850746

  length of vectors
    28.050000000  8.100000000 33.500000000     0.035650624  0.123456790  0.029850746


 
 k-points in units of 2pi/SCALE and weight: K-Spacing Value to Generate K-Mesh: 0.03
   0.00000000  0.00000000  0.00000000       0.250
   0.00000000  0.03086420  0.00000000       0.500
   0.00000000  0.06172840  0.00000000       0.250
 
 k-points in reciprocal lattice and weights: K-Spacing Value to Generate K-Mesh: 0.03
   0.00000000  0.00000000  0.00000000       0.250
   0.00000000  0.25000000  0.00000000       0.500
   0.00000000  0.50000000  0.00000000       0.250
 
 position of ions in fractional coordinates (direct lattice) 
   0.13042353  0.26991111  0.24946448
   0.13038752  0.43870494  0.25429134
   0.17296399  0.19243951  0.25615403
   0.16995686  0.52427160  0.26685851
   0.21635365  0.26863951  0.26665164
   0.21235365  0.44446173  0.27436060
   0.25997041  0.18550988  0.27462299
   0.25740998  0.51712963  0.28468179
   0.30202995  0.26284198  0.28507164
   0.29906774  0.43282593  0.29268866
   0.34658503  0.18581852  0.28740388
   0.34231123  0.51261975  0.30025373
   0.39096970  0.26991358  0.29686269
   0.38711230  0.43673457  0.30563881
   0.43439929  0.19122346  0.30302687
   0.42854545  0.52070494  0.31748358
   0.47567914  0.27083457  0.31789851
   0.47241355  0.43949012  0.32609254
   0.51946881  0.19117778  0.32240299
   0.51743672  0.52198272  0.33042687
   0.56173262  0.27484198  0.33020597
   0.56116578  0.44229136  0.33554925
   0.60611765  0.18570741  0.32856418
   0.60691622  0.52190123  0.33460000
   0.65116578  0.26108519  0.32715522
   0.65202496  0.43815679  0.33057910
   0.69419608  0.18554938  0.31817612
   0.69485561  0.52056914  0.32340000
   0.73750446  0.26534938  0.30960000
   0.73932620  0.43412963  0.31411642
   0.77739750  0.18127407  0.29123104
   0.78042068  0.51366049  0.30040000
   0.81954724  0.26428272  0.27689045
   0.82325134  0.43473704  0.28742239
   0.86123351  0.19143580  0.26301970
   0.86540463  0.51727160  0.27662060
   0.90735472  0.27567407  0.25876955
   0.91027807  0.44342346  0.26774149
   0.94770053  0.19192099  0.25030358
   0.95171480  0.52284691  0.26147552
   0.99436364  0.27409383  0.24867015
   0.99603209  0.43503951  0.25634299
   0.03717932  0.19416296  0.23934836
   0.03897219  0.52324074  0.25347910
   0.08044884  0.27438889  0.24484060
   0.08024920  0.44021852  0.25038478
   0.13033440  0.77199630  0.24461881
   0.13253012  0.94066790  0.23789701
   0.17048592  0.69351111  0.26063224
   0.17258004  0.02911951  0.24676328
   0.21509697  0.76925432  0.26481731
   0.21623565  0.93674444  0.25738597
   0.25609376  0.68258519  0.28139254
   0.25877077  0.01264086  0.27046030
   0.30069020  0.76315679  0.28564537
   0.30341676  0.93600247  0.27857731
   0.34240784  0.68027778  0.29850687
   0.34759216  0.01486136  0.28579194
   0.38684492  0.76528765  0.30018209
   0.39118360  0.93132963  0.29319403
   0.43010695  0.68819259  0.31185970
   0.43583601  0.01816000  0.29702537
   0.47343672  0.77459630  0.32183582
   0.47544742  0.94058148  0.31241493
   0.51588235  0.69367901  0.33010746
   0.51816043  0.01704519  0.32140597
   0.56096257  0.77465309  0.33460000
   0.56048485  0.94012716  0.33002090
   0.60639572  0.68767901  0.33517910
   0.60554367  0.01949630  0.33317313
   0.64984670  0.76628642  0.33056119
   0.65108021  0.93478889  0.33020896
   0.69695544  0.68795556  0.32361791
   0.69448128  0.00940036  0.31711343
   0.73727629  0.76673827  0.30865075
   0.73398217  0.93224568  0.30357910
   0.78115152  0.68310494  0.30121493
   0.77606774  0.01313494  0.28768537
   0.82193939  0.76646049  0.28295433
   0.81910517  0.93198519  0.27529075
   0.86445633  0.68976420  0.27460806
   0.86000357  0.01796247  0.26091403
   0.90614260  0.77571728  0.26351284
   0.90486988  0.94131235  0.25497373
   0.94916934  0.69142346  0.25863343
   0.94885561  0.02042074  0.24900925
   0.99353298  0.77605679  0.24865045
   0.99355437  0.94315185  0.24443284
   0.03675829  0.69116296  0.24761642
   0.03820428  0.02416494  0.23662597
   0.07988164  0.76944198  0.24206388
   0.08128556  0.93953210  0.23553970
 
 position of ions in cartesian coordinates  (Angst):
   3.65838000  2.18628000  8.35706000
   3.65737000  3.55351000  8.51876000
   4.85164000  1.55876000  8.58116000
   4.76729000  4.24660000  8.93976000
   6.06872000  2.17598000  8.93283000
   5.95652000  3.60014000  9.19108000
   7.29217000  1.50263000  9.19987000
   7.22035000  4.18875000  9.53684000
   8.47194000  2.12902000  9.54990000
   8.38885000  3.50589000  9.80507000
   9.72171000  1.50513000  9.62803000
   9.60183000  4.15222000 10.05850000
  10.96670000  2.18630000  9.94490000
  10.85850000  3.53755000 10.23890000
  12.18490000  1.54891000 10.15140000
  12.02070000  4.21771000 10.63570000
  13.34280000  2.19376000 10.64960000
  13.25120000  3.55987000 10.92410000
  14.57110000  1.54854000 10.80050000
  14.51410000  4.22806000 11.06930000
  15.75660000  2.22622000 11.06190000
  15.74070000  3.58256000 11.24090000
  17.00160000  1.50423000 11.00690000
  17.02400000  4.22740000 11.20910000
  18.26520000  2.11479000 10.95970000
  18.28930000  3.54907000 11.07440000
  19.47220000  1.50295000 10.65890000
  19.49070000  4.21661000 10.83390000
  20.68700000  2.14933000 10.37160000
  20.73810000  3.51645000 10.52290000
  21.80600000  1.46832000  9.75624000
  21.89080000  4.16065000 10.06340000
  22.98830000  2.14069000  9.27583000
  23.09220000  3.52137000  9.62865000
  24.15760000  1.55063000  8.81116000
  24.27460000  4.18990000  9.26679000
  25.45130000  2.23296000  8.66878000
  25.53330000  3.59173000  8.96934000
  26.58300000  1.55456000  8.38517000
  26.69560000  4.23506000  8.75943000
  27.89190000  2.22016000  8.33045000
  27.93870000  3.52382000  8.58749000
   1.04288000  1.57272000  8.01817000
   1.09317000  4.23825000  8.49155000
   2.25659000  2.22255000  8.20216000
   2.25099000  3.56577000  8.38789000
   3.65588000  6.25317000  8.19473000
   3.71747000  7.61941000  7.96955000
   4.78213000  5.61744000  8.73118000
   4.84087000  0.23586800  8.26657000
   6.03347000  6.23096000  8.87138000
   6.06541000  7.58763000  8.62243000
   7.18343000  5.52894000  9.42665000
   7.25852000  0.10239100  9.06042000
   8.43436000  6.18157000  9.56912000
   8.51084000  7.58162000  9.33234000
   9.60454000  5.51025000  9.99998000
   9.74996000  0.12037700  9.57403000
  10.85100000  6.19883000 10.05610000
  10.97270000  7.54377000  9.82200000
  12.06450000  5.57436000 10.44730000
  12.22520000  0.14709600  9.95035000
  13.27990000  6.27423000 10.78150000
  13.33630000  7.61871000 10.46590000
  14.47050000  5.61880000 11.05860000
  14.53440000  0.13806600 10.76710000
  15.73500000  6.27469000 11.20910000
  15.72160000  7.61503000 11.05570000
  17.00940000  5.57020000 11.22850000
  16.98550000  0.15792000 11.16130000
  18.22820000  6.20692000 11.07380000
  18.26280000  7.57179000 11.06200000
  19.54960000  5.57244000 10.84120000
  19.48020000  0.07614290 10.62330000
  20.68060000  6.21058000 10.33980000
  20.58820000  7.55119000 10.16990000
  21.91130000  5.53315000 10.09070000
  21.76870000  0.10639300  9.63746000
  23.05540000  6.20833000  9.47897000
  22.97590000  7.54908000  9.22224000
  24.24800000  5.58709000  9.19937000
  24.12310000  0.14549600  8.74062000
  25.41730000  6.28331000  8.82768000
  25.38160000  7.62463000  8.54162000
  26.62420000  5.60053000  8.66422000
  26.61540000  0.16540800  8.34181000
  27.86860000  6.28606000  8.32979000
  27.86920000  7.63953000  8.18850000
   1.03107000  5.59842000  8.29515000
   1.07163000  0.19573600  7.92697000
   2.24068000  6.23248000  8.10914000
   2.28006000  7.61021000  7.89058000
 


--------------------------------------------------------------------------------------------------------


 k-point     1 :   0.0000 0.0000 0.0000  plane waves:  193173
 k-point     2 :   0.0000 0.2500 0.0000  plane waves:  193166
 k-point     3 :   0.0000 0.5000 0.0000  plane waves:  193226

 maximum and minimum number of plane-waves per node :    193226   193166

 maximum number of plane-waves:    193226
 maximum index in each direction: 
   IXMAX=   51   IYMAX=   14   IZMAX=   61
   IXMIN=  -51   IYMIN=  -15   IZMIN=  -61


 serial   3D FFT for wavefunctions
 parallel 3D FFT for charge:
    minimum data exchange during FFTs selected (reduces bandwidth)


 total amount of memory used by VASP MPI-rank0  2294513. kBytes
=======================================================================

   base                                    :      30000. kBytes
   nonlr-proj                              :      15079. kBytes
   fftplans                                :     436558. kBytes
   grid                                    :     732614. kBytes
   one-center                              :        282. kBytes
   wavefun                                 :    1079980. kBytes
 
     INWAV:  cpu time      0.0000: real time      0.0000
 Broyden mixing: mesh for mixing (old mesh)
   NGX =103   NGY = 29   NGZ =123
  (NGX  =420   NGY  =120   NGZ  =500)
  gives a total of 367401 points

 initial charge density was supplied:
 charge density of overlapping atoms calculated
 number of electron     368.0000000 magnetization 
 keeping initial charge density in first step


--------------------------------------------------------------------------------------------------------


 Maximum index for non-local projection operator          1873
 Maximum index for augmentation-charges          2386 (set IRDMAX)


--------------------------------------------------------------------------------------------------------


 First call to EWALD:  gamma=   0.090
 Maximum number of real-space cells   2x   6x   2
 Maximum number of reciprocal cells   4x   1x   4

    FEWALD:  cpu time      0.1642: real time      0.1643


--------------------------------------- Ionic step        1  -------------------------------------------




--------------------------------------- Iteration      1(   1)  ---------------------------------------


    POTLOK:  cpu time      0.4194: real time      0.4345
    SETDIJ:  cpu time      0.0421: real time      0.0421
     EDDAV:  cpu time     11.0238: real time     11.0303
       DOS:  cpu time      0.0008: real time      0.0008
    --------------------------------------------
      LOOP:  cpu time     11.4861: real time     11.5077

 eigenvalue-minimisations  :  1704
 total energy-change (2. order) : 0.3682137E+04  (-0.1194395E+05)
 number of electron     368.0000000 magnetization 
 augmentation part      368.0000000 magnetization 

 Free energy of the ion-electron system (eV)
  ---------------------------------------------------
  alpha Z        PSCENC =        91.34886789
  Ewald energy   TEWEN  =    120318.75739763
  -Hartree energ DENC   =   -129628.19445853
  -exchange      EXHF   =         0.00000000
  -V(xc)+E(xc)   XCENC  =      1222.50978772
  PAW double counting   =      9984.02826696   -10036.41360137
  entropy T*S    EENTRO =        -0.82978607
  eigenvalues    EBANDS =     -1806.72459558
  atomic energy  EATOM  =     13537.65479391
  Solvation  Ediel_sol  =         0.00000000
  ---------------------------------------------------
  free energy    TOTEN  =      3682.13667256 eV

  energy without entropy =     3682.96645863  energy(sigma->0) =     3682.55156560


--------------------------------------------------------------------------------------------------------




--------------------------------------- Iteration      1(   2)  ---------------------------------------


     EDDAV:  cpu time     13.1277: real time     13.1359
       DOS:  cpu time      0.0007: real time      0.0007
    --------------------------------------------
      LOOP:  cpu time     13.1284: real time     13.1365

 eigenvalue-minimisations  :  2144
 total energy-change (2. order) :-0.3505520E+04  (-0.3245012E+04)
 number of electron     368.0000000 magnetization 
 augmentation part      368.0000000 magnetization 

 Free energy of the ion-electron system (eV)
  ---------------------------------------------------
  alpha Z        PSCENC =        91.34886789
  Ewald energy   TEWEN  =    120318.75739763
  -Hartree energ DENC   =   -129628.19445853
  -exchange      EXHF   =         0.00000000
  -V(xc)+E(xc)   XCENC  =      1222.50978772
  PAW double counting   =      9984.02826696   -10036.41360137
  entropy T*S    EENTRO =        -0.19783733
  eigenvalues    EBANDS =     -5312.87685555
  atomic energy  EATOM  =     13537.65479391
  Solvation  Ediel_sol  =         0.00000000
  ---------------------------------------------------
  free energy    TOTEN  =       176.61636133 eV

  energy without entropy =      176.81419867  energy(sigma->0) =      176.71528000


--------------------------------------------------------------------------------------------------------




--------------------------------------- Iteration      1(   3)  ---------------------------------------


     EDDAV:  cpu time     11.2624: real time     11.2685
       DOS:  cpu time      0.0007: real time      0.0007
    --------------------------------------------
      LOOP:  cpu time     11.2630: real time     11.2692

 eigenvalue-minimisations  :  1784
 total energy-change (2. order) :-0.1011640E+04  (-0.9884348E+03)
 number of electron     368.0000000 magnetization 
 augmentation part      368.0000000 magnetization 

 Free energy of the ion-electron system (eV)
  ---------------------------------------------------
  alpha Z        PSCENC =        91.34886789
  Ewald energy   TEWEN  =    120318.75739763
  -Hartree energ DENC   =   -129628.19445853
  -exchange      EXHF   =         0.00000000
  -V(xc)+E(xc)   XCENC  =      1222.50978772
  PAW double counting   =      9984.02826696   -10036.41360137
  entropy T*S    EENTRO =        -0.02458116
  eigenvalues    EBANDS =     -6324.68983522
  atomic energy  EATOM  =     13537.65479391
  Solvation  Ediel_sol  =         0.00000000
  ---------------------------------------------------
  free energy    TOTEN  =      -835.02336216 eV

  energy without entropy =     -834.99878100  energy(sigma->0) =     -835.01107158


--------------------------------------------------------------------------------------------------------




--------------------------------------- Iteration      1(   4)  ---------------------------------------


     EDDAV:  cpu time     10.9474: real time     10.9534
       DOS:  cpu time      0.0007: real time      0.0007
    --------------------------------------------
      LOOP:  cpu time     10.9480: real time     10.9540

 eigenvalue-minimisations  :  1720
 total energy-change (2. order) :-0.6188827E+02  (-0.6083594E+02)
 number of electron     368.0000000 magnetization 
 augmentation part      368.0000000 magnetization 

 Free energy of the ion-electron system (eV)
  ---------------------------------------------------
  alpha Z        PSCENC =        91.34886789
  Ewald energy   TEWEN  =    120318.75739763
  -Hartree energ DENC   =   -129628.19445853
  -exchange      EXHF   =         0.00000000
  -V(xc)+E(xc)   XCENC  =      1222.50978772
  PAW double counting   =      9984.02826696   -10036.41360137
  entropy T*S    EENTRO =        -0.06034736
  eigenvalues    EBANDS =     -6386.54233992
  atomic energy  EATOM  =     13537.65479391
  Solvation  Ediel_sol  =         0.00000000
  ---------------------------------------------------
  free energy    TOTEN  =      -896.91163306 eV

  energy without entropy =     -896.85128570  energy(sigma->0) =     -896.88145938


--------------------------------------------------------------------------------------------------------




--------------------------------------- Iteration      1(   5)  ---------------------------------------


     EDDAV:  cpu time     11.2142: real time     11.2181
       DOS:  cpu time      0.0007: real time      0.0007
    CHARGE:  cpu time      1.2072: real time      1.2089
    MIXING:  cpu time      0.2764: real time      0.2768
    --------------------------------------------
      LOOP:  cpu time     12.6985: real time     12.7045

 eigenvalue-minimisations  :  1776
 total energy-change (2. order) :-0.1525223E+01  (-0.1502963E+01)
 number of electron     368.0000008 magnetization 
 augmentation part       10.2015704 magnetization 

 Broyden mixing:
  rms(total) = 0.45762E+01    rms(broyden)= 0.45757E+01
  rms(prec ) = 0.46943E+01
  weight for this iteration     100.00

 Free energy of the ion-electron system (eV)
  ---------------------------------------------------
  alpha Z        PSCENC =        91.34886789
  Ewald energy   TEWEN  =    120318.75739763
  -Hartree energ DENC   =   -129628.19445853
  -exchange      EXHF   =         0.00000000
  -V(xc)+E(xc)   XCENC  =      1222.50978772
  PAW double counting   =      9984.02826696   -10036.41360137
  entropy T*S    EENTRO =        -0.06149844
  eigenvalues    EBANDS =     -6388.06641234
  atomic energy  EATOM  =     13537.65479391
  Solvation  Ediel_sol  =         0.00000000
  ---------------------------------------------------
  free energy    TOTEN  =      -898.43685656 eV

  energy without entropy =     -898.37535813  energy(sigma->0) =     -898.40610734


--------------------------------------------------------------------------------------------------------




--------------------------------------- Iteration      1(   6)  ---------------------------------------


    POTLOK:  cpu time      0.3199: real time      0.3200
    SETDIJ:  cpu time      0.0403: real time      0.0403
     EDDAV:  cpu time     10.2605: real time     10.2660
       DOS:  cpu time      0.0007: real time      0.0007
    CHARGE:  cpu time      1.1607: real time      1.1615
    MIXING:  cpu time      0.2783: real time      0.2783
    --------------------------------------------
      LOOP:  cpu time     12.0604: real time     12.0668

 eigenvalue-minimisations  :  1584
 total energy-change (2. order) : 0.5027488E+02  (-0.4799034E+01)
 number of electron     368.0000008 magnetization 
 augmentation part        9.7739994 magnetization 

 Broyden mixing:
  rms(total) = 0.26876E+01    rms(broyden)= 0.26875E+01
  rms(prec ) = 0.27461E+01
  weight for this iteration     100.00

 eigenvalues of (default mixing * dielectric matrix)
  average eigenvalue GAMMA=   2.1846
  2.1846

 Free energy of the ion-electron system (eV)
  ---------------------------------------------------
  alpha Z        PSCENC =        91.34886789
  Ewald energy   TEWEN  =    120318.75739763
  -Hartree energ DENC   =   -130203.19312053
  -exchange      EXHF   =         0.00000000
  -V(xc)+E(xc)   XCENC  =      1245.98998178
  PAW double counting   =     19013.78958497   -19073.86681392
  entropy T*S    EENTRO =        -0.06473946
  eigenvalues    EBANDS =     -5778.57792899
  atomic energy  EATOM  =     13537.65479391
  Solvation  Ediel_sol  =         0.00000000
  ---------------------------------------------------
  free energy    TOTEN  =      -848.16197672 eV

  energy without entropy =     -848.09723726  energy(sigma->0) =     -848.12960699


--------------------------------------------------------------------------------------------------------




--------------------------------------- Iteration      1(   7)  ---------------------------------------


    POTLOK:  cpu time      0.3193: real time      0.3192
    SETDIJ:  cpu time      0.0403: real time      0.0403
     EDDAV:  cpu time     10.1413: real time     10.1451
       DOS:  cpu time      0.0007: real time      0.0007
    CHARGE:  cpu time      1.1563: real time      1.1565
    MIXING:  cpu time      0.2822: real time      0.2823
    --------------------------------------------
      LOOP:  cpu time     11.9402: real time     11.9442

 eigenvalue-minimisations  :  1560
 total energy-change (2. order) : 0.1870370E+02  (-0.6695331E+01)
 number of electron     368.0000007 magnetization 
 augmentation part        9.2136808 magnetization 

 Broyden mixing:
  rms(total) = 0.74234E+00    rms(broyden)= 0.74206E+00
  rms(prec ) = 0.75220E+00
  weight for this iteration     100.00

 eigenvalues of (default mixing * dielectric matrix)
  average eigenvalue GAMMA=   2.2117
  2.2117  2.2117

 Free energy of the ion-electron system (eV)
  ---------------------------------------------------
  alpha Z        PSCENC =        91.34886789
  Ewald energy   TEWEN  =    120318.75739763
  -Hartree energ DENC   =   -130975.70461417
  -exchange      EXHF   =         0.00000000
  -V(xc)+E(xc)   XCENC  =      1277.34024017
  PAW double counting   =     36829.74393510   -36896.80709145
  entropy T*S    EENTRO =        -0.07519360
  eigenvalues    EBANDS =     -5011.71661687
  atomic energy  EATOM  =     13537.65479391
  Solvation  Ediel_sol  =         0.00000000
  ---------------------------------------------------
  free energy    TOTEN  =      -829.45828140 eV

  energy without entropy =     -829.38308779  energy(sigma->0) =     -829.42068460


--------------------------------------------------------------------------------------------------------




--------------------------------------- Iteration      1(   8)  ---------------------------------------


    POTLOK:  cpu time      0.3203: real time      0.3203
    SETDIJ:  cpu time      0.0402: real time      0.0402
     EDDAV:  cpu time     10.2181: real time     10.2217
       DOS:  cpu time      0.0008: real time      0.0008
    CHARGE:  cpu time      1.1550: real time      1.1571
    MIXING:  cpu time      0.2806: real time      0.2819
    --------------------------------------------
      LOOP:  cpu time     12.0150: real time     12.0220

 eigenvalue-minimisations  :  1576
 total energy-change (2. order) : 0.3027670E+00  (-0.2505674E+00)
 number of electron     368.0000007 magnetization 
 augmentation part        9.2016736 magnetization 

 Broyden mixing:
  rms(total) = 0.10006E+00    rms(broyden)= 0.10002E+00
  rms(prec ) = 0.12292E+00
  weight for this iteration     100.00

 eigenvalues of (default mixing * dielectric matrix)
  average eigenvalue GAMMA=   1.8570
  1.2255  2.4387  1.9067

 Free energy of the ion-electron system (eV)
  ---------------------------------------------------
  alpha Z        PSCENC =        91.34886789
  Ewald energy   TEWEN  =    120318.75739763
  -Hartree energ DENC   =   -131069.41348284
  -exchange      EXHF   =         0.00000000
  -V(xc)+E(xc)   XCENC  =      1277.01000669
  PAW double counting   =     41161.31608547   -41225.62988324
  entropy T*S    EENTRO =        -0.07341283
  eigenvalues    EBANDS =     -4920.12588707
  atomic energy  EATOM  =     13537.65479391
  Solvation  Ediel_sol  =         0.00000000
  ---------------------------------------------------
  free energy    TOTEN  =      -829.15551438 eV

  energy without entropy =     -829.08210155  energy(sigma->0) =     -829.11880797


--------------------------------------------------------------------------------------------------------




--------------------------------------- Iteration      1(   9)  ---------------------------------------


    POTLOK:  cpu time      0.3199: real time      0.3201
    SETDIJ:  cpu time      0.0401: real time      0.0401
     EDDAV:  cpu time     10.3812: real time     10.3851
       DOS:  cpu time      0.0007: real time      0.0007
    CHARGE:  cpu time      1.1526: real time      1.1553
    MIXING:  cpu time      0.2849: real time      0.2851
    --------------------------------------------
      LOOP:  cpu time     12.1795: real time     12.1864

 eigenvalue-minimisations  :  1608
 total energy-change (2. order) : 0.1108470E+00  (-0.2929031E-01)
 number of electron     368.0000007 magnetization 
 augmentation part        9.1775469 magnetization 

 Broyden mixing:
  rms(total) = 0.58308E-01    rms(broyden)= 0.58298E-01
  rms(prec ) = 0.79887E-01
  weight for this iteration     100.00

 eigenvalues of (default mixing * dielectric matrix)
  average eigenvalue GAMMA=   1.7250
  2.2323  2.2323  1.2177  1.2177

 Free energy of the ion-electron system (eV)
  ---------------------------------------------------
  alpha Z        PSCENC =        91.34886789
  Ewald energy   TEWEN  =    120318.75739763
  -Hartree energ DENC   =   -131140.02893586
  -exchange      EXHF   =         0.00000000
  -V(xc)+E(xc)   XCENC  =      1278.50755612
  PAW double counting   =     41683.46872630   -41747.91364681
  entropy T*S    EENTRO =        -0.07234355
  eigenvalues    EBANDS =     -4850.76708300
  atomic energy  EATOM  =     13537.65479391
  Solvation  Ediel_sol  =         0.00000000
  ---------------------------------------------------
  free energy    TOTEN  =      -829.04466739 eV

  energy without entropy =     -828.97232384  energy(sigma->0) =     -829.00849561


--------------------------------------------------------------------------------------------------------




--------------------------------------- Iteration      1(  10)  ---------------------------------------


    POTLOK:  cpu time      0.3222: real time      0.3222
    SETDIJ:  cpu time      0.0401: real time      0.0401
     EDDAV:  cpu time     10.9308: real time     10.9368
       DOS:  cpu time      0.0007: real time      0.0007
    CHARGE:  cpu time      1.1564: real time      1.1580
    MIXING:  cpu time      0.2904: real time      0.2926
    --------------------------------------------
      LOOP:  cpu time     12.7406: real time     12.7505

 eigenvalue-minimisations  :  1720
 total energy-change (2. order) : 0.4149846E-01  (-0.6142908E-02)
 number of electron     368.0000007 magnetization 
 augmentation part        9.1675074 magnetization 

 Broyden mixing:
  rms(total) = 0.35538E-01    rms(broyden)= 0.35534E-01
  rms(prec ) = 0.54807E-01
  weight for this iteration     100.00

 eigenvalues of (default mixing * dielectric matrix)
  average eigenvalue GAMMA=   1.7251
  2.4620  2.4620  1.5252  1.3340  0.8424

 Free energy of the ion-electron system (eV)
  ---------------------------------------------------
  alpha Z        PSCENC =        91.34886789
  Ewald energy   TEWEN  =    120318.75739763
  -Hartree energ DENC   =   -131194.24782329
  -exchange      EXHF   =         0.00000000
  -V(xc)+E(xc)   XCENC  =      1278.83186231
  PAW double counting   =     41427.12472501   -41491.40013134
  entropy T*S    EENTRO =        -0.07255774
  eigenvalues    EBANDS =     -4797.00030331
  atomic energy  EATOM  =     13537.65479391
  Solvation  Ediel_sol  =         0.00000000
  ---------------------------------------------------
  free energy    TOTEN  =      -829.00316893 eV

  energy without entropy =     -828.93061119  energy(sigma->0) =     -828.96689006


--------------------------------------------------------------------------------------------------------




--------------------------------------- Iteration      1(  11)  ---------------------------------------


    POTLOK:  cpu time      0.3217: real time      0.3217
    SETDIJ:  cpu time      0.0402: real time      0.0402
     EDDAV:  cpu time     10.2088: real time     10.2124
       DOS:  cpu time      0.0007: real time      0.0007
    CHARGE:  cpu time      1.1674: real time      1.1679
    MIXING:  cpu time      0.2990: real time      0.2990
    --------------------------------------------
      LOOP:  cpu time     12.0377: real time     12.0419

 eigenvalue-minimisations  :  1576
 total energy-change (2. order) : 0.2693605E-01  (-0.2196335E-02)
 number of electron     368.0000007 magnetization 
 augmentation part        9.1619605 magnetization 

 Broyden mixing:
  rms(total) = 0.25633E-01    rms(broyden)= 0.25630E-01
  rms(prec ) = 0.39227E-01
  weight for this iteration     100.00

 eigenvalues of (default mixing * dielectric matrix)
  average eigenvalue GAMMA=   1.7836
  2.9056  2.6524  1.8996  0.9836  1.1303  1.1303

 Free energy of the ion-electron system (eV)
  ---------------------------------------------------
  alpha Z        PSCENC =        91.34886789
  Ewald energy   TEWEN  =    120318.75739763
  -Hartree energ DENC   =   -131253.64278567
  -exchange      EXHF   =         0.00000000
  -V(xc)+E(xc)   XCENC  =      1279.38359805
  PAW double counting   =     41382.03048009   -41446.22684161
  entropy T*S    EENTRO =        -0.07288590
  eigenvalues    EBANDS =     -4738.20885728
  atomic energy  EATOM  =     13537.65479391
  Solvation  Ediel_sol  =         0.00000000
  ---------------------------------------------------
  free energy    TOTEN  =      -828.97623289 eV

  energy without entropy =     -828.90334699  energy(sigma->0) =     -828.93978994


--------------------------------------------------------------------------------------------------------




--------------------------------------- Iteration      1(  12)  ---------------------------------------


    POTLOK:  cpu time      0.3218: real time      0.3219
    SETDIJ:  cpu time      0.0403: real time      0.0403
     EDDAV:  cpu time      9.9543: real time      9.9580
       DOS:  cpu time      0.0007: real time      0.0007
    CHARGE:  cpu time      1.1553: real time      1.1555
    MIXING:  cpu time      0.3059: real time      0.3060
    --------------------------------------------
      LOOP:  cpu time     11.7784: real time     11.7824

 eigenvalue-minimisations  :  1528
 total energy-change (2. order) : 0.4382592E-02  (-0.2408851E-02)
 number of electron     368.0000007 magnetization 
 augmentation part        9.1546247 magnetization 

 Broyden mixing:
  rms(total) = 0.15416E-01    rms(broyden)= 0.15413E-01
  rms(prec ) = 0.23588E-01
  weight for this iteration     100.00

 eigenvalues of (default mixing * dielectric matrix)
  average eigenvalue GAMMA=   2.0239
  4.6464  2.2874  2.1189  1.9402  0.9915  1.0913  1.0913

 Free energy of the ion-electron system (eV)
  ---------------------------------------------------
  alpha Z        PSCENC =        91.34886789
  Ewald energy   TEWEN  =    120318.75739763
  -Hartree energ DENC   =   -131318.98295357
  -exchange      EXHF   =         0.00000000
  -V(xc)+E(xc)   XCENC  =      1280.01008969
  PAW double counting   =     41419.49095487   -41483.67664460
  entropy T*S    EENTRO =        -0.07270471
  eigenvalues    EBANDS =     -4673.50165140
  atomic energy  EATOM  =     13537.65479391
  Solvation  Ediel_sol  =         0.00000000
  ---------------------------------------------------
  free energy    TOTEN  =      -828.97185029 eV

  energy without entropy =     -828.89914558  energy(sigma->0) =     -828.93549794


--------------------------------------------------------------------------------------------------------




--------------------------------------- Iteration      1(  13)  ---------------------------------------


    POTLOK:  cpu time      0.3224: real time      0.3224
    SETDIJ:  cpu time      0.0404: real time      0.0404
     EDDAV:  cpu time     10.1143: real time     10.1190
       DOS:  cpu time      0.0007: real time      0.0008
    CHARGE:  cpu time      1.1530: real time      1.1543
    MIXING:  cpu time      0.3127: real time      0.3134
    --------------------------------------------
      LOOP:  cpu time     11.9435: real time     11.9503

 eigenvalue-minimisations  :  1560
 total energy-change (2. order) :-0.1115960E-01  (-0.9224074E-03)
 number of electron     368.0000007 magnetization 
 augmentation part        9.1516591 magnetization 

 Broyden mixing:
  rms(total) = 0.95485E-02    rms(broyden)= 0.95461E-02
  rms(prec ) = 0.13254E-01
  weight for this iteration     100.00

 eigenvalues of (default mixing * dielectric matrix)
  average eigenvalue GAMMA=   2.0704
  5.3207  2.4869  2.4869  1.7903  1.1952  1.1952  1.2083  0.8801

 Free energy of the ion-electron system (eV)
  ---------------------------------------------------
  alpha Z        PSCENC =        91.34886789
  Ewald energy   TEWEN  =    120318.75739763
  -Hartree energ DENC   =   -131368.88159025
  -exchange      EXHF   =         0.00000000
  -V(xc)+E(xc)   XCENC  =      1280.23057553
  PAW double counting   =     41403.88894367   -41468.06356531
  entropy T*S    EENTRO =        -0.07272047
  eigenvalues    EBANDS =     -4623.84571249
  atomic energy  EATOM  =     13537.65479391
  Solvation  Ediel_sol  =         0.00000000
  ---------------------------------------------------
  free energy    TOTEN  =      -828.98300990 eV

  energy without entropy =     -828.91028943  energy(sigma->0) =     -828.94664966


--------------------------------------------------------------------------------------------------------




--------------------------------------- Iteration      1(  14)  ---------------------------------------


    POTLOK:  cpu time      0.3223: real time      0.3223
    SETDIJ:  cpu time      0.0403: real time      0.0403
     EDDAV:  cpu time     10.1659: real time     10.1697
       DOS:  cpu time      0.0008: real time      0.0008
    CHARGE:  cpu time      1.1538: real time      1.1564
    MIXING:  cpu time      0.3219: real time      0.3220
    --------------------------------------------
      LOOP:  cpu time     12.0049: real time     12.0114

 eigenvalue-minimisations  :  1568
 total energy-change (2. order) :-0.1733819E-01  (-0.1506144E-03)
 number of electron     368.0000007 magnetization 
 augmentation part        9.1507226 magnetization 

 Broyden mixing:
  rms(total) = 0.63670E-02    rms(broyden)= 0.63665E-02
  rms(prec ) = 0.85315E-02
  weight for this iteration     100.00

 eigenvalues of (default mixing * dielectric matrix)
  average eigenvalue GAMMA=   2.1465
  6.1624  2.6717  2.6717  1.8707  1.4419  1.4419  1.1553  0.9516  0.9516

 Free energy of the ion-electron system (eV)
  ---------------------------------------------------
  alpha Z        PSCENC =        91.34886789
  Ewald energy   TEWEN  =    120318.75739763
  -Hartree energ DENC   =   -131386.27855862
  -exchange      EXHF   =         0.00000000
  -V(xc)+E(xc)   XCENC  =      1280.25540706
  PAW double counting   =     41387.62276067   -41451.81421130
  entropy T*S    EENTRO =        -0.07273974
  eigenvalues    EBANDS =     -4606.47406558
  atomic energy  EATOM  =     13537.65479391
  Solvation  Ediel_sol  =         0.00000000
  ---------------------------------------------------
  free energy    TOTEN  =      -829.00034808 eV

  energy without entropy =     -828.92760834  energy(sigma->0) =     -828.96397821


--------------------------------------------------------------------------------------------------------




--------------------------------------- Iteration      1(  15)  ---------------------------------------


    POTLOK:  cpu time      0.3197: real time      0.3210
    SETDIJ:  cpu time      0.0405: real time      0.0405
     EDDAV:  cpu time     10.2414: real time     10.2462
       DOS:  cpu time      0.0008: real time      0.0007
    CHARGE:  cpu time      1.1534: real time      1.1557
    MIXING:  cpu time      0.3312: real time      0.3313
    --------------------------------------------
      LOOP:  cpu time     12.0869: real time     12.0954

 eigenvalue-minimisations  :  1584
 total energy-change (2. order) :-0.1815178E-01  (-0.1528496E-03)
 number of electron     368.0000007 magnetization 
 augmentation part        9.1505831 magnetization 

 Broyden mixing:
  rms(total) = 0.33558E-02    rms(broyden)= 0.33554E-02
  rms(prec ) = 0.46884E-02
  weight for this iteration     100.00

 eigenvalues of (default mixing * dielectric matrix)
  average eigenvalue GAMMA=   2.2159
  7.0122  3.3558  2.2278  2.2278  1.4083  1.4083  1.2965  1.2965  0.9629  0.9629

 Free energy of the ion-electron system (eV)
  ---------------------------------------------------
  alpha Z        PSCENC =        91.34886789
  Ewald energy   TEWEN  =    120318.75739763
  -Hartree energ DENC   =   -131395.75207409
  -exchange      EXHF   =         0.00000000
  -V(xc)+E(xc)   XCENC  =      1280.22480281
  PAW double counting   =     41391.52872231   -41455.71533860
  entropy T*S    EENTRO =        -0.07272208
  eigenvalues    EBANDS =     -4596.99294965
  atomic energy  EATOM  =     13537.65479391
  Solvation  Ediel_sol  =         0.00000000
  ---------------------------------------------------
  free energy    TOTEN  =      -829.01849987 eV

  energy without entropy =     -828.94577779  energy(sigma->0) =     -828.98213883


--------------------------------------------------------------------------------------------------------




--------------------------------------- Iteration      1(  16)  ---------------------------------------


    POTLOK:  cpu time      0.3224: real time      0.3224
    SETDIJ:  cpu time      0.0400: real time      0.0401
     EDDAV:  cpu time     10.2494: real time     10.2530
       DOS:  cpu time      0.0008: real time      0.0008
    CHARGE:  cpu time      1.1646: real time      1.1674
    MIXING:  cpu time      0.3411: real time      0.3422
    --------------------------------------------
      LOOP:  cpu time     12.1183: real time     12.1257

 eigenvalue-minimisations  :  1584
 total energy-change (2. order) :-0.1003975E-01  (-0.5464703E-04)
 number of electron     368.0000007 magnetization 
 augmentation part        9.1505944 magnetization 

 Broyden mixing:
  rms(total) = 0.23753E-02    rms(broyden)= 0.23752E-02
  rms(prec ) = 0.30281E-02
  weight for this iteration     100.00

 eigenvalues of (default mixing * dielectric matrix)
  average eigenvalue GAMMA=   2.3036
  7.7231  3.8883  2.4055  2.4055  1.8388  1.4867  1.4867  1.0602  1.0602  0.9247
  1.0597

 Free energy of the ion-electron system (eV)
  ---------------------------------------------------
  alpha Z        PSCENC =        91.34886789
  Ewald energy   TEWEN  =    120318.75739763
  -Hartree energ DENC   =   -131400.42828396
  -exchange      EXHF   =         0.00000000
  -V(xc)+E(xc)   XCENC  =      1280.19936364
  PAW double counting   =     41380.75057304   -41444.93590004
  entropy T*S    EENTRO =        -0.07271908
  eigenvalues    EBANDS =     -4592.30263265
  atomic energy  EATOM  =     13537.65479391
  Solvation  Ediel_sol  =         0.00000000
  ---------------------------------------------------
  free energy    TOTEN  =      -829.02853962 eV

  energy without entropy =     -828.95582054  energy(sigma->0) =     -828.99218008


--------------------------------------------------------------------------------------------------------




--------------------------------------- Iteration      1(  17)  ---------------------------------------


    POTLOK:  cpu time      0.3226: real time      0.3226
    SETDIJ:  cpu time      0.0402: real time      0.0402
     EDDAV:  cpu time     10.1164: real time     10.1202
       DOS:  cpu time      0.0007: real time      0.0007
    CHARGE:  cpu time      1.1547: real time      1.1573
    MIXING:  cpu time      0.3497: real time      0.3514
    --------------------------------------------
      LOOP:  cpu time     11.9843: real time     11.9925

 eigenvalue-minimisations  :  1560
 total energy-change (2. order) :-0.6145440E-02  (-0.4283366E-04)
 number of electron     368.0000007 magnetization 
 augmentation part        9.1504005 magnetization 

 Broyden mixing:
  rms(total) = 0.13873E-02    rms(broyden)= 0.13872E-02
  rms(prec ) = 0.17111E-02
  weight for this iteration     100.00

 eigenvalues of (default mixing * dielectric matrix)
  average eigenvalue GAMMA=   2.3377
  8.3392  4.3739  2.2627  2.2627  2.2192  1.4492  1.4492  1.3475  1.3475  0.9660
  1.0178  1.0178

 Free energy of the ion-electron system (eV)
  ---------------------------------------------------
  alpha Z        PSCENC =        91.34886789
  Ewald energy   TEWEN  =    120318.75739763
  -Hartree energ DENC   =   -131403.20131523
  -exchange      EXHF   =         0.00000000
  -V(xc)+E(xc)   XCENC  =      1280.20302513
  PAW double counting   =     41390.05814170   -41454.24169471
  entropy T*S    EENTRO =        -0.07272267
  eigenvalues    EBANDS =     -4589.54117871
  atomic energy  EATOM  =     13537.65479391
  Solvation  Ediel_sol  =         0.00000000
  ---------------------------------------------------
  free energy    TOTEN  =      -829.03468506 eV

  energy without entropy =     -828.96196239  energy(sigma->0) =     -828.99832373


--------------------------------------------------------------------------------------------------------




--------------------------------------- Iteration      1(  18)  ---------------------------------------


    POTLOK:  cpu time      0.3224: real time      0.3224
    SETDIJ:  cpu time      0.0403: real time      0.0403
     EDDAV:  cpu time     10.5638: real time     10.5696
       DOS:  cpu time      0.0007: real time      0.0007
    CHARGE:  cpu time      1.1533: real time      1.1536
    MIXING:  cpu time      0.3595: real time      0.3615
    --------------------------------------------
      LOOP:  cpu time     12.4399: real time     12.4481

 eigenvalue-minimisations  :  1648
 total energy-change (2. order) :-0.2256999E-02  (-0.9057854E-05)
 number of electron     368.0000007 magnetization 
 augmentation part        9.1502721 magnetization 

 Broyden mixing:
  rms(total) = 0.69062E-03    rms(broyden)= 0.69053E-03
  rms(prec ) = 0.90619E-03
  weight for this iteration     100.00

 eigenvalues of (default mixing * dielectric matrix)
  average eigenvalue GAMMA=   2.4160
  8.8553  5.0325  2.9784  2.5415  1.9439  1.5231  1.5231  1.4314  1.4314  0.9756
  0.9756  1.0984  1.0984

 Free energy of the ion-electron system (eV)
  ---------------------------------------------------
  alpha Z        PSCENC =        91.34886789
  Ewald energy   TEWEN  =    120318.75739763
  -Hartree energ DENC   =   -131404.28213484
  -exchange      EXHF   =         0.00000000
  -V(xc)+E(xc)   XCENC  =      1280.20447004
  PAW double counting   =     41390.84966502   -41455.03379861
  entropy T*S    EENTRO =        -0.07273166
  eigenvalues    EBANDS =     -4588.46347143
  atomic energy  EATOM  =     13537.65479391
  Solvation  Ediel_sol  =         0.00000000
  ---------------------------------------------------
  free energy    TOTEN  =      -829.03694206 eV

  energy without entropy =     -828.96421040  energy(sigma->0) =     -829.00057623


--------------------------------------------------------------------------------------------------------




--------------------------------------- Iteration      1(  19)  ---------------------------------------


    POTLOK:  cpu time      0.3221: real time      0.3231
    SETDIJ:  cpu time      0.0403: real time      0.0403
     EDDAV:  cpu time     10.0813: real time     10.0848
       DOS:  cpu time      0.0007: real time      0.0007
    CHARGE:  cpu time      1.1571: real time      1.1571
    MIXING:  cpu time      0.3722: real time      0.3738
    --------------------------------------------
      LOOP:  cpu time     11.9738: real time     11.9799

 eigenvalue-minimisations  :  1552
 total energy-change (2. order) :-0.1454910E-02  (-0.6880142E-05)
 number of electron     368.0000007 magnetization 
 augmentation part        9.1503136 magnetization 

 Broyden mixing:
  rms(total) = 0.45253E-03    rms(broyden)= 0.45250E-03
  rms(prec ) = 0.52808E-03
  weight for this iteration     100.00

 eigenvalues of (default mixing * dielectric matrix)
  average eigenvalue GAMMA=   2.3735
  8.9107  5.3750  3.0404  2.2890  2.2890  1.7996  1.4744  1.4744  1.3084  1.3084
  1.0758  0.9840  0.9840  0.9153

 Free energy of the ion-electron system (eV)
  ---------------------------------------------------
  alpha Z        PSCENC =        91.34886789
  Ewald energy   TEWEN  =    120318.75739763
  -Hartree energ DENC   =   -131404.69630787
  -exchange      EXHF   =         0.00000000
  -V(xc)+E(xc)   XCENC  =      1280.20111226
  PAW double counting   =     41388.22763232   -41452.40959052
  entropy T*S    EENTRO =        -0.07272949
  eigenvalues    EBANDS =     -4588.04957310
  atomic energy  EATOM  =     13537.65479391
  Solvation  Ediel_sol  =         0.00000000
  ---------------------------------------------------
  free energy    TOTEN  =      -829.03839697 eV

  energy without entropy =     -828.96566748  energy(sigma->0) =     -829.00203223


--------------------------------------------------------------------------------------------------------




--------------------------------------- Iteration      1(  20)  ---------------------------------------


    POTLOK:  cpu time      0.3224: real time      0.3225
    SETDIJ:  cpu time      0.0401: real time      0.0401
     EDDAV:  cpu time      9.3272: real time      9.3316
       DOS:  cpu time      0.0007: real time      0.0007
    CHARGE:  cpu time      1.1556: real time      1.1590
    MIXING:  cpu time      0.3881: real time      0.3879
    --------------------------------------------
      LOOP:  cpu time     11.2342: real time     11.2418

 eigenvalue-minimisations  :  1392
 total energy-change (2. order) :-0.2675480E-03  (-0.3486075E-06)
 number of electron     368.0000007 magnetization 
 augmentation part        9.1502905 magnetization 

 Broyden mixing:
  rms(total) = 0.29107E-03    rms(broyden)= 0.29107E-03
  rms(prec ) = 0.34790E-03
  weight for this iteration     100.00

 eigenvalues of (default mixing * dielectric matrix)
  average eigenvalue GAMMA=   2.4409
  9.1945  5.8446  3.5946  2.5769  2.4308  1.9719  1.5643  1.5643  1.4013  1.4013
  1.0559  1.0559  0.9548  1.0010  1.0010

 Free energy of the ion-electron system (eV)
  ---------------------------------------------------
  alpha Z        PSCENC =        91.34886789
  Ewald energy   TEWEN  =    120318.75739763
  -Hartree energ DENC   =   -131404.84135734
  -exchange      EXHF   =         0.00000000
  -V(xc)+E(xc)   XCENC  =      1280.20140096
  PAW double counting   =     41389.45850741   -41453.64088397
  entropy T*S    EENTRO =        -0.07272841
  eigenvalues    EBANDS =     -4587.90466260
  atomic energy  EATOM  =     13537.65479391
  Solvation  Ediel_sol  =         0.00000000
  ---------------------------------------------------
  free energy    TOTEN  =      -829.03866452 eV

  energy without entropy =     -828.96593611  energy(sigma->0) =     -829.00230031


--------------------------------------------------------------------------------------------------------




--------------------------------------- Iteration      1(  21)  ---------------------------------------


    POTLOK:  cpu time      0.3228: real time      0.3229
    SETDIJ:  cpu time      0.0402: real time      0.0402
     EDDAV:  cpu time      8.7029: real time      8.7060
       DOS:  cpu time      0.0007: real time      0.0007
    CHARGE:  cpu time      1.1678: real time      1.1678
    MIXING:  cpu time      0.3987: real time      0.3988
    --------------------------------------------
      LOOP:  cpu time     10.6332: real time     10.6365

 eigenvalue-minimisations  :  1272
 total energy-change (2. order) :-0.3126699E-03  (-0.5363086E-06)
 number of electron     368.0000007 magnetization 
 augmentation part        9.1502978 magnetization 

 Broyden mixing:
  rms(total) = 0.12212E-03    rms(broyden)= 0.12210E-03
  rms(prec ) = 0.14758E-03
  weight for this iteration     100.00

 eigenvalues of (default mixing * dielectric matrix)
  average eigenvalue GAMMA=   2.3830
  9.1791  6.0907  3.7037  2.4986  2.4986  2.0564  1.4970  1.4970  1.3842  1.3842
  1.2409  1.2409  0.9975  0.9975  0.9308  0.9308

 Free energy of the ion-electron system (eV)
  ---------------------------------------------------
  alpha Z        PSCENC =        91.34886789
  Ewald energy   TEWEN  =    120318.75739763
  -Hartree energ DENC   =   -131404.92733231
  -exchange      EXHF   =         0.00000000
  -V(xc)+E(xc)   XCENC  =      1280.19979442
  PAW double counting   =     41388.07437425   -41452.25716503
  entropy T*S    EENTRO =        -0.07272788
  eigenvalues    EBANDS =     -4587.81698007
  atomic energy  EATOM  =     13537.65479391
  Solvation  Ediel_sol  =         0.00000000
  ---------------------------------------------------
  free energy    TOTEN  =      -829.03897719 eV

  energy without entropy =     -828.96624931  energy(sigma->0) =     -829.00261325


[...]
   0.268E+02 -.568E+01 -.173E+03   -.266E+02 0.555E+01 0.174E+03   0.713E+00 -.417E+00 -.155E+01   -.375E-05 -.488E-06 -.498E-06
   0.315E+01 -.473E+01 -.599E+02   -.299E+01 0.381E+01 0.594E+02   -.797E+00 -.291E+00 0.435E+00   0.671E-06 -.182E-05 -.101E-05
   0.148E+02 0.841E+01 -.132E+03   -.157E+02 -.808E+01 0.132E+03   -.783E+00 0.348E+00 0.149E+01   0.237E-05 -.299E-06 -.119E-05
   -.640E+01 0.656E+01 -.122E+03   0.718E+01 -.684E+01 0.123E+03   0.288E+00 -.967E+00 -.472E+00   0.481E-05 -.272E-05 -.154E-05
   -.728E+00 -.107E+02 -.190E+03   0.156E+01 0.111E+02 0.191E+03   0.334E+00 -.665E+00 -.174E+01   0.485E-05 0.141E-05 -.188E-05
   -.964E+00 -.198E+02 -.869E+02   0.276E+00 0.204E+02 0.862E+02   0.513E+00 0.558E+00 0.166E+01   0.276E-05 -.557E-06 -.281E-05
   -.938E+01 0.248E+02 -.156E+03   0.955E+01 -.264E+02 0.156E+03   -.330E+00 -.447E+00 0.671E+00   0.245E-05 0.400E-05 -.229E-05
   -.112E+02 -.254E+01 -.122E+03   0.109E+02 0.418E+01 0.122E+03   0.165E+00 0.185E+01 -.450E+00   0.237E-05 -.306E-05 -.287E-05
   -.113E+02 0.274E+01 -.157E+03   0.105E+02 -.423E+01 0.157E+03   -.692E+00 -.156E+00 -.670E+00   0.273E-05 0.152E-05 -.267E-05
   -.169E+02 -.522E+01 -.818E+02   0.172E+02 0.381E+01 0.813E+02   0.108E+00 -.959E+00 0.389E+00   0.321E-05 -.103E-05 -.177E-05
   -.256E+02 0.187E+02 -.124E+03   0.265E+02 -.195E+02 0.123E+03   0.117E+01 -.915E+00 0.868E+00   0.421E-05 0.206E-05 -.206E-05
   -.272E+02 0.133E+02 -.803E+02   0.278E+02 -.133E+02 0.801E+02   -.416E-01 -.183E+00 -.481E+00   -.114E-05 0.917E-06 0.644E-07
   -.239E+02 -.735E+01 -.135E+03   0.228E+02 0.745E+01 0.136E+03   -.386E+00 -.230E+00 -.139E+01   0.682E-06 -.208E-06 -.181E-05
   0.570E+01 -.193E+02 0.179E+02   -.559E+01 0.198E+02 -.179E+02   0.509E-01 0.542E+00 -.559E+00   -.407E-05 0.498E-07 0.997E-06
   -.171E+02 0.151E+02 -.547E+02   0.174E+02 -.153E+02 0.541E+02   0.113E+01 0.661E+00 0.157E+01   -.430E-05 -.999E-06 0.217E-05
   0.343E+02 -.122E+01 0.917E+02   -.351E+02 0.242E+01 -.915E+02   0.328E+00 0.100E+01 0.197E+01   -.507E-06 -.111E-05 0.392E-08
   -.997E+01 0.312E+01 -.462E+02   0.971E+01 -.476E+01 0.468E+02   -.675E+00 -.506E-01 -.176E+01   -.305E-05 0.127E-05 0.432E-06
   0.197E+02 -.153E+02 0.141E+03   -.186E+02 0.150E+02 -.141E+03   -.335E+00 -.639E+00 0.433E-01   -.182E-05 -.242E-05 -.151E-06
   0.693E+00 0.126E+02 -.332E+01   -.339E+00 -.121E+02 0.303E+01   0.409E+00 0.924E+00 0.824E+00   0.403E-05 0.787E-05 -.212E-07
   0.360E+02 0.396E+01 0.999E+02   -.379E+02 -.343E+01 -.994E+02   -.110E+01 -.669E+00 0.442E+00   0.141E-05 0.380E-05 0.124E-05
   0.894E+01 0.187E+01 -.120E+02   -.106E+02 -.281E+01 0.128E+02   -.189E+01 -.138E+01 -.109E+01   0.243E-05 0.203E-05 -.589E-07
   0.200E+01 -.450E+01 0.134E+03   -.200E+00 0.386E+01 -.135E+03   0.164E+01 0.162E-02 0.287E+00   -.384E-05 0.184E-05 0.212E-05
   -.185E+02 0.234E+01 0.153E+02   0.208E+02 -.211E+01 -.156E+02   -.275E+00 0.231E+00 0.511E+00   -.550E-05 -.217E-05 0.229E-05
   0.155E+02 0.252E+02 0.997E+02   -.169E+02 -.272E+02 -.997E+02   -.278E+00 -.784E-01 -.391E+00   -.859E-06 0.281E-05 0.227E-05
   0.256E+01 -.148E+02 0.557E+01   -.279E+01 0.163E+02 -.500E+01   -.107E+01 0.134E+01 -.584E+00   0.265E-05 0.394E-05 0.156E-05
   -.379E+01 0.994E+00 0.194E+03   0.418E+01 -.126E+01 -.195E+03   0.962E+00 -.138E+00 0.182E+01   0.222E-05 0.321E-05 0.358E-05
   -.687E+01 -.132E+02 0.167E+02   0.602E+01 0.138E+02 -.161E+02   -.303E+00 -.530E+00 -.515E+00   0.561E-05 -.534E-06 0.722E-06
   -.722E+01 0.710E+02 0.131E+03   0.218E+01 -.735E+02 -.131E+03   0.121E+01 0.137E+01 -.465E+00   0.113E-04 0.145E-04 0.630E-05
   -.104E+02 -.637E+02 0.696E+02   0.748E+01 0.660E+02 -.701E+02   0.129E+01 -.169E+01 0.545E+00   0.563E-05 -.522E-05 0.324E-05
   -.212E+02 0.678E+02 0.154E+03   0.257E+02 -.703E+02 -.155E+03   -.556E+00 0.165E+01 0.132E+01   0.411E-05 0.165E-05 0.358E-05
   -.232E+02 -.551E+02 0.237E+03   0.261E+02 0.564E+02 -.237E+03   -.169E+01 -.132E+01 0.753E+00   0.698E-05 -.243E-06 0.430E-05
   0.149E+02 -.718E+01 0.210E+02   -.156E+02 0.768E+01 -.203E+02   0.475E-01 -.771E+00 -.107E+01   0.117E-05 -.324E-05 0.150E-05
   -.295E+02 0.530E+00 0.182E+03   0.308E+02 -.975E+00 -.182E+03   0.105E+01 -.252E+01 0.734E+00   -.164E-05 0.528E-05 0.173E-05
   -.201E+02 0.104E+02 0.595E+02   0.206E+02 -.107E+02 -.600E+02   -.484E+00 0.891E-01 0.860E+00   -.377E-05 -.429E-05 -.873E-07
   -.177E+02 -.121E+02 0.145E+03   0.166E+02 0.126E+02 -.146E+03   0.105E+01 -.196E+00 0.135E+01   -.254E-05 0.230E-05 -.932E-06
   0.250E+02 -.276E+02 -.505E+02   -.251E+02 0.297E+02 0.512E+02   0.906E+00 0.108E+01 -.158E+01   0.345E-05 -.662E-05 0.138E-05
   -.551E+01 0.962E+01 0.554E+02   0.557E+01 -.901E+01 -.555E+02   0.120E+01 0.140E+01 -.683E+00   0.212E-05 0.250E-05 0.195E-07
   0.429E+01 -.393E+01 -.669E+01   -.446E+01 0.476E+01 0.603E+01   0.145E+00 0.511E+00 0.769E+00   0.165E-05 -.391E-05 0.149E-05
   -.107E+02 -.287E+01 0.682E+02   0.106E+02 0.171E+01 -.685E+02   -.634E+00 -.117E+01 0.963E+00   0.188E-05 0.302E-06 0.921E-06
   0.163E+02 -.218E+02 -.844E+02   -.168E+02 0.229E+02 0.850E+02   0.752E+00 0.909E+00 -.148E+01   -.469E-05 -.588E-05 0.146E-06
   -.976E+01 0.100E+02 0.552E+02   0.101E+02 -.985E+01 -.552E+02   -.703E+00 0.507E+00 -.586E+00   -.567E-05 0.422E-06 -.383E-06
   0.962E+01 0.877E+01 -.112E+02   -.960E+01 -.943E+01 0.111E+02   0.121E+01 0.343E+00 0.623E+00   -.504E-05 -.375E-05 0.515E-06
   -.137E+02 -.976E+01 0.608E+02   0.140E+02 0.104E+02 -.607E+02   -.804E+00 0.516E+00 -.661E+00   -.581E-05 -.121E-05 -.593E-07
   0.374E+01 -.141E+02 -.510E+02   -.337E+01 0.148E+02 0.508E+02   -.316E+00 -.173E+00 0.152E+01   -.529E-05 -.237E-05 -.249E-06
   -.102E+02 0.294E+01 0.124E+03   0.928E+01 -.208E+01 -.125E+03   -.106E+01 0.435E-01 0.242E+01   0.202E-05 -.191E-06 0.713E-06
   0.316E+02 0.746E+01 -.130E+03   -.331E+02 -.747E+01 0.130E+03   -.735E-02 -.553E+00 -.202E+01   -.119E-05 0.430E-05 -.860E-06
   0.467E+01 -.221E+01 -.837E+01   -.497E+01 0.155E+01 0.836E+01   0.813E+00 -.730E+00 0.374E+00   0.860E-06 -.975E-07 0.257E-06
   0.111E+02 -.378E+01 -.145E+03   -.993E+01 0.339E+01 0.145E+03   0.689E+00 -.433E+00 0.455E+00   0.425E-06 0.261E-05 -.157E-05
   0.669E+01 -.156E+01 -.567E+02   -.698E+01 0.315E+01 0.564E+02   0.634E+00 0.154E+01 -.464E-01   0.931E-07 -.284E-05 -.139E-05
   -.772E+00 0.213E+02 -.176E+03   0.810E+00 -.227E+02 0.176E+03   -.242E-01 -.824E+00 -.792E+00   0.433E-05 0.143E-05 -.275E-05
   -.433E+01 -.134E+02 -.119E+03   0.541E+01 0.135E+02 0.119E+03   0.852E+00 -.360E+00 0.933E+00   0.152E-05 0.194E-05 -.226E-05
   0.405E+01 -.147E+02 -.169E+03   -.535E+01 0.156E+02 0.169E+03   0.505E-02 0.466E+00 -.277E+00   0.531E-05 -.169E-05 -.337E-05
   -.124E+02 0.154E+02 -.173E+03   0.128E+02 -.160E+02 0.174E+03   0.383E+00 0.909E-01 -.154E+01   0.100E-06 0.201E-05 -.350E-05
   -.257E+02 0.168E+02 -.145E+03   0.274E+02 -.169E+02 0.144E+03   0.129E+01 0.607E+00 0.547E+00   0.155E-05 -.130E-05 -.308E-05
   -.179E+02 -.209E+02 -.168E+03   0.176E+02 0.211E+02 0.168E+03   -.517E+00 0.172E+00 -.973E+00   0.471E-05 -.224E-05 -.413E-05
   -.197E+02 -.166E+02 -.153E+03   0.185E+02 0.175E+02 0.154E+03   -.194E+01 -.624E+00 -.112E+01   0.318E-05 0.884E-06 -.382E-05
   -.414E+01 -.202E+01 -.772E+02   0.245E+01 0.396E+01 0.776E+02   -.965E+00 0.137E+01 0.400E+00   0.717E-05 -.253E-05 -.446E-05
   -.204E+02 0.139E+02 -.523E+02   0.214E+02 -.147E+02 0.516E+02   -.879E-01 -.327E+00 0.139E+01   -.475E-05 0.762E-05 0.503E-07
   -.964E+01 -.134E+02 0.985E+01   0.116E+02 0.137E+02 -.109E+02   0.110E+01 -.253E+00 0.732E-01   -.347E-05 -.394E-05 0.988E-06
   -.321E+02 -.183E+02 -.945E+02   0.330E+02 0.191E+02 0.952E+02   -.648E+00 0.588E+00 -.232E+01   -.249E-05 -.151E-05 -.419E-06
   0.205E+02 0.153E+02 0.690E+02   -.208E+02 -.158E+02 -.694E+02   -.402E-01 0.295E+00 0.655E+00   -.540E-05 -.157E-05 0.210E-05
   0.180E+02 0.110E+02 0.844E+01   -.195E+02 -.118E+02 -.811E+01   -.388E+00 0.456E+00 0.662E+00   0.654E-05 0.217E-05 -.261E-05
   0.276E+02 -.118E+02 0.973E+02   -.280E+02 0.124E+02 -.973E+02   -.547E+00 0.517E+00 -.816E-01   0.219E-05 -.578E-05 -.562E-06
   -.215E+01 -.265E+01 0.162E+02   0.289E+01 0.169E+01 -.161E+02   -.808E-01 -.369E+00 0.963E-01   0.685E-06 0.190E-05 0.497E-06
   0.405E+02 0.560E+01 0.164E+03   -.405E+02 -.474E+01 -.164E+03   0.613E+00 0.339E+00 0.623E+00   0.886E-06 -.260E-05 0.196E-07
   0.645E+01 0.418E+01 0.414E+02   -.666E+01 -.433E+01 -.413E+02   0.208E+00 -.115E+01 -.585E+00   -.767E-05 -.371E-07 0.193E-05
   0.238E+02 -.102E+02 0.147E+03   -.242E+02 0.105E+02 -.147E+03   -.340E-02 -.830E+00 0.104E+01   -.468E-05 -.404E-05 0.233E-05
   -.602E+01 -.141E+02 0.454E+02   0.706E+01 0.152E+02 -.453E+02   0.124E+01 0.154E+00 -.366E+00   -.343E-05 -.194E-05 0.166E-05
   0.103E+02 0.820E+01 0.130E+03   -.102E+02 -.766E+01 -.130E+03   -.432E+00 0.918E+00 -.435E+00   -.172E-05 -.208E-05 0.150E-05
   0.134E+02 0.140E+02 0.103E+03   -.148E+02 -.145E+02 -.103E+03   -.511E-02 -.703E+00 0.529E+00   0.507E-05 -.175E-05 0.101E-05
   0.251E+01 -.162E+02 0.132E+03   -.171E+01 0.167E+02 -.132E+03   -.552E+00 -.519E+00 -.547E+00   -.310E-07 -.180E-05 0.185E-05
   -.442E+01 -.168E+01 0.917E+02   0.423E+01 0.171E+01 -.914E+02   0.149E+01 0.913E-01 0.219E+00   -.565E-06 -.266E-05 0.223E-05
   -.231E+01 0.293E+01 0.203E+03   0.227E+01 -.301E+01 -.204E+03   -.337E+00 -.319E+00 0.787E+00   -.330E-05 -.286E-05 0.332E-05
   -.613E+01 0.614E+02 0.139E+03   0.248E+01 -.626E+02 -.139E+03   0.129E+01 0.242E+01 0.940E-01   -.202E-05 -.214E-05 0.334E-05
   -.911E+01 -.604E+02 0.217E+03   0.543E+01 0.619E+02 -.218E+03   0.232E+00 -.139E+01 0.654E+00   0.302E-05 -.426E-05 0.401E-05
 -----------------------------------------------------------------------------------------------
   -.250E+00 0.446E+00 -.281E+01   0.403E-12 -.469E-12 -.341E-12   0.191E+00 -.464E+00 0.283E+01   -.605E-05 0.247E-05 0.155E-04
 
 
 POSITION                                       TOTAL-FORCE (eV/Angst)
 -----------------------------------------------------------------------------------
      3.65838      2.18628      8.35706         3.281825      1.389387      0.797321
      3.65737      3.55351      8.51876         2.446390      0.100070      1.019490
      4.85164      1.55876      8.58116         0.213007     -0.580584     -1.271411
      4.76729      4.24660      8.93976        -0.777199      0.277283     -0.553915
      6.06872      2.17598      8.93283        -0.896521      2.764463      1.433292
      5.95652      3.60014      9.19108         2.609763     -4.021782      0.023558
      7.29217      1.50263      9.19987        -1.704396     -1.291204     -1.113058
      7.22035      4.18875      9.53684        -2.931909     -0.719674     -0.030529
      8.47194      2.12902      9.54990         0.128675      1.512811      0.495099
      8.38885      3.50589      9.80507         1.128219     -1.365859     -0.472672
      9.72171      1.50513      9.62803         1.500283     -0.125399      0.272631
      9.60183      4.15222     10.05850         0.362624      0.016124      0.541791
     10.96670      2.18630      9.94490        -1.933635      0.251949      0.434081
     10.85850      3.53755     10.23890        -0.125718     -1.086004      0.127863
     12.18490      1.54891     10.15140         0.296487     -1.511072     -0.676404
     12.02070      4.21771     10.63570         1.020462     -0.311973     -0.122973
     13.34280      2.19376     10.64960        -1.040019      0.834222      0.002313
     13.25120      3.55987     10.92410         0.864815     -0.546666     -1.025117
     14.57110      1.54854     10.80050        -0.638828     -1.212324     -0.008004
     14.51410      4.22806     11.06930        -1.731621      0.674194      1.081272
     15.75660      2.22622     11.06190         1.062647     -1.248283     -0.125044
     15.74070      3.58256     11.24090         1.167615     -0.249400     -1.027659
     17.00160      1.50423     11.00690        -0.175053      1.120299      0.967703
     17.02400      4.22740     11.20910        -0.153484     -1.996667      0.481438
     18.26520      2.11479     10.95970        -0.114691      3.489631      0.125852
     18.28930      3.54907     11.07440        -1.449619     -1.646672     -0.340538
     19.47220      1.50295     10.65890         0.452847     -2.368273     -0.068083
     19.49070      4.21661     10.83390         2.130259     -1.706056      0.402060
     20.68700      2.14933     10.37160         0.478274     -0.111728     -0.633600
     20.73810      3.51645     10.52290        -1.477310     -0.131530     -0.567505
     21.80600      1.46832      9.75624         0.166113      1.003937     -0.498134
     21.89080      4.16065     10.06340         1.476493      0.472331      0.934308
     22.98830      2.14069      9.27583        -0.536496      2.197463      2.199833
     23.09220      3.52137      9.62865        -0.926452     -1.688834     -1.203339
     24.15760      1.55063      8.81116         0.770981     -0.970698     -0.391191
     24.27460      4.18990      9.26679         0.763222      1.401393      0.536017
     25.45130      2.23296      8.66878        -2.982602     -0.141421      0.968338
     25.53330      3.59173      8.96934        -3.510392     -2.316605     -0.296525
     26.58300      1.55456      8.38517         3.441239     -0.640118     -0.612317
     26.69560      4.23506      8.75943         2.022041      0.464919      0.259401
     27.89190      2.22016      8.33045        -1.696071     -2.062047     -0.364972
     27.93870      3.52382      8.58749        -1.299375      2.904981     -0.021499
      1.04288      1.57272      8.01817         1.351764     -0.405921      0.586932
      1.09317      4.23825      8.49155        -1.157878      0.108495      0.062293
      2.25659      2.22255      8.20216        -3.823311     -1.204163     -0.913866
      2.25099      3.56577      8.38789        -1.637186      0.673615     -0.039240
      3.65588      6.25317      8.19473         3.972108     -0.779365      0.845183
      3.71747      7.61941      7.96955         1.212018      0.006622     -0.079091
      4.78213      5.61744      8.73118        -0.686371     -0.268368     -0.390382
      4.84087      0.23587      8.26657         2.420837     -2.968736      0.670694
      6.03347      6.23096      8.87138         0.009715     -0.157542      0.449261
      6.06541      7.58763      8.62243        -0.010394      0.339840      0.486860
      7.18343      5.52894      9.42665         0.818315      3.186066     -0.940370
      7.25852      0.10239      9.06042         1.267545      1.999349     -0.721623
      8.43436      6.18157      9.56912        -0.028119      1.350183      0.102861
      8.51084      7.58162      9.33234        -0.759259     -2.338265      0.659047
      9.60454      5.51025      9.99998         0.229866      2.009891     -0.836783
      9.74996      0.12038      9.57403        -0.352056      0.691464     -0.666000
     10.85100      6.19883     10.05610         1.222149     -0.318817      0.476698
     10.97270      7.54377      9.82200        -0.496460      1.196357     -0.602631
     12.06450      5.57436     10.44730         0.053824      0.512563      1.348668
     12.22520      0.14710      9.95035        -1.964818      0.908958      1.051290
     13.27990      6.27423     10.78150        -1.455824     -0.558181     -1.720166
     13.33630      7.61871     10.46590         0.519437     -1.389946      0.363477
     14.47050      5.61880     11.05860         1.811257     -0.814764      0.769405
     14.53440      0.13807     10.76710         0.339111      3.123873     -0.381856
     15.73500      6.27469     11.20910         0.014972     -2.161571     -0.500273
     15.72160      7.61503     11.05570         1.926873     -0.287101      0.906408
     17.00940      5.57020     11.22850        -1.292601      1.339931      0.152244
     16.98550      0.15792     11.16130         0.780557     -0.544602     -1.124851
     18.22820      6.20692     11.07380         2.913008      0.495215     -0.131377
     18.26280      7.57179     11.06200        -0.813636      0.450822     -0.701020
     19.54960      5.57244     10.84120        -3.116761      0.288508     -0.024775
     19.48020      0.07614     10.62330        -2.653559      3.308823      0.815476
     20.68060      6.21058     10.33980         0.844878     -1.126142      0.703996
     20.58820      7.55119     10.16990         3.099407      0.065003     -0.981284
     21.91130      5.53315     10.09070         0.244896      1.363570     -1.660950
     21.76870      0.10639      9.63746        -0.343146     -0.206185      0.270643
     23.05540      6.20833      9.47897        -1.953349     -0.298289      0.991553
     22.97590      7.54908      9.22224        -0.951013      1.130393     -0.005513
     24.24800      5.58709      9.19937         0.652069     -1.329154      0.265756
     24.12310      0.14550      8.74062         0.638262      1.198826      0.199605
     25.41730      6.28331      8.82768        -0.001096     -1.298856     -0.553101
     25.38160      7.62463      8.54162        -0.394808     -0.523707      0.583718
     26.62420      5.60053      8.66422         2.291118      1.223169     -0.309572
     26.61540      0.16541      8.34181        -0.345799      1.453384     -0.696248
     27.86860      6.28606      8.32979        -1.438076     -1.223632      0.567395
     27.86920      7.63953      8.18850         0.245536     -0.062821     -0.648640
      1.03107      5.59842      8.29515         1.300356      0.122759      0.494105
      1.07163      0.19574      7.92697        -0.377820     -0.401780      0.128788
      2.24068      6.23248      8.10914        -2.362391      1.235333     -0.646389
      2.28006      7.61021      7.89058        -3.447036      0.060309     -0.355528
 -----------------------------------------------------------------------------------
    total drift:                               -0.058962     -0.017457      0.018199


--------------------------------------------------------------------------------------------------------



  FREE ENERGIE OF THE ION-ELECTRON SYSTEM (eV)
  ---------------------------------------------------
  free  energy   TOTEN  =      -829.03910633 eV

  energy  without entropy=     -828.96637786  energy(sigma->0) =     -829.00274209
 


--------------------------------------------------------------------------------------------------------


    POTLOK:  cpu time      0.4568: real time      0.4567


--------------------------------------------------------------------------------------------------------


     LOOP+:  cpu time    333.7483: real time    333.9581
    4ORBIT:  cpu time      0.0000: real time      0.0000

 total amount of memory used by VASP MPI-rank0  2294513. kBytes
=======================================================================

   base                                    :      30000. kBytes
   nonlr-proj                              :      15079. kBytes
   fftplans                                :     436558. kBytes
   grid                                    :     732614. kBytes
   one-center                              :        282. kBytes
   wavefun                                 :    1079980. kBytes
 
  
  
 General timing and accounting informations for this job:
 ========================================================
  
                  Total CPU time used (sec):      366.933
                            User time (sec):      358.580
                          System time (sec):        8.352
                         Elapsed time (sec):      367.241
  
                   Maximum memory used (kb):     3732608.
                   Average memory used (kb):          N/A
  
                          Minor page faults:      3178690
                          Major page faults:         6769
                 Voluntary context switches:         9725
