<?xml version="1.0" encoding="ISO-8859-1"?>
<modeling>
 <generator>
  <i name="program" type="string">vasp </i>
  <i name="version" type="string">6.5.0  </i>
  <i name="subversion" type="string">16Dec24 (build Feb 19 2025 19:45:31) complex                          parallel </i>
  <i name="platform" type="string">LinuxNV </i>
  <i name="date" type="string">2025 10 25 </i>
  <i name="time" type="string">14:00:51 </i>
 </generator>
 <incar>
  <i type="int" name="ISTART">     0</i>
  <i type="string" name="PREC">Accurate   (Precision level)</i>
  <i type="string" name="ALGO">Normal</i>
  <i type="int" name="ISPIN">     1</i>
  <i type="int" name="ICHARG">     2</i>
  <i type="int" name="NELM">   150</i>
  <i type="int" name="IBRION">    -1</i>
  <i name="EDIFF">      0.00000100</i>
  <i type="int" name="NSW">     0</i>
  <i name="ENCUT">    500.00000000</i>
  <i type="string" name="LREAL">Auto         (Projection operators: automatic)</i>
  <i type="int" name="ISMEAR">     0</i>
  <i type="logical" name="KGAMMA"> T  </i>
  <i type="logical" name="LWAVE"> F  </i>
  <i type="logical" name="LCHARG"> F  </i>
 </incar>
 <primitive_cell>
  <structure name="primitive_cell" >
   <crystal>
    <varray name="basis" >
     <v>      28.05000000       0.00000000       0.00000000 </v>
     <v>       0.00000000       8.10000000       0.00000000 </v>
     <v>       0.00000000       0.00000000      33.50000000 </v>
    </varray>
    <i name="volume">   7611.36750000 </i>
    <varray name="rec_basis" >
     <v>       0.03565062       0.00000000       0.00000000 </v>
     <v>       0.00000000       0.12345679       0.00000000 </v>
     <v>       0.00000000       0.00000000       0.02985075 </v>
    </varray>
   </crystal>
   <varray name="positions" >
    <v>       0.00351262       0.10462049       0.51027761 </v>
    <v>       0.00611337       0.27417654       0.50370149 </v>
    <v>       0.04385098       0.01846630       0.52277015 </v>
    <v>       0.04795651       0.35375679       0.51059403 </v>
    <v>       0.08809055       0.09934593       0.53225373 </v>
    <v>       0.09040143       0.26963704       0.52597313 </v>
    <v>       0.13180214       0.01919469       0.53707164 </v>
    <v>       0.13544706       0.34602963       0.52840000 </v>
    <v>       0.17687558       0.10155136       0.54166866 </v>
    <v>       0.17934260       0.27069630       0.53721194 </v>
    <v>       0.22181355       0.01855605       0.54410149 </v>
    <v>       0.22283957       0.35242346       0.53842090 </v>
    <v>       0.26577683       0.09735037       0.54785075 </v>
    <v>       0.26641889       0.26785802       0.54591343 </v>
    <v>       0.31267986       0.01752358       0.54457015 </v>
    <v>       0.31130695       0.34877037       0.54060597 </v>
    <v>       0.35514439       0.09852704       0.54026866 </v>
    <v>       0.35521176       0.27202716       0.53885373 </v>
    <v>       0.40079501       0.02048309       0.53485970 </v>
    <v>       0.39993583       0.35246914       0.53031940 </v>
    <v>       0.44568271       0.10755765       0.52692836 </v>
    <v>       0.44355080       0.27629877       0.52162687 </v>
    <v>       0.48683066       0.02779210       0.51540597 </v>
    <v>       0.48378253       0.35340617       0.50454925 </v>
    <v>       0.52961497       0.11010667       0.50363582 </v>
    <v>       0.52731194       0.27319506       0.49697910 </v>
    <v>       0.57221390       0.02029802       0.49161493 </v>
    <v>       0.56954367       0.35891358       0.47945970 </v>
    <v>       0.61377184       0.10146630       0.48261493 </v>
    <v>       0.61093761       0.27590123       0.47057612 </v>
    <v>       0.65611408       0.02310691       0.47619403 </v>
    <v>       0.65188235       0.35052346       0.45960299 </v>
    <v>       0.69824955       0.10874407       0.46682985 </v>
    <v>       0.69687701       0.26967901       0.45833731 </v>
    <v>       0.74087344       0.02129790       0.46310149 </v>
    <v>       0.73956150       0.35035926       0.44982985 </v>
    <v>       0.78351159       0.10999333       0.46136418 </v>
    <v>       0.78619964       0.27027654       0.45368657 </v>
    <v>       0.82765775       0.02254519       0.46796119 </v>
    <v>       0.82988948       0.35633457       0.45544179 </v>
    <v>       0.87182175       0.10927778       0.47359701 </v>
    <v>       0.87288057       0.28285556       0.46928657 </v>
    <v>       0.91130481       0.03071160       0.48905672 </v>
    <v>       0.91739037       0.35880000       0.47701194 </v>
    <v>       0.95346524       0.11136086       0.49874030 </v>
    <v>       0.95530481       0.28074938       0.49311642 </v>
    <v>       0.00492385       0.60615556       0.50032537 </v>
    <v>       0.00523483       0.77765309       0.50652537 </v>
    <v>       0.04862602       0.51919877       0.50637612 </v>
    <v>       0.04695009       0.85409136       0.51713433 </v>
    <v>       0.09210374       0.59920370       0.51293433 </v>
    <v>       0.09062816       0.76773333       0.51741194 </v>
    <v>       0.13521640       0.51550617       0.52023881 </v>
    <v>       0.13476898       0.85391235       0.52702090 </v>
    <v>       0.17838538       0.60022222       0.52076418 </v>
    <v>       0.17867415       0.77481481       0.52466866 </v>
    <v>       0.22327986       0.51445062       0.52651940 </v>
    <v>       0.22195365       0.85249136       0.53547463 </v>
    <v>       0.26711301       0.59769259       0.52671343 </v>
    <v>       0.26717825       0.76830864       0.53168060 </v>
    <v>       0.30984599       0.52222099       0.53211343 </v>
    <v>       0.31199323       0.84951975       0.53846866 </v>
    <v>       0.35475971       0.60648395       0.52692537 </v>
    <v>       0.35455223       0.77317407       0.52818209 </v>
    <v>       0.39908021       0.52286543       0.52463582 </v>
    <v>       0.39958289       0.85524815       0.52446269 </v>
    <v>       0.44058467       0.60754691       0.51343881 </v>
    <v>       0.44233155       0.77480000       0.51699104 </v>
    <v>       0.48151872       0.51977037       0.50201791 </v>
    <v>       0.48596078       0.85416420       0.51087463 </v>
    <v>       0.52400000       0.60675062       0.48999104 </v>
    <v>       0.52676292       0.77444568       0.49684478 </v>
    <v>       0.56673797       0.52580123       0.47806866 </v>
    <v>       0.56958289       0.85113951       0.48929552 </v>
    <v>       0.60985740       0.60324815       0.46722090 </v>
    <v>       0.61109804       0.77115926       0.47381194 </v>
    <v>       0.65110160       0.51690370       0.45880896 </v>
    <v>       0.65494474       0.85691605       0.46841493 </v>
    <v>       0.69528342       0.60061975       0.45076119 </v>
    <v>       0.69593939       0.77055556       0.45709851 </v>
    <v>       0.73982175       0.52022716       0.44960000 </v>
    <v>       0.74038503       0.85098148       0.46048955 </v>
    <v>       0.78383957       0.60275309       0.45544478 </v>
    <v>       0.78490553       0.77223951       0.45973134 </v>
    <v>       0.82839929       0.52845679       0.45501194 </v>
    <v>       0.82767914       0.85874444       0.46434925 </v>
    <v>       0.87436720       0.61120988       0.46119701 </v>
    <v>       0.87295900       0.77625556       0.47158507 </v>
    <v>       0.91670945       0.52537778       0.47184478 </v>
    <v>       0.91393583       0.85996420       0.48496418 </v>
    <v>       0.95741533       0.60735679       0.48722687 </v>
    <v>       0.95516221       0.77764568       0.49408955 </v>
   </varray>
  </structure>
  <varray name="primitive_index" >
   <v type="int" >        1 </v>
   <v type="int" >        2 </v>
   <v type="int" >        3 </v>
   <v type="int" >        4 </v>
   <v type="int" >        5 </v>
   <v type="int" >        6 </v>
   <v type="int" >        7 </v>
   <v type="int" >        8 </v>
   <v type="int" >        9 </v>
   <v type="int" >       10 </v>
   <v type="int" >       11 </v>
   <v type="int" >       12 </v>
   <v type="int" >       13 </v>
   <v type="int" >       14 </v>
   <v type="int" >       15 </v>
   <v type="int" >       16 </v>
   <v type="int" >       17 </v>
   <v type="int" >       18 </v>
   <v type="int" >       19 </v>
   <v type="int" >       20 </v>
   <v type="int" >       21 </v>
   <v type="int" >       22 </v>
   <v type="int" >       23 </v>
   <v type="int" >       24 </v>
   <v type="int" >       25 </v>
   <v type="int" >       26 </v>
   <v type="int" >       27 </v>
   <v type="int" >       28 </v>
   <v type="int" >       29 </v>
   <v type="int" >       30 </v>
   <v type="int" >       31 </v>
   <v type="int" >       32 </v>
   <v type="int" >       33 </v>
   <v type="int" >       34 </v>
   <v type="int" >       35 </v>
   <v type="int" >       36 </v>
   <v type="int" >       37 </v>
   <v type="int" >       38 </v>
   <v type="int" >       39 </v>
   <v type="int" >       40 </v>
   <v type="int" >       41 </v>
   <v type="int" >       42 </v>
   <v type="int" >       43 </v>
   <v type="int" >       44 </v>
   <v type="int" >       45 </v>
   <v type="int" >       46 </v>
   <v type="int" >       47 </v>
   <v type="int" >       48 </v>
   <v type="int" >       49 </v>
   <v type="int" >       50 </v>
   <v type="int" >       51 </v>
   <v type="int" >       52 </v>
   <v type="int" >       53 </v>
   <v type="int" >       54 </v>
   <v type="int" >       55 </v>
   <v type="int" >       56 </v>
   <v type="int" >       57 </v>
   <v type="int" >       58 </v>
   <v type="int" >       59 </v>
   <v type="int" >       60 </v>
   <v type="int" >       61 </v>
   <v type="int" >       62 </v>
   <v type="int" >       63 </v>
   <v type="int" >       64 </v>
   <v type="int" >       65 </v>
   <v type="int" >       66 </v>
   <v type="int" >       67 </v>
   <v type="int" >       68 </v>
   <v type="int" >       69 </v>
   <v type="int" >       70 </v>
   <v type="int" >       71 </v>
   <v type="int" >       72 </v>
   <v type="int" >       73 </v>
   <v type="int" >       74 </v>
   <v type="int" >       75 </v>
   <v type="int" >       76 </v>
   <v type="int" >       77 </v>
   <v type="int" >       78 </v>
   <v type="int" >       79 </v>
   <v type="int" >       80 </v>
   <v type="int" >       81 </v>
   <v type="int" >       82 </v>
   <v type="int" >       83 </v>
   <v type="int" >       84 </v>
   <v type="int" >       85 </v>
   <v type="int" >       86 </v>
   <v type="int" >       87 </v>
   <v type="int" >       88 </v>
   <v type="int" >       89 </v>
   <v type="int" >       90 </v>
   <v type="int" >       91 </v>
   <v type="int" >       92 </v>
  </varray>
 </primitive_cell>
 <kpoints>
  <generation param="Gamma">
   <v type="int" name="divisions">       1        4        1 </v>
   <v name="usershift">      0.00000000       0.00000000       0.00000000 </v>
   <v name="genvec1">      1.00000000       0.00000000       0.00000000 </v>
   <v name="genvec2">      0.00000000       0.25000000       0.00000000 </v>
   <v name="genvec3">      0.00000000       0.00000000       1.00000000 </v>
   <v name="shift">      0.00000000       0.00000000       0.00000000 </v>
  </generation>
  <varray name="kpointlist" >
   <v>       0.00000000       0.00000000       0.00000000 </v>
   <v>       0.00000000       0.25000000       0.00000000 </v>
   <v>       0.00000000       0.50000000       0.00000000 </v>
  </varray>
  <varray name="weights" >
   <v>       0.25000000 </v>
   <v>       0.50000000 </v>
   <v>       0.25000000 </v>
  </varray>
 </kpoints>
 <parameters>
  <separator name="general" >
   <i type="string" name="SYSTEM">unknown system</i>
   <i type="logical" name="LCOMPAT"> F  </i>
  </separator>
  <separator name="electronic" >
   <i type="string" name="PREC">accura</i>
   <i name="ENMAX">    500.00000000</i>
   <i name="ENAUG">    644.87300000</i>
   <i name="EDIFF">      0.00000100</i>
   <i type="int" name="IALGO">    38</i>
   <i type="int" name="IWAVPR">    10</i>
   <i type="int" name="NBANDS">   232</i>
   <i type="int" name="NBANDSLOW">    -1</i>
   <i type="int" name="NBANDSHIGH">    -1</i>
   <i name="NELECT">    368.00000000</i>
   <i type="int" name="TURBO">     0</i>
   <i type="int" name="IRESTART">     0</i>
   <i type="int" name="NREBOOT">     0</i>
   <i type="int" name="NMIN">     0</i>
   <i name="EREF">      0.00000000</i>
   <separator name="electronic smearing" >
    <i type="int" name="ISMEAR">     0</i>
    <i name="SIGMA">      0.20000000</i>
    <i name="KSPACING">      0.50000000</i>
    <i type="logical" name="KGAMMA"> T  </i>
    <i type="logical" name="KBLOWUP"> T  </i>
   </separator>
   <separator name="electronic projectors" >
    <i type="logical" name="LREAL"> T  </i>
    <v name="ROPT">     -0.00025000</v>
    <i type="int" name="LMAXPAW">  -100</i>
    <i type="int" name="LMAXMIX">     2</i>
    <i type="logical" name="NLSPLINE"> F  </i>
   </separator>
   <separator name="electronic startup" >
    <i type="int" name="ISTART">     0</i>
    <i type="int" name="ICHARG">     2</i>
    <i type="int" name="INIWAV">     1</i>
   </separator>
   <separator name="electronic spin" >
    <i type="int" name="ISPIN">     1</i>
    <i type="logical" name="LNONCOLLINEAR"> F  </i>
    <v name="MAGMOM">      1.00000000      1.00000000      1.00000000      1.00000000      1.00000000      1.00000000      1.00000000      1.00000000      1.00000000      1.00000000      1.00000000      1.00000000      1.00000000      1.00000000      1.00000000      1.00000000      1.00000000      1.00000000      1.00000000      1.00000000
      1.00000000      1.00000000      1.00000000      1.00000000      1.00000000      1.00000000      1.00000000      1.00000000      1.00000000      1.00000000      1.00000000      1.00000000      1.00000000      1.00000000      1.00000000      1.00000000      1.00000000      1.00000000      1.00000000      1.00000000
      1.00000000      1.00000000      1.00000000      1.00000000      1.00000000      1.00000000      1.00000000      1.00000000      1.00000000      1.00000000      1.00000000      1.00000000      1.00000000      1.00000000      1.00000000      1.00000000      1.00000000      1.00000000      1.00000000      1.00000000
      1.00000000      1.00000000      1.00000000      1.00000000      1.00000000      1.00000000      1.00000000      1.00000000      1.00000000      1.00000000      1.00000000      1.00000000      1.00000000      1.00000000      1.00000000      1.00000000      1.00000000      1.00000000      1.00000000      1.00000000
      1.00000000      1.00000000      1.00000000      1.00000000      1.00000000      1.00000000      1.00000000      1.00000000      1.00000000      1.00000000      1.00000000      1.00000000</v>
    <i name="NUPDOWN">     -1.00000000</i>
    <i type="logical" name="LSORBIT"> F  </i>
    <v name="SAXIS">      0.00000000      0.00000000      1.00000000</v>
    <i type="logical" name="LSPIRAL"> F  </i>
    <v name="QSPIRAL">      0.00000000      0.00000000      0.00000000</v>
    <i type="logical" name="LZEROZ"> F  </i>
   </separator>
   <separator name="electronic exchange-correlation" >
    <i type="logical" name="LASPH"> F  </i>
   </separator>
   <separator name="electronic convergence" >
    <i type="int" name="NELM">   150</i>
    <i type="int" name="NELMDL">    -5</i>
    <i type="int" name="NELMIN">     2</i>
    <i name="ENINI">    500.00000000</i>
    <separator name="electronic convergence detail" >
     <i type="logical" name="LDIAG"> T  </i>
     <i type="logical" name="LSUBROT"> F  </i>
     <i name="WEIMIN">      0.00000000</i>
     <i name="EBREAK">      0.00000000</i>
     <i name="DEPER">      0.30000000</i>
     <i type="int" name="NRMM">     4</i>
     <i name="TIME">      0.40000000</i>
    </separator>
   </separator>
   <separator name="electronic mixer" >
    <i name="AMIX">      0.40000000</i>
    <i name="BMIX">      1.00000000</i>
    <i name="AMIN">      0.10000000</i>
    <i name="AMIX_MAG">      1.60000000</i>
    <i name="BMIX_MAG">      1.00000000</i>
    <separator name="electronic mixer details" >
     <i type="int" name="IMIX">     4</i>
     <i type="logical" name="MIXFIRST"> F  </i>
     <i type="int" name="MAXMIX">   -45</i>
     <i name="WC">    100.00000000</i>
     <i type="int" name="INIMIX">     1</i>
     <i type="int" name="MIXPRE">     1</i>
     <i type="int" name="MREMOVE">     5</i>
    </separator>
   </separator>
   <separator name="electronic dipolcorrection" >
    <i type="logical" name="LDIPOL"> F  </i>
    <i type="logical" name="LMONO"> F  </i>
    <i type="int" name="IDIPOL">     0</i>
    <i name="EPSILON">      1.00000000</i>
    <v name="DIPOL">   -100.00000000   -100.00000000   -100.00000000</v>
    <i name="EFIELD">      0.00000000</i>
    <i type="logical" name="LVACPOTAV"> F  </i>
   </separator>
  </separator>
  <separator name="grids" >
   <i type="int" name="NGX">   210</i>
   <i type="int" name="NGY">    60</i>
   <i type="int" name="NGZ">   250</i>
   <i type="int" name="NGXF">   420</i>
   <i type="int" name="NGYF">   120</i>
   <i type="int" name="NGZF">   500</i>
   <i type="logical" name="ADDGRID"> F  </i>
  </separator>
  <separator name="ionic" >
   <i type="int" name="NSW">     0</i>
   <i type="int" name="IBRION">    -1</i>
   <i type="int" name="MDALGO">     0</i>
   <i type="int" name="ISIF">     2</i>
   <i name="PSTRESS">      0.00000000</i>
   <i name="EDIFFG">      0.00001000</i>
   <i type="int" name="NFREE">     0</i>
   <i name="POTIM">      0.50000000</i>
   <i name="SMASS">     -3.00000000</i>
   <i name="SCALEE">      1.00000000</i>
  </separator>
  <separator name="ionic md" >
   <i name="TEBEG">      0.00010000</i>
   <i name="TEEND">      0.00010000</i>
   <i type="int" name="NBLOCK">     1</i>
   <i type="int" name="KBLOCK">     1</i>
   <i type="int" name="NPACO">   256</i>
   <i name="APACO">     10.00000000</i>
  </separator>
  <separator name="symmetry" >
   <i type="int" name="ISYM">     2</i>
   <i name="SYMPREC">      0.00001000</i>
  </separator>
  <separator name="dos" >
   <i type="int" name="LORBIT">     0</i>
   <v name="RWIGS">     -1.00000000</v>
   <i type="int" name="NEDOS">   301</i>
   <i name="EMIN">     10.00000000</i>
   <i name="EMAX">    -10.00000000</i>
   <i name="EFERMI">      0.00000000</i>
  </separator>
  <separator name="writing" >
   <i type="int" name="NWRITE">     2</i>
   <i type="logical" name="LWAVE"> F  </i>
   <i type="logical" name="LDOWNSAMPLE"> F  </i>
   <i type="logical" name="LCHARG"> F  </i>
   <i type="logical" name="LPARD"> F  </i>
   <i type="logical" name="LVTOT"> F  </i>
   <i type="logical" name="LVHAR"> F  </i>
   <i type="logical" name="LELF"> F  </i>
   <i type="logical" name="LOPTICS"> F  </i>
   <v name="STM">      0.00000000      0.00000000      0.00000000      0.00000000      0.00000000      0.00000000      0.00000000</v>
  </separator>
  <separator name="performance" >
   <i type="int" name="NPAR">     2</i>
   <i type="int" name="NSIM">     4</i>
   <i type="int" name="NBLK">    -1</i>
   <i type="logical" name="LPLANE"> T  </i>
   <i type="logical" name="LSCALAPACK"> T  </i>
   <i type="logical" name="LSCAAWARE"> F  </i>
   <i type="logical" name="LSCALU"> F  </i>
   <i type="logical" name="LASYNC"> F  </i>
   <i type="logical" name="LORBITALREAL"> F  </i>
  </separator>
  <separator name="miscellaneous" >
   <i type="int" name="IDIOT">     3</i>
   <i type="int" name="PHON_NSTRUCT">    -1</i>
   <i type="logical" name="LMUSIC"> F  </i>
   <v name="POMASS">     12.01100000</v>
   <v name="DARWINR">      0.00000000</v>
   <v name="DARWINV">      1.00000000</v>
   <i type="logical" name="LCORR"> T  </i>
  </separator>
  <i type="logical" name="GGA_COMPAT"> T  </i>
  <i type="logical" name="LBERRY"> F  </i>
  <i type="int" name="ICORELEVEL">     0</i>
  <i type="logical" name="LDAU"> F  </i>
  <i type="int" name="I_CONSTRAINED_M">     0</i>
  <separator name="electronic exchange-correlation" >
   <i type="string" name="GGA    ">PE</i>
   <i type="string" name="XC_C">1</i>
   <i type="int" name="VOSKOWN">     0</i>
   <i type="logical" name="LHFCALC"> F  </i>
   <i type="string" name="PRECFOCK"></i>
   <i type="logical" name="LSYMGRAD"> F  </i>
   <i type="logical" name="LHFONE"> F  </i>
   <i type="logical" name="LRHFCALC"> F  </i>
   <i type="logical" name="LTHOMAS"> F  </i>
   <i type="logical" name="LMODELHF"> F  </i>
   <i type="logical" name="LFOCKACE"> F  </i>
   <i name="ENCUT4O">     -1.00000000</i>
   <i type="int" name="EXXOEP">     0</i>
   <i type="int" name="FOURORBIT">     0</i>
   <i name="AEXX">      0.00000000</i>
   <i name="HFALPHA">      0.00000000</i>
   <i name="MCALPHA">      0.00000000</i>
   <i name="ALDAX">      1.00000000</i>
   <i name="AGGAX">      1.00000000</i>
   <i name="AMGGAX">      1.00000000</i>
   <i name="ALDAC">      1.00000000</i>
   <i name="AGGAC">      1.00000000</i>
   <i name="AMGGAC">      1.00000000</i>
   <i type="int" name="NKREDX">     1</i>
   <i type="int" name="NKREDY">     1</i>
   <i type="int" name="NKREDZ">     1</i>
   <i type="logical" name="SHIFTRED"> F  </i>
   <i type="logical" name="ODDONLY"> F  </i>
   <i type="logical" name="EVENONLY"> F  </i>
   <i type="int" name="LMAXFOCK">     0</i>
   <i type="int" name="NMAXFOCKAE">     0</i>
   <i type="logical" name="LFOCKAEDFT"> F  </i>
   <i name="HFSCREEN">      0.00000000</i>
   <i name="HFSCREENC">      0.00000000</i>
   <i type="int" name="NBANDSGWLOW">     0</i>
  </separator>
  <separator name="vdW DFT" >
   <i type="logical" name="LUSE_VDW"> F  </i>
   <i type="int" name="IVDW_NL">    -1</i>
   <i type="logical" name="LSPIN_VDW"> F  </i>
   <i name="ZAB_VDW">     -0.84910000</i>
   <i name="GAMMA_VDW">      1.39626340</i>
   <i name="ALPHA_VDW">      0.00000000</i>
   <i name="PARAM1">      0.12340000</i>
   <i name="PARAM2">      1.00000000</i>
   <i name="BPARAM">      6.30000000</i>
   <i name="CPARAM">      0.00930000</i>
  </separator>
  <separator name="model GW" >
   <i type="int" name="MODEL_GW">     0</i>
   <i name="MODEL_EPS0">     49.63935326</i>
   <i name="MODEL_ALPHA">      1.00000000</i>
  </separator>
  <separator name="linear response parameters" >
   <i type="logical" name="LEPSILON"> F  </i>
   <i type="logical" name="LRPA"> F  </i>
   <i type="logical" name="LNABLA"> F  </i>
   <i type="logical" name="LVEL"> F  </i>
   <i name="CSHIFT">      0.10000000</i>
   <i name="OMEGAMAX">     -1.00000000</i>
   <i name="DEG_THRESHOLD">      0.00200000</i>
   <i name="RTIME">     -0.10000000</i>
   <i name="WPLASMAI">      0.00000000</i>
   <v name="DFIELD">      0.00000000      0.00000000      0.00000000</v>
   <v name="WPLASMA">      0.00000000      0.00000000      0.00000000      0.00000000      0.00000000      0.00000000      0.00000000      0.00000000      0.00000000</v>
  </separator>
  <separator name="orbital magnetization" >
   <i type="logical" name="NUCIND"> F  </i>
   <v name="MAGPOS">      0.00000000      0.00000000      0.00000000</v>
   <i type="logical" name="LNICSALL"> T  </i>
   <i type="logical" name="ORBITALMAG"> F  </i>
   <i type="logical" name="LMAGBLOCH"> F  </i>
   <i type="logical" name="LCHIMAG"> F  </i>
   <i type="logical" name="LGAUGE"> T  </i>
   <i type="int" name="MAGATOM">     0</i>
   <v name="MAGDIPOL">      0.00000000      0.00000000      0.00000000</v>
   <v name="AVECCONST">      0.00000000      0.00000000      0.00000000</v>
  </separator>
  <separator name="response functions" >
   <i type="logical" name="LALL_IN_ONE"> F  </i>
   <i type="int" name="IALL_IN_ONE">    -1</i>
   <i type="int" name="NBANDS_WAVE">    -1</i>
   <i type="logical" name="LFINITE_TEMPERATURE"> F  </i>
   <i type="logical" name="LADDER"> F  </i>
   <i type="logical" name="LRPAFORCE"> F  </i>
   <i type="logical" name="LFXC"> F  </i>
   <i type="logical" name="LHARTREE"> T  </i>
   <i type="int" name="IBSE">     2</i>
   <v type="int" name="KPOINT">    -1     0     0     0</v>
   <i type="logical" name="LTCTC"> F  </i>
   <i type="logical" name="LTCTE"> F  </i>
   <i type="logical" name="LTETE"> F  </i>
   <i type="logical" name="LTRIPLET"> F  </i>
   <i type="logical" name="LFXCEPS"> F  </i>
   <i type="logical" name="LFXHEG"> F  </i>
   <i type="int" name="NATURALO">     2</i>
   <i type="logical" name="LHOLEGF"> F  </i>
   <i type="logical" name="L2ORDER"> F  </i>
   <i type="logical" name="LDMP1"> F  </i>
   <i type="logical" name="LMP2LT"> F  </i>
   <i type="logical" name="LSMP2LT"> F  </i>
   <i type="logical" name="LGWLF"> F  </i>
   <i name="ENCUTGW">     -1.60000002</i>
   <i name="ENCUTGWSOFT">     -1.60000002</i>
   <i name="ENCUTLF">     -1.00000000</i>
   <i type="logical" name="ESF_SPLINES"> F  </i>
   <i name="ESF_CONV">      0.01000000</i>
   <i type="int" name="ESF_NINTER">    15</i>
   <i type="int" name="LMAXMP2">    -1</i>
   <i name="SCISSOR">      0.00000000</i>
   <i type="int" name="NOMEGA">     0</i>
   <i type="int" name="NOMEGAR">     0</i>
   <i type="int" name="NBANDSGW">    -1</i>
   <i type="int" name="NBANDSO">    -1</i>
   <i type="int" name="NBANDSV">    -1</i>
   <i type="int" name="NELMGW">     1</i>
   <i type="int" name="NELMHF">     1</i>
   <i type="int" name="DIM">     3</i>
   <i type="int" name="IESPILON">     4</i>
   <i type="int" name="ANTIRES">     0</i>
   <i name="OMEGAMAX">    -30.00000000</i>
   <i name="OMEGAMIN">    -30.00000000</i>
   <i name="OMEGATL">   -200.00000000</i>
   <i type="int" name="OMEGAGRID">     0</i>
   <i name="CSHIFT">     -0.10000000</i>
   <i type="logical" name="LSELFENERGY"> F  </i>
   <i type="logical" name="LSPECTRAL"> F  </i>
   <i type="logical" name="LSPECTRALGW"> F  </i>
   <i type="logical" name="LSINGLES"> F  </i>
   <i type="logical" name="LFERMIGW"> F  </i>
   <i type="logical" name="ODDONLYGW"> F  </i>
   <i type="logical" name="EVENONLYGW"> F  </i>
   <i type="int" name="NKREDLFX">     1</i>
   <i type="int" name="NKREDLFY">     1</i>
   <i type="int" name="NKREDLFZ">     1</i>
   <i type="int" name="MAXMEM">  2800</i>
   <i type="int" name="TELESCOPE">     0</i>
   <i type="int" name="NTAUPAR">    -1</i>
   <i type="int" name="NOMEGAPAR">    -1</i>
   <i name="DAMP_NEWTON">      0.80000001</i>
   <i name="LAMBDA">      1.00000000</i>
  </separator>
  <separator name="External order field" >
   <i name="OFIELD_KAPPA">      0.00000000</i>
   <v name="OFIELD_K">      0.00000000      0.00000000      0.00000000</v>
   <i name="OFIELD_Q6_NEAR">      0.00000000</i>
   <i name="OFIELD_Q6_FAR">      0.00000000</i>
   <i name="OFIELD_A">      0.00000000</i>
  </separator>
  <separator name="optional k-points parameters" >
   <i type="int" name="KPOINTS_OPT_MODE">     1</i>
   <i type="logical" name="LKPOINTS_OPT"> F  </i>
  </separator>
 </parameters>
 <atominfo>
  <atoms>      92 </atoms>
  <types>       1 </types>
  <array name="atoms" >
   <dimension dim="1">ion</dimension>
   <field type="string">element</field>
   <field type="int">atomtype</field>
   <set>
    <rc><c>C </c><c>   1</c></rc>
    <rc><c>C </c><c>   1</c></rc>
    <rc><c>C </c><c>   1</c></rc>
    <rc><c>C </c><c>   1</c></rc>
    <rc><c>C </c><c>   1</c></rc>
    <rc><c>C </c><c>   1</c></rc>
    <rc><c>C </c><c>   1</c></rc>
    <rc><c>C </c><c>   1</c></rc>
    <rc><c>C </c><c>   1</c></rc>
    <rc><c>C </c><c>   1</c></rc>
    <rc><c>C </c><c>   1</c></rc>
    <rc><c>C </c><c>   1</c></rc>
    <rc><c>C </c><c>   1</c></rc>
    <rc><c>C </c><c>   1</c></rc>
    <rc><c>C </c><c>   1</c></rc>
    <rc><c>C </c><c>   1</c></rc>
    <rc><c>C </c><c>   1</c></rc>
    <rc><c>C </c><c>   1</c></rc>
    <rc><c>C </c><c>   1</c></rc>
    <rc><c>C </c><c>   1</c></rc>
    <rc><c>C </c><c>   1</c></rc>
    <rc><c>C </c><c>   1</c></rc>
    <rc><c>C </c><c>   1</c></rc>
    <rc><c>C </c><c>   1</c></rc>
    <rc><c>C </c><c>   1</c></rc>
    <rc><c>C </c><c>   1</c></rc>
    <rc><c>C </c><c>   1</c></rc>
    <rc><c>C </c><c>   1</c></rc>
    <rc><c>C </c><c>   1</c></rc>
    <rc><c>C </c><c>   1</c></rc>
    <rc><c>C </c><c>   1</c></rc>
    <rc><c>C </c><c>   1</c></rc>
    <rc><c>C </c><c>   1</c></rc>
    <rc><c>C </c><c>   1</c></rc>
    <rc><c>C </c><c>   1</c></rc>
    <rc><c>C </c><c>   1</c></rc>
    <rc><c>C </c><c>   1</c></rc>
    <rc><c>C </c><c>   1</c></rc>
    <rc><c>C </c><c>   1</c></rc>
    <rc><c>C </c><c>   1</c></rc>
    <rc><c>C </c><c>   1</c></rc>
    <rc><c>C </c><c>   1</c></rc>
    <rc><c>C </c><c>   1</c></rc>
    <rc><c>C </c><c>   1</c></rc>
    <rc><c>C </c><c>   1</c></rc>
    <rc><c>C </c><c>   1</c></rc>
    <rc><c>C </c><c>   1</c></rc>
    <rc><c>C </c><c>   1</c></rc>
    <rc><c>C </c><c>   1</c></rc>
    <rc><c>C </c><c>   1</c></rc>
    <rc><c>C </c><c>   1</c></rc>
    <rc><c>C </c><c>   1</c></rc>
    <rc><c>C </c><c>   1</c></rc>
    <rc><c>C </c><c>   1</c></rc>
    <rc><c>C </c><c>   1</c></rc>
    <rc><c>C </c><c>   1</c></rc>
    <rc><c>C </c><c>   1</c></rc>
    <rc><c>C </c><c>   1</c></rc>
    <rc><c>C </c><c>   1</c></rc>
    <rc><c>C </c><c>   1</c></rc>
    <rc><c>C </c><c>   1</c></rc>
    <rc><c>C </c><c>   1</c></rc>
    <rc><c>C </c><c>   1</c></rc>
    <rc><c>C </c><c>   1</c></rc>
    <rc><c>C </c><c>   1</c></rc>
    <rc><c>C </c><c>   1</c></rc>
    <rc><c>C </c><c>   1</c></rc>
    <rc><c>C </c><c>   1</c></rc>
    <rc><c>C </c><c>   1</c></rc>
    <rc><c>C </c><c>   1</c></rc>
    <rc><c>C </c><c>   1</c></rc>
    <rc><c>C </c><c>   1</c></rc>
    <rc><c>C </c><c>   1</c></rc>
    <rc><c>C </c><c>   1</c></rc>
    <rc><c>C </c><c>   1</c></rc>
    <rc><c>C </c><c>   1</c></rc>
    <rc><c>C </c><c>   1</c></rc>
    <rc><c>C </c><c>   1</c></rc>
    <rc><c>C </c><c>   1</c></rc>
    <rc><c>C </c><c>   1</c></rc>
    <rc><c>C </c><c>   1</c></rc>
    <rc><c>C </c><c>   1</c></rc>
    <rc><c>C </c><c>   1</c></rc>
    <rc><c>C </c><c>   1</c></rc>
    <rc><c>C </c><c>   1</c></rc>
    <rc><c>C </c><c>   1</c></rc>
    <rc><c>C </c><c>   1</c></rc>
    <rc><c>C </c><c>   1</c></rc>
    <rc><c>C </c><c>   1</c></rc>
    <rc><c>C </c><c>   1</c></rc>
    <rc><c>C </c><c>   1</c></rc>
    <rc><c>C </c><c>   1</c></rc>
   </set>
  </array>
  <array name="atomtypes" >
   <dimension dim="1">type</dimension>
   <field type="int">atomspertype</field>
   <field type="string">element</field>
   <field>mass</field>
   <field>valence</field>
   <field type="string">pseudopotential</field>
   <set>
    <rc><c>  92</c><c>C </c><c>     12.01100000</c><c>      4.00000000</c><c>  PAW_PBE C 08Apr2002                   </c></rc>
   </set>
  </array>
 </atominfo>
 <structure name="initialpos" >
  <crystal>
   <varray name="basis" >
    <v>      28.05000000       0.00000000       0.00000000 </v>
    <v>       0.00000000       8.10000000       0.00000000 </v>
    <v>       0.00000000       0.00000000      33.50000000 </v>
   </varray>
   <i name="volume">   7611.36750000 </i>
   <varray name="rec_basis" >
    <v>       0.03565062       0.00000000       0.00000000 </v>
    <v>       0.00000000       0.12345679       0.00000000 </v>
    <v>       0.00000000       0.00000000       0.02985075 </v>
   </varray>
  </crystal>
  <varray name="positions" >
   <v>       0.00351262       0.10462049       0.51027761 </v>
   <v>       0.00611337       0.27417654       0.50370149 </v>
   <v>       0.04385098       0.01846630       0.52277015 </v>
   <v>       0.04795651       0.35375679       0.51059403 </v>
   <v>       0.08809055       0.09934593       0.53225373 </v>
   <v>       0.09040143       0.26963704       0.52597313 </v>
   <v>       0.13180214       0.01919469       0.53707164 </v>
   <v>       0.13544706       0.34602963       0.52840000 </v>
   <v>       0.17687558       0.10155136       0.54166866 </v>
   <v>       0.17934260       0.27069630       0.53721194 </v>
   <v>       0.22181355       0.01855605       0.54410149 </v>
   <v>       0.22283957       0.35242346       0.53842090 </v>
   <v>       0.26577683       0.09735037       0.54785075 </v>
   <v>       0.26641889       0.26785802       0.54591343 </v>
   <v>       0.31267986       0.01752358       0.54457015 </v>
   <v>       0.31130695       0.34877037       0.54060597 </v>
   <v>       0.35514439       0.09852704       0.54026866 </v>
   <v>       0.35521176       0.27202716       0.53885373 </v>
   <v>       0.40079501       0.02048309       0.53485970 </v>
   <v>       0.39993583       0.35246914       0.53031940 </v>
   <v>       0.44568271       0.10755765       0.52692836 </v>
   <v>       0.44355080       0.27629877       0.52162687 </v>
   <v>       0.48683066       0.02779210       0.51540597 </v>
   <v>       0.48378253       0.35340617       0.50454925 </v>
   <v>       0.52961497       0.11010667       0.50363582 </v>
   <v>       0.52731194       0.27319506       0.49697910 </v>
   <v>       0.57221390       0.02029802       0.49161493 </v>
   <v>       0.56954367       0.35891358       0.47945970 </v>
   <v>       0.61377184       0.10146630       0.48261493 </v>
   <v>       0.61093761       0.27590123       0.47057612 </v>
   <v>       0.65611408       0.02310691       0.47619403 </v>
   <v>       0.65188235       0.35052346       0.45960299 </v>
   <v>       0.69824955       0.10874407       0.46682985 </v>
   <v>       0.69687701       0.26967901       0.45833731 </v>
   <v>       0.74087344       0.02129790       0.46310149 </v>
   <v>       0.73956150       0.35035926       0.44982985 </v>
   <v>       0.78351159       0.10999333       0.46136418 </v>
   <v>       0.78619964       0.27027654       0.45368657 </v>
   <v>       0.82765775       0.02254519       0.46796119 </v>
   <v>       0.82988948       0.35633457       0.45544179 </v>
   <v>       0.87182175       0.10927778       0.47359701 </v>
   <v>       0.87288057       0.28285556       0.46928657 </v>
   <v>       0.91130481       0.03071160       0.48905672 </v>
   <v>       0.91739037       0.35880000       0.47701194 </v>
   <v>       0.95346524       0.11136086       0.49874030 </v>
   <v>       0.95530481       0.28074938       0.49311642 </v>
   <v>       0.00492385       0.60615556       0.50032537 </v>
   <v>       0.00523483       0.77765309       0.50652537 </v>
   <v>       0.04862602       0.51919877       0.50637612 </v>
   <v>       0.04695009       0.85409136       0.51713433 </v>
   <v>       0.09210374       0.59920370       0.51293433 </v>
   <v>       0.09062816       0.76773333       0.51741194 </v>
   <v>       0.13521640       0.51550617       0.52023881 </v>
   <v>       0.13476898       0.85391235       0.52702090 </v>
   <v>       0.17838538       0.60022222       0.52076418 </v>
   <v>       0.17867415       0.77481481       0.52466866 </v>
   <v>       0.22327986       0.51445062       0.52651940 </v>
   <v>       0.22195365       0.85249136       0.53547463 </v>
   <v>       0.26711301       0.59769259       0.52671343 </v>
   <v>       0.26717825       0.76830864       0.53168060 </v>
   <v>       0.30984599       0.52222099       0.53211343 </v>
   <v>       0.31199323       0.84951975       0.53846866 </v>
   <v>       0.35475971       0.60648395       0.52692537 </v>
   <v>       0.35455223       0.77317407       0.52818209 </v>
   <v>       0.39908021       0.52286543       0.52463582 </v>
   <v>       0.39958289       0.85524815       0.52446269 </v>
   <v>       0.44058467       0.60754691       0.51343881 </v>
   <v>       0.44233155       0.77480000       0.51699104 </v>
   <v>       0.48151872       0.51977037       0.50201791 </v>
   <v>       0.48596078       0.85416420       0.51087463 </v>
   <v>       0.52400000       0.60675062       0.48999104 </v>
   <v>       0.52676292       0.77444568       0.49684478 </v>
   <v>       0.56673797       0.52580123       0.47806866 </v>
   <v>       0.56958289       0.85113951       0.48929552 </v>
   <v>       0.60985740       0.60324815       0.46722090 </v>
   <v>       0.61109804       0.77115926       0.47381194 </v>
   <v>       0.65110160       0.51690370       0.45880896 </v>
   <v>       0.65494474       0.85691605       0.46841493 </v>
   <v>       0.69528342       0.60061975       0.45076119 </v>
   <v>       0.69593939       0.77055556       0.45709851 </v>
   <v>       0.73982175       0.52022716       0.44960000 </v>
   <v>       0.74038503       0.85098148       0.46048955 </v>
   <v>       0.78383957       0.60275309       0.45544478 </v>
   <v>       0.78490553       0.77223951       0.45973134 </v>
   <v>       0.82839929       0.52845679       0.45501194 </v>
   <v>       0.82767914       0.85874444       0.46434925 </v>
   <v>       0.87436720       0.61120988       0.46119701 </v>
   <v>       0.87295900       0.77625556       0.47158507 </v>
   <v>       0.91670945       0.52537778       0.47184478 </v>
   <v>       0.91393583       0.85996420       0.48496418 </v>
   <v>       0.95741533       0.60735679       0.48722687 </v>
   <v>       0.95516221       0.77764568       0.49408955 </v>
  </varray>
 </structure>
 <calculation>
  <scstep>
   <time name="dav">   11.03   11.05</time>
   <time name="total">   11.49   11.53</time>
   <energy>
    <i name="alphaZ">     91.34886789 </i>
    <i name="ewald"> 120553.90256958 </i>
    <i name="hartreedc">-129859.40445280 </i>
    <i name="XCdc">   1222.76274435 </i>
    <i name="pawpsdc">   9984.02826696 </i>
    <i name="pawaedc"> -10036.41360137 </i>
    <i name="eentropy">     -0.86195336 </i>
    <i name="bandstr">  -1776.39897645 </i>
    <i name="atom">  13537.65479391 </i>
    <i name="e_fr_energy">   3716.61825871 </i>
    <i name="e_wo_entrp">   3717.48021206 </i>
    <i name="e_0_energy">   3717.04923538 </i>
   </energy>
  </scstep>
  <scstep>
   <time name="dav">   13.15   13.16</time>
   <time name="total">   13.15   13.16</time>
   <energy>
    <i name="e_fr_energy">    184.10403801 </i>
    <i name="e_wo_entrp">    184.26627510 </i>
    <i name="e_0_energy">    184.18515656 </i>
   </energy>
  </scstep>
  <scstep>
   <time name="dav">   11.27   11.27</time>
   <time name="total">   11.27   11.27</time>
   <energy>
    <i name="e_fr_energy">   -836.39661396 </i>
    <i name="e_wo_entrp">   -836.33267532 </i>
    <i name="e_0_energy">   -836.36464464 </i>
   </energy>
  </scstep>
  <scstep>
   <time name="dav">   10.89   10.89</time>
   <time name="total">   10.89   10.89</time>
   <energy>
    <i name="e_fr_energy">   -897.78422757 </i>
    <i name="e_wo_entrp">   -897.72395535 </i>
    <i name="e_0_energy">   -897.75409146 </i>
   </energy>
  </scstep>
  <scstep>
   <time name="dav">   11.19   11.20</time>
   <time name="total">   12.68   12.68</time>
   <energy>
    <i name="e_fr_energy">   -899.27520009 </i>
    <i name="e_wo_entrp">   -899.21500576 </i>
    <i name="e_0_energy">   -899.24510292 </i>
   </energy>
  </scstep>
  <scstep>
   <time name="dav">   10.25   10.25</time>
   <time name="total">   12.05   12.05</time>
   <energy>
    <i name="e_fr_energy">   -848.87522494 </i>
    <i name="e_wo_entrp">   -848.80845347 </i>
    <i name="e_0_energy">   -848.84183920 </i>
   </energy>
  </scstep>
  <scstep>
   <time name="dav">   10.04   10.04</time>
   <time name="total">   11.83   11.84</time>
   <energy>
    <i name="e_fr_energy">   -830.09917111 </i>
    <i name="e_wo_entrp">   -830.02173361 </i>
    <i name="e_0_energy">   -830.06045236 </i>
   </energy>
  </scstep>
  <scstep>
   <time name="dav">   10.16   10.16</time>
   <time name="total">   11.95   11.96</time>
   <energy>
    <i name="e_fr_energy">   -829.79943768 </i>
    <i name="e_wo_entrp">   -829.72589587 </i>
    <i name="e_0_energy">   -829.76266678 </i>
   </energy>
  </scstep>
  <scstep>
   <time name="dav">   10.65   10.65</time>
   <time name="total">   12.45   12.46</time>
   <energy>
    <i name="e_fr_energy">   -829.68981266 </i>
    <i name="e_wo_entrp">   -829.61555380 </i>
    <i name="e_0_energy">   -829.65268323 </i>
   </energy>
  </scstep>
  <scstep>
   <time name="dav">   10.96   10.97</time>
   <time name="total">   12.77   12.78</time>
   <energy>
    <i name="e_fr_energy">   -829.65054601 </i>
    <i name="e_wo_entrp">   -829.57633340 </i>
    <i name="e_0_energy">   -829.61343970 </i>
   </energy>
  </scstep>
  <scstep>
   <time name="dav">   10.07   10.08</time>
   <time name="total">   11.90   11.90</time>
   <energy>
    <i name="e_fr_energy">   -829.62183338 </i>
    <i name="e_wo_entrp">   -829.54753015 </i>
    <i name="e_0_energy">   -829.58468177 </i>
   </energy>
  </scstep>
  <scstep>
   <time name="dav">   10.02   10.03</time>
   <time name="total">   11.84   11.85</time>
   <energy>
    <i name="e_fr_energy">   -829.61740286 </i>
    <i name="e_wo_entrp">   -829.54295565 </i>
    <i name="e_0_energy">   -829.58017925 </i>
   </energy>
  </scstep>
  <scstep>
   <time name="dav">   10.06   10.06</time>
   <time name="total">   11.88   11.89</time>
   <energy>
    <i name="e_fr_energy">   -829.62965625 </i>
    <i name="e_wo_entrp">   -829.55534221 </i>
    <i name="e_0_energy">   -829.59249923 </i>
   </energy>
  </scstep>
  <scstep>
   <time name="dav">   10.28   10.28</time>
   <time name="total">   12.11   12.12</time>
   <energy>
    <i name="e_fr_energy">   -829.64753424 </i>
    <i name="e_wo_entrp">   -829.57312588 </i>
    <i name="e_0_energy">   -829.61033006 </i>
   </energy>
  </scstep>
  <scstep>
   <time name="dav">   10.11   10.11</time>
   <time name="total">   11.96   11.96</time>
   <energy>
    <i name="e_fr_energy">   -829.66882825 </i>
    <i name="e_wo_entrp">   -829.59439301 </i>
    <i name="e_0_energy">   -829.63161063 </i>
   </energy>
  </scstep>
  <scstep>
   <time name="dav">   10.40   10.40</time>
   <time name="total">   12.27   12.28</time>
   <energy>
    <i name="e_fr_energy">   -829.67600627 </i>
    <i name="e_wo_entrp">   -829.60162770 </i>
    <i name="e_0_energy">   -829.63881698 </i>
   </energy>
  </scstep>
  <scstep>
   <time name="dav">    9.99    9.99</time>
   <time name="total">   11.85   11.86</time>
   <energy>
    <i name="e_fr_energy">   -829.68139063 </i>
    <i name="e_wo_entrp">   -829.60698620 </i>
    <i name="e_0_energy">   -829.64418842 </i>
   </energy>
  </scstep>
  <scstep>
   <time name="dav">   10.46   10.47</time>
   <time name="total">   12.34   12.35</time>
   <energy>
    <i name="e_fr_energy">   -829.68352876 </i>
    <i name="e_wo_entrp">   -829.60913378 </i>
    <i name="e_0_energy">   -829.64633127 </i>
   </energy>
  </scstep>
  <scstep>
   <time name="dav">    9.80    9.81</time>
   <time name="total">   11.69   11.70</time>
   <energy>
    <i name="e_fr_energy">   -829.68435841 </i>
    <i name="e_wo_entrp">   -829.60996266 </i>
    <i name="e_0_energy">   -829.64716054 </i>
   </energy>
  </scstep>
  <scstep>
   <time name="dav">    8.97    8.98</time>
   <time name="total">   10.87   10.88</time>
   <energy>
    <i name="e_fr_energy">   -829.68480407 </i>
    <i name="e_wo_entrp">   -829.61040375 </i>
    <i name="e_0_energy">   -829.64760391 </i>
   </energy>
  </scstep>
  <scstep>
   <time name="dav">    8.98    8.99</time>
   <time name="total">   10.91   10.91</time>
   <energy>
    <i name="e_fr_energy">   -829.68504648 </i>
    <i name="e_wo_entrp">   -829.61064676 </i>
    <i name="e_0_energy">   -829.64784662 </i>
   </energy>
  </scstep>
  <scstep>
   <time name="dav">    7.46    7.47</time>
   <time name="total">    9.39    9.40</time>
   <energy>
    <i name="e_fr_energy">   -829.68512667 </i>
    <i name="e_wo_entrp">   -829.61072779 </i>
    <i name="e_0_energy">   -829.64792723 </i>
   </energy>
  </scstep>
  <scstep>
   <time name="dav">    7.32    7.32</time>
   <time name="total">    9.26    9.27</time>
   <energy>
    <i name="e_fr_energy">   -829.68516876 </i>
    <i name="e_wo_entrp">   -829.61076994 </i>
    <i name="e_0_energy">   -829.64796935 </i>
   </energy>
  </scstep>
  <scstep>
   <time name="dav">    7.16    7.16</time>
   <time name="total">    9.12    9.12</time>
   <energy>
    <i name="e_fr_energy">   -829.68518437 </i>
    <i name="e_wo_entrp">   -829.61078521 </i>
    <i name="e_0_energy">   -829.64798479 </i>
   </energy>
  </scstep>
  <scstep>
   <time name="dav">    7.13    7.14</time>
   <time name="total">    9.11    9.11</time>
   <energy>
    <i name="e_fr_energy">   -829.68518937 </i>
    <i name="e_wo_entrp">   -829.61079036 </i>
    <i name="e_0_energy">   -829.64798986 </i>
   </energy>
  </scstep>
  <scstep>
   <time name="dav">    6.96    6.97</time>
   <time name="total">    8.97    8.97</time>
   <energy>
    <i name="e_fr_energy">   -829.68519416 </i>
    <i name="e_wo_entrp">   -829.61079514 </i>
    <i name="e_0_energy">   -829.64799465 </i>
   </energy>
  </scstep>
  <scstep>
   <time name="dav">    7.11    7.11</time>
   <time name="total">    7.47    7.47</time>
   <energy>
    <i name="alphaZ">     91.34886789 </i>
    <i name="ewald"> 120553.90256958 </i>
    <i name="hartreedc">-131639.96363585 </i>
    <i name="XCdc">   1280.53280055 </i>
    <i name="pawpsdc">  41476.34851583 </i>
    <i name="pawaedc"> -41540.56106238 </i>
    <i name="eentropy">     -0.07439902 </i>
    <i name="bandstr">  -4588.87364554 </i>
    <i name="atom">  13537.65479391 </i>
    <i name="e_fr_energy">   -829.68519503 </i>
    <i name="e_wo_entrp">   -829.61079601 </i>
    <i name="e_0_energy">   -829.64799552 </i>
   </energy>
  </scstep>
  <structure>
   <crystal>
    <varray name="basis" >
     <v>      28.05000000       0.00000000       0.00000000 </v>
     <v>       0.00000000       8.10000000       0.00000000 </v>
     <v>       0.00000000       0.00000000      33.50000000 </v>
    </varray>
    <i name="volume">   7611.36750000 </i>
    <varray name="rec_basis" >
     <v>       0.03565062       0.00000000       0.00000000 </v>
     <v>       0.00000000       0.12345679       0.00000000 </v>
     <v>       0.00000000       0.00000000       0.02985075 </v>
    </varray>
   </crystal>
   <varray name="positions" >
    <v>       0.00351262       0.10462049       0.51027761 </v>
    <v>       0.00611337       0.27417654       0.50370149 </v>
    <v>       0.04385098       0.01846630       0.52277015 </v>
    <v>       0.04795651       0.35375679       0.51059403 </v>
    <v>       0.08809055       0.09934593       0.53225373 </v>
    <v>       0.09040143       0.26963704       0.52597313 </v>
    <v>       0.13180214       0.01919469       0.53707164 </v>
    <v>       0.13544706       0.34602963       0.52840000 </v>
    <v>       0.17687558       0.10155136       0.54166866 </v>
    <v>       0.17934260       0.27069630       0.53721194 </v>
    <v>       0.22181355       0.01855605       0.54410149 </v>
    <v>       0.22283957       0.35242346       0.53842090 </v>
    <v>       0.26577683       0.09735037       0.54785075 </v>
    <v>       0.26641889       0.26785802       0.54591343 </v>
    <v>       0.31267986       0.01752358       0.54457015 </v>
    <v>       0.31130695       0.34877037       0.54060597 </v>
    <v>       0.35514439       0.09852704       0.54026866 </v>
    <v>       0.35521176       0.27202716       0.53885373 </v>
    <v>       0.40079501       0.02048309       0.53485970 </v>
    <v>       0.39993583       0.35246914       0.53031940 </v>
    <v>       0.44568271       0.10755765       0.52692836 </v>
    <v>       0.44355080       0.27629877       0.52162687 </v>
    <v>       0.48683066       0.02779210       0.51540597 </v>
    <v>       0.48378253       0.35340617       0.50454925 </v>
    <v>       0.52961497       0.11010667       0.50363582 </v>
    <v>       0.52731194       0.27319506       0.49697910 </v>
    <v>       0.57221390       0.02029802       0.49161493 </v>
    <v>       0.56954367       0.35891358       0.47945970 </v>
    <v>       0.61377184       0.10146630       0.48261493 </v>
    <v>       0.61093761       0.27590123       0.47057612 </v>
    <v>       0.65611408       0.02310691       0.47619403 </v>
    <v>       0.65188235       0.35052346       0.45960299 </v>
    <v>       0.69824955       0.10874407       0.46682985 </v>
    <v>       0.69687701       0.26967901       0.45833731 </v>
    <v>       0.74087344       0.02129790       0.46310149 </v>
    <v>       0.73956150       0.35035926       0.44982985 </v>
    <v>       0.78351159       0.10999333       0.46136418 </v>
    <v>       0.78619964       0.27027654       0.45368657 </v>
    <v>       0.82765775       0.02254519       0.46796119 </v>
    <v>       0.82988948       0.35633457       0.45544179 </v>
    <v>       0.87182175       0.10927778       0.47359701 </v>
    <v>       0.87288057       0.28285556       0.46928657 </v>
    <v>       0.91130481       0.03071160       0.48905672 </v>
    <v>       0.91739037       0.35880000       0.47701194 </v>
    <v>       0.95346524       0.11136086       0.49874030 </v>
    <v>       0.95530481       0.28074938       0.49311642 </v>
    <v>       0.00492385       0.60615556       0.50032537 </v>
    <v>       0.00523483       0.77765309       0.50652537 </v>
    <v>       0.04862602       0.51919877       0.50637612 </v>
    <v>       0.04695009       0.85409136       0.51713433 </v>
    <v>       0.09210374       0.59920370       0.51293433 </v>
    <v>       0.09062816       0.76773333       0.51741194 </v>
    <v>       0.13521640       0.51550617       0.52023881 </v>
    <v>       0.13476898       0.85391235       0.52702090 </v>
    <v>       0.17838538       0.60022222       0.52076418 </v>
    <v>       0.17867415       0.77481481       0.52466866 </v>
    <v>       0.22327986       0.51445062       0.52651940 </v>
    <v>       0.22195365       0.85249136       0.53547463 </v>
    <v>       0.26711301       0.59769259       0.52671343 </v>
    <v>       0.26717825       0.76830864       0.53168060 </v>
    <v>       0.30984599       0.52222099       0.53211343 </v>
    <v>       0.31199323       0.84951975       0.53846866 </v>
    <v>       0.35475971       0.60648395       0.52692537 </v>
    <v>       0.35455223       0.77317407       0.52818209 </v>
    <v>       0.39908021       0.52286543       0.52463582 </v>
    <v>       0.39958289       0.85524815       0.52446269 </v>
    <v>       0.44058467       0.60754691       0.51343881 </v>
    <v>       0.44233155       0.77480000       0.51699104 </v>
    <v>       0.48151872       0.51977037       0.50201791 </v>
    <v>       0.48596078       0.85416420       0.51087463 </v>
    <v>       0.52400000       0.60675062       0.48999104 </v>
    <v>       0.52676292       0.77444568       0.49684478 </v>
    <v>       0.56673797       0.52580123       0.47806866 </v>
    <v>       0.56958289       0.85113951       0.48929552 </v>
    <v>       0.60985740       0.60324815       0.46722090 </v>
    <v>       0.61109804       0.77115926       0.47381194 </v>
    <v>       0.65110160       0.51690370       0.45880896 </v>
    <v>       0.65494474       0.85691605       0.46841493 </v>
    <v>       0.69528342       0.60061975       0.45076119 </v>
    <v>       0.69593939       0.77055556       0.45709851 </v>
    <v>       0.73982175       0.52022716       0.44960000 </v>
    <v>       0.74038503       0.85098148       0.46048955 </v>
    <v>       0.78383957       0.60275309       0.45544478 </v>
    <v>       0.78490553       0.77223951       0.45973134 </v>
    <v>       0.82839929       0.52845679       0.45501194 </v>
    <v>       0.82767914       0.85874444       0.46434925 </v>
    <v>       0.87436720       0.61120988       0.46119701 </v>
    <v>       0.87295900       0.77625556       0.47158507 </v>
    <v>       0.91670945       0.52537778       0.47184478 </v>
    <v>       0.91393583       0.85996420       0.48496418 </v>
    <v>       0.95741533       0.60735679       0.48722687 </v>
    <v>       0.95516221       0.77764568       0.49408955 </v>
   </varray>
  </structure>
  <varray name="forces" >
   <v>       1.37040997       0.58400179       0.73574204 </v>
   <v>       1.07404627      -1.13449198       0.99122412 </v>
   <v>       0.91057134       2.26304315       0.20501507 </v>
   <v>       1.20968264      -1.71034668       0.58259617 </v>
   <v>      -1.17934137       1.54925944      -0.58832925 </v>
   <v>      -0.84838513      -0.57052636      -0.39559225 </v>
   <v>       1.60548009      -0.24352203      -0.12587586 </v>
   <v>      -0.66303294       1.71083867      -0.49231054 </v>
   <v>       0.26324723      -0.36213677       0.41747872 </v>
   <v>      -1.59968309      -0.78182561       0.60656800 </v>
   <v>      -0.97967985      -0.58451770       0.02416920 </v>
   <v>       0.60451001      -0.22784976      -0.41035619 </v>
   <v>       1.97835951       0.61101259       0.09583943 </v>
   <v>       0.57644799       0.50012596      -0.47966149 </v>
   <v>      -3.06505711      -0.29253350       0.24011234 </v>
   <v>      -1.11590981       2.35777381      -0.36575079 </v>
   <v>       2.46582070       1.80485473       0.58472252 </v>
   <v>       1.51910609      -1.20190195       0.21933044 </v>
   <v>       0.26538859       0.47511825      -1.20749925 </v>
   <v>      -0.93896528       1.25505644      -0.51998709 </v>
   <v>      -2.19665604      -0.43407456       0.32184198 </v>
   <v>      -0.04945632      -1.10251509       0.40027694 </v>
   <v>       1.39806898      -1.83786800      -0.22468378 </v>
   <v>      -0.26648609      -0.48500047       0.87835688 </v>
   <v>       0.32886558      -2.28395391      -0.43897779 </v>
   <v>       1.47870611       1.88860499      -1.19049572 </v>
   <v>      -2.06619391       0.71448118       1.46235851 </v>
   <v>      -3.34468947      -1.82924866       1.27522862 </v>
   <v>      -0.80851534       3.40757678      -1.31564284 </v>
   <v>      -0.86107143      -4.12871241       2.29451404 </v>
   <v>       0.87928305      -0.17294057      -0.84807220 </v>
   <v>       1.87056649      -0.21547068      -0.12666789 </v>
   <v>      -0.23240063      -2.33806428       0.14058260 </v>
   <v>      -0.41480948       1.55637969      -0.73894736 </v>
   <v>      -0.24537351       0.53465523       0.16682758 </v>
   <v>       2.26392646       0.11661491       0.38468001 </v>
   <v>       2.20112112      -3.56934853       0.57894889 </v>
   <v>      -2.06060671       2.76928711      -0.25300268 </v>
   <v>      -0.17953255       3.09063252      -0.65775399 </v>
   <v>       0.56633055       0.78461345       0.60714220 </v>
   <v>      -1.70433019       1.49615497       0.56958416 </v>
   <v>      -0.25801473      -2.74812607      -0.63160513 </v>
   <v>       1.80489105      -0.91498281      -0.06812980 </v>
   <v>      -1.83888672       0.18113461      -0.81619868 </v>
   <v>      -2.11973503       0.19335647      -0.31039527 </v>
   <v>       0.11716409      -1.51697893      -0.07828595 </v>
   <v>       4.90831783       0.10722389       0.96182179 </v>
   <v>       1.06823132      -2.38285440      -0.06889085 </v>
   <v>      -1.41262915       1.85514894      -0.54027145 </v>
   <v>      -0.94142497      -1.76781694      -0.28306111 </v>
   <v>      -0.48736347       0.65935637       0.12197376 </v>
   <v>       1.62139653       1.30813644       0.74729147 </v>
   <v>       0.35246756      -0.31454083      -0.35441275 </v>
   <v>      -1.78379168      -0.80894548      -0.27158056 </v>
   <v>       1.68137625       0.34013655       0.39557892 </v>
   <v>       0.48282815      -1.39269130       0.42957277 </v>
   <v>      -1.26586321       1.04136419       0.06644672 </v>
   <v>       1.08230984      -1.10128467      -0.87183244 </v>
   <v>      -1.13552503       1.66251310       0.39080363 </v>
   <v>      -0.45538728       0.98922084       0.70037673 </v>
   <v>       2.81132404      -2.56790962      -0.06893171 </v>
   <v>      -1.51758895      -0.03483301      -1.19535049 </v>
   <v>      -0.80123620      -2.17776623       0.40335486 </v>
   <v>       1.41219944       0.63967405      -0.03480068 </v>
   <v>      -1.14496607      -0.35868483      -0.32965519 </v>
   <v>      -1.08533344       0.88757621       1.73472624 </v>
   <v>       0.28287601      -1.69161105       0.08313904 </v>
   <v>       0.24664277       0.10402161      -0.77042441 </v>
   <v>       1.50382195       2.37627932      -0.92154212 </v>
   <v>      -0.21691458       1.91113832       0.34172920 </v>
   <v>      -0.04460129      -0.73372225       0.42402217 </v>
   <v>      -0.93702614      -1.21436869      -0.01537394 </v>
   <v>      -0.31800807       0.37235804      -0.65160873 </v>
   <v>       1.94105084       0.49157955      -0.76535117 </v>
   <v>      -1.21544732       0.99724995       0.63582640 </v>
   <v>       0.09205558       0.82971702       0.11994813 </v>
   <v>       1.82088419       1.87842916      -1.82728124 </v>
   <v>      -1.13004478      -1.43673718       0.47032743 </v>
   <v>      -0.55037489       0.74189762       1.07255078 </v>
   <v>       0.69979772      -0.15626963       0.39987835 </v>
   <v>      -0.11846330       0.18471450      -0.19239434 </v>
   <v>       0.43577286       0.58411658      -0.18471558 </v>
   <v>       0.32959862       0.70557132      -1.06535559 </v>
   <v>      -1.16591838      -0.09835062      -0.33005475 </v>
   <v>       1.92662198      -1.09441836      -0.11444699 </v>
   <v>       1.68523321      -2.35488668       1.34987781 </v>
   <v>      -1.00898411      -0.37807934       1.24456263 </v>
   <v>      -1.20012571      -0.04040273      -1.52296683 </v>
   <v>       1.79726613       1.88901629       0.35067285 </v>
   <v>      -0.34037479       0.05838325       0.78777471 </v>
   <v>      -4.12153726       1.05027822      -1.44676852 </v>
   <v>      -1.49832389      -0.71656694      -0.90410358 </v>
  </varray>
  <varray name="stress" >
   <v>       3.98620652      -0.55634237      -0.41653961 </v>
   <v>      -0.55634237      51.86931578       0.04138313 </v>
   <v>      -0.41653961       0.04138313      -0.54521896 </v>
  </varray>
  <energy>
   <i name="e_fr_energy">   -829.68519503 </i>
   <i name="e_wo_entrp">   -829.61079601 </i>
   <i name="e_0_energy">   -829.64799552 </i>
  </energy>
  <time name="totalsc">  314.96  315.15</time>
  <eigenvalues>
   <array>
    <dimension dim="1">band</dimension>
    <dimension dim="2">kpoint</dimension>
    <dimension dim="3">spin</dimension>
    <field>eigene</field>
    <field>occ</field>
    <set>
     <set comment="spin 1">
      <set comment="kpoint 1">
       <r>  -23.2229    1.0000 </r>
       <r>  -23.1268    1.0000 </r>
       <r>  -23.0013    1.0000 </r>
       <r>  -22.7027    1.0000 </r>
       <r>  -22.6104    1.0000 </r>
       <r>  -22.4126    1.0000 </r>
       <r>  -22.0937    1.0000 </r>
       <r>  -21.9663    1.0000 </r>
       <r>  -21.6197    1.0000 </r>
       <r>  -21.5369    1.0000 </r>
       <r>  -21.4056    1.0000 </r>
       <r>  -21.3843    1.0000 </r>
       <r>  -21.2642    1.0000 </r>
       <r>  -21.2222    1.0000 </r>
       <r>  -21.1634    1.0000 </r>
       <r>  -21.0965    1.0000 </r>
       <r>  -21.0316    1.0000 </r>
       <r>  -20.9450    1.0000 </r>
       <r>  -20.8104    1.0000 </r>
       <r>  -20.5795    1.0000 </r>
       <r>  -20.4197    1.0000 </r>
       <r>  -20.3306    1.0000 </r>
       <r>  -20.1745    1.0000 </r>
       <r>  -20.1356    1.0000 </r>
       <r>  -19.9753    1.0000 </r>
       <r>  -19.7015    1.0000 </r>
       <r>  -19.5853    1.0000 </r>
       <r>  -19.4908    1.0000 </r>
       <r>  -19.2308    1.0000 </r>
       <r>  -18.9349    1.0000 </r>
       <r>  -18.6783    1.0000 </r>
       <r>  -18.6100    1.0000 </r>
       <r>  -18.5737    1.0000 </r>
       <r>  -18.4034    1.0000 </r>
       <r>  -18.1555    1.0000 </r>
       <r>  -17.6248    1.0000 </r>
       <r>  -17.3007    1.0000 </r>
       <r>  -17.1852    1.0000 </r>
       <r>  -17.1540    1.0000 </r>
       <r>  -17.0006    1.0000 </r>
       <r>  -16.8957    1.0000 </r>
       <r>  -16.7237    1.0000 </r>
       <r>  -16.7098    1.0000 </r>
       <r>  -16.6834    1.0000 </r>
       <r>  -16.6033    1.0000 </r>
       <r>  -16.5559    1.0000 </r>
       <r>  -16.4793    1.0000 </r>
       <r>  -16.4542    1.0000 </r>
       <r>  -16.4267    1.0000 </r>
       <r>  -16.3216    1.0000 </r>
       <r>  -16.2424    1.0000 </r>
       <r>  -16.1470    1.0000 </r>
       <r>  -16.0796    1.0000 </r>
       <r>  -16.0134    1.0000 </r>
       <r>  -15.9764    1.0000 </r>
       <r>  -15.5808    1.0000 </r>
       <r>  -15.4438    1.0000 </r>
       <r>  -15.4214    1.0000 </r>
       <r>  -15.2975    1.0000 </r>
       <r>  -15.2079    1.0000 </r>
       <r>  -15.1669    1.0000 </r>
       <r>  -14.9996    1.0000 </r>
       <r>  -14.4515    1.0000 </r>
       <r>  -14.1955    1.0000 </r>
       <r>  -14.1527    1.0000 </r>
       <r>  -14.0251    1.0000 </r>
       <r>  -13.9317    1.0000 </r>
       <r>  -13.7349    1.0000 </r>
       <r>  -13.6935    1.0000 </r>
       <r>  -13.6485    1.0000 </r>
       <r>  -13.4816    1.0000 </r>
       <r>  -13.3943    1.0000 </r>
       <r>  -13.3096    1.0000 </r>
       <r>  -13.1878    1.0000 </r>
       <r>  -13.1264    1.0000 </r>
       <r>  -12.8804    1.0000 </r>
       <r>  -12.6511    1.0000 </r>
       <r>  -12.4346    1.0000 </r>
       <r>  -12.1869    1.0000 </r>
       <r>  -12.0570    1.0000 </r>
       <r>  -12.0283    1.0000 </r>
       <r>  -12.0068    1.0000 </r>
       <r>  -11.8648    1.0000 </r>
       <r>  -11.8548    1.0000 </r>
       <r>  -11.7508    1.0000 </r>
       <r>  -11.4909    1.0000 </r>
       <r>  -11.3162    1.0000 </r>
       <r>  -11.2585    1.0000 </r>
       <r>  -11.1163    1.0000 </r>
       <r>  -11.0960    1.0000 </r>
       <r>  -10.9889    1.0000 </r>
       <r>  -10.8813    1.0000 </r>
       <r>  -10.7561    1.0000 </r>
       <r>  -10.7076    1.0000 </r>
       <r>  -10.6951    1.0000 </r>
       <r>  -10.6174    1.0000 </r>
       <r>  -10.5667    1.0000 </r>
       <r>  -10.5445    1.0000 </r>
       <r>  -10.5175    1.0000 </r>
       <r>  -10.4759    1.0000 </r>
       <r>  -10.3806    1.0000 </r>
       <r>  -10.2869    1.0000 </r>
       <r>  -10.2762    1.0000 </r>
       <r>  -10.2492    1.0000 </r>
       <r>  -10.1017    1.0000 </r>
       <r>   -9.9759    1.0000 </r>
       <r>   -9.9392    1.0000 </r>
       <r>   -9.8172    1.0000 </r>
       <r>   -9.7657    1.0000 </r>
       <r>   -9.7484    1.0000 </r>
       <r>   -9.7143    1.0000 </r>
       <r>   -9.6999    1.0000 </r>
       <r>   -9.6001    1.0000 </r>
       <r>   -9.5896    1.0000 </r>
       <r>   -9.5697    1.0000 </r>
       <r>   -9.5553    1.0000 </r>
       <r>   -9.5419    1.0000 </r>
       <r>   -9.5148    1.0000 </r>
       <r>   -9.4846    1.0000 </r>
       <r>   -9.4598    1.0000 </r>
       <r>   -9.4032    1.0000 </r>
       <r>   -9.3738    1.0000 </r>
       <r>   -9.3690    1.0000 </r>
       <r>   -9.3569    1.0000 </r>
       <r>   -9.3456    1.0000 </r>
       <r>   -9.2909    1.0000 </r>
       <r>   -9.2385    1.0000 </r>
       <r>   -9.1496    1.0000 </r>
       <r>   -9.1272    1.0000 </r>
       <r>   -9.1027    1.0000 </r>
       <r>   -9.0093    1.0000 </r>
       <r>   -8.9961    1.0000 </r>
       <r>   -8.9680    1.0000 </r>
       <r>   -8.9381    1.0000 </r>
       <r>   -8.9010    1.0000 </r>
       <r>   -8.8863    1.0000 </r>
       <r>   -8.8671    1.0000 </r>
       <r>   -8.7938    1.0000 </r>
       <r>   -8.7607    1.0000 </r>
       <r>   -8.6906    1.0000 </r>
       <r>   -8.6713    1.0000 </r>
       <r>   -8.6489    1.0000 </r>
       <r>   -8.5676    1.0000 </r>
       <r>   -8.5325    1.0000 </r>
       <r>   -8.4555    1.0000 </r>
       <r>   -8.4276    1.0000 </r>
       <r>   -8.0606    1.0000 </r>
       <r>   -7.9932    1.0000 </r>
       <r>   -7.9002    1.0000 </r>
       <r>   -7.8004    1.0000 </r>
       <r>   -7.7228    1.0000 </r>
       <r>   -7.6042    1.0000 </r>
       <r>   -7.5661    1.0000 </r>
       <r>   -7.4595    1.0000 </r>
       <r>   -7.4028    1.0000 </r>
       <r>   -7.3565    1.0000 </r>
       <r>   -7.3305    1.0000 </r>
       <r>   -7.1159    1.0000 </r>
       <r>   -7.0651    1.0000 </r>
       <r>   -6.9293    1.0000 </r>
       <r>   -6.8505    1.0000 </r>
       <r>   -6.6780    1.0000 </r>
       <r>   -6.6354    1.0000 </r>
       <r>   -6.5342    1.0000 </r>
       <r>   -6.4729    1.0000 </r>
       <r>   -6.2266    1.0000 </r>
       <r>   -6.1660    1.0000 </r>
       <r>   -6.0162    1.0000 </r>
       <r>   -5.9874    1.0000 </r>
       <r>   -5.9393    1.0000 </r>
       <r>   -5.8988    1.0000 </r>
       <r>   -5.8767    1.0000 </r>
       <r>   -5.8551    1.0000 </r>
       <r>   -5.0985    1.0000 </r>
       <r>   -4.9790    1.0000 </r>
       <r>   -4.9041    1.0000 </r>
       <r>   -4.5712    1.0000 </r>
       <r>   -4.5304    1.0000 </r>
       <r>   -4.4512    1.0000 </r>
       <r>   -4.4394    1.0000 </r>
       <r>   -4.3537    1.0000 </r>
       <r>   -3.7936    1.0000 </r>
       <r>   -3.6876    1.0000 </r>
       <r>   -3.1234    0.5613 </r>
       <r>   -3.0314    0.3098 </r>
       <r>   -2.7225    0.0037 </r>
       <r>   -2.6525    0.0007 </r>
       <r>   -2.6031    0.0002 </r>
       <r>   -2.1667    0.0000 </r>
       <r>   -2.0458    0.0000 </r>
       <r>   -1.7160    0.0000 </r>
       <r>   -1.5891    0.0000 </r>
       <r>   -1.4921    0.0000 </r>
       <r>   -1.4486    0.0000 </r>
       <r>   -1.3925    0.0000 </r>
       <r>   -1.3707    0.0000 </r>
       <r>   -1.3101    0.0000 </r>
       <r>   -0.8697    0.0000 </r>
       <r>   -0.7778    0.0000 </r>
       <r>   -0.6434    0.0000 </r>
       <r>   -0.4361    0.0000 </r>
       <r>   -0.3853    0.0000 </r>
       <r>   -0.0658    0.0000 </r>
       <r>    0.0882    0.0000 </r>
       <r>    0.1371    0.0000 </r>
       <r>    0.1525    0.0000 </r>
       <r>    0.2473    0.0000 </r>
       <r>    0.6260    0.0000 </r>
       <r>    0.6562    0.0000 </r>
       <r>    0.6987    0.0000 </r>
       <r>    0.7506    0.0000 </r>
       <r>    0.8963    0.0000 </r>
       <r>    0.9038    0.0000 </r>
       <r>    0.9439    0.0000 </r>
       <r>    0.9638    0.0000 </r>
       <r>    1.0216    0.0000 </r>
       <r>    1.0629    0.0000 </r>
       <r>    1.1344    0.0000 </r>
       <r>    1.1463    0.0000 </r>
       <r>    1.1973    0.0000 </r>
       <r>    1.2940    0.0000 </r>
       <r>    1.3236    0.0000 </r>
       <r>    1.3379    0.0000 </r>
       <r>    1.3898    0.0000 </r>
       <r>    1.4527    0.0000 </r>
       <r>    1.5365    0.0000 </r>
       <r>    1.5594    0.0000 </r>
       <r>    1.6892    0.0000 </r>
       <r>    1.7096    0.0000 </r>
       <r>    1.7123    0.0000 </r>
       <r>    1.7151    0.0000 </r>
       <r>    1.7842    0.0000 </r>
      </set>
      <set comment="kpoint 2">
       <r>  -23.1336    1.0000 </r>
       <r>  -23.0354    1.0000 </r>
       <r>  -22.9016    1.0000 </r>
       <r>  -22.6123    1.0000 </r>
       <r>  -22.5785    1.0000 </r>
       <r>  -22.5099    1.0000 </r>
       <r>  -22.2544    1.0000 </r>
       <r>  -22.1063    1.0000 </r>
       <r>  -21.9883    1.0000 </r>
       <r>  -21.8663    1.0000 </r>
       <r>  -21.8354    1.0000 </r>
       <r>  -21.7018    1.0000 </r>
       <r>  -21.2999    1.0000 </r>
       <r>  -21.1331    1.0000 </r>
       <r>  -21.0799    1.0000 </r>
       <r>  -20.9903    1.0000 </r>
       <r>  -20.7031    1.0000 </r>
       <r>  -20.5601    1.0000 </r>
       <r>  -20.4919    1.0000 </r>
       <r>  -20.3206    1.0000 </r>
       <r>  -20.2196    1.0000 </r>
       <r>  -20.1284    1.0000 </r>
       <r>  -20.0555    1.0000 </r>
       <r>  -19.9530    1.0000 </r>
       <r>  -19.8453    1.0000 </r>
       <r>  -19.5496    1.0000 </r>
       <r>  -19.5030    1.0000 </r>
       <r>  -19.1539    1.0000 </r>
       <r>  -19.0589    1.0000 </r>
       <r>  -18.8922    1.0000 </r>
       <r>  -18.7021    1.0000 </r>
       <r>  -18.5718    1.0000 </r>
       <r>  -18.5194    1.0000 </r>
       <r>  -18.3238    1.0000 </r>
       <r>  -18.1837    1.0000 </r>
       <r>  -18.0715    1.0000 </r>
       <r>  -18.0552    1.0000 </r>
       <r>  -17.9725    1.0000 </r>
       <r>  -17.8340    1.0000 </r>
       <r>  -17.7769    1.0000 </r>
       <r>  -17.4858    1.0000 </r>
       <r>  -17.3616    1.0000 </r>
       <r>  -17.2851    1.0000 </r>
       <r>  -17.1305    1.0000 </r>
       <r>  -17.0262    1.0000 </r>
       <r>  -16.6192    1.0000 </r>
       <r>  -16.4014    1.0000 </r>
       <r>  -16.1836    1.0000 </r>
       <r>  -16.0788    1.0000 </r>
       <r>  -15.8769    1.0000 </r>
       <r>  -15.8282    1.0000 </r>
       <r>  -15.6851    1.0000 </r>
       <r>  -15.6116    1.0000 </r>
       <r>  -15.4099    1.0000 </r>
       <r>  -15.3390    1.0000 </r>
       <r>  -15.2454    1.0000 </r>
       <r>  -15.1850    1.0000 </r>
       <r>  -15.1034    1.0000 </r>
       <r>  -14.9830    1.0000 </r>
       <r>  -14.9675    1.0000 </r>
       <r>  -14.9016    1.0000 </r>
       <r>  -14.7603    1.0000 </r>
       <r>  -14.5468    1.0000 </r>
       <r>  -14.3541    1.0000 </r>
       <r>  -14.3479    1.0000 </r>
       <r>  -14.1446    1.0000 </r>
       <r>  -13.9599    1.0000 </r>
       <r>  -13.9287    1.0000 </r>
       <r>  -13.3827    1.0000 </r>
       <r>  -13.2609    1.0000 </r>
       <r>  -13.1970    1.0000 </r>
       <r>  -13.1386    1.0000 </r>
       <r>  -12.9169    1.0000 </r>
       <r>  -12.8694    1.0000 </r>
       <r>  -12.7939    1.0000 </r>
       <r>  -12.7296    1.0000 </r>
       <r>  -12.6527    1.0000 </r>
       <r>  -12.5667    1.0000 </r>
       <r>  -12.4044    1.0000 </r>
       <r>  -12.3371    1.0000 </r>
       <r>  -12.2018    1.0000 </r>
       <r>  -12.1663    1.0000 </r>
       <r>  -12.0257    1.0000 </r>
       <r>  -11.9606    1.0000 </r>
       <r>  -11.7073    1.0000 </r>
       <r>  -11.6503    1.0000 </r>
       <r>  -11.4471    1.0000 </r>
       <r>  -11.3107    1.0000 </r>
       <r>  -11.2389    1.0000 </r>
       <r>  -11.1870    1.0000 </r>
       <r>  -11.1003    1.0000 </r>
       <r>  -11.0416    1.0000 </r>
       <r>  -11.0101    1.0000 </r>
       <r>  -10.9850    1.0000 </r>
       <r>  -10.9199    1.0000 </r>
       <r>  -10.8886    1.0000 </r>
       <r>  -10.8670    1.0000 </r>
       <r>  -10.8236    1.0000 </r>
       <r>  -10.7571    1.0000 </r>
       <r>  -10.6508    1.0000 </r>
       <r>  -10.6081    1.0000 </r>
       <r>  -10.4904    1.0000 </r>
       <r>  -10.4526    1.0000 </r>
       <r>  -10.4122    1.0000 </r>
       <r>  -10.3748    1.0000 </r>
       <r>  -10.3603    1.0000 </r>
       <r>  -10.2921    1.0000 </r>
       <r>  -10.1347    1.0000 </r>
       <r>  -10.0934    1.0000 </r>
       <r>  -10.0307    1.0000 </r>
       <r>   -9.9725    1.0000 </r>
       <r>   -9.9281    1.0000 </r>
       <r>   -9.8992    1.0000 </r>
       <r>   -9.8238    1.0000 </r>
       <r>   -9.7348    1.0000 </r>
       <r>   -9.6727    1.0000 </r>
       <r>   -9.6381    1.0000 </r>
       <r>   -9.6082    1.0000 </r>
       <r>   -9.5560    1.0000 </r>
       <r>   -9.5278    1.0000 </r>
       <r>   -9.5138    1.0000 </r>
       <r>   -9.4682    1.0000 </r>
       <r>   -9.4418    1.0000 </r>
       <r>   -9.3400    1.0000 </r>
       <r>   -9.3101    1.0000 </r>
       <r>   -9.2404    1.0000 </r>
       <r>   -9.0300    1.0000 </r>
       <r>   -8.9390    1.0000 </r>
       <r>   -8.8815    1.0000 </r>
       <r>   -8.8395    1.0000 </r>
       <r>   -8.7560    1.0000 </r>
       <r>   -8.7168    1.0000 </r>
       <r>   -8.6656    1.0000 </r>
       <r>   -8.6372    1.0000 </r>
       <r>   -8.5908    1.0000 </r>
       <r>   -8.5470    1.0000 </r>
       <r>   -8.5141    1.0000 </r>
       <r>   -8.4471    1.0000 </r>
       <r>   -8.4160    1.0000 </r>
       <r>   -8.3263    1.0000 </r>
       <r>   -8.2418    1.0000 </r>
       <r>   -8.1980    1.0000 </r>
       <r>   -8.1641    1.0000 </r>
       <r>   -8.0997    1.0000 </r>
       <r>   -8.0710    1.0000 </r>
       <r>   -7.9974    1.0000 </r>
       <r>   -7.9337    1.0000 </r>
       <r>   -7.8283    1.0000 </r>
       <r>   -7.7644    1.0000 </r>
       <r>   -7.7198    1.0000 </r>
       <r>   -7.6750    1.0000 </r>
       <r>   -7.5041    1.0000 </r>
       <r>   -7.4902    1.0000 </r>
       <r>   -7.3665    1.0000 </r>
       <r>   -7.3324    1.0000 </r>
       <r>   -7.2948    1.0000 </r>
       <r>   -7.2167    1.0000 </r>
       <r>   -7.0134    1.0000 </r>
       <r>   -6.9465    1.0000 </r>
       <r>   -6.8628    1.0000 </r>
       <r>   -6.8341    1.0000 </r>
       <r>   -6.6661    1.0000 </r>
       <r>   -6.6451    1.0000 </r>
       <r>   -6.5504    1.0000 </r>
       <r>   -6.4973    1.0000 </r>
       <r>   -6.2901    1.0000 </r>
       <r>   -6.1359    1.0000 </r>
       <r>   -6.1178    1.0000 </r>
       <r>   -6.0574    1.0000 </r>
       <r>   -5.9835    1.0000 </r>
       <r>   -5.8720    1.0000 </r>
       <r>   -5.7693    1.0000 </r>
       <r>   -5.7467    1.0000 </r>
       <r>   -5.6376    1.0000 </r>
       <r>   -5.5647    1.0000 </r>
       <r>   -5.4850    1.0000 </r>
       <r>   -5.1880    1.0000 </r>
       <r>   -5.1388    1.0000 </r>
       <r>   -4.7236    1.0000 </r>
       <r>   -4.6408    1.0000 </r>
       <r>   -4.5147    1.0000 </r>
       <r>   -4.4143    1.0000 </r>
       <r>   -4.3596    1.0000 </r>
       <r>   -3.4691    0.9953 </r>
       <r>   -2.8882    0.0656 </r>
       <r>   -2.6034    0.0002 </r>
       <r>   -2.1139    0.0000 </r>
       <r>   -2.0393    0.0000 </r>
       <r>   -1.5959    0.0000 </r>
       <r>   -1.4999    0.0000 </r>
       <r>   -1.4418    0.0000 </r>
       <r>   -1.3813    0.0000 </r>
       <r>   -1.2599    0.0000 </r>
       <r>   -1.2344    0.0000 </r>
       <r>   -1.0870    0.0000 </r>
       <r>   -0.9898    0.0000 </r>
       <r>   -0.9574    0.0000 </r>
       <r>   -0.8648    0.0000 </r>
       <r>   -0.7461    0.0000 </r>
       <r>   -0.3638    0.0000 </r>
       <r>   -0.1497    0.0000 </r>
       <r>   -0.0947    0.0000 </r>
       <r>   -0.0291    0.0000 </r>
       <r>    0.0813    0.0000 </r>
       <r>    0.1136    0.0000 </r>
       <r>    0.2337    0.0000 </r>
       <r>    0.2755    0.0000 </r>
       <r>    0.3182    0.0000 </r>
       <r>    0.3486    0.0000 </r>
       <r>    0.7901    0.0000 </r>
       <r>    0.8010    0.0000 </r>
       <r>    0.8412    0.0000 </r>
       <r>    1.0427    0.0000 </r>
       <r>    1.0441    0.0000 </r>
       <r>    1.0808    0.0000 </r>
       <r>    1.1064    0.0000 </r>
       <r>    1.1849    0.0000 </r>
       <r>    1.2466    0.0000 </r>
       <r>    1.2773    0.0000 </r>
       <r>    1.2892    0.0000 </r>
       <r>    1.3397    0.0000 </r>
       <r>    1.3992    0.0000 </r>
       <r>    1.4168    0.0000 </r>
       <r>    1.4367    0.0000 </r>
       <r>    1.4662    0.0000 </r>
       <r>    1.4675    0.0000 </r>
       <r>    1.5302    0.0000 </r>
       <r>    1.5787    0.0000 </r>
       <r>    1.5984    0.0000 </r>
       <r>    1.6799    0.0000 </r>
       <r>    1.6914    0.0000 </r>
       <r>    1.7091    0.0000 </r>
      </set>
      <set comment="kpoint 3">
       <r>  -22.8929    1.0000 </r>
       <r>  -22.8884    1.0000 </r>
       <r>  -22.7789    1.0000 </r>
       <r>  -22.7386    1.0000 </r>
       <r>  -22.6030    1.0000 </r>
       <r>  -22.5804    1.0000 </r>
       <r>  -22.3413    1.0000 </r>
       <r>  -22.2996    1.0000 </r>
       <r>  -22.2166    1.0000 </r>
       <r>  -22.1804    1.0000 </r>
       <r>  -21.7319    1.0000 </r>
       <r>  -21.7205    1.0000 </r>
       <r>  -21.5566    1.0000 </r>
       <r>  -21.5465    1.0000 </r>
       <r>  -20.9106    1.0000 </r>
       <r>  -20.8790    1.0000 </r>
       <r>  -20.7121    1.0000 </r>
       <r>  -20.6927    1.0000 </r>
       <r>  -19.9569    1.0000 </r>
       <r>  -19.9149    1.0000 </r>
       <r>  -19.7062    1.0000 </r>
       <r>  -19.6354    1.0000 </r>
       <r>  -19.5656    1.0000 </r>
       <r>  -19.5352    1.0000 </r>
       <r>  -19.4700    1.0000 </r>
       <r>  -19.4047    1.0000 </r>
       <r>  -19.2769    1.0000 </r>
       <r>  -19.2568    1.0000 </r>
       <r>  -19.0950    1.0000 </r>
       <r>  -19.0148    1.0000 </r>
       <r>  -18.9648    1.0000 </r>
       <r>  -18.9176    1.0000 </r>
       <r>  -18.6552    1.0000 </r>
       <r>  -18.6118    1.0000 </r>
       <r>  -18.4855    1.0000 </r>
       <r>  -18.4465    1.0000 </r>
       <r>  -18.2757    1.0000 </r>
       <r>  -18.2302    1.0000 </r>
       <r>  -18.1572    1.0000 </r>
       <r>  -18.1209    1.0000 </r>
       <r>  -17.7695    1.0000 </r>
       <r>  -17.7138    1.0000 </r>
       <r>  -17.6328    1.0000 </r>
       <r>  -17.5754    1.0000 </r>
       <r>  -16.9169    1.0000 </r>
       <r>  -16.8044    1.0000 </r>
       <r>  -16.2958    1.0000 </r>
       <r>  -16.2654    1.0000 </r>
       <r>  -16.0941    1.0000 </r>
       <r>  -16.0532    1.0000 </r>
       <r>  -15.9320    1.0000 </r>
       <r>  -15.9291    1.0000 </r>
       <r>  -15.3130    1.0000 </r>
       <r>  -15.2262    1.0000 </r>
       <r>  -15.0842    1.0000 </r>
       <r>  -15.0559    1.0000 </r>
       <r>  -14.8555    1.0000 </r>
       <r>  -14.8120    1.0000 </r>
       <r>  -14.7664    1.0000 </r>
       <r>  -14.7502    1.0000 </r>
       <r>  -13.9920    1.0000 </r>
       <r>  -13.9580    1.0000 </r>
       <r>  -13.8763    1.0000 </r>
       <r>  -13.7938    1.0000 </r>
       <r>  -13.7486    1.0000 </r>
       <r>  -13.6677    1.0000 </r>
       <r>  -13.6397    1.0000 </r>
       <r>  -13.6080    1.0000 </r>
       <r>  -13.5848    1.0000 </r>
       <r>  -13.5652    1.0000 </r>
       <r>  -13.5209    1.0000 </r>
       <r>  -13.4876    1.0000 </r>
       <r>  -13.4114    1.0000 </r>
       <r>  -13.3514    1.0000 </r>
       <r>  -13.1320    1.0000 </r>
       <r>  -13.0203    1.0000 </r>
       <r>  -12.3618    1.0000 </r>
       <r>  -12.3113    1.0000 </r>
       <r>  -12.2327    1.0000 </r>
       <r>  -12.1996    1.0000 </r>
       <r>  -12.1470    1.0000 </r>
       <r>  -12.0840    1.0000 </r>
       <r>  -12.0243    1.0000 </r>
       <r>  -11.9626    1.0000 </r>
       <r>  -11.8858    1.0000 </r>
       <r>  -11.8645    1.0000 </r>
       <r>  -11.8243    1.0000 </r>
       <r>  -11.7606    1.0000 </r>
       <r>  -11.6576    1.0000 </r>
       <r>  -11.6271    1.0000 </r>
       <r>  -11.3699    1.0000 </r>
       <r>  -11.2577    1.0000 </r>
       <r>  -11.2225    1.0000 </r>
       <r>  -11.1751    1.0000 </r>
       <r>  -11.0154    1.0000 </r>
       <r>  -10.9631    1.0000 </r>
       <r>  -10.7749    1.0000 </r>
       <r>  -10.7125    1.0000 </r>
       <r>  -10.7026    1.0000 </r>
       <r>  -10.6737    1.0000 </r>
       <r>  -10.5634    1.0000 </r>
       <r>  -10.5335    1.0000 </r>
       <r>  -10.5198    1.0000 </r>
       <r>  -10.5146    1.0000 </r>
       <r>  -10.4846    1.0000 </r>
       <r>  -10.3817    1.0000 </r>
       <r>  -10.3593    1.0000 </r>
       <r>  -10.2963    1.0000 </r>
       <r>  -10.2685    1.0000 </r>
       <r>  -10.2513    1.0000 </r>
       <r>  -10.2087    1.0000 </r>
       <r>  -10.1532    1.0000 </r>
       <r>  -10.1200    1.0000 </r>
       <r>  -10.0830    1.0000 </r>
       <r>  -10.0522    1.0000 </r>
       <r>  -10.0251    1.0000 </r>
       <r>   -9.9468    1.0000 </r>
       <r>   -9.9370    1.0000 </r>
       <r>   -9.7848    1.0000 </r>
       <r>   -9.6983    1.0000 </r>
       <r>   -9.4265    1.0000 </r>
       <r>   -9.3871    1.0000 </r>
       <r>   -9.3331    1.0000 </r>
       <r>   -9.3001    1.0000 </r>
       <r>   -9.2485    1.0000 </r>
       <r>   -9.1934    1.0000 </r>
       <r>   -9.0091    1.0000 </r>
       <r>   -8.9692    1.0000 </r>
       <r>   -8.8727    1.0000 </r>
       <r>   -8.7570    1.0000 </r>
[...]
       <r>   -22.7090    14.3801     7.0125 </r>
       <r>   -22.6123    16.0702     8.5663 </r>
       <r>   -22.5156    16.2725    10.1397 </r>
       <r>   -22.4189    14.4723    11.5390 </r>
       <r>   -22.3222    12.9010    12.7864 </r>
       <r>   -22.2255    12.8310    14.0271 </r>
       <r>   -22.1288    13.2505    15.3083 </r>
       <r>   -22.0322    13.3383    16.5980 </r>
       <r>   -21.9355    13.3956    17.8932 </r>
       <r>   -21.8388    13.6817    19.2161 </r>
       <r>   -21.7421    13.8102    20.5514 </r>
       <r>   -21.6454    13.2752    21.8350 </r>
       <r>   -21.5487    12.1165    23.0065 </r>
       <r>   -21.4520    11.1101    24.0808 </r>
       <r>   -21.3553    11.2694    25.1704 </r>
       <r>   -21.2586    12.8719    26.4150 </r>
       <r>   -21.1619    15.1042    27.8754 </r>
       <r>   -21.0653    16.5491    29.4756 </r>
       <r>   -20.9686    16.1449    31.0366 </r>
       <r>   -20.8719    14.3649    32.4256 </r>
       <r>   -20.7752    12.8903    33.6719 </r>
       <r>   -20.6785    12.6058    34.8908 </r>
       <r>   -20.5818    12.8284    36.1312 </r>
       <r>   -20.4851    12.7362    37.3627 </r>
       <r>   -20.3884    12.5536    38.5765 </r>
       <r>   -20.2917    13.0636    39.8396 </r>
       <r>   -20.1950    14.3817    41.2302 </r>
       <r>   -20.0983    15.6911    42.7473 </r>
       <r>   -20.0017    16.0611    44.3003 </r>
       <r>   -19.9050    15.0761    45.7580 </r>
       <r>   -19.8083    13.3928    47.0530 </r>
       <r>   -19.7116    12.9300    48.3032 </r>
       <r>   -19.6149    14.6849    49.7231 </r>
       <r>   -19.5182    16.5268    51.3211 </r>
       <r>   -19.4215    15.7549    52.8444 </r>
       <r>   -19.3248    13.2741    54.1279 </r>
       <r>   -19.2281    12.0550    55.2935 </r>
       <r>   -19.1314    12.7977    56.5309 </r>
       <r>   -19.0348    13.9202    57.8769 </r>
       <r>   -18.9381    13.9831    59.2289 </r>
       <r>   -18.8414    13.1568    60.5010 </r>
       <r>   -18.7447    13.3152    61.7885 </r>
       <r>   -18.6480    15.4613    63.2834 </r>
       <r>   -18.5513    17.5308    64.9785 </r>
       <r>   -18.4546    17.3216    66.6533 </r>
       <r>   -18.3579    15.9189    68.1925 </r>
       <r>   -18.2612    15.7446    69.7149 </r>
       <r>   -18.1645    16.8923    71.3482 </r>
       <r>   -18.0679    17.2522    73.0163 </r>
       <r>   -17.9712    15.7462    74.5388 </r>
       <r>   -17.8745    13.8182    75.8749 </r>
       <r>   -17.7778    12.8873    77.1210 </r>
       <r>   -17.6811    12.3604    78.3161 </r>
       <r>   -17.5844    11.4671    79.4249 </r>
       <r>   -17.4877    10.7311    80.4625 </r>
       <r>   -17.3910    10.9082    81.5172 </r>
       <r>   -17.2943    11.8323    82.6613 </r>
       <r>   -17.1976    12.6359    83.8830 </r>
       <r>   -17.1009    12.7165    85.1126 </r>
       <r>   -17.0043    12.0256    86.2753 </r>
       <r>   -16.9076    10.9962    87.3386 </r>
       <r>   -16.8109    10.5694    88.3605 </r>
       <r>   -16.7142    11.3823    89.4611 </r>
       <r>   -16.6175    12.8192    90.7006 </r>
       <r>   -16.5208    13.8852    92.0431 </r>
       <r>   -16.4241    14.5177    93.4469 </r>
       <r>   -16.3274    15.1953    94.9161 </r>
       <r>   -16.2307    16.2754    96.4898 </r>
       <r>   -16.1340    17.6555    98.1969 </r>
       <r>   -16.0374    18.4304    99.9789 </r>
       <r>   -15.9407    17.6694   101.6874 </r>
       <r>   -15.8440    15.5133   103.1874 </r>
       <r>   -15.7473    13.0979   104.4538 </r>
       <r>   -15.6506    11.6502   105.5803 </r>
       <r>   -15.5539    11.7008   106.7117 </r>
       <r>   -15.4572    13.4280   108.0100 </r>
       <r>   -15.3605    16.6249   109.6175 </r>
       <r>   -15.2638    19.9246   111.5440 </r>
       <r>   -15.1671    21.7501   113.6470 </r>
       <r>   -15.0704    21.8269   115.7575 </r>
       <r>   -14.9738    20.8006   117.7687 </r>
       <r>   -14.8771    18.9358   119.5996 </r>
       <r>   -14.7804    16.0522   121.1517 </r>
       <r>   -14.6837    12.4708   122.3575 </r>
       <r>   -14.5870     9.5867   123.2845 </r>
       <r>   -14.4903     8.7360   124.1292 </r>
       <r>   -14.3936     9.5202   125.0497 </r>
       <r>   -14.2969    10.5252   126.0673 </r>
       <r>   -14.2002    11.3662   127.1663 </r>
       <r>   -14.1035    12.8376   128.4076 </r>
       <r>   -14.0069    15.0781   129.8655 </r>
       <r>   -13.9102    16.7378   131.4839 </r>
       <r>   -13.8135    16.9672   133.1245 </r>
       <r>   -13.7168    16.9512   134.7635 </r>
       <r>   -13.6201    17.5941   136.4647 </r>
       <r>   -13.5234    18.2290   138.2273 </r>
       <r>   -13.4267    18.5012   140.0161 </r>
       <r>   -13.3300    18.7098   141.8252 </r>
       <r>   -13.2333    18.6568   143.6291 </r>
       <r>   -13.1366    17.6077   145.3316 </r>
       <r>   -13.0400    15.6494   146.8448 </r>
       <r>   -12.9433    14.3902   148.2362 </r>
       <r>   -12.8466    14.6582   149.6535 </r>
       <r>   -12.7499    15.1501   151.1183 </r>
       <r>   -12.6532    14.6579   152.5356 </r>
       <r>   -12.5565    13.6497   153.8554 </r>
       <r>   -12.4598    13.6724   155.1774 </r>
       <r>   -12.3631    15.6630   156.6919 </r>
       <r>   -12.2664    18.9071   158.5200 </r>
       <r>   -12.1697    22.0379   160.6509 </r>
       <r>   -12.0730    24.0403   162.9753 </r>
       <r>   -11.9764    24.3117   165.3260 </r>
       <r>   -11.8797    22.8896   167.5392 </r>
       <r>   -11.7830    20.5966   169.5307 </r>
       <r>   -11.6863    18.0760   171.2785 </r>
       <r>   -11.5896    15.4454   172.7719 </r>
       <r>   -11.4929    13.7925   174.1055 </r>
       <r>   -11.3962    14.9308   175.5492 </r>
       <r>   -11.2995    18.9068   177.3773 </r>
       <r>   -11.2028    23.7017   179.6690 </r>
       <r>   -11.1061    27.6532   182.3428 </r>
       <r>   -11.0095    30.4892   185.2908 </r>
       <r>   -10.9128    32.0824   188.3929 </r>
       <r>   -10.8161    32.5917   191.5442 </r>
       <r>   -10.7194    33.2330   194.7575 </r>
       <r>   -10.6227    35.0370   198.1453 </r>
       <r>   -10.5260    37.5888   201.7797 </r>
       <r>   -10.4293    39.2731   205.5771 </r>
       <r>   -10.3326    38.6167   209.3109 </r>
       <r>   -10.2359    36.0143   212.7932 </r>
       <r>   -10.1392    33.7506   216.0565 </r>
       <r>   -10.0425    33.2156   219.2681 </r>
       <r>    -9.9459    33.2718   222.4852 </r>
       <r>    -9.8492    33.0638   225.6822 </r>
       <r>    -9.7525    34.1244   228.9817 </r>
       <r>    -9.6558    37.7306   232.6298 </r>
       <r>    -9.5591    42.3027   236.7201 </r>
       <r>    -9.4624    44.7601   241.0480 </r>
       <r>    -9.3657    43.1791   245.2230 </r>
       <r>    -9.2690    37.7715   248.8751 </r>
       <r>    -9.1723    31.1529   251.8873 </r>
       <r>    -9.0756    27.5875   254.5547 </r>
       <r>    -8.9790    28.9873   257.3575 </r>
       <r>    -8.8823    32.7728   260.5264 </r>
       <r>    -8.7856    35.8061   263.9885 </r>
       <r>    -8.6889    37.3777   267.6025 </r>
       <r>    -8.5922    37.4232   271.2210 </r>
       <r>    -8.4955    35.6348   274.6665 </r>
       <r>    -8.3988    32.6154   277.8201 </r>
       <r>    -8.3021    29.9087   280.7120 </r>
       <r>    -8.2054    28.4641   283.4642 </r>
       <r>    -8.1087    27.4951   286.1227 </r>
       <r>    -8.0121    26.0660   288.6431 </r>
       <r>    -7.9154    25.0293   291.0631 </r>
       <r>    -7.8187    25.6669   293.5449 </r>
       <r>    -7.7220    27.1987   296.1747 </r>
       <r>    -7.6253    27.8414   298.8667 </r>
       <r>    -7.5286    27.9678   301.5710 </r>
       <r>    -7.4319    29.0638   304.3811 </r>
       <r>    -7.3352    30.3064   307.3115 </r>
       <r>    -7.2385    29.5066   310.1645 </r>
       <r>    -7.1418    26.7240   312.7484 </r>
       <r>    -7.0451    24.3258   315.1005 </r>
       <r>    -6.9485    23.6531   317.3875 </r>
       <r>    -6.8518    23.9544   319.7037 </r>
       <r>    -6.7551    24.6370   322.0859 </r>
       <r>    -6.6584    25.6978   324.5706 </r>
       <r>    -6.5617    25.5649   327.0425 </r>
       <r>    -6.4650    22.7200   329.2393 </r>
       <r>    -6.3683    19.1532   331.0912 </r>
       <r>    -6.2716    17.9646   332.8282 </r>
       <r>    -6.1749    19.4860   334.7123 </r>
       <r>    -6.0782    22.2374   336.8625 </r>
       <r>    -5.9816    24.9407   339.2740 </r>
       <r>    -5.8849    26.4519   341.8316 </r>
       <r>    -5.7882    25.9124   344.3371 </r>
       <r>    -5.6915    23.5818   346.6173 </r>
       <r>    -5.5948    20.1136   348.5620 </r>
       <r>    -5.4981    15.6441   350.0747 </r>
       <r>    -5.4014    11.2776   351.1651 </r>
       <r>    -5.3047     9.5458   352.0881 </r>
       <r>    -5.2080    11.1224   353.1635 </r>
       <r>    -5.1113    12.9293   354.4137 </r>
       <r>    -5.0146    11.9103   355.5653 </r>
       <r>    -4.9180     9.0037   356.4359 </r>
       <r>    -4.8213     7.2508   357.1369 </r>
       <r>    -4.7246     8.1307   357.9231 </r>
       <r>    -4.6279    10.9597   358.9828 </r>
       <r>    -4.5312    14.0479   360.3411 </r>
       <r>    -4.4345    15.4245   361.8325 </r>
       <r>    -4.3378    13.6190   363.1493 </r>
       <r>    -4.2411     9.3729   364.0556 </r>
       <r>    -4.1444     5.4008   364.5778 </r>
       <r>    -4.0477     3.4195   364.9084 </r>
       <r>    -3.9511     3.0848   365.2067 </r>
       <r>    -3.8544     3.4397   365.5393 </r>
       <r>    -3.7577     3.7628   365.9031 </r>
       <r>    -3.6610     3.7748   366.2681 </r>
       <r>    -3.5643     3.6949   366.6253 </r>
       <r>    -3.4676     3.5940   366.9729 </r>
       <r>    -3.3709     3.1114   367.2737 </r>
       <r>    -3.2742     2.4569   367.5113 </r>
       <r>    -3.1775     2.4911   367.7521 </r>
       <r>    -3.0808     3.3903   368.0799 </r>
       <r>    -2.9842     4.5489   368.5198 </r>
       <r>    -2.8875     5.6931   369.0702 </r>
       <r>    -2.7908     7.2107   369.7674 </r>
       <r>    -2.6941     9.1223   370.6495 </r>
       <r>    -2.5974     9.9005   371.6068 </r>
       <r>    -2.5007     8.0324   372.3834 </r>
       <r>    -2.4040     4.8378   372.8512 </r>
       <r>    -2.3073     3.2663   373.1670 </r>
       <r>    -2.2106     4.5166   373.6037 </r>
       <r>    -2.1139     7.0033   374.2809 </r>
       <r>    -2.0172     7.9636   375.0509 </r>
       <r>    -1.9206     6.7027   375.6990 </r>
       <r>    -1.8239     5.8291   376.2626 </r>
       <r>    -1.7272     8.1368   377.0493 </r>
       <r>    -1.6305    13.4231   378.3472 </r>
       <r>    -1.5338    18.9323   380.1778 </r>
       <r>    -1.4371    21.9456   382.2997 </r>
       <r>    -1.3404    21.7704   384.4047 </r>
       <r>    -1.2437    19.8686   386.3258 </r>
       <r>    -1.1470    18.3096   388.0962 </r>
       <r>    -1.0503    17.8714   389.8242 </r>
       <r>    -0.9537    17.6044   391.5263 </r>
       <r>    -0.8570    16.3931   393.1114 </r>
       <r>    -0.7603    14.4536   394.5089 </r>
       <r>    -0.6636    12.7828   395.7449 </r>
       <r>    -0.5669    11.8348   396.8892 </r>
       <r>    -0.4702    11.3364   397.9853 </r>
       <r>    -0.3735    11.0778   399.0564 </r>
       <r>    -0.2768    11.6571   400.1836 </r>
       <r>    -0.1801    13.9833   401.5356 </r>
       <r>    -0.0834    17.4613   403.2240 </r>
       <r>     0.0133    20.3033   405.1871 </r>
       <r>     0.1099    21.9120   407.3058 </r>
       <r>     0.2066    22.6945   409.5001 </r>
       <r>     0.3033    22.3212   411.6584 </r>
       <r>     0.4000    20.2879   413.6200 </r>
       <r>     0.4967    18.1034   415.3704 </r>
       <r>     0.5934    18.5925   417.1681 </r>
       <r>     0.6901    22.3897   419.3330 </r>
       <r>     0.7868    27.0735   421.9508 </r>
       <r>     0.8835    30.2537   424.8760 </r>
       <r>     0.9802    32.6062   428.0287 </r>
       <r>     1.0768    36.4067   431.5489 </r>
       <r>     1.1735    41.9759   435.6076 </r>
       <r>     1.2702    47.6763   440.2174 </r>
       <r>     1.3669    51.5641   445.2032 </r>
       <r>     1.4636    51.9287   450.2242 </r>
       <r>     1.5603    47.7186   454.8381 </r>
       <r>     1.6570    39.3573   458.6436 </r>
       <r>     1.7537    28.3387   461.3836 </r>
       <r>     1.8504    16.7070   462.9990 </r>
       <r>     1.9471     7.4297   463.7174 </r>
       <r>     2.0437     2.3392   463.9436 </r>
       <r>     2.1404     0.5031   463.9923 </r>
       <r>     2.2371     0.0726   463.9993 </r>
       <r>     2.3338     0.0070   464.0000 </r>
       <r>     2.4305     0.0004   464.0000 </r>
       <r>     2.5272     0.0000   464.0000 </r>
       <r>     2.6239     0.0000   464.0000 </r>
       <r>     2.7206     0.0000   464.0000 </r>
       <r>     2.8173     0.0000   464.0000 </r>
       <r>     2.9140     0.0000   464.0000 </r>
       <r>     3.0107     0.0000   464.0000 </r>
       <r>     3.1073     0.0000   464.0000 </r>
       <r>     3.2040     0.0000   464.0000 </r>
       <r>     3.3007     0.0000   464.0000 </r>
       <r>     3.3974     0.0000   464.0000 </r>
       <r>     3.4941     0.0000   464.0000 </r>
       <r>     3.5908     0.0000   464.0000 </r>
       <r>     3.6875     0.0000   464.0000 </r>
       <r>     3.7842     0.0000   464.0000 </r>
      </set>
     </set>
    </array>
   </total>
  </dos>
 </calculation>
 <structure name="finalpos" >
  <crystal>
   <varray name="basis" >
    <v>      28.05000000       0.00000000       0.00000000 </v>
    <v>       0.00000000       8.10000000       0.00000000 </v>
    <v>       0.00000000       0.00000000      33.50000000 </v>
   </varray>
   <i name="volume">   7611.36750000 </i>
   <varray name="rec_basis" >
    <v>       0.03565062       0.00000000       0.00000000 </v>
    <v>       0.00000000       0.12345679       0.00000000 </v>
    <v>       0.00000000       0.00000000       0.02985075 </v>
   </varray>
  </crystal>
  <varray name="positions" >
   <v>       0.00351262       0.10462049       0.51027761 </v>
   <v>       0.00611337       0.27417654       0.50370149 </v>
   <v>       0.04385098       0.01846630       0.52277015 </v>
   <v>       0.04795651       0.35375679       0.51059403 </v>
   <v>       0.08809055       0.09934593       0.53225373 </v>
   <v>       0.09040143       0.26963704       0.52597313 </v>
   <v>       0.13180214       0.01919469       0.53707164 </v>
   <v>       0.13544706       0.34602963       0.52840000 </v>
   <v>       0.17687558       0.10155136       0.54166866 </v>
   <v>       0.17934260       0.27069630       0.53721194 </v>
   <v>       0.22181355       0.01855605       0.54410149 </v>
   <v>       0.22283957       0.35242346       0.53842090 </v>
   <v>       0.26577683       0.09735037       0.54785075 </v>
   <v>       0.26641889       0.26785802       0.54591343 </v>
   <v>       0.31267986       0.01752358       0.54457015 </v>
   <v>       0.31130695       0.34877037       0.54060597 </v>
   <v>       0.35514439       0.09852704       0.54026866 </v>
   <v>       0.35521176       0.27202716       0.53885373 </v>
   <v>       0.40079501       0.02048309       0.53485970 </v>
   <v>       0.39993583       0.35246914       0.53031940 </v>
   <v>       0.44568271       0.10755765       0.52692836 </v>
   <v>       0.44355080       0.27629877       0.52162687 </v>
   <v>       0.48683066       0.02779210       0.51540597 </v>
   <v>       0.48378253       0.35340617       0.50454925 </v>
   <v>       0.52961497       0.11010667       0.50363582 </v>
   <v>       0.52731194       0.27319506       0.49697910 </v>
   <v>       0.57221390       0.02029802       0.49161493 </v>
   <v>       0.56954367       0.35891358       0.47945970 </v>
   <v>       0.61377184       0.10146630       0.48261493 </v>
   <v>       0.61093761       0.27590123       0.47057612 </v>
   <v>       0.65611408       0.02310691       0.47619403 </v>
   <v>       0.65188235       0.35052346       0.45960299 </v>
   <v>       0.69824955       0.10874407       0.46682985 </v>
   <v>       0.69687701       0.26967901       0.45833731 </v>
   <v>       0.74087344       0.02129790       0.46310149 </v>
   <v>       0.73956150       0.35035926       0.44982985 </v>
   <v>       0.78351159       0.10999333       0.46136418 </v>
   <v>       0.78619964       0.27027654       0.45368657 </v>
   <v>       0.82765775       0.02254519       0.46796119 </v>
   <v>       0.82988948       0.35633457       0.45544179 </v>
   <v>       0.87182175       0.10927778       0.47359701 </v>
   <v>       0.87288057       0.28285556       0.46928657 </v>
   <v>       0.91130481       0.03071160       0.48905672 </v>
   <v>       0.91739037       0.35880000       0.47701194 </v>
   <v>       0.95346524       0.11136086       0.49874030 </v>
   <v>       0.95530481       0.28074938       0.49311642 </v>
   <v>       0.00492385       0.60615556       0.50032537 </v>
   <v>       0.00523483       0.77765309       0.50652537 </v>
   <v>       0.04862602       0.51919877       0.50637612 </v>
   <v>       0.04695009       0.85409136       0.51713433 </v>
   <v>       0.09210374       0.59920370       0.51293433 </v>
   <v>       0.09062816       0.76773333       0.51741194 </v>
   <v>       0.13521640       0.51550617       0.52023881 </v>
   <v>       0.13476898       0.85391235       0.52702090 </v>
   <v>       0.17838538       0.60022222       0.52076418 </v>
   <v>       0.17867415       0.77481481       0.52466866 </v>
   <v>       0.22327986       0.51445062       0.52651940 </v>
   <v>       0.22195365       0.85249136       0.53547463 </v>
   <v>       0.26711301       0.59769259       0.52671343 </v>
   <v>       0.26717825       0.76830864       0.53168060 </v>
   <v>       0.30984599       0.52222099       0.53211343 </v>
   <v>       0.31199323       0.84951975       0.53846866 </v>
   <v>       0.35475971       0.60648395       0.52692537 </v>
   <v>       0.35455223       0.77317407       0.52818209 </v>
   <v>       0.39908021       0.52286543       0.52463582 </v>
   <v>       0.39958289       0.85524815       0.52446269 </v>
   <v>       0.44058467       0.60754691       0.51343881 </v>
   <v>       0.44233155       0.77480000       0.51699104 </v>
   <v>       0.48151872       0.51977037       0.50201791 </v>
   <v>       0.48596078       0.85416420       0.51087463 </v>
   <v>       0.52400000       0.60675062       0.48999104 </v>
   <v>       0.52676292       0.77444568       0.49684478 </v>
   <v>       0.56673797       0.52580123       0.47806866 </v>
   <v>       0.56958289       0.85113951       0.48929552 </v>
   <v>       0.60985740       0.60324815       0.46722090 </v>
   <v>       0.61109804       0.77115926       0.47381194 </v>
   <v>       0.65110160       0.51690370       0.45880896 </v>
   <v>       0.65494474       0.85691605       0.46841493 </v>
   <v>       0.69528342       0.60061975       0.45076119 </v>
   <v>       0.69593939       0.77055556       0.45709851 </v>
   <v>       0.73982175       0.52022716       0.44960000 </v>
   <v>       0.74038503       0.85098148       0.46048955 </v>
   <v>       0.78383957       0.60275309       0.45544478 </v>
   <v>       0.78490553       0.77223951       0.45973134 </v>
   <v>       0.82839929       0.52845679       0.45501194 </v>
   <v>       0.82767914       0.85874444       0.46434925 </v>
   <v>       0.87436720       0.61120988       0.46119701 </v>
   <v>       0.87295900       0.77625556       0.47158507 </v>
   <v>       0.91670945       0.52537778       0.47184478 </v>
   <v>       0.91393583       0.85996420       0.48496418 </v>
   <v>       0.95741533       0.60735679       0.48722687 </v>
   <v>       0.95516221       0.77764568       0.49408955 </v>
  </varray>
 </structure>
</modeling>
