  92  92   0   0
  0.8273226E+02  0.2805000E-08  0.8100000E-09  0.3350000E-08  0.5000000E-15
   1.0000000000000000E-004
  CAR 
 unknown system                          
      3.91670054    -25.20666665  301     -3.13319193      1.00000000
    -25.207  0.0000E+00  0.0000E+00
    -25.110  0.0000E+00  0.0000E+00
    -25.013  0.0000E+00  0.0000E+00
    -24.915  0.0000E+00  0.0000E+00
    -24.818  0.0000E+00  0.0000E+00
    -24.721  0.0000E+00  0.0000E+00
    -24.624  0.0000E+00  0.0000E+00
    -24.527  0.0000E+00  0.0000E+00
    -24.430  0.0000E+00  0.0000E+00
    -24.333  0.4289E-14  0.4163E-15
    -24.236  0.8855E-12  0.8638E-13
    -24.139  0.1145E-09  0.1120E-10
    -24.042  0.9362E-08  0.9200E-09
    -23.945  0.4860E-06  0.4810E-07
    -23.848  0.1610E-04  0.1611E-05
    -23.750  0.3427E-03  0.3488E-04
    -23.653  0.4733E-02  0.4943E-03
    -23.556  0.4292E-01  0.4661E-02
    -23.459  0.2596E+00  0.2986E-01
    -23.362  0.1068E+01  0.1335E+00
    -23.265  0.3065E+01  0.4311E+00
    -23.168  0.6338E+01  0.1046E+01
    -23.071  0.9852E+01  0.2003E+01
    -22.974  0.1215E+02  0.3182E+01
    -22.877  0.1289E+02  0.4433E+01
    -22.780  0.1341E+02  0.5735E+01
    -22.683  0.1490E+02  0.7182E+01
    -22.586  0.1622E+02  0.8756E+01
    -22.488  0.1552E+02  0.1026E+02
    -22.391  0.1372E+02  0.1159E+02
    -22.294  0.1312E+02  0.1287E+02
    -22.197  0.1385E+02  0.1421E+02
    -22.100  0.1459E+02  0.1563E+02
    -22.003  0.1485E+02  0.1707E+02
    -21.906  0.1467E+02  0.1850E+02
    -21.809  0.1404E+02  0.1986E+02
    -21.712  0.1315E+02  0.2114E+02
    -21.615  0.1217E+02  0.2232E+02
    -21.518  0.1148E+02  0.2343E+02
    -21.421  0.1164E+02  0.2456E+02
    -21.324  0.1280E+02  0.2580E+02
    -21.226  0.1448E+02  0.2721E+02
    -21.129  0.1598E+02  0.2876E+02
    -21.032  0.1638E+02  0.3035E+02
    -20.935  0.1498E+02  0.3180E+02
    -20.838  0.1257E+02  0.3302E+02
    -20.741  0.1135E+02  0.3413E+02
    -20.644  0.1219E+02  0.3531E+02
    -20.547  0.1332E+02  0.3660E+02
    -20.450  0.1319E+02  0.3788E+02
    -20.353  0.1264E+02  0.3911E+02
    -20.256  0.1316E+02  0.4039E+02
    -20.159  0.1490E+02  0.4183E+02
    -20.062  0.1662E+02  0.4345E+02
    -19.964  0.1679E+02  0.4508E+02
    -19.867  0.1489E+02  0.4652E+02
    -19.770  0.1248E+02  0.4773E+02
    -19.673  0.1218E+02  0.4892E+02
    -19.576  0.1425E+02  0.5030E+02
    -19.479  0.1598E+02  0.5185E+02
    -19.382  0.1554E+02  0.5336E+02
    -19.285  0.1420E+02  0.5474E+02
    -19.188  0.1379E+02  0.5608E+02
    -19.091  0.1424E+02  0.5746E+02
    -18.994  0.1420E+02  0.5884E+02
    -18.897  0.1312E+02  0.6011E+02
    -18.800  0.1271E+02  0.6134E+02
    -18.702  0.1482E+02  0.6278E+02
    -18.605  0.1760E+02  0.6449E+02
    -18.508  0.1769E+02  0.6621E+02
    -18.411  0.1561E+02  0.6772E+02
    -18.314  0.1458E+02  0.6914E+02
    -18.217  0.1553E+02  0.7065E+02
    -18.120  0.1666E+02  0.7226E+02
    -18.023  0.1634E+02  0.7385E+02
    -17.926  0.1489E+02  0.7530E+02
    -17.829  0.1383E+02  0.7664E+02
    -17.732  0.1322E+02  0.7792E+02
    -17.635  0.1197E+02  0.7908E+02
    -17.538  0.1063E+02  0.8011E+02
    -17.440  0.1058E+02  0.8114E+02
    -17.343  0.1148E+02  0.8226E+02
    -17.246  0.1183E+02  0.8340E+02
    -17.149  0.1123E+02  0.8450E+02
    -17.052  0.1054E+02  0.8552E+02
    -16.955  0.1039E+02  0.8653E+02
    -16.858  0.1081E+02  0.8758E+02
    -16.761  0.1179E+02  0.8872E+02
    -16.664  0.1325E+02  0.9001E+02
    -16.567  0.1441E+02  0.9141E+02
    -16.470  0.1477E+02  0.9284E+02
    -16.373  0.1513E+02  0.9431E+02
    -16.276  0.1621E+02  0.9588E+02
    -16.178  0.1751E+02  0.9758E+02
    -16.081  0.1814E+02  0.9934E+02
    -15.984  0.1760E+02  0.1011E+03
    -15.887  0.1608E+02  0.1026E+03
    -15.790  0.1417E+02  0.1040E+03
    -15.693  0.1230E+02  0.1052E+03
    -15.596  0.1068E+02  0.1062E+03
    -15.499  0.1018E+02  0.1072E+03
    -15.402  0.1252E+02  0.1084E+03
    -15.305  0.1757E+02  0.1101E+03
    -15.208  0.2222E+02  0.1123E+03
    -15.111  0.2414E+02  0.1146E+03
    -15.013  0.2375E+02  0.1169E+03
    -14.916  0.2182E+02  0.1191E+03
    -14.819  0.1803E+02  0.1208E+03
    -14.722  0.1300E+02  0.1221E+03
    -14.625  0.9111E+01  0.1229E+03
    -14.528  0.8118E+01  0.1237E+03
    -14.431  0.9417E+01  0.1247E+03
    -14.334  0.1104E+02  0.1257E+03
    -14.237  0.1182E+02  0.1269E+03
    -14.140  0.1231E+02  0.1281E+03
    -14.043  0.1340E+02  0.1294E+03
    -13.946  0.1464E+02  0.1308E+03
    -13.849  0.1527E+02  0.1323E+03
    -13.751  0.1603E+02  0.1338E+03
    -13.654  0.1766E+02  0.1355E+03
    -13.557  0.1911E+02  0.1374E+03
    -13.460  0.1942E+02  0.1393E+03
    -13.363  0.1937E+02  0.1412E+03
    -13.266  0.1951E+02  0.1431E+03
    -13.169  0.1872E+02  0.1449E+03
    -13.072  0.1671E+02  0.1465E+03
    -12.975  0.1535E+02  0.1480E+03
    -12.878  0.1561E+02  0.1495E+03
    -12.781  0.1589E+02  0.1510E+03
    -12.684  0.1446E+02  0.1524E+03
    -12.587  0.1223E+02  0.1536E+03
    -12.489  0.1169E+02  0.1548E+03
    -12.392  0.1342E+02  0.1561E+03
    -12.295  0.1615E+02  0.1576E+03
    -12.198  0.1944E+02  0.1595E+03
    -12.101  0.2293E+02  0.1618E+03
    -12.004  0.2500E+02  0.1642E+03
    -11.907  0.2442E+02  0.1665E+03
    -11.810  0.2217E+02  0.1687E+03
    -11.713  0.2001E+02  0.1706E+03
    -11.616  0.1831E+02  0.1724E+03
    -11.519  0.1669E+02  0.1740E+03
    -11.422  0.1597E+02  0.1756E+03
    -11.325  0.1731E+02  0.1773E+03
    -11.227  0.2051E+02  0.1793E+03
    -11.130  0.2467E+02  0.1817E+03
    -11.033  0.2895E+02  0.1845E+03
    -10.936  0.3200E+02  0.1876E+03
    -10.839  0.3314E+02  0.1908E+03
    -10.742  0.3371E+02  0.1941E+03
    -10.645  0.3555E+02  0.1975E+03
    -10.548  0.3832E+02  0.2012E+03
    -10.451  0.3934E+02  0.2051E+03
    -10.354  0.3706E+02  0.2087E+03
    -10.257  0.3375E+02  0.2119E+03
    -10.160  0.3273E+02  0.2151E+03
    -10.063  0.3389E+02  0.2184E+03
     -9.965  0.3422E+02  0.2217E+03
     -9.868  0.3283E+02  0.2249E+03
     -9.771  0.3230E+02  0.2280E+03
     -9.674  0.3454E+02  0.2314E+03
     -9.577  0.3868E+02  0.2351E+03
     -9.480  0.4215E+02  0.2392E+03
     -9.383  0.4275E+02  0.2434E+03
     -9.286  0.3978E+02  0.2473E+03
     -9.189  0.3457E+02  0.2506E+03
     -9.092  0.3028E+02  0.2535E+03
     -8.995  0.2949E+02  0.2564E+03
     -8.898  0.3198E+02  0.2595E+03
     -8.801  0.3524E+02  0.2629E+03
     -8.703  0.3677E+02  0.2665E+03
     -8.606  0.3587E+02  0.2700E+03
     -8.509  0.3373E+02  0.2733E+03
     -8.412  0.3186E+02  0.2764E+03
     -8.315  0.3074E+02  0.2793E+03
     -8.218  0.2998E+02  0.2822E+03
     -8.121  0.2915E+02  0.2851E+03
     -8.024  0.2793E+02  0.2878E+03
     -7.927  0.2631E+02  0.2903E+03
     -7.830  0.2503E+02  0.2928E+03
     -7.733  0.2509E+02  0.2952E+03
     -7.636  0.2681E+02  0.2978E+03
     -7.538  0.2914E+02  0.3006E+03
     -7.441  0.3042E+02  0.3036E+03
     -7.344  0.3000E+02  0.3065E+03
     -7.247  0.2858E+02  0.3093E+03
     -7.150  0.2710E+02  0.3119E+03
     -7.053  0.2597E+02  0.3144E+03
     -6.956  0.2521E+02  0.3169E+03
     -6.859  0.2455E+02  0.3193E+03
     -6.762  0.2400E+02  0.3216E+03
     -6.665  0.2372E+02  0.3239E+03
     -6.568  0.2337E+02  0.3262E+03
     -6.471  0.2244E+02  0.3283E+03
     -6.374  0.2114E+02  0.3304E+03
     -6.276  0.2029E+02  0.3324E+03
     -6.179  0.2071E+02  0.3344E+03
     -6.082  0.2248E+02  0.3366E+03
     -5.985  0.2481E+02  0.3390E+03
     -5.888  0.2644E+02  0.3415E+03
     -5.791  0.2616E+02  0.3441E+03
     -5.694  0.2381E+02  0.3464E+03
     -5.597  0.2026E+02  0.3484E+03
     -5.500  0.1613E+02  0.3499E+03
     -5.403  0.1233E+02  0.3511E+03
     -5.306  0.1071E+02  0.3522E+03
     -5.209  0.1161E+02  0.3533E+03
     -5.112  0.1246E+02  0.3545E+03
     -5.014  0.1110E+02  0.3556E+03
     -4.917  0.8672E+01  0.3564E+03
     -4.820  0.7570E+01  0.3571E+03
     -4.723  0.8698E+01  0.3580E+03
     -4.626  0.1129E+02  0.3591E+03
     -4.529  0.1373E+02  0.3604E+03
     -4.432  0.1450E+02  0.3618E+03
     -4.335  0.1279E+02  0.3631E+03
     -4.238  0.9139E+01  0.3640E+03
     -4.141  0.5405E+01  0.3645E+03
     -4.044  0.3150E+01  0.3648E+03
     -3.947  0.2486E+01  0.3650E+03
     -3.850  0.2961E+01  0.3653E+03
     -3.752  0.3823E+01  0.3657E+03
     -3.655  0.4010E+01  0.3661E+03
     -3.558  0.3420E+01  0.3664E+03
     -3.461  0.3097E+01  0.3667E+03
     -3.364  0.3468E+01  0.3670E+03
     -3.267  0.3895E+01  0.3674E+03
     -3.170  0.4211E+01  0.3678E+03
     -3.073  0.4909E+01  0.3683E+03
     -2.976  0.5766E+01  0.3689E+03
     -2.879  0.6090E+01  0.3695E+03
     -2.782  0.6354E+01  0.3701E+03
     -2.685  0.7501E+01  0.3708E+03
     -2.588  0.8547E+01  0.3716E+03
     -2.490  0.7543E+01  0.3724E+03
     -2.393  0.5012E+01  0.3729E+03
     -2.296  0.3567E+01  0.3732E+03
     -2.199  0.4470E+01  0.3736E+03
     -2.102  0.6508E+01  0.3743E+03
     -2.005  0.7479E+01  0.3750E+03
     -1.908  0.6576E+01  0.3756E+03
     -1.811  0.5747E+01  0.3762E+03
     -1.714  0.7731E+01  0.3769E+03
     -1.617  0.1286E+02  0.3782E+03
     -1.520  0.1856E+02  0.3800E+03
     -1.423  0.2181E+02  0.3821E+03
     -1.326  0.2189E+02  0.3842E+03
     -1.228  0.2037E+02  0.3862E+03
     -1.131  0.1881E+02  0.3880E+03
     -1.034  0.1757E+02  0.3897E+03
     -0.937  0.1641E+02  0.3913E+03
     -0.840  0.1540E+02  0.3928E+03
     -0.743  0.1464E+02  0.3942E+03
     -0.646  0.1352E+02  0.3956E+03
     -0.549  0.1202E+02  0.3967E+03
     -0.452  0.1104E+02  0.3978E+03
     -0.355  0.1077E+02  0.3988E+03
     -0.258  0.1122E+02  0.3999E+03
     -0.161  0.1339E+02  0.4012E+03
     -0.063  0.1752E+02  0.4029E+03
      0.034  0.2156E+02  0.4050E+03
      0.131  0.2333E+02  0.4073E+03
      0.228  0.2298E+02  0.4095E+03
      0.325  0.2159E+02  0.4116E+03
      0.422  0.1960E+02  0.4135E+03
      0.519  0.1826E+02  0.4153E+03
      0.616  0.1941E+02  0.4172E+03
      0.713  0.2300E+02  0.4194E+03
      0.810  0.2691E+02  0.4220E+03
      0.907  0.2980E+02  0.4249E+03
      1.004  0.3290E+02  0.4281E+03
      1.101  0.3783E+02  0.4318E+03
      1.199  0.4426E+02  0.4361E+03
      1.296  0.5019E+02  0.4410E+03
      1.393  0.5284E+02  0.4461E+03
      1.490  0.5051E+02  0.4510E+03
      1.587  0.4418E+02  0.4553E+03
      1.684  0.3589E+02  0.4588E+03
      1.781  0.2628E+02  0.4613E+03
      1.878  0.1604E+02  0.4629E+03
      1.975  0.7694E+01  0.4636E+03
      2.072  0.2885E+01  0.4639E+03
      2.169  0.8612E+00  0.4640E+03
      2.266  0.2004E+00  0.4640E+03
      2.363  0.3403E-01  0.4640E+03
      2.461  0.3950E-02  0.4640E+03
      2.558  0.3009E-03  0.4640E+03
      2.655  0.1471E-04  0.4640E+03
      2.752  0.4575E-06  0.4640E+03
      2.849  0.8994E-08  0.4640E+03
      2.946  0.1115E-09  0.4640E+03
      3.043  0.8703E-12  0.4640E+03
      3.140  0.4575E-14  0.4640E+03
      3.237  0.0000E+00  0.4640E+03
      3.334  0.0000E+00  0.4640E+03
      3.431  0.0000E+00  0.4640E+03
      3.528  0.0000E+00  0.4640E+03
      3.625  0.0000E+00  0.4640E+03
      3.723  0.0000E+00  0.4640E+03
      3.820  0.0000E+00  0.4640E+03
      3.917  0.0000E+00  0.4640E+03
