<?xml version="1.0" encoding="ISO-8859-1"?>
<modeling>
 <generator>
  <i name="program" type="string">vasp </i>
  <i name="version" type="string">6.5.0  </i>
  <i name="subversion" type="string">16Dec24 (build Feb 19 2025 19:45:31) complex                          parallel </i>
  <i name="platform" type="string">LinuxNV </i>
  <i name="date" type="string">2025 10 25 </i>
  <i name="time" type="string">18:32:32 </i>
 </generator>
 <incar>
  <i type="int" name="ISTART">     0</i>
  <i type="string" name="PREC">Accurate   (Precision level)</i>
  <i type="string" name="ALGO">Normal</i>
  <i type="int" name="ISPIN">     1</i>
  <i type="int" name="ICHARG">     2</i>
  <i type="int" name="NELM">   150</i>
  <i type="int" name="IBRION">    -1</i>
  <i name="EDIFF">      0.00000100</i>
  <i type="int" name="NSW">     0</i>
  <i name="ENCUT">    500.00000000</i>
  <i type="string" name="LREAL">Auto         (Projection operators: automatic)</i>
  <i type="int" name="ISMEAR">     0</i>
  <i type="logical" name="KGAMMA"> T  </i>
  <i type="logical" name="LWAVE"> F  </i>
  <i type="logical" name="LCHARG"> F  </i>
 </incar>
 <primitive_cell>
  <structure name="primitive_cell" >
   <crystal>
    <varray name="basis" >
     <v>      28.05000000       0.00000000       0.00000000 </v>
     <v>       0.00000000       8.10000000       0.00000000 </v>
     <v>       0.00000000       0.00000000      33.50000000 </v>
    </varray>
    <i name="volume">   7611.36750000 </i>
    <varray name="rec_basis" >
     <v>       0.03565062       0.00000000       0.00000000 </v>
     <v>       0.00000000       0.12345679       0.00000000 </v>
     <v>       0.00000000       0.00000000       0.02985075 </v>
    </varray>
   </crystal>
   <varray name="positions" >
    <v>       0.22467914       0.39919506       0.07683522 </v>
    <v>       0.22767094       0.57694815       0.07575313 </v>
    <v>       0.26834367       0.32151111       0.07529701 </v>
    <v>       0.27057718       0.66330741       0.07557373 </v>
    <v>       0.31343636       0.40274074       0.07820448 </v>
    <v>       0.31388556       0.57415309       0.07566746 </v>
    <v>       0.35748663       0.32112469       0.08390507 </v>
    <v>       0.35746524       0.65327654       0.07557164 </v>
    <v>       0.40098396       0.40554568       0.08904836 </v>
    <v>       0.40132264       0.57535926       0.08590776 </v>
    <v>       0.44385027       0.31919136       0.09875104 </v>
    <v>       0.44558645       0.65618889       0.09762657 </v>
    <v>       0.48532264       0.39904938       0.11279075 </v>
    <v>       0.48631729       0.56983951       0.11194836 </v>
    <v>       0.52934046       0.31957901       0.12219970 </v>
    <v>       0.52896613       0.65389753       0.11909075 </v>
    <v>       0.57142959       0.40136173       0.13174418 </v>
    <v>       0.56971836       0.56941605       0.13468448 </v>
    <v>       0.61425312       0.32355185       0.14629701 </v>
    <v>       0.61459180       0.65218148       0.14022209 </v>
    <v>       0.65701248       0.40467037       0.15195164 </v>
    <v>       0.65876292       0.57193951       0.14821045 </v>
    <v>       0.70179323       0.32229136       0.16244687 </v>
    <v>       0.70102674       0.65216914       0.15805373 </v>
    <v>       0.74499465       0.40213086       0.16382537 </v>
    <v>       0.74630660       0.57263457       0.16420448 </v>
    <v>       0.78953298       0.32337037       0.16453254 </v>
    <v>       0.79126916       0.65297037       0.16030687 </v>
    <v>       0.83458111       0.39286543       0.15963851 </v>
    <v>       0.83509091       0.56622346       0.15923104 </v>
    <v>       0.87709447       0.31098395       0.14916866 </v>
    <v>       0.87758289       0.64507037       0.15419075 </v>
    <v>       0.92266310       0.39229383       0.14703881 </v>
    <v>       0.92234581       0.56540988       0.14934776 </v>
    <v>       0.96342246       0.31584198       0.13527254 </v>
    <v>       0.96485205       0.65014321       0.14110597 </v>
    <v>       0.00709159       0.39902963       0.12487642 </v>
    <v>       0.00573173       0.56715185       0.12761910 </v>
    <v>       0.04821818       0.31477160       0.11130806 </v>
    <v>       0.04981176       0.64759753       0.11221493 </v>
    <v>       0.08958146       0.39512469       0.10060119 </v>
    <v>       0.09187344       0.56407407       0.10253045 </v>
    <v>       0.13222531       0.31429012       0.08703493 </v>
    <v>       0.13513975       0.64145679       0.09238687 </v>
    <v>       0.17514973       0.39143951       0.08068328 </v>
    <v>       0.17803850       0.56754691       0.08331403 </v>
    <v>       0.22785740       0.90712963       0.07255731 </v>
    <v>       0.22557326       0.07896321       0.06948537 </v>
    <v>       0.27034581       0.83074321       0.07191582 </v>
    <v>       0.27053583       0.15918519       0.07041433 </v>
    <v>       0.31459608       0.90716914       0.07243254 </v>
    <v>       0.31418610       0.07494988       0.07534597 </v>
    <v>       0.35990018       0.82204568       0.07440567 </v>
    <v>       0.35789305       0.15391481       0.07967672 </v>
    <v>       0.40331551       0.89832346       0.08373910 </v>
    <v>       0.40229590       0.07335593       0.08601612 </v>
    <v>       0.44573975       0.82455926       0.09248776 </v>
    <v>       0.44413191       0.15719630       0.09555134 </v>
    <v>       0.48951872       0.90836790       0.10117224 </v>
    <v>       0.48910517       0.07117580       0.10736627 </v>
    <v>       0.53244207       0.82997901       0.11272149 </v>
    <v>       0.53123351       0.15540988       0.12026985 </v>
    <v>       0.57570053       0.90417037       0.12598627 </v>
    <v>       0.57309447       0.07209519       0.13155313 </v>
    <v>       0.61567201       0.82242593       0.14079045 </v>
    <v>       0.61418182       0.15250617       0.14761463 </v>
    <v>       0.65761141       0.90559383       0.15371612 </v>
    <v>       0.65668806       0.07430432       0.15788955 </v>
    <v>       0.70188592       0.81873580       0.15686000 </v>
    <v>       0.70088414       0.15669753       0.16250209 </v>
    <v>       0.74570053       0.90361235       0.16219015 </v>
    <v>       0.74479857       0.06696605       0.16712627 </v>
    <v>       0.79020321       0.81892593       0.15820209 </v>
    <v>       0.78898752       0.15075185       0.16371731 </v>
    <v>       0.83369697       0.90030000       0.15176060 </v>
    <v>       0.83375045       0.06751901       0.15552896 </v>
    <v>       0.87788592       0.81395679       0.14854657 </v>
    <v>       0.87587522       0.14303951       0.14475254 </v>
    <v>       0.92120856       0.89424938       0.13727761 </v>
    <v>       0.92002852       0.06448765       0.13397970 </v>
    <v>       0.96466310       0.81876173       0.13277075 </v>
    <v>       0.96290196       0.14675802       0.12970507 </v>
    <v>       0.00589508       0.89770370       0.11671493 </v>
    <v>       0.00600717       0.06437469       0.11925522 </v>
    <v>       0.04832264       0.81446543       0.10447104 </v>
    <v>       0.04939857       0.14505062       0.10880507 </v>
    <v>       0.09024492       0.89301358       0.09309821 </v>
    <v>       0.08820143       0.06164790       0.09228090 </v>
    <v>       0.13312228       0.81023580       0.08949642 </v>
    <v>       0.13153012       0.14952469       0.08120478 </v>
    <v>       0.17437790       0.89652593       0.07741761 </v>
    <v>       0.17386702       0.06864469       0.07451224 </v>
   </varray>
  </structure>
  <varray name="primitive_index" >
   <v type="int" >        1 </v>
   <v type="int" >        2 </v>
   <v type="int" >        3 </v>
   <v type="int" >        4 </v>
   <v type="int" >        5 </v>
   <v type="int" >        6 </v>
   <v type="int" >        7 </v>
   <v type="int" >        8 </v>
   <v type="int" >        9 </v>
   <v type="int" >       10 </v>
   <v type="int" >       11 </v>
   <v type="int" >       12 </v>
   <v type="int" >       13 </v>
   <v type="int" >       14 </v>
   <v type="int" >       15 </v>
   <v type="int" >       16 </v>
   <v type="int" >       17 </v>
   <v type="int" >       18 </v>
   <v type="int" >       19 </v>
   <v type="int" >       20 </v>
   <v type="int" >       21 </v>
   <v type="int" >       22 </v>
   <v type="int" >       23 </v>
   <v type="int" >       24 </v>
   <v type="int" >       25 </v>
   <v type="int" >       26 </v>
   <v type="int" >       27 </v>
   <v type="int" >       28 </v>
   <v type="int" >       29 </v>
   <v type="int" >       30 </v>
   <v type="int" >       31 </v>
   <v type="int" >       32 </v>
   <v type="int" >       33 </v>
   <v type="int" >       34 </v>
   <v type="int" >       35 </v>
   <v type="int" >       36 </v>
   <v type="int" >       37 </v>
   <v type="int" >       38 </v>
   <v type="int" >       39 </v>
   <v type="int" >       40 </v>
   <v type="int" >       41 </v>
   <v type="int" >       42 </v>
   <v type="int" >       43 </v>
   <v type="int" >       44 </v>
   <v type="int" >       45 </v>
   <v type="int" >       46 </v>
   <v type="int" >       47 </v>
   <v type="int" >       48 </v>
   <v type="int" >       49 </v>
   <v type="int" >       50 </v>
   <v type="int" >       51 </v>
   <v type="int" >       52 </v>
   <v type="int" >       53 </v>
   <v type="int" >       54 </v>
   <v type="int" >       55 </v>
   <v type="int" >       56 </v>
   <v type="int" >       57 </v>
   <v type="int" >       58 </v>
   <v type="int" >       59 </v>
   <v type="int" >       60 </v>
   <v type="int" >       61 </v>
   <v type="int" >       62 </v>
   <v type="int" >       63 </v>
   <v type="int" >       64 </v>
   <v type="int" >       65 </v>
   <v type="int" >       66 </v>
   <v type="int" >       67 </v>
   <v type="int" >       68 </v>
   <v type="int" >       69 </v>
   <v type="int" >       70 </v>
   <v type="int" >       71 </v>
   <v type="int" >       72 </v>
   <v type="int" >       73 </v>
   <v type="int" >       74 </v>
   <v type="int" >       75 </v>
   <v type="int" >       76 </v>
   <v type="int" >       77 </v>
   <v type="int" >       78 </v>
   <v type="int" >       79 </v>
   <v type="int" >       80 </v>
   <v type="int" >       81 </v>
   <v type="int" >       82 </v>
   <v type="int" >       83 </v>
   <v type="int" >       84 </v>
   <v type="int" >       85 </v>
   <v type="int" >       86 </v>
   <v type="int" >       87 </v>
   <v type="int" >       88 </v>
   <v type="int" >       89 </v>
   <v type="int" >       90 </v>
   <v type="int" >       91 </v>
   <v type="int" >       92 </v>
  </varray>
 </primitive_cell>
 <kpoints>
  <generation param="Gamma">
   <v type="int" name="divisions">       1        4        1 </v>
   <v name="usershift">      0.00000000       0.00000000       0.00000000 </v>
   <v name="genvec1">      1.00000000       0.00000000       0.00000000 </v>
   <v name="genvec2">      0.00000000       0.25000000       0.00000000 </v>
   <v name="genvec3">      0.00000000       0.00000000       1.00000000 </v>
   <v name="shift">      0.00000000       0.00000000       0.00000000 </v>
  </generation>
  <varray name="kpointlist" >
   <v>       0.00000000       0.00000000       0.00000000 </v>
   <v>       0.00000000       0.25000000       0.00000000 </v>
   <v>       0.00000000       0.50000000       0.00000000 </v>
  </varray>
  <varray name="weights" >
   <v>       0.25000000 </v>
   <v>       0.50000000 </v>
   <v>       0.25000000 </v>
  </varray>
 </kpoints>
 <parameters>
  <separator name="general" >
   <i type="string" name="SYSTEM">unknown system</i>
   <i type="logical" name="LCOMPAT"> F  </i>
  </separator>
  <separator name="electronic" >
   <i type="string" name="PREC">accura</i>
   <i name="ENMAX">    500.00000000</i>
   <i name="ENAUG">    644.87300000</i>
   <i name="EDIFF">      0.00000100</i>
   <i type="int" name="IALGO">    38</i>
   <i type="int" name="IWAVPR">    10</i>
   <i type="int" name="NBANDS">   232</i>
   <i type="int" name="NBANDSLOW">    -1</i>
   <i type="int" name="NBANDSHIGH">    -1</i>
   <i name="NELECT">    368.00000000</i>
   <i type="int" name="TURBO">     0</i>
   <i type="int" name="IRESTART">     0</i>
   <i type="int" name="NREBOOT">     0</i>
   <i type="int" name="NMIN">     0</i>
   <i name="EREF">      0.00000000</i>
   <separator name="electronic smearing" >
    <i type="int" name="ISMEAR">     0</i>
    <i name="SIGMA">      0.20000000</i>
    <i name="KSPACING">      0.50000000</i>
    <i type="logical" name="KGAMMA"> T  </i>
    <i type="logical" name="KBLOWUP"> T  </i>
   </separator>
   <separator name="electronic projectors" >
    <i type="logical" name="LREAL"> T  </i>
    <v name="ROPT">     -0.00025000</v>
    <i type="int" name="LMAXPAW">  -100</i>
    <i type="int" name="LMAXMIX">     2</i>
    <i type="logical" name="NLSPLINE"> F  </i>
   </separator>
   <separator name="electronic startup" >
    <i type="int" name="ISTART">     0</i>
    <i type="int" name="ICHARG">     2</i>
    <i type="int" name="INIWAV">     1</i>
   </separator>
   <separator name="electronic spin" >
    <i type="int" name="ISPIN">     1</i>
    <i type="logical" name="LNONCOLLINEAR"> F  </i>
    <v name="MAGMOM">      1.00000000      1.00000000      1.00000000      1.00000000      1.00000000      1.00000000      1.00000000      1.00000000      1.00000000      1.00000000      1.00000000      1.00000000      1.00000000      1.00000000      1.00000000      1.00000000      1.00000000      1.00000000      1.00000000      1.00000000
      1.00000000      1.00000000      1.00000000      1.00000000      1.00000000      1.00000000      1.00000000      1.00000000      1.00000000      1.00000000      1.00000000      1.00000000      1.00000000      1.00000000      1.00000000      1.00000000      1.00000000      1.00000000      1.00000000      1.00000000
      1.00000000      1.00000000      1.00000000      1.00000000      1.00000000      1.00000000      1.00000000      1.00000000      1.00000000      1.00000000      1.00000000      1.00000000      1.00000000      1.00000000      1.00000000      1.00000000      1.00000000      1.00000000      1.00000000      1.00000000
      1.00000000      1.00000000      1.00000000      1.00000000      1.00000000      1.00000000      1.00000000      1.00000000      1.00000000      1.00000000      1.00000000      1.00000000      1.00000000      1.00000000      1.00000000      1.00000000      1.00000000      1.00000000      1.00000000      1.00000000
      1.00000000      1.00000000      1.00000000      1.00000000      1.00000000      1.00000000      1.00000000      1.00000000      1.00000000      1.00000000      1.00000000      1.00000000</v>
    <i name="NUPDOWN">     -1.00000000</i>
    <i type="logical" name="LSORBIT"> F  </i>
    <v name="SAXIS">      0.00000000      0.00000000      1.00000000</v>
    <i type="logical" name="LSPIRAL"> F  </i>
    <v name="QSPIRAL">      0.00000000      0.00000000      0.00000000</v>
    <i type="logical" name="LZEROZ"> F  </i>
   </separator>
   <separator name="electronic exchange-correlation" >
    <i type="logical" name="LASPH"> F  </i>
   </separator>
   <separator name="electronic convergence" >
    <i type="int" name="NELM">   150</i>
    <i type="int" name="NELMDL">    -5</i>
    <i type="int" name="NELMIN">     2</i>
    <i name="ENINI">    500.00000000</i>
    <separator name="electronic convergence detail" >
     <i type="logical" name="LDIAG"> T  </i>
     <i type="logical" name="LSUBROT"> F  </i>
     <i name="WEIMIN">      0.00000000</i>
     <i name="EBREAK">      0.00000000</i>
     <i name="DEPER">      0.30000000</i>
     <i type="int" name="NRMM">     4</i>
     <i name="TIME">      0.40000000</i>
    </separator>
   </separator>
   <separator name="electronic mixer" >
    <i name="AMIX">      0.40000000</i>
    <i name="BMIX">      1.00000000</i>
    <i name="AMIN">      0.10000000</i>
    <i name="AMIX_MAG">      1.60000000</i>
    <i name="BMIX_MAG">      1.00000000</i>
    <separator name="electronic mixer details" >
     <i type="int" name="IMIX">     4</i>
     <i type="logical" name="MIXFIRST"> F  </i>
     <i type="int" name="MAXMIX">   -45</i>
     <i name="WC">    100.00000000</i>
     <i type="int" name="INIMIX">     1</i>
     <i type="int" name="MIXPRE">     1</i>
     <i type="int" name="MREMOVE">     5</i>
    </separator>
   </separator>
   <separator name="electronic dipolcorrection" >
    <i type="logical" name="LDIPOL"> F  </i>
    <i type="logical" name="LMONO"> F  </i>
    <i type="int" name="IDIPOL">     0</i>
    <i name="EPSILON">      1.00000000</i>
    <v name="DIPOL">   -100.00000000   -100.00000000   -100.00000000</v>
    <i name="EFIELD">      0.00000000</i>
    <i type="logical" name="LVACPOTAV"> F  </i>
   </separator>
  </separator>
  <separator name="grids" >
   <i type="int" name="NGX">   210</i>
   <i type="int" name="NGY">    60</i>
   <i type="int" name="NGZ">   250</i>
   <i type="int" name="NGXF">   420</i>
   <i type="int" name="NGYF">   120</i>
   <i type="int" name="NGZF">   500</i>
   <i type="logical" name="ADDGRID"> F  </i>
  </separator>
  <separator name="ionic" >
   <i type="int" name="NSW">     0</i>
   <i type="int" name="IBRION">    -1</i>
   <i type="int" name="MDALGO">     0</i>
   <i type="int" name="ISIF">     2</i>
   <i name="PSTRESS">      0.00000000</i>
   <i name="EDIFFG">      0.00001000</i>
   <i type="int" name="NFREE">     0</i>
   <i name="POTIM">      0.50000000</i>
   <i name="SMASS">     -3.00000000</i>
   <i name="SCALEE">      1.00000000</i>
  </separator>
  <separator name="ionic md" >
   <i name="TEBEG">      0.00010000</i>
   <i name="TEEND">      0.00010000</i>
   <i type="int" name="NBLOCK">     1</i>
   <i type="int" name="KBLOCK">     1</i>
   <i type="int" name="NPACO">   256</i>
   <i name="APACO">     10.00000000</i>
  </separator>
  <separator name="symmetry" >
   <i type="int" name="ISYM">     2</i>
   <i name="SYMPREC">      0.00001000</i>
  </separator>
  <separator name="dos" >
   <i type="int" name="LORBIT">     0</i>
   <v name="RWIGS">     -1.00000000</v>
   <i type="int" name="NEDOS">   301</i>
   <i name="EMIN">     10.00000000</i>
   <i name="EMAX">    -10.00000000</i>
   <i name="EFERMI">      0.00000000</i>
  </separator>
  <separator name="writing" >
   <i type="int" name="NWRITE">     2</i>
   <i type="logical" name="LWAVE"> F  </i>
   <i type="logical" name="LDOWNSAMPLE"> F  </i>
   <i type="logical" name="LCHARG"> F  </i>
   <i type="logical" name="LPARD"> F  </i>
   <i type="logical" name="LVTOT"> F  </i>
   <i type="logical" name="LVHAR"> F  </i>
   <i type="logical" name="LELF"> F  </i>
   <i type="logical" name="LOPTICS"> F  </i>
   <v name="STM">      0.00000000      0.00000000      0.00000000      0.00000000      0.00000000      0.00000000      0.00000000</v>
  </separator>
  <separator name="performance" >
   <i type="int" name="NPAR">     2</i>
   <i type="int" name="NSIM">     4</i>
   <i type="int" name="NBLK">    -1</i>
   <i type="logical" name="LPLANE"> T  </i>
   <i type="logical" name="LSCALAPACK"> T  </i>
   <i type="logical" name="LSCAAWARE"> F  </i>
   <i type="logical" name="LSCALU"> F  </i>
   <i type="logical" name="LASYNC"> F  </i>
   <i type="logical" name="LORBITALREAL"> F  </i>
  </separator>
  <separator name="miscellaneous" >
   <i type="int" name="IDIOT">     3</i>
   <i type="int" name="PHON_NSTRUCT">    -1</i>
   <i type="logical" name="LMUSIC"> F  </i>
   <v name="POMASS">     12.01100000</v>
   <v name="DARWINR">      0.00000000</v>
   <v name="DARWINV">      1.00000000</v>
   <i type="logical" name="LCORR"> T  </i>
  </separator>
  <i type="logical" name="GGA_COMPAT"> T  </i>
  <i type="logical" name="LBERRY"> F  </i>
  <i type="int" name="ICORELEVEL">     0</i>
  <i type="logical" name="LDAU"> F  </i>
  <i type="int" name="I_CONSTRAINED_M">     0</i>
  <separator name="electronic exchange-correlation" >
   <i type="string" name="GGA    ">PE</i>
   <i type="string" name="XC_C">1</i>
   <i type="int" name="VOSKOWN">     0</i>
   <i type="logical" name="LHFCALC"> F  </i>
   <i type="string" name="PRECFOCK"></i>
   <i type="logical" name="LSYMGRAD"> F  </i>
   <i type="logical" name="LHFONE"> F  </i>
   <i type="logical" name="LRHFCALC"> F  </i>
   <i type="logical" name="LTHOMAS"> F  </i>
   <i type="logical" name="LMODELHF"> F  </i>
   <i type="logical" name="LFOCKACE"> F  </i>
   <i name="ENCUT4O">     -1.00000000</i>
   <i type="int" name="EXXOEP">     0</i>
   <i type="int" name="FOURORBIT">     0</i>
   <i name="AEXX">      0.00000000</i>
   <i name="HFALPHA">      0.00000000</i>
   <i name="MCALPHA">      0.00000000</i>
   <i name="ALDAX">      1.00000000</i>
   <i name="AGGAX">      1.00000000</i>
   <i name="AMGGAX">      1.00000000</i>
   <i name="ALDAC">      1.00000000</i>
   <i name="AGGAC">      1.00000000</i>
   <i name="AMGGAC">      1.00000000</i>
   <i type="int" name="NKREDX">     1</i>
   <i type="int" name="NKREDY">     1</i>
   <i type="int" name="NKREDZ">     1</i>
   <i type="logical" name="SHIFTRED"> F  </i>
   <i type="logical" name="ODDONLY"> F  </i>
   <i type="logical" name="EVENONLY"> F  </i>
   <i type="int" name="LMAXFOCK">     0</i>
   <i type="int" name="NMAXFOCKAE">     0</i>
   <i type="logical" name="LFOCKAEDFT"> F  </i>
   <i name="HFSCREEN">      0.00000000</i>
   <i name="HFSCREENC">      0.00000000</i>
   <i type="int" name="NBANDSGWLOW">     0</i>
  </separator>
  <separator name="vdW DFT" >
   <i type="logical" name="LUSE_VDW"> F  </i>
   <i type="int" name="IVDW_NL">    -1</i>
   <i type="logical" name="LSPIN_VDW"> F  </i>
   <i name="ZAB_VDW">     -0.84910000</i>
   <i name="GAMMA_VDW">      1.39626340</i>
   <i name="ALPHA_VDW">      0.00000000</i>
   <i name="PARAM1">      0.12340000</i>
   <i name="PARAM2">      1.00000000</i>
   <i name="BPARAM">      6.30000000</i>
   <i name="CPARAM">      0.00930000</i>
  </separator>
  <separator name="model GW" >
   <i type="int" name="MODEL_GW">     0</i>
   <i name="MODEL_EPS0">     49.63935326</i>
   <i name="MODEL_ALPHA">      1.00000000</i>
  </separator>
  <separator name="linear response parameters" >
   <i type="logical" name="LEPSILON"> F  </i>
   <i type="logical" name="LRPA"> F  </i>
   <i type="logical" name="LNABLA"> F  </i>
   <i type="logical" name="LVEL"> F  </i>
   <i name="CSHIFT">      0.10000000</i>
   <i name="OMEGAMAX">     -1.00000000</i>
   <i name="DEG_THRESHOLD">      0.00200000</i>
   <i name="RTIME">     -0.10000000</i>
   <i name="WPLASMAI">      0.00000000</i>
   <v name="DFIELD">      0.00000000      0.00000000      0.00000000</v>
   <v name="WPLASMA">      0.00000000      0.00000000      0.00000000      0.00000000      0.00000000      0.00000000      0.00000000      0.00000000      0.00000000</v>
  </separator>
  <separator name="orbital magnetization" >
   <i type="logical" name="NUCIND"> F  </i>
   <v name="MAGPOS">      0.00000000      0.00000000      0.00000000</v>
   <i type="logical" name="LNICSALL"> T  </i>
   <i type="logical" name="ORBITALMAG"> F  </i>
   <i type="logical" name="LMAGBLOCH"> F  </i>
   <i type="logical" name="LCHIMAG"> F  </i>
   <i type="logical" name="LGAUGE"> T  </i>
   <i type="int" name="MAGATOM">     0</i>
   <v name="MAGDIPOL">      0.00000000      0.00000000      0.00000000</v>
   <v name="AVECCONST">      0.00000000      0.00000000      0.00000000</v>
  </separator>
  <separator name="response functions" >
   <i type="logical" name="LALL_IN_ONE"> F  </i>
   <i type="int" name="IALL_IN_ONE">    -1</i>
   <i type="int" name="NBANDS_WAVE">    -1</i>
   <i type="logical" name="LFINITE_TEMPERATURE"> F  </i>
   <i type="logical" name="LADDER"> F  </i>
   <i type="logical" name="LRPAFORCE"> F  </i>
   <i type="logical" name="LFXC"> F  </i>
   <i type="logical" name="LHARTREE"> T  </i>
   <i type="int" name="IBSE">     2</i>
   <v type="int" name="KPOINT">    -1     0     0     0</v>
   <i type="logical" name="LTCTC"> F  </i>
   <i type="logical" name="LTCTE"> F  </i>
   <i type="logical" name="LTETE"> F  </i>
   <i type="logical" name="LTRIPLET"> F  </i>
   <i type="logical" name="LFXCEPS"> F  </i>
   <i type="logical" name="LFXHEG"> F  </i>
   <i type="int" name="NATURALO">     2</i>
   <i type="logical" name="LHOLEGF"> F  </i>
   <i type="logical" name="L2ORDER"> F  </i>
   <i type="logical" name="LDMP1"> F  </i>
   <i type="logical" name="LMP2LT"> F  </i>
   <i type="logical" name="LSMP2LT"> F  </i>
   <i type="logical" name="LGWLF"> F  </i>
   <i name="ENCUTGW">     -1.60000002</i>
   <i name="ENCUTGWSOFT">     -1.60000002</i>
   <i name="ENCUTLF">     -1.00000000</i>
   <i type="logical" name="ESF_SPLINES"> F  </i>
   <i name="ESF_CONV">      0.01000000</i>
   <i type="int" name="ESF_NINTER">    15</i>
   <i type="int" name="LMAXMP2">    -1</i>
   <i name="SCISSOR">      0.00000000</i>
   <i type="int" name="NOMEGA">     0</i>
   <i type="int" name="NOMEGAR">     0</i>
   <i type="int" name="NBANDSGW">    -1</i>
   <i type="int" name="NBANDSO">    -1</i>
   <i type="int" name="NBANDSV">    -1</i>
   <i type="int" name="NELMGW">     1</i>
   <i type="int" name="NELMHF">     1</i>
   <i type="int" name="DIM">     3</i>
   <i type="int" name="IESPILON">     4</i>
   <i type="int" name="ANTIRES">     0</i>
   <i name="OMEGAMAX">    -30.00000000</i>
   <i name="OMEGAMIN">    -30.00000000</i>
   <i name="OMEGATL">   -200.00000000</i>
   <i type="int" name="OMEGAGRID">     0</i>
   <i name="CSHIFT">     -0.10000000</i>
   <i type="logical" name="LSELFENERGY"> F  </i>
   <i type="logical" name="LSPECTRAL"> F  </i>
   <i type="logical" name="LSPECTRALGW"> F  </i>
   <i type="logical" name="LSINGLES"> F  </i>
   <i type="logical" name="LFERMIGW"> F  </i>
   <i type="logical" name="ODDONLYGW"> F  </i>
   <i type="logical" name="EVENONLYGW"> F  </i>
   <i type="int" name="NKREDLFX">     1</i>
   <i type="int" name="NKREDLFY">     1</i>
   <i type="int" name="NKREDLFZ">     1</i>
   <i type="int" name="MAXMEM">  2800</i>
   <i type="int" name="TELESCOPE">     0</i>
   <i type="int" name="NTAUPAR">    -1</i>
   <i type="int" name="NOMEGAPAR">    -1</i>
   <i name="DAMP_NEWTON">      0.80000001</i>
   <i name="LAMBDA">      1.00000000</i>
  </separator>
  <separator name="External order field" >
   <i name="OFIELD_KAPPA">      0.00000000</i>
   <v name="OFIELD_K">      0.00000000      0.00000000      0.00000000</v>
   <i name="OFIELD_Q6_NEAR">      0.00000000</i>
   <i name="OFIELD_Q6_FAR">      0.00000000</i>
   <i name="OFIELD_A">      0.00000000</i>
  </separator>
  <separator name="optional k-points parameters" >
   <i type="int" name="KPOINTS_OPT_MODE">     1</i>
   <i type="logical" name="LKPOINTS_OPT"> F  </i>
  </separator>
 </parameters>
 <atominfo>
  <atoms>      92 </atoms>
  <types>       1 </types>
  <array name="atoms" >
   <dimension dim="1">ion</dimension>
   <field type="string">element</field>
   <field type="int">atomtype</field>
   <set>
    <rc><c>C </c><c>   1</c></rc>
    <rc><c>C </c><c>   1</c></rc>
    <rc><c>C </c><c>   1</c></rc>
    <rc><c>C </c><c>   1</c></rc>
    <rc><c>C </c><c>   1</c></rc>
    <rc><c>C </c><c>   1</c></rc>
    <rc><c>C </c><c>   1</c></rc>
    <rc><c>C </c><c>   1</c></rc>
    <rc><c>C </c><c>   1</c></rc>
    <rc><c>C </c><c>   1</c></rc>
    <rc><c>C </c><c>   1</c></rc>
    <rc><c>C </c><c>   1</c></rc>
    <rc><c>C </c><c>   1</c></rc>
    <rc><c>C </c><c>   1</c></rc>
    <rc><c>C </c><c>   1</c></rc>
    <rc><c>C </c><c>   1</c></rc>
    <rc><c>C </c><c>   1</c></rc>
    <rc><c>C </c><c>   1</c></rc>
    <rc><c>C </c><c>   1</c></rc>
    <rc><c>C </c><c>   1</c></rc>
    <rc><c>C </c><c>   1</c></rc>
    <rc><c>C </c><c>   1</c></rc>
    <rc><c>C </c><c>   1</c></rc>
    <rc><c>C </c><c>   1</c></rc>
    <rc><c>C </c><c>   1</c></rc>
    <rc><c>C </c><c>   1</c></rc>
    <rc><c>C </c><c>   1</c></rc>
    <rc><c>C </c><c>   1</c></rc>
    <rc><c>C </c><c>   1</c></rc>
    <rc><c>C </c><c>   1</c></rc>
    <rc><c>C </c><c>   1</c></rc>
    <rc><c>C </c><c>   1</c></rc>
    <rc><c>C </c><c>   1</c></rc>
    <rc><c>C </c><c>   1</c></rc>
    <rc><c>C </c><c>   1</c></rc>
    <rc><c>C </c><c>   1</c></rc>
    <rc><c>C </c><c>   1</c></rc>
    <rc><c>C </c><c>   1</c></rc>
    <rc><c>C </c><c>   1</c></rc>
    <rc><c>C </c><c>   1</c></rc>
    <rc><c>C </c><c>   1</c></rc>
    <rc><c>C </c><c>   1</c></rc>
    <rc><c>C </c><c>   1</c></rc>
    <rc><c>C </c><c>   1</c></rc>
    <rc><c>C </c><c>   1</c></rc>
    <rc><c>C </c><c>   1</c></rc>
    <rc><c>C </c><c>   1</c></rc>
    <rc><c>C </c><c>   1</c></rc>
    <rc><c>C </c><c>   1</c></rc>
    <rc><c>C </c><c>   1</c></rc>
    <rc><c>C </c><c>   1</c></rc>
    <rc><c>C </c><c>   1</c></rc>
    <rc><c>C </c><c>   1</c></rc>
    <rc><c>C </c><c>   1</c></rc>
    <rc><c>C </c><c>   1</c></rc>
    <rc><c>C </c><c>   1</c></rc>
    <rc><c>C </c><c>   1</c></rc>
    <rc><c>C </c><c>   1</c></rc>
    <rc><c>C </c><c>   1</c></rc>
    <rc><c>C </c><c>   1</c></rc>
    <rc><c>C </c><c>   1</c></rc>
    <rc><c>C </c><c>   1</c></rc>
    <rc><c>C </c><c>   1</c></rc>
    <rc><c>C </c><c>   1</c></rc>
    <rc><c>C </c><c>   1</c></rc>
    <rc><c>C </c><c>   1</c></rc>
    <rc><c>C </c><c>   1</c></rc>
    <rc><c>C </c><c>   1</c></rc>
    <rc><c>C </c><c>   1</c></rc>
    <rc><c>C </c><c>   1</c></rc>
    <rc><c>C </c><c>   1</c></rc>
    <rc><c>C </c><c>   1</c></rc>
    <rc><c>C </c><c>   1</c></rc>
    <rc><c>C </c><c>   1</c></rc>
    <rc><c>C </c><c>   1</c></rc>
    <rc><c>C </c><c>   1</c></rc>
    <rc><c>C </c><c>   1</c></rc>
    <rc><c>C </c><c>   1</c></rc>
    <rc><c>C </c><c>   1</c></rc>
    <rc><c>C </c><c>   1</c></rc>
    <rc><c>C </c><c>   1</c></rc>
    <rc><c>C </c><c>   1</c></rc>
    <rc><c>C </c><c>   1</c></rc>
    <rc><c>C </c><c>   1</c></rc>
    <rc><c>C </c><c>   1</c></rc>
    <rc><c>C </c><c>   1</c></rc>
    <rc><c>C </c><c>   1</c></rc>
    <rc><c>C </c><c>   1</c></rc>
    <rc><c>C </c><c>   1</c></rc>
    <rc><c>C </c><c>   1</c></rc>
    <rc><c>C </c><c>   1</c></rc>
    <rc><c>C </c><c>   1</c></rc>
   </set>
  </array>
  <array name="atomtypes" >
   <dimension dim="1">type</dimension>
   <field type="int">atomspertype</field>
   <field type="string">element</field>
   <field>mass</field>
   <field>valence</field>
   <field type="string">pseudopotential</field>
   <set>
    <rc><c>  92</c><c>C </c><c>     12.01100000</c><c>      4.00000000</c><c>  PAW_PBE C 08Apr2002                   </c></rc>
   </set>
  </array>
 </atominfo>
 <structure name="initialpos" >
  <crystal>
   <varray name="basis" >
    <v>      28.05000000       0.00000000       0.00000000 </v>
    <v>       0.00000000       8.10000000       0.00000000 </v>
    <v>       0.00000000       0.00000000      33.50000000 </v>
   </varray>
   <i name="volume">   7611.36750000 </i>
   <varray name="rec_basis" >
    <v>       0.03565062       0.00000000       0.00000000 </v>
    <v>       0.00000000       0.12345679       0.00000000 </v>
    <v>       0.00000000       0.00000000       0.02985075 </v>
   </varray>
  </crystal>
  <varray name="positions" >
   <v>       0.22467914       0.39919506       0.07683522 </v>
   <v>       0.22767094       0.57694815       0.07575313 </v>
   <v>       0.26834367       0.32151111       0.07529701 </v>
   <v>       0.27057718       0.66330741       0.07557373 </v>
   <v>       0.31343636       0.40274074       0.07820448 </v>
   <v>       0.31388556       0.57415309       0.07566746 </v>
   <v>       0.35748663       0.32112469       0.08390507 </v>
   <v>       0.35746524       0.65327654       0.07557164 </v>
   <v>       0.40098396       0.40554568       0.08904836 </v>
   <v>       0.40132264       0.57535926       0.08590776 </v>
   <v>       0.44385027       0.31919136       0.09875104 </v>
   <v>       0.44558645       0.65618889       0.09762657 </v>
   <v>       0.48532264       0.39904938       0.11279075 </v>
   <v>       0.48631729       0.56983951       0.11194836 </v>
   <v>       0.52934046       0.31957901       0.12219970 </v>
   <v>       0.52896613       0.65389753       0.11909075 </v>
   <v>       0.57142959       0.40136173       0.13174418 </v>
   <v>       0.56971836       0.56941605       0.13468448 </v>
   <v>       0.61425312       0.32355185       0.14629701 </v>
   <v>       0.61459180       0.65218148       0.14022209 </v>
   <v>       0.65701248       0.40467037       0.15195164 </v>
   <v>       0.65876292       0.57193951       0.14821045 </v>
   <v>       0.70179323       0.32229136       0.16244687 </v>
   <v>       0.70102674       0.65216914       0.15805373 </v>
   <v>       0.74499465       0.40213086       0.16382537 </v>
   <v>       0.74630660       0.57263457       0.16420448 </v>
   <v>       0.78953298       0.32337037       0.16453254 </v>
   <v>       0.79126916       0.65297037       0.16030687 </v>
   <v>       0.83458111       0.39286543       0.15963851 </v>
   <v>       0.83509091       0.56622346       0.15923104 </v>
   <v>       0.87709447       0.31098395       0.14916866 </v>
   <v>       0.87758289       0.64507037       0.15419075 </v>
   <v>       0.92266310       0.39229383       0.14703881 </v>
   <v>       0.92234581       0.56540988       0.14934776 </v>
   <v>       0.96342246       0.31584198       0.13527254 </v>
   <v>       0.96485205       0.65014321       0.14110597 </v>
   <v>       0.00709159       0.39902963       0.12487642 </v>
   <v>       0.00573173       0.56715185       0.12761910 </v>
   <v>       0.04821818       0.31477160       0.11130806 </v>
   <v>       0.04981176       0.64759753       0.11221493 </v>
   <v>       0.08958146       0.39512469       0.10060119 </v>
   <v>       0.09187344       0.56407407       0.10253045 </v>
   <v>       0.13222531       0.31429012       0.08703493 </v>
   <v>       0.13513975       0.64145679       0.09238687 </v>
   <v>       0.17514973       0.39143951       0.08068328 </v>
   <v>       0.17803850       0.56754691       0.08331403 </v>
   <v>       0.22785740       0.90712963       0.07255731 </v>
   <v>       0.22557326       0.07896321       0.06948537 </v>
   <v>       0.27034581       0.83074321       0.07191582 </v>
   <v>       0.27053583       0.15918519       0.07041433 </v>
   <v>       0.31459608       0.90716914       0.07243254 </v>
   <v>       0.31418610       0.07494988       0.07534597 </v>
   <v>       0.35990018       0.82204568       0.07440567 </v>
   <v>       0.35789305       0.15391481       0.07967672 </v>
   <v>       0.40331551       0.89832346       0.08373910 </v>
   <v>       0.40229590       0.07335593       0.08601612 </v>
   <v>       0.44573975       0.82455926       0.09248776 </v>
   <v>       0.44413191       0.15719630       0.09555134 </v>
   <v>       0.48951872       0.90836790       0.10117224 </v>
   <v>       0.48910517       0.07117580       0.10736627 </v>
   <v>       0.53244207       0.82997901       0.11272149 </v>
   <v>       0.53123351       0.15540988       0.12026985 </v>
   <v>       0.57570053       0.90417037       0.12598627 </v>
   <v>       0.57309447       0.07209519       0.13155313 </v>
   <v>       0.61567201       0.82242593       0.14079045 </v>
   <v>       0.61418182       0.15250617       0.14761463 </v>
   <v>       0.65761141       0.90559383       0.15371612 </v>
   <v>       0.65668806       0.07430432       0.15788955 </v>
   <v>       0.70188592       0.81873580       0.15686000 </v>
   <v>       0.70088414       0.15669753       0.16250209 </v>
   <v>       0.74570053       0.90361235       0.16219015 </v>
   <v>       0.74479857       0.06696605       0.16712627 </v>
   <v>       0.79020321       0.81892593       0.15820209 </v>
   <v>       0.78898752       0.15075185       0.16371731 </v>
   <v>       0.83369697       0.90030000       0.15176060 </v>
   <v>       0.83375045       0.06751901       0.15552896 </v>
   <v>       0.87788592       0.81395679       0.14854657 </v>
   <v>       0.87587522       0.14303951       0.14475254 </v>
   <v>       0.92120856       0.89424938       0.13727761 </v>
   <v>       0.92002852       0.06448765       0.13397970 </v>
   <v>       0.96466310       0.81876173       0.13277075 </v>
   <v>       0.96290196       0.14675802       0.12970507 </v>
   <v>       0.00589508       0.89770370       0.11671493 </v>
   <v>       0.00600717       0.06437469       0.11925522 </v>
   <v>       0.04832264       0.81446543       0.10447104 </v>
   <v>       0.04939857       0.14505062       0.10880507 </v>
   <v>       0.09024492       0.89301358       0.09309821 </v>
   <v>       0.08820143       0.06164790       0.09228090 </v>
   <v>       0.13312228       0.81023580       0.08949642 </v>
   <v>       0.13153012       0.14952469       0.08120478 </v>
   <v>       0.17437790       0.89652593       0.07741761 </v>
   <v>       0.17386702       0.06864469       0.07451224 </v>
  </varray>
 </structure>
 <calculation>
  <scstep>
   <time name="dav">   11.11   11.12</time>
   <time name="total">   11.57   11.61</time>
   <energy>
    <i name="alphaZ">     91.34886789 </i>
    <i name="ewald"> 120288.37382300 </i>
    <i name="hartreedc">-129582.52082673 </i>
    <i name="XCdc">   1223.51530660 </i>
    <i name="pawpsdc">   9984.02826696 </i>
    <i name="pawaedc"> -10036.41360137 </i>
    <i name="eentropy">     -0.85949276 </i>
    <i name="bandstr">  -1860.58433355 </i>
    <i name="atom">  13537.65479391 </i>
    <i name="e_fr_energy">   3644.54280396 </i>
    <i name="e_wo_entrp">   3645.40229671 </i>
    <i name="e_0_energy">   3644.97255034 </i>
   </energy>
  </scstep>
  <scstep>
   <time name="dav">   13.14   13.15</time>
   <time name="total">   13.14   13.15</time>
   <energy>
    <i name="e_fr_energy">    169.79415453 </i>
    <i name="e_wo_entrp">    170.05688656 </i>
    <i name="e_0_energy">    169.92552055 </i>
   </energy>
  </scstep>
  <scstep>
   <time name="dav">   11.33   11.34</time>
   <time name="total">   11.33   11.34</time>
   <energy>
    <i name="e_fr_energy">   -835.52161019 </i>
    <i name="e_wo_entrp">   -835.42960038 </i>
    <i name="e_0_energy">   -835.47560528 </i>
   </energy>
  </scstep>
  <scstep>
   <time name="dav">   10.91   10.92</time>
   <time name="total">   10.91   10.92</time>
   <energy>
    <i name="e_fr_energy">   -897.60169153 </i>
    <i name="e_wo_entrp">   -897.52791342 </i>
    <i name="e_0_energy">   -897.56480248 </i>
   </energy>
  </scstep>
  <scstep>
   <time name="dav">   11.45   11.46</time>
   <time name="total">   12.94   12.95</time>
   <energy>
    <i name="e_fr_energy">   -899.13543935 </i>
    <i name="e_wo_entrp">   -899.06208902 </i>
    <i name="e_0_energy">   -899.09876419 </i>
   </energy>
  </scstep>
  <scstep>
   <time name="dav">   10.21   10.21</time>
   <time name="total">   12.01   12.02</time>
   <energy>
    <i name="e_fr_energy">   -848.18826960 </i>
    <i name="e_wo_entrp">   -848.09899567 </i>
    <i name="e_0_energy">   -848.14363263 </i>
   </energy>
  </scstep>
  <scstep>
   <time name="dav">   10.17   10.18</time>
   <time name="total">   11.97   11.98</time>
   <energy>
    <i name="e_fr_energy">   -829.16106577 </i>
    <i name="e_wo_entrp">   -829.06380184 </i>
    <i name="e_0_energy">   -829.11243381 </i>
   </energy>
  </scstep>
  <scstep>
   <time name="dav">   10.33   10.33</time>
   <time name="total">   12.13   12.13</time>
   <energy>
    <i name="e_fr_energy">   -828.85734185 </i>
    <i name="e_wo_entrp">   -828.76086244 </i>
    <i name="e_0_energy">   -828.80910214 </i>
   </energy>
  </scstep>
  <scstep>
   <time name="dav">   10.74   10.75</time>
   <time name="total">   12.55   12.56</time>
   <energy>
    <i name="e_fr_energy">   -828.75263827 </i>
    <i name="e_wo_entrp">   -828.65779615 </i>
    <i name="e_0_energy">   -828.70521721 </i>
   </energy>
  </scstep>
  <scstep>
   <time name="dav">   10.89   10.89</time>
   <time name="total">   12.70   12.70</time>
   <energy>
    <i name="e_fr_energy">   -828.71123554 </i>
    <i name="e_wo_entrp">   -828.61569790 </i>
    <i name="e_0_energy">   -828.66346672 </i>
   </energy>
  </scstep>
  <scstep>
   <time name="dav">    9.97    9.98</time>
   <time name="total">   11.80   11.81</time>
   <energy>
    <i name="e_fr_energy">   -828.67454389 </i>
    <i name="e_wo_entrp">   -828.57860556 </i>
    <i name="e_0_energy">   -828.62657473 </i>
   </energy>
  </scstep>
  <scstep>
   <time name="dav">   10.16   10.16</time>
   <time name="total">   11.98   11.99</time>
   <energy>
    <i name="e_fr_energy">   -828.66707561 </i>
    <i name="e_wo_entrp">   -828.57155895 </i>
    <i name="e_0_energy">   -828.61931728 </i>
   </energy>
  </scstep>
  <scstep>
   <time name="dav">   10.07   10.07</time>
   <time name="total">   11.90   11.90</time>
   <energy>
    <i name="e_fr_energy">   -828.67774109 </i>
    <i name="e_wo_entrp">   -828.58193813 </i>
    <i name="e_0_energy">   -828.62983961 </i>
   </energy>
  </scstep>
  <scstep>
   <time name="dav">   10.33   10.33</time>
   <time name="total">   12.17   12.17</time>
   <energy>
    <i name="e_fr_energy">   -828.69394785 </i>
    <i name="e_wo_entrp">   -828.59828385 </i>
    <i name="e_0_energy">   -828.64611585 </i>
   </energy>
  </scstep>
  <scstep>
   <time name="dav">   10.15   10.16</time>
   <time name="total">   12.00   12.01</time>
   <energy>
    <i name="e_fr_energy">   -828.71443482 </i>
    <i name="e_wo_entrp">   -828.61875157 </i>
    <i name="e_0_energy">   -828.66659319 </i>
   </energy>
  </scstep>
  <scstep>
   <time name="dav">   10.33   10.33</time>
   <time name="total">   12.20   12.20</time>
   <energy>
    <i name="e_fr_energy">   -828.72632431 </i>
    <i name="e_wo_entrp">   -828.63061346 </i>
    <i name="e_0_energy">   -828.67846888 </i>
   </energy>
  </scstep>
  <scstep>
   <time name="dav">   10.09   10.09</time>
   <time name="total">   11.95   11.96</time>
   <energy>
    <i name="e_fr_energy">   -828.73233523 </i>
    <i name="e_wo_entrp">   -828.63663188 </i>
    <i name="e_0_energy">   -828.68448355 </i>
   </energy>
  </scstep>
  <scstep>
   <time name="dav">   10.26   10.26</time>
   <time name="total">   12.13   12.14</time>
   <energy>
    <i name="e_fr_energy">   -828.73462530 </i>
    <i name="e_wo_entrp">   -828.63890980 </i>
    <i name="e_0_energy">   -828.68676755 </i>
   </energy>
  </scstep>
  <scstep>
   <time name="dav">    9.15    9.15</time>
   <time name="total">   11.03   11.04</time>
   <energy>
    <i name="e_fr_energy">   -828.73598519 </i>
    <i name="e_wo_entrp">   -828.64027675 </i>
    <i name="e_0_energy">   -828.68813097 </i>
   </energy>
  </scstep>
  <scstep>
   <time name="dav">    9.12    9.12</time>
   <time name="total">   11.02   11.03</time>
   <energy>
    <i name="e_fr_energy">   -828.73639895 </i>
    <i name="e_wo_entrp">   -828.64068608 </i>
    <i name="e_0_energy">   -828.68854251 </i>
   </energy>
  </scstep>
  <scstep>
   <time name="dav">    8.80    8.80</time>
   <time name="total">   10.72   10.73</time>
   <energy>
    <i name="e_fr_energy">   -828.73661350 </i>
    <i name="e_wo_entrp">   -828.64090135 </i>
    <i name="e_0_energy">   -828.68875743 </i>
   </energy>
  </scstep>
  <scstep>
   <time name="dav">    7.64    7.64</time>
   <time name="total">    9.56    9.57</time>
   <energy>
    <i name="e_fr_energy">   -828.73667200 </i>
    <i name="e_wo_entrp">   -828.64095979 </i>
    <i name="e_0_energy">   -828.68881589 </i>
   </energy>
  </scstep>
  <scstep>
   <time name="dav">    7.13    7.14</time>
   <time name="total">    9.08    9.08</time>
   <energy>
    <i name="e_fr_energy">   -828.73670128 </i>
    <i name="e_wo_entrp">   -828.64098849 </i>
    <i name="e_0_energy">   -828.68884488 </i>
   </energy>
  </scstep>
  <scstep>
   <time name="dav">    7.05    7.06</time>
   <time name="total">    9.01    9.01</time>
   <energy>
    <i name="e_fr_energy">   -828.73671538 </i>
    <i name="e_wo_entrp">   -828.64100318 </i>
    <i name="e_0_energy">   -828.68885928 </i>
   </energy>
  </scstep>
  <scstep>
   <time name="dav">    7.39    7.40</time>
   <time name="total">    9.36    9.37</time>
   <energy>
    <i name="e_fr_energy">   -828.73671874 </i>
    <i name="e_wo_entrp">   -828.64100651 </i>
    <i name="e_0_energy">   -828.68886262 </i>
   </energy>
  </scstep>
  <scstep>
   <time name="dav">    7.02    7.03</time>
   <time name="total">    9.02    9.02</time>
   <energy>
    <i name="e_fr_energy">   -828.73672239 </i>
    <i name="e_wo_entrp">   -828.64101004 </i>
    <i name="e_0_energy">   -828.68886622 </i>
   </energy>
  </scstep>
  <scstep>
   <time name="dav">    7.15    7.15</time>
   <time name="total">    9.15    9.16</time>
   <energy>
    <i name="e_fr_energy">   -828.73672398 </i>
    <i name="e_wo_entrp">   -828.64101169 </i>
    <i name="e_0_energy">   -828.68886783 </i>
   </energy>
  </scstep>
  <scstep>
   <time name="dav">    7.02    7.02</time>
   <time name="total">    9.04    9.05</time>
   <energy>
    <i name="e_fr_energy">   -828.73672532 </i>
    <i name="e_wo_entrp">   -828.64101295 </i>
    <i name="e_0_energy">   -828.68886914 </i>
   </energy>
  </scstep>
  <scstep>
   <time name="dav">    7.10    7.11</time>
   <time name="total">    7.46    7.47</time>
   <energy>
    <i name="alphaZ">     91.34886789 </i>
    <i name="ewald"> 120288.37382300 </i>
    <i name="hartreedc">-131376.67160675 </i>
    <i name="XCdc">   1281.58269630 </i>
    <i name="pawpsdc">  41701.67204732 </i>
    <i name="pawaedc"> -41765.97769688 </i>
    <i name="eentropy">     -0.09571236 </i>
    <i name="bandstr">  -4586.62393847 </i>
    <i name="atom">  13537.65479391 </i>
    <i name="e_fr_energy">   -828.73672604 </i>
    <i name="e_wo_entrp">   -828.64101369 </i>
    <i name="e_0_energy">   -828.68886987 </i>
   </energy>
  </scstep>
  <structure>
   <crystal>
    <varray name="basis" >
     <v>      28.05000000       0.00000000       0.00000000 </v>
     <v>       0.00000000       8.10000000       0.00000000 </v>
     <v>       0.00000000       0.00000000      33.50000000 </v>
    </varray>
    <i name="volume">   7611.36750000 </i>
    <varray name="rec_basis" >
     <v>       0.03565062       0.00000000       0.00000000 </v>
     <v>       0.00000000       0.12345679       0.00000000 </v>
     <v>       0.00000000       0.00000000       0.02985075 </v>
    </varray>
   </crystal>
   <varray name="positions" >
    <v>       0.22467914       0.39919506       0.07683522 </v>
    <v>       0.22767094       0.57694815       0.07575313 </v>
    <v>       0.26834367       0.32151111       0.07529701 </v>
    <v>       0.27057718       0.66330741       0.07557373 </v>
    <v>       0.31343636       0.40274074       0.07820448 </v>
    <v>       0.31388556       0.57415309       0.07566746 </v>
    <v>       0.35748663       0.32112469       0.08390507 </v>
    <v>       0.35746524       0.65327654       0.07557164 </v>
    <v>       0.40098396       0.40554568       0.08904836 </v>
    <v>       0.40132264       0.57535926       0.08590776 </v>
    <v>       0.44385027       0.31919136       0.09875104 </v>
    <v>       0.44558645       0.65618889       0.09762657 </v>
    <v>       0.48532264       0.39904938       0.11279075 </v>
    <v>       0.48631729       0.56983951       0.11194836 </v>
    <v>       0.52934046       0.31957901       0.12219970 </v>
    <v>       0.52896613       0.65389753       0.11909075 </v>
    <v>       0.57142959       0.40136173       0.13174418 </v>
    <v>       0.56971836       0.56941605       0.13468448 </v>
    <v>       0.61425312       0.32355185       0.14629701 </v>
    <v>       0.61459180       0.65218148       0.14022209 </v>
    <v>       0.65701248       0.40467037       0.15195164 </v>
    <v>       0.65876292       0.57193951       0.14821045 </v>
    <v>       0.70179323       0.32229136       0.16244687 </v>
    <v>       0.70102674       0.65216914       0.15805373 </v>
    <v>       0.74499465       0.40213086       0.16382537 </v>
    <v>       0.74630660       0.57263457       0.16420448 </v>
    <v>       0.78953298       0.32337037       0.16453254 </v>
    <v>       0.79126916       0.65297037       0.16030687 </v>
    <v>       0.83458111       0.39286543       0.15963851 </v>
    <v>       0.83509091       0.56622346       0.15923104 </v>
    <v>       0.87709447       0.31098395       0.14916866 </v>
    <v>       0.87758289       0.64507037       0.15419075 </v>
    <v>       0.92266310       0.39229383       0.14703881 </v>
    <v>       0.92234581       0.56540988       0.14934776 </v>
    <v>       0.96342246       0.31584198       0.13527254 </v>
    <v>       0.96485205       0.65014321       0.14110597 </v>
    <v>       0.00709159       0.39902963       0.12487642 </v>
    <v>       0.00573173       0.56715185       0.12761910 </v>
    <v>       0.04821818       0.31477160       0.11130806 </v>
    <v>       0.04981176       0.64759753       0.11221493 </v>
    <v>       0.08958146       0.39512469       0.10060119 </v>
    <v>       0.09187344       0.56407407       0.10253045 </v>
    <v>       0.13222531       0.31429012       0.08703493 </v>
    <v>       0.13513975       0.64145679       0.09238687 </v>
    <v>       0.17514973       0.39143951       0.08068328 </v>
    <v>       0.17803850       0.56754691       0.08331403 </v>
    <v>       0.22785740       0.90712963       0.07255731 </v>
    <v>       0.22557326       0.07896321       0.06948537 </v>
    <v>       0.27034581       0.83074321       0.07191582 </v>
    <v>       0.27053583       0.15918519       0.07041433 </v>
    <v>       0.31459608       0.90716914       0.07243254 </v>
    <v>       0.31418610       0.07494988       0.07534597 </v>
    <v>       0.35990018       0.82204568       0.07440567 </v>
    <v>       0.35789305       0.15391481       0.07967672 </v>
    <v>       0.40331551       0.89832346       0.08373910 </v>
    <v>       0.40229590       0.07335593       0.08601612 </v>
    <v>       0.44573975       0.82455926       0.09248776 </v>
    <v>       0.44413191       0.15719630       0.09555134 </v>
    <v>       0.48951872       0.90836790       0.10117224 </v>
    <v>       0.48910517       0.07117580       0.10736627 </v>
    <v>       0.53244207       0.82997901       0.11272149 </v>
    <v>       0.53123351       0.15540988       0.12026985 </v>
    <v>       0.57570053       0.90417037       0.12598627 </v>
    <v>       0.57309447       0.07209519       0.13155313 </v>
    <v>       0.61567201       0.82242593       0.14079045 </v>
    <v>       0.61418182       0.15250617       0.14761463 </v>
    <v>       0.65761141       0.90559383       0.15371612 </v>
    <v>       0.65668806       0.07430432       0.15788955 </v>
    <v>       0.70188592       0.81873580       0.15686000 </v>
    <v>       0.70088414       0.15669753       0.16250209 </v>
    <v>       0.74570053       0.90361235       0.16219015 </v>
    <v>       0.74479857       0.06696605       0.16712627 </v>
    <v>       0.79020321       0.81892593       0.15820209 </v>
    <v>       0.78898752       0.15075185       0.16371731 </v>
    <v>       0.83369697       0.90030000       0.15176060 </v>
    <v>       0.83375045       0.06751901       0.15552896 </v>
    <v>       0.87788592       0.81395679       0.14854657 </v>
    <v>       0.87587522       0.14303951       0.14475254 </v>
    <v>       0.92120856       0.89424938       0.13727761 </v>
    <v>       0.92002852       0.06448765       0.13397970 </v>
    <v>       0.96466310       0.81876173       0.13277075 </v>
    <v>       0.96290196       0.14675802       0.12970507 </v>
    <v>       0.00589508       0.89770370       0.11671493 </v>
    <v>       0.00600717       0.06437469       0.11925522 </v>
    <v>       0.04832264       0.81446543       0.10447104 </v>
    <v>       0.04939857       0.14505062       0.10880507 </v>
    <v>       0.09024492       0.89301358       0.09309821 </v>
    <v>       0.08820143       0.06164790       0.09228090 </v>
    <v>       0.13312228       0.81023580       0.08949642 </v>
    <v>       0.13153012       0.14952469       0.08120478 </v>
    <v>       0.17437790       0.89652593       0.07741761 </v>
    <v>       0.17386702       0.06864469       0.07451224 </v>
   </varray>
  </structure>
  <varray name="forces" >
   <v>       5.10882147       1.77967037      -1.03231027 </v>
   <v>       1.56400299      -2.05542345       0.52420211 </v>
   <v>       0.91164810       2.13663988       0.18533956 </v>
   <v>      -1.34096073      -2.55909854      -0.65993023 </v>
   <v>      -0.53911468       1.32650384       0.17460999 </v>
   <v>      -0.56916477      -0.94945936       0.05829951 </v>
   <v>      -0.20997714       1.16492998      -0.96787419 </v>
   <v>       2.15500313       0.22069476       0.72961519 </v>
   <v>       0.12119239      -0.05909041       0.39329521 </v>
   <v>       0.89407234      -0.48415263       0.76920158 </v>
   <v>      -0.30402961       3.28604082       0.53319637 </v>
   <v>      -1.45901289      -0.90530323      -1.11193197 </v>
   <v>       0.81163170       0.67011000      -0.20072101 </v>
   <v>      -0.76941139       0.62137533      -0.76403254 </v>
   <v>      -0.99521315       1.67660827      -0.09466759 </v>
   <v>       1.12287033       1.67571074       0.58543380 </v>
   <v>       0.67563307       0.22708075       1.93753781 </v>
   <v>       1.14221713       1.68136029      -1.88816251 </v>
   <v>      -1.33446889      -0.78556124      -1.11809299 </v>
   <v>       0.24979728      -0.01936408       0.43954057 </v>
   <v>       1.96164327      -0.68320297       1.07074871 </v>
   <v>      -1.47395044       0.04281454       0.59708949 </v>
   <v>      -2.43090276       0.98079308      -1.06027185 </v>
   <v>       1.74317800      -0.46437214      -0.62532538 </v>
   <v>       1.55471824       1.72667320       0.88192077 </v>
   <v>      -0.82411108      -0.33978783      -1.13971841 </v>
   <v>       0.04781824      -2.75204683      -0.38462445 </v>
   <v>      -1.06241757      -1.98352998       0.68036243 </v>
   <v>      -0.02562880       2.20070411      -0.20172361 </v>
   <v>      -1.36078908      -1.24525222       0.28081780 </v>
   <v>       0.85523036       0.68599424       0.94850067 </v>
   <v>       2.13440902       1.12228860      -0.53526993 </v>
   <v>      -2.40564068       1.82275019      -0.04949208 </v>
   <v>      -0.33459082      -0.73173949       0.46639622 </v>
   <v>       2.52174010      -0.91908594      -0.84759329 </v>
   <v>       0.51240651       0.13868968      -1.32006370 </v>
   <v>      -1.18563193      -0.93316797       0.94121871 </v>
   <v>       3.04871612       0.49716232      -0.71896577 </v>
   <v>      -0.12471773      -0.06645928       0.04334605 </v>
   <v>      -1.93021841      -0.09637962       0.53933896 </v>
   <v>       1.85479591       0.43275318      -0.41000877 </v>
   <v>      -0.16649386      -0.84502030       0.08651152 </v>
   <v>      -0.18082120       1.09687173       0.10762309 </v>
   <v>       0.28138858       1.06989056       0.08550653 </v>
   <v>      -1.96808969       3.13449078       0.72166790 </v>
   <v>      -4.41902894      -1.41142660       0.53301245 </v>
   <v>      -0.97565333       1.78699312      -0.48577468 </v>
   <v>       2.47113769      -1.92597326      -0.05844467 </v>
   <v>       0.68765607      -1.23797590       0.30407314 </v>
   <v>      -2.04428848      -2.86683125       0.63378964 </v>
   <v>       1.53935949       0.20757749      -0.05162680 </v>
   <v>      -0.19908649      -0.24130608      -1.19058044 </v>
   <v>      -1.52750249       0.55461647       0.43635599 </v>
   <v>       1.27049113      -0.37574253       1.02657298 </v>
   <v>      -1.40404877       3.13081891      -0.76002210 </v>
   <v>      -0.83209003      -1.45851080      -0.73422097 </v>
   <v>       2.22150045      -1.29664705       0.57354533 </v>
   <v>       2.08976415      -3.56636300       1.14329767 </v>
   <v>       0.40411864      -1.38801282       0.66138188 </v>
   <v>      -1.43521510       2.96626369      -1.29989257 </v>
   <v>      -0.04315533      -3.69449067       0.55934204 </v>
   <v>      -1.08638472      -2.78087985      -0.30664416 </v>
   <v>      -1.88731777       0.63606189       0.31982421 </v>
   <v>       0.96345252       0.32821554       0.17958231 </v>
   <v>       0.42984874      -0.32243519      -0.16292175 </v>
   <v>      -0.94559533       0.78736579      -0.41795171 </v>
   <v>       0.38271929      -1.17496572      -0.53983535 </v>
   <v>       0.53180349      -0.45774762      -0.68601144 </v>
   <v>      -0.68269448       2.06298066       0.92126719 </v>
   <v>       0.10553420      -2.24338712       1.30508429 </v>
   <v>      -0.07032045      -2.69282736      -0.36125228 </v>
   <v>       0.24201029       2.68006259      -0.98986691 </v>
   <v>      -0.06070218       1.53587116       0.01220193 </v>
   <v>       1.08762713       0.08494075       0.15040757 </v>
   <v>       0.18446343      -1.18374183       0.93725362 </v>
   <v>      -1.82035312       0.30944377      -0.67964724 </v>
   <v>      -0.05765751       0.62488011      -0.50890369 </v>
   <v>       1.70334288       1.04477484      -0.10994152 </v>
   <v>      -1.50477348       0.83918207       0.52821313 </v>
   <v>      -1.68308651      -0.38970603       0.85897630 </v>
   <v>       0.66909340      -1.56406148      -0.26751362 </v>
   <v>       0.79248687       0.25125397      -0.37471268 </v>
   <v>      -0.16953280      -1.35505704       0.32319310 </v>
   <v>       0.19618991       1.14270156      -0.64205341 </v>
   <v>      -1.29493534      -0.55585906       1.53013239 </v>
   <v>      -1.98392000      -0.15194715      -0.33673510 </v>
   <v>      -0.99443324       0.47521516       0.25786473 </v>
   <v>       2.12342108       1.40188641      -0.38443032 </v>
   <v>       2.30149869       1.14155363      -1.33438064 </v>
   <v>      -1.25765563      -1.97200176       0.73114331 </v>
   <v>      -0.45299786       0.89741940       0.44706612 </v>
   <v>      -1.84266715      -1.12328555      -0.34075723 </v>
  </varray>
  <varray name="stress" >
   <v>       1.31875647       0.37908650      -0.52923346 </v>
   <v>       0.37908649      58.84913723       0.72903730 </v>
   <v>      -0.52923345       0.72903730      -1.09550835 </v>
  </varray>
  <energy>
   <i name="e_fr_energy">   -828.73672604 </i>
   <i name="e_wo_entrp">   -828.64101369 </i>
   <i name="e_0_energy">   -828.68886987 </i>
  </energy>
  <time name="totalsc">  333.37  333.57</time>
  <eigenvalues>
   <array>
    <dimension dim="1">band</dimension>
    <dimension dim="2">kpoint</dimension>
    <dimension dim="3">spin</dimension>
    <field>eigene</field>
    <field>occ</field>
    <set>
     <set comment="spin 1">
      <set comment="kpoint 1">
       <r>  -23.2067    1.0000 </r>
       <r>  -23.0967    1.0000 </r>
       <r>  -23.0042    1.0000 </r>
       <r>  -22.6941    1.0000 </r>
       <r>  -22.6491    1.0000 </r>
       <r>  -22.3043    1.0000 </r>
       <r>  -22.0654    1.0000 </r>
       <r>  -22.0094    1.0000 </r>
       <r>  -21.5316    1.0000 </r>
       <r>  -21.4951    1.0000 </r>
       <r>  -21.4396    1.0000 </r>
       <r>  -21.3739    1.0000 </r>
       <r>  -21.3106    1.0000 </r>
       <r>  -21.2626    1.0000 </r>
       <r>  -21.1442    1.0000 </r>
       <r>  -21.1131    1.0000 </r>
       <r>  -21.0221    1.0000 </r>
       <r>  -20.9953    1.0000 </r>
       <r>  -20.8563    1.0000 </r>
       <r>  -20.5797    1.0000 </r>
       <r>  -20.4753    1.0000 </r>
       <r>  -20.3548    1.0000 </r>
       <r>  -20.1705    1.0000 </r>
       <r>  -20.1263    1.0000 </r>
       <r>  -20.0239    1.0000 </r>
       <r>  -19.7440    1.0000 </r>
       <r>  -19.5592    1.0000 </r>
       <r>  -19.4591    1.0000 </r>
       <r>  -19.2777    1.0000 </r>
       <r>  -18.9628    1.0000 </r>
       <r>  -18.6962    1.0000 </r>
       <r>  -18.6482    1.0000 </r>
       <r>  -18.6212    1.0000 </r>
       <r>  -18.4464    1.0000 </r>
       <r>  -18.2181    1.0000 </r>
       <r>  -17.6931    1.0000 </r>
       <r>  -17.3299    1.0000 </r>
       <r>  -17.2200    1.0000 </r>
       <r>  -16.9922    1.0000 </r>
       <r>  -16.8757    1.0000 </r>
       <r>  -16.8289    1.0000 </r>
       <r>  -16.7261    1.0000 </r>
       <r>  -16.6885    1.0000 </r>
       <r>  -16.6137    1.0000 </r>
       <r>  -16.5852    1.0000 </r>
       <r>  -16.5562    1.0000 </r>
       <r>  -16.5250    1.0000 </r>
       <r>  -16.5101    1.0000 </r>
       <r>  -16.4250    1.0000 </r>
       <r>  -16.3799    1.0000 </r>
       <r>  -16.2829    1.0000 </r>
       <r>  -16.1456    1.0000 </r>
       <r>  -16.1197    1.0000 </r>
       <r>  -16.0310    1.0000 </r>
       <r>  -15.8438    1.0000 </r>
       <r>  -15.6542    1.0000 </r>
       <r>  -15.4325    1.0000 </r>
       <r>  -15.3141    1.0000 </r>
       <r>  -15.2549    1.0000 </r>
       <r>  -15.2302    1.0000 </r>
       <r>  -15.1941    1.0000 </r>
       <r>  -15.0061    1.0000 </r>
       <r>  -14.3857    1.0000 </r>
       <r>  -14.1612    1.0000 </r>
       <r>  -14.1190    1.0000 </r>
       <r>  -14.0584    1.0000 </r>
       <r>  -13.9450    1.0000 </r>
       <r>  -13.7977    1.0000 </r>
       <r>  -13.7181    1.0000 </r>
       <r>  -13.6859    1.0000 </r>
       <r>  -13.4965    1.0000 </r>
       <r>  -13.4824    1.0000 </r>
       <r>  -13.2951    1.0000 </r>
       <r>  -13.1874    1.0000 </r>
       <r>  -13.0225    1.0000 </r>
       <r>  -12.9933    1.0000 </r>
       <r>  -12.7097    1.0000 </r>
       <r>  -12.4513    1.0000 </r>
       <r>  -12.2050    1.0000 </r>
       <r>  -12.0976    1.0000 </r>
       <r>  -12.0662    1.0000 </r>
       <r>  -12.0348    1.0000 </r>
       <r>  -11.9648    1.0000 </r>
       <r>  -11.8478    1.0000 </r>
       <r>  -11.7809    1.0000 </r>
       <r>  -11.5799    1.0000 </r>
       <r>  -11.3902    1.0000 </r>
       <r>  -11.1752    1.0000 </r>
       <r>  -11.1113    1.0000 </r>
       <r>  -11.0182    1.0000 </r>
       <r>  -10.9486    1.0000 </r>
       <r>  -10.9321    1.0000 </r>
       <r>  -10.7928    1.0000 </r>
       <r>  -10.7601    1.0000 </r>
       <r>  -10.7084    1.0000 </r>
       <r>  -10.6219    1.0000 </r>
       <r>  -10.5924    1.0000 </r>
       <r>  -10.5449    1.0000 </r>
       <r>  -10.5258    1.0000 </r>
       <r>  -10.4503    1.0000 </r>
       <r>  -10.3605    1.0000 </r>
       <r>  -10.2545    1.0000 </r>
       <r>  -10.2167    1.0000 </r>
       <r>  -10.1820    1.0000 </r>
       <r>  -10.0469    1.0000 </r>
       <r>  -10.0134    1.0000 </r>
       <r>   -9.8625    1.0000 </r>
       <r>   -9.8058    1.0000 </r>
       <r>   -9.7053    1.0000 </r>
       <r>   -9.6558    1.0000 </r>
       <r>   -9.6192    1.0000 </r>
       <r>   -9.5920    1.0000 </r>
       <r>   -9.5498    1.0000 </r>
       <r>   -9.5449    1.0000 </r>
       <r>   -9.5346    1.0000 </r>
       <r>   -9.4983    1.0000 </r>
       <r>   -9.4789    1.0000 </r>
       <r>   -9.4562    1.0000 </r>
       <r>   -9.4170    1.0000 </r>
       <r>   -9.4029    1.0000 </r>
       <r>   -9.3861    1.0000 </r>
       <r>   -9.3439    1.0000 </r>
       <r>   -9.2990    1.0000 </r>
       <r>   -9.2712    1.0000 </r>
       <r>   -9.2640    1.0000 </r>
       <r>   -9.2218    1.0000 </r>
       <r>   -9.2010    1.0000 </r>
       <r>   -9.1652    1.0000 </r>
       <r>   -9.1375    1.0000 </r>
       <r>   -9.1052    1.0000 </r>
       <r>   -9.0767    1.0000 </r>
       <r>   -9.0186    1.0000 </r>
       <r>   -8.9892    1.0000 </r>
       <r>   -8.9413    1.0000 </r>
       <r>   -8.9169    1.0000 </r>
       <r>   -8.8830    1.0000 </r>
       <r>   -8.8599    1.0000 </r>
       <r>   -8.8190    1.0000 </r>
       <r>   -8.7698    1.0000 </r>
       <r>   -8.6919    1.0000 </r>
       <r>   -8.6601    1.0000 </r>
       <r>   -8.6194    1.0000 </r>
       <r>   -8.5872    1.0000 </r>
       <r>   -8.5275    1.0000 </r>
       <r>   -8.4523    1.0000 </r>
       <r>   -8.2916    1.0000 </r>
       <r>   -8.0688    1.0000 </r>
       <r>   -8.0163    1.0000 </r>
       <r>   -7.8931    1.0000 </r>
       <r>   -7.7789    1.0000 </r>
       <r>   -7.7675    1.0000 </r>
       <r>   -7.6083    1.0000 </r>
       <r>   -7.5610    1.0000 </r>
       <r>   -7.4904    1.0000 </r>
       <r>   -7.4000    1.0000 </r>
       <r>   -7.3599    1.0000 </r>
       <r>   -7.2422    1.0000 </r>
       <r>   -7.1448    1.0000 </r>
       <r>   -7.0331    1.0000 </r>
       <r>   -6.9311    1.0000 </r>
       <r>   -6.8338    1.0000 </r>
       <r>   -6.7409    1.0000 </r>
       <r>   -6.5706    1.0000 </r>
       <r>   -6.4526    1.0000 </r>
       <r>   -6.4202    1.0000 </r>
       <r>   -6.2567    1.0000 </r>
       <r>   -6.1536    1.0000 </r>
       <r>   -6.0822    1.0000 </r>
       <r>   -6.0329    1.0000 </r>
       <r>   -5.9679    1.0000 </r>
       <r>   -5.8825    1.0000 </r>
       <r>   -5.8383    1.0000 </r>
       <r>   -5.6819    1.0000 </r>
       <r>   -5.0732    1.0000 </r>
       <r>   -4.9482    1.0000 </r>
       <r>   -4.8901    1.0000 </r>
       <r>   -4.5654    1.0000 </r>
       <r>   -4.5334    1.0000 </r>
       <r>   -4.5041    1.0000 </r>
       <r>   -4.3953    1.0000 </r>
       <r>   -4.3248    1.0000 </r>
       <r>   -3.7524    1.0000 </r>
       <r>   -3.6629    0.9999 </r>
       <r>   -3.1749    0.6160 </r>
       <r>   -3.0061    0.1845 </r>
       <r>   -2.6687    0.0005 </r>
       <r>   -2.6582    0.0004 </r>
       <r>   -2.5749    0.0000 </r>
       <r>   -2.2093    0.0000 </r>
       <r>   -2.0191    0.0000 </r>
       <r>   -1.6964    0.0000 </r>
       <r>   -1.5446    0.0000 </r>
       <r>   -1.4839    0.0000 </r>
       <r>   -1.4485    0.0000 </r>
       <r>   -1.4275    0.0000 </r>
       <r>   -1.3358    0.0000 </r>
       <r>   -1.2185    0.0000 </r>
       <r>   -0.8172    0.0000 </r>
       <r>   -0.7537    0.0000 </r>
       <r>   -0.7004    0.0000 </r>
       <r>   -0.4291    0.0000 </r>
       <r>   -0.3957    0.0000 </r>
       <r>   -0.0510    0.0000 </r>
       <r>    0.0822    0.0000 </r>
       <r>    0.1226    0.0000 </r>
       <r>    0.2048    0.0000 </r>
       <r>    0.3576    0.0000 </r>
       <r>    0.6298    0.0000 </r>
       <r>    0.6614    0.0000 </r>
       <r>    0.7108    0.0000 </r>
       <r>    0.7525    0.0000 </r>
       <r>    0.8886    0.0000 </r>
       <r>    0.9250    0.0000 </r>
       <r>    0.9408    0.0000 </r>
       <r>    0.9808    0.0000 </r>
       <r>    1.0465    0.0000 </r>
       <r>    1.0811    0.0000 </r>
       <r>    1.1485    0.0000 </r>
       <r>    1.1582    0.0000 </r>
       <r>    1.2178    0.0000 </r>
       <r>    1.3094    0.0000 </r>
       <r>    1.3225    0.0000 </r>
       <r>    1.3286    0.0000 </r>
       <r>    1.4048    0.0000 </r>
       <r>    1.4574    0.0000 </r>
       <r>    1.5483    0.0000 </r>
       <r>    1.5732    0.0000 </r>
       <r>    1.7079    0.0000 </r>
       <r>    1.7281    0.0000 </r>
       <r>    1.7292    0.0000 </r>
       <r>    1.7386    0.0000 </r>
       <r>    1.9167    0.0000 </r>
      </set>
      <set comment="kpoint 2">
       <r>  -23.1172    1.0000 </r>
       <r>  -22.9995    1.0000 </r>
       <r>  -22.9037    1.0000 </r>
       <r>  -22.6146    1.0000 </r>
       <r>  -22.5510    1.0000 </r>
       <r>  -22.4787    1.0000 </r>
       <r>  -22.2033    1.0000 </r>
       <r>  -22.0912    1.0000 </r>
       <r>  -21.9832    1.0000 </r>
       <r>  -21.9112    1.0000 </r>
       <r>  -21.8510    1.0000 </r>
       <r>  -21.7331    1.0000 </r>
       <r>  -21.3181    1.0000 </r>
       <r>  -21.1786    1.0000 </r>
       <r>  -21.1052    1.0000 </r>
       <r>  -20.9904    1.0000 </r>
       <r>  -20.6461    1.0000 </r>
       <r>  -20.6020    1.0000 </r>
       <r>  -20.4721    1.0000 </r>
       <r>  -20.3297    1.0000 </r>
       <r>  -20.2038    1.0000 </r>
       <r>  -20.1397    1.0000 </r>
       <r>  -20.0453    1.0000 </r>
       <r>  -19.9554    1.0000 </r>
       <r>  -19.9317    1.0000 </r>
       <r>  -19.5580    1.0000 </r>
       <r>  -19.5014    1.0000 </r>
       <r>  -19.1780    1.0000 </r>
       <r>  -19.0818    1.0000 </r>
       <r>  -18.9501    1.0000 </r>
       <r>  -18.6859    1.0000 </r>
       <r>  -18.5956    1.0000 </r>
       <r>  -18.5720    1.0000 </r>
       <r>  -18.2823    1.0000 </r>
       <r>  -18.1668    1.0000 </r>
       <r>  -18.0911    1.0000 </r>
       <r>  -18.0507    1.0000 </r>
       <r>  -17.9977    1.0000 </r>
       <r>  -17.8259    1.0000 </r>
       <r>  -17.8048    1.0000 </r>
       <r>  -17.4806    1.0000 </r>
       <r>  -17.3778    1.0000 </r>
       <r>  -17.3099    1.0000 </r>
       <r>  -17.1660    1.0000 </r>
       <r>  -17.0420    1.0000 </r>
       <r>  -16.6412    1.0000 </r>
       <r>  -16.3324    1.0000 </r>
       <r>  -16.2130    1.0000 </r>
       <r>  -16.0913    1.0000 </r>
       <r>  -15.8982    1.0000 </r>
       <r>  -15.8473    1.0000 </r>
       <r>  -15.6847    1.0000 </r>
       <r>  -15.6232    1.0000 </r>
       <r>  -15.3565    1.0000 </r>
       <r>  -15.2792    1.0000 </r>
       <r>  -15.1783    1.0000 </r>
       <r>  -15.1529    1.0000 </r>
       <r>  -15.0829    1.0000 </r>
       <r>  -14.9909    1.0000 </r>
       <r>  -14.9518    1.0000 </r>
       <r>  -14.9026    1.0000 </r>
       <r>  -14.8057    1.0000 </r>
       <r>  -14.5287    1.0000 </r>
       <r>  -14.3947    1.0000 </r>
       <r>  -14.3331    1.0000 </r>
       <r>  -14.2205    1.0000 </r>
       <r>  -13.9693    1.0000 </r>
       <r>  -13.8981    1.0000 </r>
       <r>  -13.3320    1.0000 </r>
       <r>  -13.2628    1.0000 </r>
       <r>  -13.2160    1.0000 </r>
       <r>  -13.1708    1.0000 </r>
       <r>  -12.9443    1.0000 </r>
       <r>  -12.8494    1.0000 </r>
       <r>  -12.8088    1.0000 </r>
       <r>  -12.7671    1.0000 </r>
       <r>  -12.7195    1.0000 </r>
       <r>  -12.5257    1.0000 </r>
       <r>  -12.3969    1.0000 </r>
       <r>  -12.3453    1.0000 </r>
       <r>  -12.1975    1.0000 </r>
       <r>  -12.0981    1.0000 </r>
       <r>  -11.9432    1.0000 </r>
       <r>  -11.8889    1.0000 </r>
       <r>  -11.6875    1.0000 </r>
       <r>  -11.6225    1.0000 </r>
       <r>  -11.5044    1.0000 </r>
       <r>  -11.3786    1.0000 </r>
       <r>  -11.2685    1.0000 </r>
       <r>  -11.2318    1.0000 </r>
       <r>  -11.0976    1.0000 </r>
       <r>  -11.0445    1.0000 </r>
       <r>  -11.0203    1.0000 </r>
       <r>  -10.9533    1.0000 </r>
       <r>  -10.9188    1.0000 </r>
       <r>  -10.8884    1.0000 </r>
       <r>  -10.8593    1.0000 </r>
       <r>  -10.8084    1.0000 </r>
       <r>  -10.7153    1.0000 </r>
       <r>  -10.6463    1.0000 </r>
       <r>  -10.5652    1.0000 </r>
       <r>  -10.5043    1.0000 </r>
       <r>  -10.4710    1.0000 </r>
       <r>  -10.4266    1.0000 </r>
       <r>  -10.4004    1.0000 </r>
       <r>  -10.3373    1.0000 </r>
       <r>  -10.2563    1.0000 </r>
       <r>  -10.1056    1.0000 </r>
       <r>  -10.0670    1.0000 </r>
       <r>  -10.0236    1.0000 </r>
       <r>   -9.9906    1.0000 </r>
       <r>   -9.9456    1.0000 </r>
       <r>   -9.8454    1.0000 </r>
       <r>   -9.8282    1.0000 </r>
       <r>   -9.7930    1.0000 </r>
       <r>   -9.7443    1.0000 </r>
       <r>   -9.6537    1.0000 </r>
       <r>   -9.6133    1.0000 </r>
       <r>   -9.5784    1.0000 </r>
       <r>   -9.5467    1.0000 </r>
       <r>   -9.5153    1.0000 </r>
       <r>   -9.4655    1.0000 </r>
       <r>   -9.3942    1.0000 </r>
       <r>   -9.3398    1.0000 </r>
       <r>   -9.3067    1.0000 </r>
       <r>   -9.1585    1.0000 </r>
       <r>   -8.9730    1.0000 </r>
       <r>   -8.8950    1.0000 </r>
       <r>   -8.8131    1.0000 </r>
       <r>   -8.7927    1.0000 </r>
       <r>   -8.7478    1.0000 </r>
       <r>   -8.6998    1.0000 </r>
       <r>   -8.6737    1.0000 </r>
       <r>   -8.5930    1.0000 </r>
       <r>   -8.5782    1.0000 </r>
       <r>   -8.4979    1.0000 </r>
       <r>   -8.4677    1.0000 </r>
       <r>   -8.4214    1.0000 </r>
       <r>   -8.3563    1.0000 </r>
       <r>   -8.2832    1.0000 </r>
       <r>   -8.2326    1.0000 </r>
       <r>   -8.1696    1.0000 </r>
       <r>   -8.1062    1.0000 </r>
       <r>   -8.0631    1.0000 </r>
       <r>   -8.0428    1.0000 </r>
       <r>   -7.9761    1.0000 </r>
       <r>   -7.8942    1.0000 </r>
       <r>   -7.8711    1.0000 </r>
       <r>   -7.7762    1.0000 </r>
       <r>   -7.6658    1.0000 </r>
       <r>   -7.5879    1.0000 </r>
       <r>   -7.5108    1.0000 </r>
       <r>   -7.4622    1.0000 </r>
       <r>   -7.4031    1.0000 </r>
       <r>   -7.3634    1.0000 </r>
       <r>   -7.2737    1.0000 </r>
       <r>   -7.1607    1.0000 </r>
       <r>   -7.0237    1.0000 </r>
       <r>   -6.9498    1.0000 </r>
       <r>   -6.8736    1.0000 </r>
       <r>   -6.8167    1.0000 </r>
       <r>   -6.6585    1.0000 </r>
       <r>   -6.5895    1.0000 </r>
       <r>   -6.5149    1.0000 </r>
       <r>   -6.4480    1.0000 </r>
       <r>   -6.2751    1.0000 </r>
       <r>   -6.1466    1.0000 </r>
       <r>   -6.1036    1.0000 </r>
       <r>   -5.9993    1.0000 </r>
       <r>   -5.9268    1.0000 </r>
       <r>   -5.8591    1.0000 </r>
       <r>   -5.8135    1.0000 </r>
       <r>   -5.7118    1.0000 </r>
       <r>   -5.6496    1.0000 </r>
       <r>   -5.5440    1.0000 </r>
       <r>   -5.4888    1.0000 </r>
       <r>   -5.1957    1.0000 </r>
       <r>   -5.1283    1.0000 </r>
       <r>   -4.7356    1.0000 </r>
       <r>   -4.6461    1.0000 </r>
       <r>   -4.5363    1.0000 </r>
       <r>   -4.4080    1.0000 </r>
       <r>   -4.3355    1.0000 </r>
       <r>   -3.3649    0.9494 </r>
       <r>   -2.9806    0.1404 </r>
       <r>   -2.5892    0.0001 </r>
       <r>   -2.1005    0.0000 </r>
       <r>   -2.0019    0.0000 </r>
       <r>   -1.5749    0.0000 </r>
       <r>   -1.4887    0.0000 </r>
       <r>   -1.4074    0.0000 </r>
       <r>   -1.3302    0.0000 </r>
       <r>   -1.2694    0.0000 </r>
       <r>   -1.2032    0.0000 </r>
       <r>   -1.0572    0.0000 </r>
       <r>   -1.0272    0.0000 </r>
       <r>   -0.9209    0.0000 </r>
       <r>   -0.7731    0.0000 </r>
       <r>   -0.7052    0.0000 </r>
       <r>   -0.3008    0.0000 </r>
       <r>   -0.1167    0.0000 </r>
       <r>   -0.0492    0.0000 </r>
       <r>    0.0253    0.0000 </r>
       <r>    0.0691    0.0000 </r>
       <r>    0.1404    0.0000 </r>
       <r>    0.2317    0.0000 </r>
       <r>    0.2714    0.0000 </r>
       <r>    0.3255    0.0000 </r>
       <r>    0.3496    0.0000 </r>
       <r>    0.7890    0.0000 </r>
       <r>    0.8065    0.0000 </r>
       <r>    0.8522    0.0000 </r>
       <r>    1.0514    0.0000 </r>
       <r>    1.0666    0.0000 </r>
       <r>    1.1219    0.0000 </r>
       <r>    1.1275    0.0000 </r>
       <r>    1.2059    0.0000 </r>
       <r>    1.2864    0.0000 </r>
       <r>    1.2920    0.0000 </r>
       <r>    1.3038    0.0000 </r>
       <r>    1.3598    0.0000 </r>
       <r>    1.3754    0.0000 </r>
       <r>    1.3940    0.0000 </r>
       <r>    1.4442    0.0000 </r>
       <r>    1.4638    0.0000 </r>
       <r>    1.4715    0.0000 </r>
       <r>    1.5473    0.0000 </r>
       <r>    1.5956    0.0000 </r>
       <r>    1.6722    0.0000 </r>
       <r>    1.6874    0.0000 </r>
       <r>    1.7190    0.0000 </r>
       <r>    1.7511    0.0000 </r>
      </set>
      <set comment="kpoint 3">
       <r>  -22.9053    1.0000 </r>
       <r>  -22.8199    1.0000 </r>
       <r>  -22.7212    1.0000 </r>
       <r>  -22.6875    1.0000 </r>
       <r>  -22.6324    1.0000 </r>
       <r>  -22.5517    1.0000 </r>
       <r>  -22.3352    1.0000 </r>
       <r>  -22.2810    1.0000 </r>
       <r>  -22.2654    1.0000 </r>
       <r>  -22.2090    1.0000 </r>
       <r>  -21.7547    1.0000 </r>
       <r>  -21.6831    1.0000 </r>
       <r>  -21.6388    1.0000 </r>
       <r>  -21.5785    1.0000 </r>
       <r>  -20.9367    1.0000 </r>
       <r>  -20.9196    1.0000 </r>
       <r>  -20.7404    1.0000 </r>
       <r>  -20.6482    1.0000 </r>
       <r>  -19.9139    1.0000 </r>
       <r>  -19.9015    1.0000 </r>
       <r>  -19.7162    1.0000 </r>
       <r>  -19.6404    1.0000 </r>
       <r>  -19.5678    1.0000 </r>
       <r>  -19.5141    1.0000 </r>
       <r>  -19.4356    1.0000 </r>
       <r>  -19.3453    1.0000 </r>
       <r>  -19.3152    1.0000 </r>
       <r>  -19.2738    1.0000 </r>
       <r>  -19.1090    1.0000 </r>
       <r>  -19.0619    1.0000 </r>
       <r>  -18.9922    1.0000 </r>
       <r>  -18.8880    1.0000 </r>
       <r>  -18.7033    1.0000 </r>
       <r>  -18.6219    1.0000 </r>
       <r>  -18.5287    1.0000 </r>
       <r>  -18.4473    1.0000 </r>
       <r>  -18.3536    1.0000 </r>
       <r>  -18.2761    1.0000 </r>
       <r>  -18.2215    1.0000 </r>
       <r>  -18.0393    1.0000 </r>
       <r>  -17.7530    1.0000 </r>
       <r>  -17.7460    1.0000 </r>
       <r>  -17.6687    1.0000 </r>
       <r>  -17.5850    1.0000 </r>
       <r>  -16.9221    1.0000 </r>
       <r>  -16.8187    1.0000 </r>
       <r>  -16.3311    1.0000 </r>
       <r>  -16.2412    1.0000 </r>
       <r>  -16.0792    1.0000 </r>
       <r>  -16.0432    1.0000 </r>
       <r>  -16.0263    1.0000 </r>
       <r>  -15.9038    1.0000 </r>
       <r>  -15.3249    1.0000 </r>
       <r>  -15.2720    1.0000 </r>
       <r>  -15.1250    1.0000 </r>
       <r>  -15.0296    1.0000 </r>
       <r>  -14.9104    1.0000 </r>
       <r>  -14.8744    1.0000 </r>
       <r>  -14.8171    1.0000 </r>
       <r>  -14.6796    1.0000 </r>
       <r>  -14.0125    1.0000 </r>
       <r>  -13.9653    1.0000 </r>
       <r>  -13.7427    1.0000 </r>
       <r>  -13.7031    1.0000 </r>
       <r>  -13.6783    1.0000 </r>
       <r>  -13.6302    1.0000 </r>
       <r>  -13.6045    1.0000 </r>
       <r>  -13.5835    1.0000 </r>
       <r>  -13.5718    1.0000 </r>
       <r>  -13.5369    1.0000 </r>
       <r>  -13.5073    1.0000 </r>
       <r>  -13.4943    1.0000 </r>
       <r>  -13.3867    1.0000 </r>
       <r>  -13.3600    1.0000 </r>
       <r>  -13.1868    1.0000 </r>
       <r>  -12.9938    1.0000 </r>
       <r>  -12.3799    1.0000 </r>
       <r>  -12.2605    1.0000 </r>
       <r>  -12.1864    1.0000 </r>
       <r>  -12.1220    1.0000 </r>
       <r>  -12.0873    1.0000 </r>
       <r>  -12.0488    1.0000 </r>
       <r>  -12.0050    1.0000 </r>
       <r>  -11.9788    1.0000 </r>
       <r>  -11.9329    1.0000 </r>
       <r>  -11.8275    1.0000 </r>
       <r>  -11.7692    1.0000 </r>
       <r>  -11.7152    1.0000 </r>
       <r>  -11.6771    1.0000 </r>
       <r>  -11.5894    1.0000 </r>
       <r>  -11.3637    1.0000 </r>
       <r>  -11.2473    1.0000 </r>
       <r>  -11.2210    1.0000 </r>
       <r>  -11.1304    1.0000 </r>
       <r>  -11.0390    1.0000 </r>
       <r>  -11.0078    1.0000 </r>
       <r>  -10.7852    1.0000 </r>
       <r>  -10.7578    1.0000 </r>
       <r>  -10.6806    1.0000 </r>
       <r>  -10.6752    1.0000 </r>
       <r>  -10.6022    1.0000 </r>
       <r>  -10.5668    1.0000 </r>
       <r>  -10.5476    1.0000 </r>
       <r>  -10.5058    1.0000 </r>
       <r>  -10.4820    1.0000 </r>
       <r>  -10.4795    1.0000 </r>
       <r>  -10.4347    1.0000 </r>
       <r>  -10.3700    1.0000 </r>
       <r>  -10.2914    1.0000 </r>
       <r>  -10.2642    1.0000 </r>
       <r>  -10.1838    1.0000 </r>
       <r>  -10.1564    1.0000 </r>
       <r>  -10.1301    1.0000 </r>
       <r>  -10.0755    1.0000 </r>
       <r>  -10.0675    1.0000 </r>
[...]
       <r>   -22.6826    14.9036     7.1816 </r>
       <r>   -22.5856    16.2187     8.7561 </r>
       <r>   -22.4885    15.5193    10.2627 </r>
       <r>   -22.3914    13.7220    11.5948 </r>
       <r>   -22.2943    13.1233    12.8687 </r>
       <r>   -22.1973    13.8489    14.2132 </r>
       <r>   -22.1002    14.5861    15.6291 </r>
       <r>   -22.0031    14.8539    17.0711 </r>
       <r>   -21.9060    14.6726    18.4955 </r>
       <r>   -21.8089    14.0448    19.8590 </r>
       <r>   -21.7119    13.1457    21.1351 </r>
       <r>   -21.6148    12.1700    22.3166 </r>
       <r>   -21.5177    11.4811    23.4311 </r>
       <r>   -21.4206    11.6391    24.5610 </r>
       <r>   -21.3236    12.7951    25.8031 </r>
       <r>   -21.2265    14.4816    27.2090 </r>
       <r>   -21.1294    15.9788    28.7602 </r>
       <r>   -21.0323    16.3784    30.3501 </r>
       <r>   -20.9352    14.9786    31.8042 </r>
       <r>   -20.8382    12.5674    33.0242 </r>
       <r>   -20.7411    11.3490    34.1260 </r>
       <r>   -20.6440    12.1937    35.3097 </r>
       <r>   -20.5469    13.3151    36.6023 </r>
       <r>   -20.4499    13.1869    37.8825 </r>
       <r>   -20.3528    12.6390    39.1095 </r>
       <r>   -20.2557    13.1583    40.3868 </r>
       <r>   -20.1586    14.9001    41.8333 </r>
       <r>   -20.0615    16.6152    43.4463 </r>
       <r>   -19.9645    16.7890    45.0761 </r>
       <r>   -19.8674    14.8936    46.5219 </r>
       <r>   -19.7703    12.4806    47.7335 </r>
       <r>   -19.6732    12.1773    48.9157 </r>
       <r>   -19.5761    14.2491    50.2990 </r>
       <r>   -19.4791    15.9803    51.8503 </r>
       <r>   -19.3820    15.5352    53.3584 </r>
       <r>   -19.2849    14.1972    54.7367 </r>
       <r>   -19.1878    13.7865    56.0750 </r>
       <r>   -19.0908    14.2394    57.4573 </r>
       <r>   -18.9937    14.2037    58.8362 </r>
       <r>   -18.8966    13.1185    60.1097 </r>
       <r>   -18.7995    12.7120    61.3438 </r>
       <r>   -18.7024    14.8189    62.7824 </r>
       <r>   -18.6054    17.5982    64.4908 </r>
       <r>   -18.5083    17.6873    66.2078 </r>
       <r>   -18.4112    15.6058    67.7228 </r>
       <r>   -18.3141    14.5773    69.1379 </r>
       <r>   -18.2171    15.5310    70.6456 </r>
       <r>   -18.1200    16.6620    72.2631 </r>
       <r>   -18.0229    16.3406    73.8495 </r>
       <r>   -17.9258    14.8935    75.2953 </r>
       <r>   -17.8287    13.8269    76.6376 </r>
       <r>   -17.7317    13.2167    77.9206 </r>
       <r>   -17.6346    11.9714    79.0828 </r>
       <r>   -17.5375    10.6292    80.1147 </r>
       <r>   -17.4404    10.5794    81.1417 </r>
       <r>   -17.3434    11.4790    82.2560 </r>
       <r>   -17.2463    11.8312    83.4046 </r>
       <r>   -17.1492    11.2330    84.4951 </r>
       <r>   -17.0521    10.5400    85.5183 </r>
       <r>   -16.9550    10.3927    86.5272 </r>
       <r>   -16.8580    10.8065    87.5762 </r>
       <r>   -16.7609    11.7913    88.7209 </r>
       <r>   -16.6638    13.2488    90.0071 </r>
       <r>   -16.5667    14.4090    91.4059 </r>
       <r>   -16.4697    14.7672    92.8394 </r>
       <r>   -16.3726    15.1312    94.3083 </r>
       <r>   -16.2755    16.2120    95.8822 </r>
       <r>   -16.1784    17.5096    97.5820 </r>
       <r>   -16.0813    18.1448    99.3434 </r>
       <r>   -15.9843    17.6027   101.0523 </r>
       <r>   -15.8872    16.0775   102.6130 </r>
       <r>   -15.7901    14.1658   103.9882 </r>
       <r>   -15.6930    12.2964   105.1819 </r>
       <r>   -15.5960    10.6810   106.2188 </r>
       <r>   -15.4989    10.1783   107.2069 </r>
       <r>   -15.4018    12.5244   108.4227 </r>
       <r>   -15.3047    17.5655   110.1279 </r>
       <r>   -15.2076    22.2225   112.2853 </r>
       <r>   -15.1106    24.1382   114.6285 </r>
       <r>   -15.0135    23.7465   116.9338 </r>
       <r>   -14.9164    21.8248   119.0525 </r>
       <r>   -14.8193    18.0341   120.8032 </r>
       <r>   -14.7223    12.9994   122.0652 </r>
       <r>   -14.6252     9.1109   122.9496 </r>
       <r>   -14.5281     8.1178   123.7377 </r>
       <r>   -14.4310     9.4167   124.6518 </r>
       <r>   -14.3339    11.0444   125.7240 </r>
       <r>   -14.2369    11.8203   126.8715 </r>
       <r>   -14.1398    12.3080   128.0663 </r>
       <r>   -14.0427    13.3971   129.3669 </r>
       <r>   -13.9456    14.6393   130.7880 </r>
       <r>   -13.8486    15.2704   132.2705 </r>
       <r>   -13.7515    16.0279   133.8264 </r>
       <r>   -13.6544    17.6558   135.5404 </r>
       <r>   -13.5573    19.1059   137.3952 </r>
       <r>   -13.4602    19.4213   139.2805 </r>
       <r>   -13.3632    19.3671   141.1607 </r>
       <r>   -13.2661    19.5084   143.0545 </r>
       <r>   -13.1690    18.7202   144.8718 </r>
       <r>   -13.0719    16.7090   146.4939 </r>
       <r>   -12.9749    15.3507   147.9841 </r>
       <r>   -12.8778    15.6076   149.4992 </r>
       <r>   -12.7807    15.8886   151.0417 </r>
       <r>   -12.6836    14.4579   152.4452 </r>
       <r>   -12.5865    12.2254   153.6320 </r>
       <r>   -12.4895    11.6945   154.7673 </r>
       <r>   -12.3924    13.4166   156.0698 </r>
       <r>   -12.2953    16.1537   157.6379 </r>
       <r>   -12.1982    19.4394   159.5251 </r>
       <r>   -12.1012    22.9332   161.7514 </r>
       <r>   -12.0041    24.9953   164.1779 </r>
       <r>   -11.9070    24.4212   166.5486 </r>
       <r>   -11.8099    22.1733   168.7012 </r>
       <r>   -11.7128    20.0100   170.6437 </r>
       <r>   -11.6158    18.3070   172.4209 </r>
       <r>   -11.5187    16.6901   174.0411 </r>
       <r>   -11.4216    15.9738   175.5918 </r>
       <r>   -11.3245    17.3134   177.2726 </r>
       <r>   -11.2275    20.5059   179.2632 </r>
       <r>   -11.1304    24.6713   181.6583 </r>
       <r>   -11.0333    28.9472   184.4684 </r>
       <r>   -10.9362    32.0015   187.5751 </r>
       <r>   -10.8391    33.1386   190.7921 </r>
       <r>   -10.7421    33.7079   194.0644 </r>
       <r>   -10.6450    35.5504   197.5155 </r>
       <r>   -10.5479    38.3209   201.2357 </r>
       <r>   -10.4508    39.3450   205.0552 </r>
       <r>   -10.3537    37.0629   208.6532 </r>
       <r>   -10.2567    33.7454   211.9291 </r>
       <r>   -10.1596    32.7284   215.1063 </r>
       <r>   -10.0625    33.8926   218.3965 </r>
       <r>    -9.9654    34.2171   221.7182 </r>
       <r>    -9.8684    32.8333   224.9056 </r>
       <r>    -9.7713    32.2980   228.0411 </r>
       <r>    -9.6742    34.5372   231.3939 </r>
       <r>    -9.5771    38.6771   235.1485 </r>
       <r>    -9.4800    42.1540   239.2408 </r>
       <r>    -9.3830    42.7501   243.3909 </r>
       <r>    -9.2859    39.7797   247.2526 </r>
       <r>    -9.1888    34.5684   250.6084 </r>
       <r>    -9.0917    30.2765   253.5476 </r>
       <r>    -8.9947    29.4878   256.4102 </r>
       <r>    -8.8976    31.9797   259.5147 </r>
       <r>    -8.8005    35.2438   262.9361 </r>
       <r>    -8.7034    36.7655   266.5052 </r>
       <r>    -8.6063    35.8730   269.9877 </r>
       <r>    -8.5093    33.7342   273.2626 </r>
       <r>    -8.4122    31.8597   276.3554 </r>
       <r>    -8.3151    30.7396   279.3396 </r>
       <r>    -8.2180    29.9796   282.2499 </r>
       <r>    -8.1210    29.1491   285.0797 </r>
       <r>    -8.0239    27.9307   287.7911 </r>
       <r>    -7.9268    26.3114   290.3454 </r>
       <r>    -7.8297    25.0317   292.7754 </r>
       <r>    -7.7326    25.0942   295.2115 </r>
       <r>    -7.6356    26.8088   297.8140 </r>
       <r>    -7.5385    29.1445   300.6433 </r>
       <r>    -7.4414    30.4197   303.5964 </r>
       <r>    -7.3443    29.9951   306.5083 </r>
       <r>    -7.2473    28.5794   309.2827 </r>
       <r>    -7.1502    27.0979   311.9133 </r>
       <r>    -7.0531    25.9727   314.4347 </r>
       <r>    -6.9560    25.2056   316.8816 </r>
       <r>    -6.8589    24.5546   319.2653 </r>
       <r>    -6.7619    23.9956   321.5947 </r>
       <r>    -6.6648    23.7172   323.8971 </r>
       <r>    -6.5677    23.3719   326.1660 </r>
       <r>    -6.4706    22.4428   328.3447 </r>
       <r>    -6.3736    21.1366   330.3966 </r>
       <r>    -6.2765    20.2854   332.3659 </r>
       <r>    -6.1794    20.7061   334.3760 </r>
       <r>    -6.0823    22.4751   336.5578 </r>
       <r>    -5.9852    24.8057   338.9659 </r>
       <r>    -5.8882    26.4441   341.5331 </r>
       <r>    -5.7911    26.1599   344.0726 </r>
       <r>    -5.6940    23.8148   346.3845 </r>
       <r>    -5.5969    20.2647   348.3518 </r>
       <r>    -5.4999    16.1253   349.9172 </r>
       <r>    -5.4028    12.3318   351.1143 </r>
       <r>    -5.3057    10.7056   352.1536 </r>
       <r>    -5.2086    11.6071   353.2804 </r>
       <r>    -5.1115    12.4622   354.4902 </r>
       <r>    -5.0145    11.1002   355.5678 </r>
       <r>    -4.9174     8.6722   356.4096 </r>
       <r>    -4.8203     7.5705   357.1446 </r>
       <r>    -4.7232     8.6982   357.9890 </r>
       <r>    -4.6262    11.2850   359.0845 </r>
       <r>    -4.5291    13.7319   360.4176 </r>
       <r>    -4.4320    14.4973   361.8249 </r>
       <r>    -4.3349    12.7905   363.0666 </r>
       <r>    -4.2378     9.1388   363.9538 </r>
       <r>    -4.1408     5.4049   364.4785 </r>
       <r>    -4.0437     3.1499   364.7843 </r>
       <r>    -3.9466     2.4865   365.0256 </r>
       <r>    -3.8495     2.9610   365.3131 </r>
       <r>    -3.7525     3.8235   365.6843 </r>
       <r>    -3.6554     4.0099   366.0735 </r>
       <r>    -3.5583     3.4202   366.4056 </r>
       <r>    -3.4612     3.0974   366.7062 </r>
       <r>    -3.3641     3.4681   367.0429 </r>
       <r>    -3.2671     3.8952   367.4211 </r>
       <r>    -3.1700     4.2111   367.8299 </r>
       <r>    -3.0729     4.9087   368.3064 </r>
       <r>    -2.9758     5.7656   368.8661 </r>
       <r>    -2.8788     6.0901   369.4573 </r>
       <r>    -2.7817     6.3540   370.0742 </r>
       <r>    -2.6846     7.5009   370.8023 </r>
       <r>    -2.5875     8.5471   371.6321 </r>
       <r>    -2.4904     7.5428   372.3643 </r>
       <r>    -2.3934     5.0124   372.8509 </r>
       <r>    -2.2963     3.5673   373.1972 </r>
       <r>    -2.1992     4.4702   373.6312 </r>
       <r>    -2.1021     6.5080   374.2629 </r>
       <r>    -2.0051     7.4786   374.9889 </r>
       <r>    -1.9080     6.5760   375.6273 </r>
       <r>    -1.8109     5.7469   376.1852 </r>
       <r>    -1.7138     7.7307   376.9357 </r>
       <r>    -1.6167    12.8573   378.1839 </r>
       <r>    -1.5197    18.5606   379.9857 </r>
       <r>    -1.4226    21.8114   382.1031 </r>
       <r>    -1.3255    21.8861   384.2278 </r>
       <r>    -1.2284    20.3670   386.2049 </r>
       <r>    -1.1313    18.8105   388.0310 </r>
       <r>    -1.0343    17.5726   389.7369 </r>
       <r>    -0.9372    16.4092   391.3299 </r>
       <r>    -0.8401    15.4038   392.8253 </r>
       <r>    -0.7430    14.6385   394.2463 </r>
       <r>    -0.6460    13.5158   395.5584 </r>
       <r>    -0.5489    12.0222   396.7255 </r>
       <r>    -0.4518    11.0411   397.7974 </r>
       <r>    -0.3547    10.7687   398.8428 </r>
       <r>    -0.2576    11.2213   399.9321 </r>
       <r>    -0.1606    13.3920   401.2322 </r>
       <r>    -0.0635    17.5236   402.9333 </r>
       <r>     0.0336    21.5553   405.0259 </r>
       <r>     0.1307    23.3271   407.2904 </r>
       <r>     0.2277    22.9849   409.5217 </r>
       <r>     0.3248    21.5915   411.6178 </r>
       <r>     0.4219    19.6040   413.5209 </r>
       <r>     0.5190    18.2586   415.2934 </r>
       <r>     0.6161    19.4106   417.1778 </r>
       <r>     0.7131    22.9988   419.4105 </r>
       <r>     0.8102    26.9066   422.0225 </r>
       <r>     0.9073    29.8047   424.9159 </r>
       <r>     1.0044    32.9010   428.1098 </r>
       <r>     1.1014    37.8316   431.7824 </r>
       <r>     1.1985    44.2589   436.0790 </r>
       <r>     1.2956    50.1880   440.9511 </r>
       <r>     1.3927    52.8432   446.0810 </r>
       <r>     1.4898    50.5056   450.9840 </r>
       <r>     1.5868    44.1820   455.2731 </r>
       <r>     1.6839    35.8946   458.7577 </r>
       <r>     1.7810    26.2777   461.3087 </r>
       <r>     1.8781    16.0439   462.8662 </r>
       <r>     1.9751     7.6945   463.6131 </r>
       <r>     2.0722     2.8852   463.8932 </r>
       <r>     2.1693     0.8612   463.9768 </r>
       <r>     2.2664     0.2004   463.9963 </r>
       <r>     2.3635     0.0340   463.9996 </r>
       <r>     2.4605     0.0040   464.0000 </r>
       <r>     2.5576     0.0003   464.0000 </r>
       <r>     2.6547     0.0000   464.0000 </r>
       <r>     2.7518     0.0000   464.0000 </r>
       <r>     2.8488     0.0000   464.0000 </r>
       <r>     2.9459     0.0000   464.0000 </r>
       <r>     3.0430     0.0000   464.0000 </r>
       <r>     3.1401     0.0000   464.0000 </r>
       <r>     3.2372     0.0000   464.0000 </r>
       <r>     3.3342     0.0000   464.0000 </r>
       <r>     3.4313     0.0000   464.0000 </r>
       <r>     3.5284     0.0000   464.0000 </r>
       <r>     3.6255     0.0000   464.0000 </r>
       <r>     3.7225     0.0000   464.0000 </r>
       <r>     3.8196     0.0000   464.0000 </r>
       <r>     3.9167     0.0000   464.0000 </r>
      </set>
     </set>
    </array>
   </total>
  </dos>
 </calculation>
 <structure name="finalpos" >
  <crystal>
   <varray name="basis" >
    <v>      28.05000000       0.00000000       0.00000000 </v>
    <v>       0.00000000       8.10000000       0.00000000 </v>
    <v>       0.00000000       0.00000000      33.50000000 </v>
   </varray>
   <i name="volume">   7611.36750000 </i>
   <varray name="rec_basis" >
    <v>       0.03565062       0.00000000       0.00000000 </v>
    <v>       0.00000000       0.12345679       0.00000000 </v>
    <v>       0.00000000       0.00000000       0.02985075 </v>
   </varray>
  </crystal>
  <varray name="positions" >
   <v>       0.22467914       0.39919506       0.07683522 </v>
   <v>       0.22767094       0.57694815       0.07575313 </v>
   <v>       0.26834367       0.32151111       0.07529701 </v>
   <v>       0.27057718       0.66330741       0.07557373 </v>
   <v>       0.31343636       0.40274074       0.07820448 </v>
   <v>       0.31388556       0.57415309       0.07566746 </v>
   <v>       0.35748663       0.32112469       0.08390507 </v>
   <v>       0.35746524       0.65327654       0.07557164 </v>
   <v>       0.40098396       0.40554568       0.08904836 </v>
   <v>       0.40132264       0.57535926       0.08590776 </v>
   <v>       0.44385027       0.31919136       0.09875104 </v>
   <v>       0.44558645       0.65618889       0.09762657 </v>
   <v>       0.48532264       0.39904938       0.11279075 </v>
   <v>       0.48631729       0.56983951       0.11194836 </v>
   <v>       0.52934046       0.31957901       0.12219970 </v>
   <v>       0.52896613       0.65389753       0.11909075 </v>
   <v>       0.57142959       0.40136173       0.13174418 </v>
   <v>       0.56971836       0.56941605       0.13468448 </v>
   <v>       0.61425312       0.32355185       0.14629701 </v>
   <v>       0.61459180       0.65218148       0.14022209 </v>
   <v>       0.65701248       0.40467037       0.15195164 </v>
   <v>       0.65876292       0.57193951       0.14821045 </v>
   <v>       0.70179323       0.32229136       0.16244687 </v>
   <v>       0.70102674       0.65216914       0.15805373 </v>
   <v>       0.74499465       0.40213086       0.16382537 </v>
   <v>       0.74630660       0.57263457       0.16420448 </v>
   <v>       0.78953298       0.32337037       0.16453254 </v>
   <v>       0.79126916       0.65297037       0.16030687 </v>
   <v>       0.83458111       0.39286543       0.15963851 </v>
   <v>       0.83509091       0.56622346       0.15923104 </v>
   <v>       0.87709447       0.31098395       0.14916866 </v>
   <v>       0.87758289       0.64507037       0.15419075 </v>
   <v>       0.92266310       0.39229383       0.14703881 </v>
   <v>       0.92234581       0.56540988       0.14934776 </v>
   <v>       0.96342246       0.31584198       0.13527254 </v>
   <v>       0.96485205       0.65014321       0.14110597 </v>
   <v>       0.00709159       0.39902963       0.12487642 </v>
   <v>       0.00573173       0.56715185       0.12761910 </v>
   <v>       0.04821818       0.31477160       0.11130806 </v>
   <v>       0.04981176       0.64759753       0.11221493 </v>
   <v>       0.08958146       0.39512469       0.10060119 </v>
   <v>       0.09187344       0.56407407       0.10253045 </v>
   <v>       0.13222531       0.31429012       0.08703493 </v>
   <v>       0.13513975       0.64145679       0.09238687 </v>
   <v>       0.17514973       0.39143951       0.08068328 </v>
   <v>       0.17803850       0.56754691       0.08331403 </v>
   <v>       0.22785740       0.90712963       0.07255731 </v>
   <v>       0.22557326       0.07896321       0.06948537 </v>
   <v>       0.27034581       0.83074321       0.07191582 </v>
   <v>       0.27053583       0.15918519       0.07041433 </v>
   <v>       0.31459608       0.90716914       0.07243254 </v>
   <v>       0.31418610       0.07494988       0.07534597 </v>
   <v>       0.35990018       0.82204568       0.07440567 </v>
   <v>       0.35789305       0.15391481       0.07967672 </v>
   <v>       0.40331551       0.89832346       0.08373910 </v>
   <v>       0.40229590       0.07335593       0.08601612 </v>
   <v>       0.44573975       0.82455926       0.09248776 </v>
   <v>       0.44413191       0.15719630       0.09555134 </v>
   <v>       0.48951872       0.90836790       0.10117224 </v>
   <v>       0.48910517       0.07117580       0.10736627 </v>
   <v>       0.53244207       0.82997901       0.11272149 </v>
   <v>       0.53123351       0.15540988       0.12026985 </v>
   <v>       0.57570053       0.90417037       0.12598627 </v>
   <v>       0.57309447       0.07209519       0.13155313 </v>
   <v>       0.61567201       0.82242593       0.14079045 </v>
   <v>       0.61418182       0.15250617       0.14761463 </v>
   <v>       0.65761141       0.90559383       0.15371612 </v>
   <v>       0.65668806       0.07430432       0.15788955 </v>
   <v>       0.70188592       0.81873580       0.15686000 </v>
   <v>       0.70088414       0.15669753       0.16250209 </v>
   <v>       0.74570053       0.90361235       0.16219015 </v>
   <v>       0.74479857       0.06696605       0.16712627 </v>
   <v>       0.79020321       0.81892593       0.15820209 </v>
   <v>       0.78898752       0.15075185       0.16371731 </v>
   <v>       0.83369697       0.90030000       0.15176060 </v>
   <v>       0.83375045       0.06751901       0.15552896 </v>
   <v>       0.87788592       0.81395679       0.14854657 </v>
   <v>       0.87587522       0.14303951       0.14475254 </v>
   <v>       0.92120856       0.89424938       0.13727761 </v>
   <v>       0.92002852       0.06448765       0.13397970 </v>
   <v>       0.96466310       0.81876173       0.13277075 </v>
   <v>       0.96290196       0.14675802       0.12970507 </v>
   <v>       0.00589508       0.89770370       0.11671493 </v>
   <v>       0.00600717       0.06437469       0.11925522 </v>
   <v>       0.04832264       0.81446543       0.10447104 </v>
   <v>       0.04939857       0.14505062       0.10880507 </v>
   <v>       0.09024492       0.89301358       0.09309821 </v>
   <v>       0.08820143       0.06164790       0.09228090 </v>
   <v>       0.13312228       0.81023580       0.08949642 </v>
   <v>       0.13153012       0.14952469       0.08120478 </v>
   <v>       0.17437790       0.89652593       0.07741761 </v>
   <v>       0.17386702       0.06864469       0.07451224 </v>
  </varray>
 </structure>
</modeling>
