unknown system                          
            1
    28.050000    0.000000    0.000000
     0.000000    8.100000    0.000000
     0.000000    0.000000   33.500000
   C 
    92
Direct configuration=     1
   0.22467914  0.39919506  0.07683522
   0.22767094  0.57694815  0.07575313
   0.26834367  0.32151111  0.07529701
   0.27057718  0.66330741  0.07557373
   0.31343636  0.40274074  0.07820448
   0.31388556  0.57415309  0.07566746
   0.35748663  0.32112469  0.08390507
   0.35746524  0.65327654  0.07557164
   0.40098396  0.40554568  0.08904836
   0.40132264  0.57535926  0.08590776
   0.44385027  0.31919136  0.09875104
   0.44558645  0.65618889  0.09762657
   0.48532264  0.39904938  0.11279075
   0.48631729  0.56983951  0.11194836
   0.52934046  0.31957901  0.12219970
   0.52896613  0.65389753  0.11909075
   0.57142959  0.40136173  0.13174418
   0.56971836  0.56941605  0.13468448
   0.61425312  0.32355185  0.14629701
   0.61459180  0.65218148  0.14022209
   0.65701248  0.40467037  0.15195164
   0.65876292  0.57193951  0.14821045
   0.70179323  0.32229136  0.16244687
   0.70102674  0.65216914  0.15805373
   0.74499465  0.40213086  0.16382537
   0.74630660  0.57263457  0.16420448
   0.78953298  0.32337037  0.16453254
   0.79126916  0.65297037  0.16030687
   0.83458111  0.39286543  0.15963851
   0.83509091  0.56622346  0.15923104
   0.87709447  0.31098395  0.14916866
   0.87758289  0.64507037  0.15419075
   0.92266310  0.39229383  0.14703881
   0.92234581  0.56540988  0.14934776
   0.96342246  0.31584198  0.13527254
   0.96485205  0.65014321  0.14110597
   0.00709159  0.39902963  0.12487642
   0.00573173  0.56715185  0.12761910
   0.04821818  0.31477160  0.11130806
   0.04981176  0.64759753  0.11221493
   0.08958146  0.39512469  0.10060119
   0.09187344  0.56407407  0.10253045
   0.13222531  0.31429012  0.08703493
   0.13513975  0.64145679  0.09238687
   0.17514973  0.39143951  0.08068328
   0.17803850  0.56754691  0.08331403
   0.22785740  0.90712963  0.07255731
   0.22557326  0.07896321  0.06948537
   0.27034581  0.83074321  0.07191582
   0.27053583  0.15918519  0.07041433
   0.31459608  0.90716914  0.07243254
   0.31418610  0.07494988  0.07534597
   0.35990018  0.82204568  0.07440567
   0.35789305  0.15391481  0.07967672
   0.40331551  0.89832346  0.08373910
   0.40229590  0.07335593  0.08601612
   0.44573975  0.82455926  0.09248776
   0.44413191  0.15719630  0.09555134
   0.48951872  0.90836790  0.10117224
   0.48910517  0.07117580  0.10736627
   0.53244207  0.82997901  0.11272149
   0.53123351  0.15540988  0.12026985
   0.57570053  0.90417037  0.12598627
   0.57309447  0.07209519  0.13155313
   0.61567201  0.82242593  0.14079045
   0.61418182  0.15250617  0.14761463
   0.65761141  0.90559383  0.15371612
   0.65668806  0.07430432  0.15788955
   0.70188592  0.81873580  0.15686000
   0.70088414  0.15669753  0.16250209
   0.74570053  0.90361235  0.16219015
   0.74479857  0.06696605  0.16712627
   0.79020321  0.81892593  0.15820209
   0.78898752  0.15075185  0.16371731
   0.83369697  0.90030000  0.15176060
   0.83375045  0.06751901  0.15552896
   0.87788592  0.81395679  0.14854657
   0.87587522  0.14303951  0.14475254
   0.92120856  0.89424938  0.13727761
   0.92002852  0.06448765  0.13397970
   0.96466310  0.81876173  0.13277075
   0.96290196  0.14675802  0.12970507
   0.00589508  0.89770370  0.11671493
   0.00600717  0.06437469  0.11925522
   0.04832264  0.81446543  0.10447104
   0.04939857  0.14505062  0.10880507
   0.09024492  0.89301358  0.09309821
   0.08820143  0.06164790  0.09228090
   0.13312228  0.81023580  0.08949642
   0.13153012  0.14952469  0.08120478
   0.17437790  0.89652593  0.07741761
   0.17386702  0.06864469  0.07451224
