  92  92   0   0
  0.8273226E+02  0.2805000E-08  0.8100000E-09  0.3350000E-08  0.5000000E-15
   1.0000000000000000E-004
  CAR 
 unknown system                          
      3.80030599    -25.11517308  301     -3.22029199      1.00000000
    -25.115  0.0000E+00  0.0000E+00
    -25.019  0.0000E+00  0.0000E+00
    -24.922  0.0000E+00  0.0000E+00
    -24.826  0.0000E+00  0.0000E+00
    -24.730  0.0000E+00  0.0000E+00
    -24.633  0.0000E+00  0.0000E+00
    -24.537  0.0000E+00  0.0000E+00
    -24.440  0.0000E+00  0.0000E+00
    -24.344  0.0000E+00  0.0000E+00
    -24.248  0.2880E-14  0.2776E-15
    -24.151  0.6160E-12  0.5965E-13
    -24.055  0.7941E-10  0.7714E-11
    -23.959  0.6511E-08  0.6353E-09
    -23.862  0.3407E-06  0.3347E-07
    -23.766  0.1143E-04  0.1135E-05
    -23.669  0.2479E-03  0.2503E-04
    -23.573  0.3507E-02  0.3630E-03
    -23.477  0.3284E-01  0.3528E-02
    -23.380  0.2072E+00  0.2350E-01
    -23.284  0.9006E+00  0.1103E+00
    -23.187  0.2758E+01  0.3761E+00
    -23.091  0.6090E+01  0.9631E+00
    -22.995  0.9938E+01  0.1921E+01
    -22.898  0.1245E+02  0.3121E+01
    -22.802  0.1306E+02  0.4379E+01
    -22.706  0.1347E+02  0.5677E+01
    -22.609  0.1499E+02  0.7122E+01
    -22.513  0.1604E+02  0.8667E+01
    -22.416  0.1498E+02  0.1011E+02
    -22.320  0.1352E+02  0.1141E+02
    -22.224  0.1391E+02  0.1276E+02
    -22.127  0.1529E+02  0.1423E+02
    -22.031  0.1569E+02  0.1574E+02
    -21.934  0.1502E+02  0.1719E+02
    -21.838  0.1422E+02  0.1856E+02
    -21.742  0.1377E+02  0.1989E+02
    -21.645  0.1351E+02  0.2119E+02
    -21.549  0.1278E+02  0.2242E+02
    -21.453  0.1151E+02  0.2353E+02
    -21.356  0.1095E+02  0.2458E+02
    -21.260  0.1232E+02  0.2577E+02
    -21.163  0.1507E+02  0.2722E+02
    -21.067  0.1704E+02  0.2887E+02
    -20.971  0.1659E+02  0.3047E+02
    -20.874  0.1419E+02  0.3183E+02
    -20.778  0.1185E+02  0.3298E+02
    -20.681  0.1145E+02  0.3408E+02
    -20.585  0.1303E+02  0.3534E+02
    -20.489  0.1465E+02  0.3675E+02
    -20.392  0.1452E+02  0.3815E+02
    -20.296  0.1318E+02  0.3942E+02
    -20.200  0.1266E+02  0.4064E+02
    -20.103  0.1374E+02  0.4196E+02
    -20.007  0.1521E+02  0.4343E+02
    -19.910  0.1560E+02  0.4493E+02
    -19.814  0.1452E+02  0.4633E+02
    -19.718  0.1300E+02  0.4758E+02
    -19.621  0.1323E+02  0.4886E+02
    -19.525  0.1557E+02  0.5036E+02
    -19.428  0.1701E+02  0.5200E+02
    -19.332  0.1557E+02  0.5350E+02
    -19.236  0.1344E+02  0.5479E+02
    -19.139  0.1310E+02  0.5606E+02
    -19.043  0.1369E+02  0.5738E+02
    -18.947  0.1358E+02  0.5868E+02
    -18.850  0.1322E+02  0.5996E+02
    -18.754  0.1381E+02  0.6129E+02
    -18.657  0.1568E+02  0.6280E+02
    -18.561  0.1763E+02  0.6450E+02
    -18.465  0.1773E+02  0.6621E+02
    -18.368  0.1615E+02  0.6777E+02
    -18.272  0.1555E+02  0.6926E+02
    -18.175  0.1691E+02  0.7089E+02
    -18.079  0.1790E+02  0.7262E+02
    -17.983  0.1664E+02  0.7422E+02
    -17.886  0.1424E+02  0.7560E+02
    -17.790  0.1275E+02  0.7683E+02
    -17.694  0.1236E+02  0.7802E+02
    -17.597  0.1221E+02  0.7919E+02
    -17.501  0.1239E+02  0.8039E+02
    -17.404  0.1296E+02  0.8164E+02
    -17.308  0.1282E+02  0.8287E+02
    -17.212  0.1169E+02  0.8400E+02
    -17.115  0.1082E+02  0.8504E+02
    -17.019  0.1069E+02  0.8607E+02
    -16.922  0.1044E+02  0.8708E+02
    -16.826  0.9823E+01  0.8803E+02
    -16.730  0.9911E+01  0.8898E+02
    -16.633  0.1145E+02  0.9008E+02
    -16.537  0.1358E+02  0.9139E+02
    -16.441  0.1507E+02  0.9285E+02
    -16.344  0.1579E+02  0.9437E+02
    -16.248  0.1632E+02  0.9594E+02
    -16.151  0.1676E+02  0.9756E+02
    -16.055  0.1659E+02  0.9916E+02
    -15.959  0.1578E+02  0.1007E+03
    -15.862  0.1481E+02  0.1021E+03
    -15.766  0.1372E+02  0.1034E+03
    -15.669  0.1259E+02  0.1046E+03
    -15.573  0.1214E+02  0.1058E+03
    -15.477  0.1281E+02  0.1070E+03
    -15.380  0.1498E+02  0.1085E+03
    -15.284  0.1869E+02  0.1103E+03
    -15.188  0.2230E+02  0.1124E+03
    -15.091  0.2382E+02  0.1147E+03
    -14.995  0.2280E+02  0.1169E+03
    -14.898  0.2014E+02  0.1189E+03
    -14.802  0.1686E+02  0.1205E+03
    -14.706  0.1356E+02  0.1218E+03
    -14.609  0.1091E+02  0.1229E+03
    -14.513  0.9714E+01  0.1238E+03
    -14.416  0.9717E+01  0.1247E+03
    -14.320  0.9949E+01  0.1257E+03
    -14.224  0.1030E+02  0.1267E+03
    -14.127  0.1160E+02  0.1278E+03
    -14.031  0.1376E+02  0.1291E+03
    -13.935  0.1571E+02  0.1306E+03
    -13.838  0.1695E+02  0.1323E+03
    -13.742  0.1760E+02  0.1340E+03
    -13.645  0.1776E+02  0.1357E+03
    -13.549  0.1748E+02  0.1374E+03
    -13.453  0.1744E+02  0.1390E+03
    -13.356  0.1852E+02  0.1408E+03
    -13.260  0.2008E+02  0.1428E+03
    -13.163  0.2006E+02  0.1447E+03
    -13.067  0.1772E+02  0.1464E+03
    -12.971  0.1510E+02  0.1479E+03
    -12.874  0.1427E+02  0.1492E+03
    -12.778  0.1474E+02  0.1507E+03
    -12.682  0.1466E+02  0.1521E+03
    -12.585  0.1341E+02  0.1534E+03
    -12.489  0.1237E+02  0.1546E+03
    -12.392  0.1327E+02  0.1558E+03
    -12.296  0.1627E+02  0.1574E+03
    -12.200  0.2038E+02  0.1594E+03
    -12.103  0.2422E+02  0.1617E+03
    -12.007  0.2588E+02  0.1642E+03
    -11.910  0.2470E+02  0.1666E+03
    -11.814  0.2208E+02  0.1687E+03
    -11.718  0.1942E+02  0.1706E+03
    -11.621  0.1714E+02  0.1722E+03
    -11.525  0.1569E+02  0.1737E+03
    -11.429  0.1591E+02  0.1753E+03
    -11.332  0.1771E+02  0.1770E+03
    -11.236  0.2017E+02  0.1789E+03
    -11.139  0.2313E+02  0.1812E+03
    -11.043  0.2697E+02  0.1838E+03
    -10.947  0.3082E+02  0.1867E+03
    -10.850  0.3308E+02  0.1899E+03
    -10.754  0.3354E+02  0.1931E+03
    -10.657  0.3369E+02  0.1964E+03
    -10.561  0.3570E+02  0.1998E+03
    -10.465  0.3960E+02  0.2037E+03
    -10.368  0.4195E+02  0.2077E+03
    -10.272  0.3991E+02  0.2115E+03
    -10.176  0.3537E+02  0.2150E+03
    -10.079  0.3219E+02  0.2181E+03
     -9.983  0.3116E+02  0.2211E+03
     -9.886  0.3107E+02  0.2241E+03
     -9.790  0.3258E+02  0.2272E+03
     -9.694  0.3640E+02  0.2307E+03
     -9.597  0.4027E+02  0.2346E+03
     -9.501  0.4176E+02  0.2386E+03
     -9.404  0.4134E+02  0.2426E+03
     -9.308  0.3994E+02  0.2464E+03
     -9.212  0.3705E+02  0.2500E+03
     -9.115  0.3308E+02  0.2532E+03
     -9.019  0.3039E+02  0.2561E+03
     -8.923  0.3031E+02  0.2591E+03
     -8.826  0.3220E+02  0.2622E+03
     -8.730  0.3505E+02  0.2655E+03
     -8.633  0.3755E+02  0.2692E+03
     -8.537  0.3780E+02  0.2728E+03
     -8.441  0.3495E+02  0.2762E+03
     -8.344  0.3062E+02  0.2791E+03
     -8.248  0.2730E+02  0.2818E+03
     -8.151  0.2597E+02  0.2843E+03
     -8.055  0.2627E+02  0.2868E+03
     -7.959  0.2752E+02  0.2894E+03
     -7.862  0.2876E+02  0.2922E+03
     -7.766  0.2916E+02  0.2950E+03
     -7.670  0.2887E+02  0.2978E+03
     -7.573  0.2857E+02  0.3006E+03
     -7.477  0.2866E+02  0.3033E+03
     -7.380  0.2882E+02  0.3061E+03
     -7.284  0.2823E+02  0.3088E+03
     -7.188  0.2660E+02  0.3114E+03
     -7.091  0.2499E+02  0.3138E+03
     -6.995  0.2473E+02  0.3162E+03
     -6.898  0.2560E+02  0.3186E+03
     -6.802  0.2660E+02  0.3212E+03
     -6.706  0.2716E+02  0.3238E+03
     -6.609  0.2638E+02  0.3264E+03
     -6.513  0.2343E+02  0.3286E+03
     -6.416  0.1986E+02  0.3305E+03
     -6.320  0.1856E+02  0.3323E+03
     -6.224  0.1993E+02  0.3342E+03
     -6.127  0.2251E+02  0.3364E+03
     -6.031  0.2518E+02  0.3388E+03
     -5.935  0.2654E+02  0.3414E+03
     -5.838  0.2520E+02  0.3438E+03
     -5.742  0.2165E+02  0.3459E+03
     -5.645  0.1774E+02  0.3476E+03
     -5.549  0.1472E+02  0.3490E+03
     -5.453  0.1262E+02  0.3503E+03
     -5.356  0.1140E+02  0.3514E+03
     -5.260  0.1147E+02  0.3525E+03
     -5.163  0.1219E+02  0.3536E+03
     -5.067  0.1186E+02  0.3548E+03
     -4.971  0.1036E+02  0.3558E+03
     -4.874  0.9759E+01  0.3567E+03
     -4.778  0.1126E+02  0.3578E+03
     -4.682  0.1367E+02  0.3591E+03
     -4.585  0.1533E+02  0.3606E+03
     -4.489  0.1551E+02  0.3621E+03
     -4.392  0.1353E+02  0.3634E+03
     -4.296  0.9506E+01  0.3643E+03
     -4.200  0.5337E+01  0.3648E+03
     -4.103  0.2853E+01  0.3651E+03
     -4.007  0.2009E+01  0.3653E+03
     -3.910  0.1903E+01  0.3655E+03
     -3.814  0.2353E+01  0.3657E+03
     -3.718  0.3482E+01  0.3661E+03
     -3.621  0.4663E+01  0.3665E+03
     -3.525  0.4851E+01  0.3670E+03
     -3.429  0.3939E+01  0.3673E+03
     -3.332  0.3070E+01  0.3676E+03
     -3.236  0.3137E+01  0.3679E+03
     -3.139  0.3872E+01  0.3683E+03
     -3.043  0.4582E+01  0.3688E+03
     -2.947  0.4849E+01  0.3692E+03
     -2.850  0.4818E+01  0.3697E+03
     -2.754  0.5009E+01  0.3702E+03
     -2.657  0.5710E+01  0.3707E+03
     -2.561  0.6755E+01  0.3714E+03
     -2.465  0.7430E+01  0.3721E+03
     -2.368  0.7230E+01  0.3728E+03
     -2.272  0.7089E+01  0.3735E+03
     -2.176  0.7831E+01  0.3742E+03
     -2.079  0.8195E+01  0.3750E+03
     -1.983  0.6991E+01  0.3757E+03
     -1.886  0.5668E+01  0.3762E+03
     -1.790  0.6824E+01  0.3769E+03
     -1.694  0.1134E+02  0.3780E+03
     -1.597  0.1732E+02  0.3797E+03
     -1.501  0.2180E+02  0.3818E+03
     -1.404  0.2351E+02  0.3840E+03
     -1.308  0.2302E+02  0.3862E+03
     -1.212  0.2152E+02  0.3883E+03
     -1.115  0.2001E+02  0.3902E+03
     -1.019  0.1829E+02  0.3920E+03
     -0.923  0.1594E+02  0.3935E+03
     -0.826  0.1352E+02  0.3948E+03
     -0.730  0.1205E+02  0.3960E+03
     -0.633  0.1170E+02  0.3971E+03
     -0.537  0.1160E+02  0.3983E+03
     -0.441  0.1128E+02  0.3993E+03
     -0.344  0.1192E+02  0.4005E+03
     -0.248  0.1438E+02  0.4019E+03
     -0.151  0.1714E+02  0.4035E+03
     -0.055  0.1852E+02  0.4053E+03
      0.041  0.1943E+02  0.4072E+03
      0.138  0.2109E+02  0.4092E+03
      0.234  0.2232E+02  0.4114E+03
      0.330  0.2134E+02  0.4134E+03
      0.427  0.1857E+02  0.4152E+03
      0.523  0.1671E+02  0.4168E+03
      0.620  0.1840E+02  0.4186E+03
      0.716  0.2369E+02  0.4209E+03
      0.812  0.2984E+02  0.4238E+03
      0.909  0.3379E+02  0.4270E+03
      1.005  0.3542E+02  0.4304E+03
      1.102  0.3709E+02  0.4340E+03
      1.198  0.4076E+02  0.4379E+03
      1.294  0.4605E+02  0.4424E+03
      1.391  0.5003E+02  0.4472E+03
      1.487  0.4989E+02  0.4520E+03
      1.583  0.4486E+02  0.4563E+03
      1.680  0.3551E+02  0.4598E+03
      1.776  0.2382E+02  0.4621E+03
      1.873  0.1289E+02  0.4633E+03
      1.969  0.5333E+01  0.4638E+03
      2.065  0.1607E+01  0.4640E+03
      2.162  0.3407E+00  0.4640E+03
      2.258  0.4961E-01  0.4640E+03
      2.355  0.4882E-02  0.4640E+03
      2.451  0.3206E-03  0.4640E+03
      2.547  0.1390E-04  0.4640E+03
      2.644  0.3942E-06  0.4640E+03
      2.740  0.7248E-08  0.4640E+03
      2.836  0.8587E-10  0.4640E+03
      2.933  0.6520E-12  0.4640E+03
      3.029  0.2880E-14  0.4640E+03
      3.126  0.0000E+00  0.4640E+03
      3.222  0.0000E+00  0.4640E+03
      3.318  0.0000E+00  0.4640E+03
      3.415  0.0000E+00  0.4640E+03
      3.511  0.0000E+00  0.4640E+03
      3.608  0.0000E+00  0.4640E+03
      3.704  0.0000E+00  0.4640E+03
      3.800  0.0000E+00  0.4640E+03
