 vasp.6.5.0 16Dec24 (build Feb 19 2025 19:45:31) complex                         
 executed on              LinuxNV date 2025.10.25  13:29:57
 running    2 mpi-ranks, on    1 nodes
 distrk:  each k-point on    2 cores,    1 groups
 distr:  one band on NCORE=   1 cores,    2 groups
 Offloading initialized ...    2 GPUs detected


--------------------------------------------------------------------------------------------------------


 INCAR:
   ISTART = 0            (Not Read existing wavefunction
   ISPIN = 1            (Non-Spin polarised DFT, Default\=1)
   ICHARG = 2            (The initial guess charge density is generated by superposition of atomic charge density)
   LREAL = Auto         (Projection operators: automatic)
   ENCUT = 500          (Cut-off energy for plane wave basis set, in eV)
   LWAVE = .FALSE.       (Write WAVECAR or not)
   LCHARG = .FALSE.       (Write CHGCAR or not)
   PREC = Accurate   (Precision level)
   KGAMMA = .TRUE.
   ALGO = Normal
   NSW = 0           (Default: NSW \= 0)
   IBRION = -1           (Ions are not moved)
   ISMEAR = 0
   EDIFF = 1E-06        (SCF energy convergence
   NELM = 150          (Max electronic SCF steps)

 POTCAR:    PAW_PBE C 08Apr2002                   
 POTCAR:    PAW_PBE C 08Apr2002                   
   SHA256 =  253f7b50bb8d59471dbedb8285d89021f4a42ed1a2c5d38a03a736e69125dd95 C/POTCAR              
   COPYR  = (c) Copyright 08Apr2002 Georg Kresse                                                    
   COPYR  = This file is part of the software VASP. Any use, copying, and all other rights are regul
   COPYR  = If you do not have a valid VASP license, you may not use, copy or distribute this file. 
   VRHFIN =C: s2p2                                                                                  
   LEXCH  = PE                                                                                      
   EATOM  =   147.1560 eV,   10.8157 Ry                                                             
                                                                                                    
   TITEL  = PAW_PBE C 08Apr2002                                                                     
   LULTRA =        F    use ultrasoft PP ?                                                          
   IUNSCR =        1    unscreen: 0-lin 1-nonlin 2-no                                               
   RPACOR =    1.200    partial core radius                                                         
   POMASS =   12.011; ZVAL   =    4.000    mass and valenz                                          
   RCORE  =    1.500    outmost cutoff radius                                                       
   RWIGS  =    1.630; RWIGS  =    0.863    wigner-seitz radius (au A)                               
   ENMAX  =  400.000; ENMIN  =  300.000 eV                                                          
   ICORE  =        2    local potential                                                             
   LCOR   =        T    correct aug charges                                                         
   LPAW   =        T    paw PP                                                                      
   EAUG   =  644.873                                                                                
   DEXC   =    0.000                                                                                
   RMAX   =    1.529    core radius for proj-oper                                                   
   RAUG   =    1.300    factor for augmentation sphere                                              
   RDEP   =    1.501    radius for radial grids                                                     
   RDEPT  =    1.300    core radius for aug-charge                                                  
                                                                                                    
   Atomic configuration                                                                             
    4 entries                                                                                       
     n  l   j            E        occ.                                                              
     1  0  0.50      -273.3789   2.0000                                                             
     2  0  0.50       -13.7508   2.0000                                                             
     2  1  0.50        -5.2854   2.0000                                                             
     3  2  1.50        -5.4423   0.0000                                                             
   Description                                                                                      
     l       E           TYP  RCUT    TYP  RCUT                                                     
     0    -13.7508458     23  1.200                                                                 
     0     -8.2022199     23  1.200                                                                 
     1     -5.2854383     23  1.500                                                                 
     1     34.0145650     23  1.500                                                                 
     2     -5.4423304      7  1.500                                                                 
  local pseudopotential read in
  partial core-charges read in
  partial kinetic energy density read in
  atomic valenz-charges read in
  non local Contribution for L=            0  read in
    real space projection operators read in
  non local Contribution for L=            0  read in
    real space projection operators read in
  non local Contribution for L=            1  read in
    real space projection operators read in
  non local Contribution for L=            1  read in
    real space projection operators read in
    PAW grid and wavefunctions read in
 
   number of l-projection  operators is LMAX  =            4
   number of lm-projection operators is LMMAX =            8
 
 Optimization of the real space projectors (new method)

 maximal supplied QI-value         = 25.13
 optimisation between [QCUT,QGAM] = [ 11.31, 22.87] = [ 35.82,146.48] Ry 
 Optimized for a Real-space Cutoff    1.03 Angstroem

   l    n(q)    QCUT    max X(q) W(low)/X(q) W(high)/X(q)  e(spline) 
   0      7    11.310   115.676    0.20E-03    0.90E-03    0.20E-06
   0      7    11.310    87.132    0.20E-03    0.89E-03    0.19E-06
   1      6    11.310     4.429    0.16E-03    0.28E-03    0.12E-06
   1      6    11.310     2.733    0.12E-03    0.21E-03    0.99E-07
  PAW_PBE C 08Apr2002                   :
 energy of atom  1       EATOM= -147.1560
 kinetic energy error for atom=    0.0076 (will be added to EATOM!!)
 
 
 POSCAR:  C
  positions in cartesian coordinates
  No initial velocities read in


 exchange-correlation table for PE
   RHO(1)=    0.500       N(1)  =     2000
   RHO(2)=  100.500       N(2)  =     4000
 


--------------------------------------------------------------------------------------------------------


 ion  position               nearest neighbor table
   1  0.003  0.110  0.512-   2 1.35   3 1.43  45 1.54
   2  0.007  0.273  0.504-   1 1.35   4 1.36  46 1.53  45 2.04
   3  0.046  0.020  0.514-  50 1.39   5 1.40   1 1.43
   4  0.048  0.357  0.510-  49 1.36   2 1.36   6 1.45
   5  0.086  0.103  0.529-   6 1.39   3 1.40   7 1.44
   6  0.088  0.274  0.529-   5 1.39   8 1.41   4 1.45
   7  0.132  0.024  0.535-  54 1.38   9 1.43   5 1.44
   8  0.131  0.355  0.537-  53 1.39   6 1.41  10 1.42
   9  0.175  0.108  0.547-  10 1.33   7 1.43  11 1.47
  10  0.174  0.272  0.548-   9 1.33   8 1.42  12 1.43
  11  0.221  0.022  0.546-  58 1.35  13 1.40   9 1.47
  12  0.219  0.354  0.549-  57 1.36  10 1.43  14 1.44
  13  0.264  0.104  0.551-  11 1.40  14 1.41  15 1.42
  14  0.266  0.277  0.554-  16 1.39  13 1.41  12 1.44
  15  0.309  0.024  0.550-  62 1.41  13 1.42  17 1.45
  16  0.310  0.354  0.550-  61 1.37  14 1.39  18 1.43
  17  0.356  0.103  0.548-  18 1.39  19 1.43  15 1.45
  18  0.355  0.274  0.546-  17 1.39  20 1.41  16 1.43
  19  0.399  0.017  0.538-  66 1.38  21 1.41  17 1.43
  20  0.396  0.352  0.531-  65 1.36  18 1.41  22 1.42
  21  0.441  0.103  0.529-  22 1.35  19 1.41  23 1.44
  22  0.439  0.267  0.523-  21 1.35  20 1.42  24 1.43
  23  0.484  0.016  0.518-  70 1.37  25 1.42  21 1.44
  24  0.481  0.356  0.510-  69 1.36  22 1.43  26 1.45
  25  0.527  0.103  0.511-  26 1.40  23 1.42  27 1.47
  26  0.525  0.272  0.503-  25 1.40  28 1.43  24 1.45
  27  0.572  0.024  0.500-  74 1.37  29 1.41  25 1.47
  28  0.566  0.353  0.486-  73 1.40  30 1.43  26 1.43
  29  0.614  0.106  0.487-  30 1.35  27 1.41  31 1.42
  30  0.610  0.268  0.478-  29 1.35  28 1.43  32 1.47
  31  0.656  0.018  0.478-  78 1.39  29 1.42  33 1.43
  32  0.653  0.350  0.463-  34 1.39  77 1.42  30 1.47
  33  0.699  0.105  0.468-  35 1.37  34 1.40  31 1.43
  34  0.698  0.275  0.461-  32 1.39  33 1.40  36 1.41
  35  0.741  0.022  0.461-  33 1.37  82 1.37  37 1.40
  36  0.741  0.355  0.453-  81 1.34  34 1.41  38 1.48
  37  0.786  0.097  0.456-  38 1.36  35 1.40  39 1.42
  38  0.787  0.265  0.458-  37 1.36  40 1.41  36 1.48
  39  0.831  0.022  0.454-  41 1.41  86 1.41  37 1.42
  40  0.830  0.356  0.458-  85 1.33  42 1.41  38 1.41
  41  0.874  0.106  0.465-  42 1.37  43 1.40  39 1.41
  42  0.874  0.275  0.461-  41 1.37  44 1.41  40 1.41
  43  0.916  0.022  0.474-  90 1.37  45 1.39  41 1.40
  44  0.917  0.356  0.469-  46 1.40  42 1.41  89 1.42
  45  0.954  0.109  0.491-  46 1.39  43 1.39   1 1.54   2 2.04
  46  0.957  0.278  0.485-  45 1.39  44 1.40   2 1.53
  47  0.013  0.594  0.482-  49 1.44  91 1.44  48 1.44  92 2.07
  48  0.015  0.772  0.482-  50 1.39  47 1.44  92 1.50  91 2.04
  49  0.053  0.519  0.501-   4 1.36  51 1.41  47 1.44
  50  0.051  0.856  0.502-  48 1.39   3 1.39  52 1.40
  51  0.093  0.609  0.514-  52 1.34  49 1.41  53 1.42
  52  0.093  0.774  0.512-  51 1.34  54 1.40  50 1.40
  53  0.132  0.526  0.533-   8 1.39  51 1.42  55 1.43
  54  0.133  0.858  0.526-   7 1.38  52 1.40  56 1.43
  55  0.177  0.603  0.539-  56 1.41  57 1.42  53 1.43
  56  0.178  0.775  0.533-  55 1.41  54 1.43  58 1.44
  57  0.221  0.521  0.546-  12 1.36  59 1.41  55 1.42
  58  0.222  0.856  0.542-  11 1.35  60 1.41  56 1.44
  59  0.265  0.605  0.546-  60 1.36  57 1.41  61 1.41
  60  0.266  0.773  0.546-  59 1.36  62 1.37  58 1.41
  61  0.310  0.522  0.545-  16 1.37  63 1.41  59 1.41
  62  0.310  0.850  0.547-  60 1.37  64 1.39  15 1.41
  63  0.353  0.604  0.539-  64 1.39  61 1.41  65 1.42
  64  0.354  0.774  0.542-  66 1.37  63 1.39  62 1.39
  65  0.395  0.519  0.527-  20 1.36  63 1.42  67 1.45
  66  0.395  0.849  0.531-  64 1.37  19 1.38  68 1.46
  67  0.438  0.604  0.514-  68 1.32  69 1.40  65 1.45
  68  0.437  0.767  0.515-  67 1.32  66 1.46  70 1.47
  69  0.479  0.521  0.502-  24 1.36  67 1.40  71 1.47
  70  0.482  0.854  0.507-  23 1.37  72 1.44  68 1.47
  71  0.524  0.605  0.491-  72 1.39  73 1.40  69 1.47
  72  0.526  0.775  0.495-  71 1.39  74 1.42  70 1.44
  73  0.567  0.524  0.482-  28 1.40  71 1.40  75 1.41
  74  0.570  0.858  0.492-  27 1.37  72 1.42  76 1.44
  75  0.609  0.603  0.469-  76 1.39  77 1.41  73 1.41
  76  0.612  0.771  0.477-  75 1.39  78 1.41  74 1.44
  77  0.652  0.525  0.460-  75 1.41  32 1.42  79 1.43
  78  0.655  0.851  0.469-  31 1.39  76 1.41  80 1.43
  79  0.695  0.607  0.450-  80 1.38  77 1.43  81 1.44
  80  0.696  0.778  0.451-  79 1.38  82 1.41  78 1.43
  81  0.740  0.520  0.448-  36 1.34  83 1.44  79 1.44
  82  0.741  0.857  0.452-  35 1.37  80 1.41  84 1.41
  83  0.786  0.602  0.449-  84 1.39  85 1.43  81 1.44
  84  0.784  0.772  0.448-  83 1.39  82 1.41  86 1.50
  85  0.830  0.519  0.451-  40 1.33  83 1.43  87 1.50
  86  0.833  0.848  0.453-  88 1.40  39 1.41  84 1.50
  87  0.878  0.606  0.450-  88 1.33  89 1.36  85 1.50
  88  0.877  0.770  0.452-  87 1.33  86 1.40  90 1.47
  89  0.919  0.527  0.460-  87 1.36  44 1.42  91 1.44
  90  0.921  0.861  0.462-  43 1.37  92 1.41  88 1.47
  91  0.964  0.601  0.468-  92 1.42  89 1.44  47 1.44  48 2.04
  92  0.965  0.776  0.467-  90 1.41  91 1.42  48 1.50  47 2.07
 
  LATTYP: Found a simple orthorhombic cell.
 ALAT       =     8.1000000000
 B/A-ratio  =     3.4629629630
 C/A-ratio  =     4.1358024691
  
  Lattice vectors:
  
 A1 = (   0.0000000000,  -8.1000000000,   0.0000000000)
 A2 = (  28.0500000000,   0.0000000000,   0.0000000000)
 A3 = (   0.0000000000,   0.0000000000,  33.5000000000)


Analysis of symmetry for initial positions (statically):
=====================================================================
 Subroutine PRICEL returns:
 Original cell was already a primitive cell.
 

 Routine SETGRP: Setting up the symmetry group for a 
 simple orthorhombic supercell.


 Subroutine GETGRP returns: Found  1 space group operations
 (whereof  1 operations were pure point group operations)
 out of a pool of  8 trial point group operations.


The static configuration has the point symmetry C_1 .


Analysis of symmetry for dynamics (positions and initial velocities):
=====================================================================
 Subroutine PRICEL returns:
 Original cell was already a primitive cell.
 

 Routine SETGRP: Setting up the symmetry group for a 
 simple orthorhombic supercell.


 Subroutine GETGRP returns: Found  1 space group operations
 (whereof  1 operations were pure point group operations)
 out of a pool of  8 trial point group operations.


The dynamic configuration has the point symmetry C_1 .


 Subroutine INISYM returns: Found  1 space group operations
 (whereof  1 operations are pure point group operations),
 and found     1 'primitive' translations


----------------------------------------------------------------------------------------

                                     Primitive cell                                     

  volume of cell :    7611.3675

  direct lattice vectors                    reciprocal lattice vectors
    28.050000000  0.000000000  0.000000000     0.035650624  0.000000000  0.000000000
     0.000000000  8.100000000  0.000000000     0.000000000  0.123456790  0.000000000
     0.000000000  0.000000000 33.500000000     0.000000000  0.000000000  0.029850746

  length of vectors
    28.050000000  8.100000000 33.500000000     0.035650624  0.123456790  0.029850746

  position of ions in fractional coordinates (direct lattice)
     0.002680948  0.109934321  0.511922388
     0.006549804  0.273044444  0.504083582
     0.046355793  0.019916173  0.514459701
     0.047821747  0.356916049  0.510447761
     0.086499109  0.103417654  0.529286567
     0.087636364  0.274420988  0.529274627
     0.131794652  0.024202840  0.535379104
     0.131390731  0.354811111  0.537002985
     0.174593226  0.108222222  0.547000000
     0.174145098  0.272323457  0.547602985
     0.220667736  0.022409136  0.546373134
     0.219434225  0.354300000  0.549185075
     0.264331551  0.104203333  0.551474627
     0.265526203  0.277465432  0.554062687
     0.309316221  0.024066543  0.549644776
     0.309794652  0.353887654  0.550197015
     0.355866667  0.102690370  0.547594030
     0.354812478  0.273556790  0.545686567
     0.398991087  0.016715802  0.538113433
     0.395989305  0.352079012  0.531134328
     0.441497326  0.102915185  0.529480597
     0.439237077  0.267114815  0.522617910
     0.483928699  0.015983210  0.517931343
     0.480513369  0.356391358  0.509698507
     0.527105169  0.103382840  0.510797015
     0.525344029  0.272483951  0.502776119
     0.572196078  0.024250864  0.499525373
     0.566235294  0.352665432  0.486352239
     0.614060606  0.105992469  0.487008955
     0.609832442  0.267930864  0.478492537
     0.656442068  0.018165062  0.478068657
     0.652855615  0.350412346  0.463107463
     0.699251337  0.105073704  0.467880597
     0.697525847  0.275450617  0.460892537
     0.741026738  0.022443457  0.461035821
     0.741322638  0.355090123  0.453385075
     0.785732620  0.097002346  0.456373134
     0.786941176  0.264904938  0.457931343
     0.831415330  0.022404074  0.454173134
     0.829796791  0.356238272  0.457528358
     0.873668449  0.105772099  0.464835821
     0.873967914  0.274604938  0.460800000
     0.916206774  0.022412222  0.473662687
     0.917062389  0.356474074  0.468880597
     0.953529412  0.108901481  0.491143284
     0.956827094  0.278253086  0.485361194
     0.012968627  0.593714815  0.482220896
     0.015139715  0.771906173  0.481901493
     0.053436720  0.518908642  0.501223881
     0.050597861  0.856192593  0.502429851
     0.093441711  0.609481481  0.514167164
     0.093188235  0.774093827  0.511943284
     0.131932264  0.525537037  0.532814925
     0.133447415  0.857946914  0.525958209
     0.177274153  0.602711111  0.538988060
     0.177774688  0.774954321  0.533050746
     0.221449198  0.521295062  0.546167164
     0.222084848  0.856443210  0.541758209
     0.265469519  0.605411111  0.545585075
     0.265884848  0.772864198  0.546065672
     0.309731907  0.522374074  0.545453731
     0.309509804  0.849872840  0.546940299
     0.353431016  0.603693827  0.538952239
     0.353668806  0.774158025  0.542295522
     0.395126560  0.518859259  0.526692537
     0.395361854  0.849225926  0.531265672
     0.438196078  0.604158025  0.514185075
     0.436959002  0.766743210  0.514504478
     0.479483066  0.520623457  0.501752239
     0.481807487  0.853976543  0.506608955
     0.523732620  0.605180247  0.490692537
     0.525800357  0.775481481  0.495286567
     0.566563280  0.524275309  0.482044776
     0.570477718  0.857840741  0.492077612
     0.608570410  0.603462963  0.468970149
     0.611511586  0.770901235  0.477107463
     0.651800357  0.524539506  0.459746269
     0.655212121  0.850697531  0.469256716
     0.695376114  0.606817284  0.449850746
     0.696071301  0.777596296  0.451134328
     0.740085561  0.519665432  0.448226866
     0.740645276  0.856885185  0.452298507
     0.785607843  0.601567901  0.449029851
     0.784317291  0.772441975  0.447549254
     0.830360071  0.518620988  0.451304478
     0.832531194  0.848324691  0.453173134
     0.877597148  0.605722222  0.450307463
     0.877172906  0.770193827  0.452492537
     0.918898396  0.527007407  0.459689552
     0.921169340  0.861049383  0.462116418
     0.964288770  0.600508642  0.468438806
     0.964795009  0.775770370  0.466614925

  ion indices of the primitive-cell ions
   primitive index   ion index
                 1           1
                 2           2
                 3           3
                 4           4
                 5           5
                 6           6
                 7           7
                 8           8
                 9           9
                10          10
                11          11
                12          12
                13          13
                14          14
                15          15
                16          16
                17          17
                18          18
                19          19
                20          20
                21          21
                22          22
                23          23
                24          24
                25          25
                26          26
                27          27
                28          28
                29          29
                30          30
                31          31
                32          32
                33          33
                34          34
                35          35
                36          36
                37          37
                38          38
                39          39
                40          40
                41          41
                42          42
                43          43
                44          44
                45          45
                46          46
                47          47
                48          48
                49          49
                50          50
                51          51
                52          52
                53          53
                54          54
                55          55
                56          56
                57          57
                58          58
                59          59
                60          60
                61          61
                62          62
                63          63
                64          64
                65          65
                66          66
                67          67
                68          68
                69          69
                70          70
                71          71
                72          72
                73          73
                74          74
                75          75
                76          76
                77          77
                78          78
                79          79
                80          80
                81          81
                82          82
                83          83
                84          84
                85          85
                86          86
                87          87
                88          88
                89          89
                90          90
                91          91
                92          92

----------------------------------------------------------------------------------------

 
 
 KPOINTS: K-Spacing Value to Generate K-Mesh: 0.03

Automatic generation of k-mesh.
 Grid dimensions read from file:
 generate k-points for:    1    4    1

 Generating k-lattice:

  Cartesian coordinates                     Fractional coordinates (reciprocal lattice)
     0.035650624  0.000000000  0.000000000     1.000000000  0.000000000  0.000000000
     0.000000000  0.030864198  0.000000000     0.000000000  0.250000000  0.000000000
     0.000000000  0.000000000  0.029850746     0.000000000  0.000000000  1.000000000

  Length of vectors
     0.035650624  0.030864198  0.029850746

  Shift w.r.t. Gamma in fractional coordinates (k-lattice)
     0.000000000  0.000000000  0.000000000

 
 Subroutine IBZKPT returns following result:
 ===========================================
 
 Found      3 irreducible k-points:
 
 Following reciprocal coordinates:
            Coordinates               Weight
  0.000000  0.000000  0.000000      1.000000
  0.000000  0.250000  0.000000      2.000000
  0.000000  0.500000  0.000000      1.000000
 
 Following cartesian coordinates:
            Coordinates               Weight
  0.000000  0.000000  0.000000      1.000000
  0.000000  0.030864  0.000000      2.000000
  0.000000  0.061728  0.000000      1.000000
 


--------------------------------------------------------------------------------------------------------




 Dimension of arrays:
   k-points           NKPTS =      3   k-points in BZ     NKDIM =      3   number of bands    NBANDS=    232
   number of dos      NEDOS =    301   number of ions     NIONS =     92
   non local maximal  LDIM  =      4   non local SUM 2l+1 LMDIM =      8
   total plane-waves  NPLWV = ******
   max r-space proj   IRMAX =   1967   max aug-charges    IRDMAX=   5083
   dimension x,y,z NGX =   210 NGY =   60 NGZ =  250
   dimension x,y,z NGXF=   420 NGYF=  120 NGZF=  500
   support grid    NGXF=   420 NGYF=  120 NGZF=  500
   ions per type =              92
   NGX,Y,Z   is equivalent  to a cutoff of  12.45, 12.31, 12.41 a.u.
   NGXF,Y,Z  is equivalent  to a cutoff of  24.89, 24.63, 24.81 a.u.

 SYSTEM =  unknown system                          
 POSCAR =   C                                      

 Startparameter for this run:
   NWRITE =      2    write-flag & timer
   PREC   = accura    normal or accurate (medium, high low for compatibility)
   ISTART =      0    job   : 0-new  1-cont  2-samecut
   ICHARG =      2    charge: 1-file 2-atom 10-const
   ISPIN  =      1    spin polarized calculation?
   LNONCOLLINEAR =      F non collinear calculations
   LSORBIT =      F    spin-orbit coupling
   INIWAV =      1    electr: 0-lowe 1-rand  2-diag
   LASPH  =      F    aspherical Exc in radial PAW
 Electronic Relaxation 1
   ENCUT  =  500.0 eV  36.75 Ry    6.06 a.u.  51.14 14.77 61.08*2*pi/ulx,y,z
   ENINI  =  500.0     initial cutoff
   ENAUG  =  644.9 eV  augmentation charge cutoff
   NELM   =    150;   NELMIN=  2; NELMDL= -5     # of ELM steps 
   EDIFF  = 0.1E-05   stopping-criterion for ELM
   LREAL  =      T    real-space projection
   NLSPLINE    = F    spline interpolate recip. space projectors
   LCOMPAT=      F    compatible to vasp.4.4
   GGA_COMPAT  = T    GGA compatible to vasp.4.4-vasp.4.6
   LMAXPAW     = -100 max onsite density
   LMAXMIX     =    2 max onsite mixed and CHGCAR
   VOSKOWN=      0    Vosko Wilk Nusair interpolation
   ROPT   =   -0.00025
 Ionic relaxation
   EDIFFG = 0.1E-04   stopping-criterion for IOM
   NSW    =      0    number of steps for IOM
   NBLOCK =      1;   KBLOCK =      1    inner block; outer block 
   IBRION =     -1    ionic relax: 0-MD 1-quasi-New 2-CG
   NFREE  =      0    steps in history (QN), initial steepest desc. (CG)
   ISIF   =      2    stress and relaxation
   IWAVPR =     10    prediction:  0-non 1-charg 2-wave 3-comb
   ISYM   =      2    0-nonsym 1-usesym 2-fastsym
   LCORR  =      T    Harris-Foulkes like correction to forces

   POTIM  = 0.5000    time-step for ionic-motion
   TEIN   =    0.0    initial temperature
   TEBEG  =    0.0;   TEEND  =   0.0 temperature during run
   SMASS  =  -3.00    Nose mass-parameter (am)
   estimated Nose-frequenzy (Omega)   =  0.10E-29 period in steps = 0.13E+47 mass=  -0.180E-25a.u.
   SCALEE = 1.0000    scale energy and forces
   NPACO  =    256;   APACO  = 10.0  distance and # of slots for P.C.
   PSTRESS=    0.0 pullay stress

  Mass of Ions in am
   POMASS =  12.01
  Ionic Valenz
   ZVAL   =   4.00
  Atomic Wigner-Seitz radii
   RWIGS  =  -1.00
  virtual crystal weights 
   VCA    =   1.00
   NELECT =     368.0000    total number of electrons
   NUPDOWN=      -1.0000    fix difference up-down

 DOS related values:
   EMIN   =  10.00;   EMAX   =-10.00  energy-range for DOS
   EFERMI =   0.00;   METHOD = LEGACY      
   ISMEAR =     0;   SIGMA  =   0.20  broadening in eV -4-tet -1-fermi 0-gaus
   EFERMI_NEDOS =   21; number of points for ismear=-14 and -15

 Electronic relaxation 2 (details)
   IALGO  =     38    algorithm
   LDIAG  =      T    sub-space diagonalisation (order eigenvalues)
   LSUBROT=      F    optimize rotation matrix (better conditioning)
   TURBO    =      0    0=normal 1=particle mesh
   IRESTART =      0    0=no restart 2=restart with 2 vectors
   NREBOOT  =      0    no. of reboots
   NMIN     =      0    reboot dimension
   EREF     =   0.00    reference energy to select bands
   IMIX   =      4    mixing-type and parameters
     AMIX     =   0.40;   BMIX     =  1.00
     AMIX_MAG =   1.60;   BMIX_MAG =  1.00
     AMIN     =   0.10
     WC   =   100.;   INIMIX=   1;  MIXPRE=   1;  MAXMIX= -45

 Intra band minimization:
   WEIMIN = 0.0000     energy-eigenvalue tresh-hold
   EBREAK =  0.11E-08  absolut break condition
   DEPER  =   0.30     relativ break condition  

   TIME   =   0.40     timestep for ELM

  volume/ion in A,a.u.               =      82.73       558.30
  Fermi-wavevector in a.u.,A,eV,Ry     =   0.596398  1.127030  4.839472  0.355691
  Thomas-Fermi vector in A             =   1.646729
 
 Write flags
   LWAVE        =      F    write WAVECAR
   LDOWNSAMPLE  =      F    k-point downsampling of WAVECAR
   LCHARG       =      F    write CHGCAR
   LVTOT        =      F    write LOCPOT, total local potential
   LVHAR        =      F    write LOCPOT, Hartree potential only
   WRT_POTENTIAL= false  ! write potential to hdf5 file
   LELF         =      F    write electronic localiz. function (ELF)
   LORBIT       =      0    0 simple, 1 ext, 2 COOP (PROOUT), +10 PAW based schemes


 Python interface
   PLUGINS active      =      F    recompile with -DPLUGINS to activate
 
 Dipole corrections
   LMONO      =      F    monopole corrections only (constant potential shift)
   LDIPOL     =      F    correct potential (dipole corrections)
   IDIPOL     =      0    1-x, 2-y, 3-z, 4-all directions 
   EPSILON    =  1.0000000 bulk dielectric constant
   LVACPOTAV  =      F  vacuum potentials using an averaging scheme for the charge density
   VACPOTFLAT =  0.1000000 required flatness to determine vacuum potential
 
Coulomb truncation method
  LTRUNCATE          =      F  Coulomb kernel truncation to be used
  IDIMENSIONALITY    =      3  Dimensionality of cutoff (0 molecules / 2 surfaces)
  ISURFACE           =     -1  Direction of surface normal
  LCOARSEN           =      F  Coarsen the charge grid before padding, preferred

 
 Exchange correlation treatment:
   GGA     = PE    functional components
   XC_C    = 1    coefficients multiplying the functional components
   LIBXC   =     F    Libxc                    
   VOSKOWN =     0    Vosko Wilk Nusair interpolation
   LHFCALC =     F    Hartree Fock is set to
   LHFONE  =     F    Hartree Fock one center treatment
   AEXX    =    0.0000 exact exchange contribution

 Parameters of functionals:
   PE:
     No parameter
 
 Van der Waals corrections
   IVDW    =     0    specifies the selected vdW correction

 Linear response parameters
   LEPSILON=     F    determine dielectric tensor
   LRPA    =     F    only Hartree local field effects (RPA)
   LNABLA  =     F    use nabla operator in PAW spheres
   LVEL    =     F    velocity operator in full k-point grid
   CSHIFT  =0.1000    complex shift for real part using Kramers Kronig
   OMEGAMAX=  -1.0    maximum frequency
   DEG_THRESHOLD= 0.2000000E-02 threshold for treating states as degnerate
   RTIME   =   -0.100 relaxation time in fs
  (WPLASMAI=    0.000 imaginary part of plasma frequency in eV, 0.658/RTIME)
   DFIELD  = 0.0000000 0.0000000 0.0000000 field for delta impulse in time
 
  Optional k-point grid parameters
   LKPOINTS_OPT  =     F    use optional k-point grid
   KPOINTS_OPT_MODE=     1    mode for optional k-point grid
 
 Orbital magnetization related:
   ORBITALMAG=     F  switch on orbital magnetization
   LCHIMAG   =     F  perturbation theory with respect to B field
   DQ        =  0.001000  dq finite difference perturbation B field
   LLRAUG    =     F  two centre corrections for induced B field
   LBONE     =     F  B-component reconstruction in AE one-centre
   LVGVCALC  =     T  calculate vGv susceptibility
   LVGVAPPL  =     F  apply vGv susceptibility instead of pGv for G=0

 Random number generation:
   RANDOM_GENERATOR = DEFAULT
   PCG_SEED         = not used


--------------------------------------------------------------------------------------------------------


 Static calculation
 charge density and potential will be updated during run
 non-spin polarized calculation
 Variant of blocked Davidson
 Davidson routine will perform the subspace rotation
 perform sub-space diagonalisation
    after iterative eigenvector-optimisation
 modified Broyden-mixing scheme, WC =      100.0
 initial mixing is a Kerker type mixing with AMIX =  0.4000 and BMIX =      1.0000
 Hartree-type preconditioning will be used
 using additional bands            48
 real space projection scheme for non local part
 use partial core corrections
 calculate Harris-corrections to forces 
   (improved forces if not selfconsistent)
 use gradient corrections 
 use of overlap-Matrix (Vanderbilt PP)
 Gauss-broadening in eV      SIGMA  =   0.20


--------------------------------------------------------------------------------------------------------


  energy-cutoff  :      500.00
  volume of cell :     7611.37
      direct lattice vectors                 reciprocal lattice vectors
    28.050000000  0.000000000  0.000000000     0.035650624  0.000000000  0.000000000
     0.000000000  8.100000000  0.000000000     0.000000000  0.123456790  0.000000000
     0.000000000  0.000000000 33.500000000     0.000000000  0.000000000  0.029850746

  length of vectors
    28.050000000  8.100000000 33.500000000     0.035650624  0.123456790  0.029850746


 
 k-points in units of 2pi/SCALE and weight: K-Spacing Value to Generate K-Mesh: 0.03
   0.00000000  0.00000000  0.00000000       0.250
   0.00000000  0.03086420  0.00000000       0.500
   0.00000000  0.06172840  0.00000000       0.250
 
 k-points in reciprocal lattice and weights: K-Spacing Value to Generate K-Mesh: 0.03
   0.00000000  0.00000000  0.00000000       0.250
   0.00000000  0.25000000  0.00000000       0.500
   0.00000000  0.50000000  0.00000000       0.250
 
 position of ions in fractional coordinates (direct lattice) 
   0.00268095  0.10993432  0.51192239
   0.00654980  0.27304444  0.50408358
   0.04635579  0.01991617  0.51445970
   0.04782175  0.35691605  0.51044776
   0.08649911  0.10341765  0.52928657
   0.08763636  0.27442099  0.52927463
   0.13179465  0.02420284  0.53537910
   0.13139073  0.35481111  0.53700299
   0.17459323  0.10822222  0.54700000
   0.17414510  0.27232346  0.54760299
   0.22066774  0.02240914  0.54637313
   0.21943422  0.35430000  0.54918507
   0.26433155  0.10420333  0.55147463
   0.26552620  0.27746543  0.55406269
   0.30931622  0.02406654  0.54964478
   0.30979465  0.35388765  0.55019701
   0.35586667  0.10269037  0.54759403
   0.35481248  0.27355679  0.54568657
   0.39899109  0.01671580  0.53811343
   0.39598930  0.35207901  0.53113433
   0.44149733  0.10291519  0.52948060
   0.43923708  0.26711481  0.52261791
   0.48392870  0.01598321  0.51793134
   0.48051337  0.35639136  0.50969851
   0.52710517  0.10338284  0.51079701
   0.52534403  0.27248395  0.50277612
   0.57219608  0.02425086  0.49952537
   0.56623529  0.35266543  0.48635224
   0.61406061  0.10599247  0.48700896
   0.60983244  0.26793086  0.47849254
   0.65644207  0.01816506  0.47806866
   0.65285561  0.35041235  0.46310746
   0.69925134  0.10507370  0.46788060
   0.69752585  0.27545062  0.46089254
   0.74102674  0.02244346  0.46103582
   0.74132264  0.35509012  0.45338507
   0.78573262  0.09700235  0.45637313
   0.78694118  0.26490494  0.45793134
   0.83141533  0.02240407  0.45417313
   0.82979679  0.35623827  0.45752836
   0.87366845  0.10577210  0.46483582
   0.87396791  0.27460494  0.46080000
   0.91620677  0.02241222  0.47366269
   0.91706239  0.35647407  0.46888060
   0.95352941  0.10890148  0.49114328
   0.95682709  0.27825309  0.48536119
   0.01296863  0.59371481  0.48222090
   0.01513971  0.77190617  0.48190149
   0.05343672  0.51890864  0.50122388
   0.05059786  0.85619259  0.50242985
   0.09344171  0.60948148  0.51416716
   0.09318824  0.77409383  0.51194328
   0.13193226  0.52553704  0.53281493
   0.13344742  0.85794691  0.52595821
   0.17727415  0.60271111  0.53898806
   0.17777469  0.77495432  0.53305075
   0.22144920  0.52129506  0.54616716
   0.22208485  0.85644321  0.54175821
   0.26546952  0.60541111  0.54558507
   0.26588485  0.77286420  0.54606567
   0.30973191  0.52237407  0.54545373
   0.30950980  0.84987284  0.54694030
   0.35343102  0.60369383  0.53895224
   0.35366881  0.77415802  0.54229552
   0.39512656  0.51885926  0.52669254
   0.39536185  0.84922593  0.53126567
   0.43819608  0.60415802  0.51418507
   0.43695900  0.76674321  0.51450448
   0.47948307  0.52062346  0.50175224
   0.48180749  0.85397654  0.50660896
   0.52373262  0.60518025  0.49069254
   0.52580036  0.77548148  0.49528657
   0.56656328  0.52427531  0.48204478
   0.57047772  0.85784074  0.49207761
   0.60857041  0.60346296  0.46897015
   0.61151159  0.77090123  0.47710746
   0.65180036  0.52453951  0.45974627
   0.65521212  0.85069753  0.46925672
   0.69537611  0.60681728  0.44985075
   0.69607130  0.77759630  0.45113433
   0.74008556  0.51966543  0.44822687
   0.74064528  0.85688519  0.45229851
   0.78560784  0.60156790  0.44902985
   0.78431729  0.77244198  0.44754925
   0.83036007  0.51862099  0.45130448
   0.83253119  0.84832469  0.45317313
   0.87759715  0.60572222  0.45030746
   0.87717291  0.77019383  0.45249254
   0.91889840  0.52700741  0.45968955
   0.92116934  0.86104938  0.46211642
   0.96428877  0.60050864  0.46843881
   0.96479501  0.77577037  0.46661493
 
 position of ions in cartesian coordinates  (Angst):
   0.07520060  0.89046800 17.14940000
   0.18372200  2.21166000 16.88680000
   1.30028000  0.16132100 17.23440000
   1.34140000  2.89102000 17.10000000
   2.42630000  0.83768300 17.73110000
   2.45820000  2.22281000 17.73070000
   3.69684000  0.19604300 17.93520000
   3.68551000  2.87397000 17.98960000
   4.89734000  0.87660000 18.32450000
   4.88477000  2.20582000 18.34470000
   6.18973000  0.18151400 18.30350000
   6.15513000  2.86983000 18.39770000
   7.41450000  0.84404700 18.47440000
   7.44801000  2.24747000 18.56110000
   8.67632000  0.19493900 18.41310000
   8.68974000  2.86649000 18.43160000
   9.98206000  0.83179200 18.34440000
   9.95249000  2.21581000 18.28050000
  11.19170000  0.13539800 18.02680000
  11.10750000  2.85184000 17.79300000
  12.38400000  0.83361300 17.73760000
  12.32060000  2.16363000 17.50770000
  13.57420000  0.12946400 17.35070000
  13.47840000  2.88677000 17.07490000
  14.78530000  0.83740100 17.11170000
  14.73590000  2.20712000 16.84300000
  16.05010000  0.19643200 16.73410000
  15.88290000  2.85659000 16.29280000
  17.22440000  0.85853900 16.31480000
  17.10580000  2.17024000 16.02950000
  18.41320000  0.14713700 16.01530000
  18.31260000  2.83834000 15.51410000
  19.61400000  0.85109700 15.67400000
  19.56560000  2.23115000 15.43990000
  20.78580000  0.18179200 15.44470000
  20.79410000  2.87623000 15.18840000
  22.03980000  0.78571900 15.28850000
  22.07370000  2.14573000 15.34070000
  23.32120000  0.18147300 15.21480000
  23.27580000  2.88553000 15.32720000
  24.50640000  0.85675400 15.57200000
  24.51480000  2.22430000 15.43680000
  25.69960000  0.18153900 15.86770000
  25.72360000  2.88744000 15.70750000
  26.74650000  0.88210200 16.45330000
  26.83900000  2.25385000 16.25960000
   0.36377000  4.80909000 16.15440000
   0.42466900  6.25244000 16.14370000
   1.49890000  4.20316000 16.79100000
   1.41927000  6.93516000 16.83140000
   2.62104000  4.93680000 17.22460000
   2.61393000  6.27016000 17.15010000
   3.70070000  4.25685000 17.84930000
   3.74320000  6.94937000 17.61960000
   4.97254000  4.88196000 18.05610000
   4.98658000  6.27713000 17.85720000
   6.21165000  4.22249000 18.29660000
   6.22948000  6.93719000 18.14890000
   7.44642000  4.90383000 18.27710000
   7.45807000  6.26020000 18.29320000
   8.68798000  4.23123000 18.27270000
   8.68175000  6.88397000 18.32250000
   9.91374000  4.88992000 18.05490000
   9.92041000  6.27068000 18.16690000
  11.08330000  4.20276000 17.64420000
  11.08990000  6.87873000 17.79740000
  12.29140000  4.89368000 17.22520000
  12.25670000  6.21062000 17.23590000
  13.44950000  4.21705000 16.80870000
  13.51470000  6.91721000 16.97140000
  14.69070000  4.90196000 16.43820000
  14.74870000  6.28140000 16.59210000
  15.89210000  4.24663000 16.14850000
  16.00190000  6.94851000 16.48460000
  17.07040000  4.88805000 15.71050000
  17.15290000  6.24430000 15.98310000
  18.28300000  4.24877000 15.40150000
  18.37870000  6.89065000 15.72010000
  19.50530000  4.91522000 15.07000000
  19.52480000  6.29853000 15.11300000
  20.75940000  4.20929000 15.01560000
  20.77510000  6.94077000 15.15200000
  22.03630000  4.87270000 15.04250000
  22.00010000  6.25678000 14.99290000
  23.29160000  4.20083000 15.11870000
  23.35250000  6.87143000 15.18130000
  24.61660000  4.90635000 15.08530000
  24.60470000  6.23857000 15.15850000
  25.77510000  4.26876000 15.39960000
  25.83880000  6.97450000 15.48090000
  27.04830000  4.86412000 15.69270000
  27.06250000  6.28374000 15.63160000
 


--------------------------------------------------------------------------------------------------------


 k-point     1 :   0.0000 0.0000 0.0000  plane waves:  193173
 k-point     2 :   0.0000 0.2500 0.0000  plane waves:  193166
 k-point     3 :   0.0000 0.5000 0.0000  plane waves:  193226

 maximum and minimum number of plane-waves per node :    193226   193166

 maximum number of plane-waves:    193226
 maximum index in each direction: 
   IXMAX=   51   IYMAX=   14   IZMAX=   61
   IXMIN=  -51   IYMIN=  -15   IZMIN=  -61


 serial   3D FFT for wavefunctions
 parallel 3D FFT for charge:
    minimum data exchange during FFTs selected (reduces bandwidth)


 total amount of memory used by VASP MPI-rank0  2294504. kBytes
=======================================================================

   base                                    :      30000. kBytes
   nonlr-proj                              :      15070. kBytes
   fftplans                                :     436558. kBytes
   grid                                    :     732614. kBytes
   one-center                              :        282. kBytes
   wavefun                                 :    1079980. kBytes
 
     INWAV:  cpu time      0.0000: real time      0.0000
 Broyden mixing: mesh for mixing (old mesh)
   NGX =103   NGY = 29   NGZ =123
  (NGX  =420   NGY  =120   NGZ  =500)
  gives a total of 367401 points

 initial charge density was supplied:
 charge density of overlapping atoms calculated
 number of electron     368.0000000 magnetization 
 keeping initial charge density in first step


--------------------------------------------------------------------------------------------------------


 Maximum index for non-local projection operator          1872
 Maximum index for augmentation-charges          2387 (set IRDMAX)


--------------------------------------------------------------------------------------------------------


 First call to EWALD:  gamma=   0.090
 Maximum number of real-space cells   2x   6x   2
 Maximum number of reciprocal cells   4x   1x   4

    FEWALD:  cpu time      0.1609: real time      0.1609


--------------------------------------- Ionic step        1  -------------------------------------------




--------------------------------------- Iteration      1(   1)  ---------------------------------------


    POTLOK:  cpu time      0.4240: real time      0.4426
    SETDIJ:  cpu time      0.0418: real time      0.0418
     EDDAV:  cpu time     11.0458: real time     11.0523
       DOS:  cpu time      0.0008: real time      0.0008
    --------------------------------------------
      LOOP:  cpu time     11.5125: real time     11.5375

 eigenvalue-minimisations  :  1712
 total energy-change (2. order) : 0.3681723E+04  (-0.1188536E+05)
 number of electron     368.0000000 magnetization 
 augmentation part      368.0000000 magnetization 

 Free energy of the ion-electron system (eV)
  ---------------------------------------------------
  alpha Z        PSCENC =        91.34886789
  Ewald energy   TEWEN  =    119077.87667035
  -Hartree energ DENC   =   -128430.42808649
  -exchange      EXHF   =         0.00000000
  -V(xc)+E(xc)   XCENC  =      1219.69359239
  PAW double counting   =      9984.02826696   -10036.41360137
  entropy T*S    EENTRO =        -0.88360314
  eigenvalues    EBANDS =     -1761.15418677
  atomic energy  EATOM  =     13537.65479391
  Solvation  Ediel_sol  =         0.00000000
  ---------------------------------------------------
  free energy    TOTEN  =      3681.72271372 eV

  energy without entropy =     3682.60631687  energy(sigma->0) =     3682.16451530


--------------------------------------------------------------------------------------------------------




--------------------------------------- Iteration      1(   2)  ---------------------------------------


     EDDAV:  cpu time     13.1521: real time     13.1566
       DOS:  cpu time      0.0007: real time      0.0007
    --------------------------------------------
      LOOP:  cpu time     13.1528: real time     13.1573

 eigenvalue-minimisations  :  2152
 total energy-change (2. order) :-0.3506055E+04  (-0.3246949E+04)
 number of electron     368.0000000 magnetization 
 augmentation part      368.0000000 magnetization 

 Free energy of the ion-electron system (eV)
  ---------------------------------------------------
  alpha Z        PSCENC =        91.34886789
  Ewald energy   TEWEN  =    119077.87667035
  -Hartree energ DENC   =   -128430.42808649
  -exchange      EXHF   =         0.00000000
  -V(xc)+E(xc)   XCENC  =      1219.69359239
  PAW double counting   =      9984.02826696   -10036.41360137
  entropy T*S    EENTRO =        -0.18975340
  eigenvalues    EBANDS =     -5267.90311178
  atomic energy  EATOM  =     13537.65479391
  Solvation  Ediel_sol  =         0.00000000
  ---------------------------------------------------
  free energy    TOTEN  =       175.66763846 eV

  energy without entropy =      175.85739186  energy(sigma->0) =      175.76251516


--------------------------------------------------------------------------------------------------------




--------------------------------------- Iteration      1(   3)  ---------------------------------------


     EDDAV:  cpu time     11.2638: real time     11.2678
       DOS:  cpu time      0.0007: real time      0.0007
    --------------------------------------------
      LOOP:  cpu time     11.2645: real time     11.2685

 eigenvalue-minimisations  :  1784
 total energy-change (2. order) :-0.1009345E+04  (-0.9876439E+03)
 number of electron     368.0000000 magnetization 
 augmentation part      368.0000000 magnetization 

 Free energy of the ion-electron system (eV)
  ---------------------------------------------------
  alpha Z        PSCENC =        91.34886789
  Ewald energy   TEWEN  =    119077.87667035
  -Hartree energ DENC   =   -128430.42808649
  -exchange      EXHF   =         0.00000000
  -V(xc)+E(xc)   XCENC  =      1219.69359239
  PAW double counting   =      9984.02826696   -10036.41360137
  entropy T*S    EENTRO =        -0.04534390
  eigenvalues    EBANDS =     -6277.39255393
  atomic energy  EATOM  =     13537.65479391
  Solvation  Ediel_sol  =         0.00000000
  ---------------------------------------------------
  free energy    TOTEN  =      -833.67739420 eV

  energy without entropy =     -833.63205030  energy(sigma->0) =     -833.65472225


--------------------------------------------------------------------------------------------------------




--------------------------------------- Iteration      1(   4)  ---------------------------------------


     EDDAV:  cpu time     11.0084: real time     11.0120
       DOS:  cpu time      0.0007: real time      0.0007
    --------------------------------------------
      LOOP:  cpu time     11.0090: real time     11.0127

 eigenvalue-minimisations  :  1736
 total energy-change (2. order) :-0.6103238E+02  (-0.6003234E+02)
 number of electron     368.0000000 magnetization 
 augmentation part      368.0000000 magnetization 

 Free energy of the ion-electron system (eV)
  ---------------------------------------------------
  alpha Z        PSCENC =        91.34886789
  Ewald energy   TEWEN  =    119077.87667035
  -Hartree energ DENC   =   -128430.42808649
  -exchange      EXHF   =         0.00000000
  -V(xc)+E(xc)   XCENC  =      1219.69359239
  PAW double counting   =      9984.02826696   -10036.41360137
  entropy T*S    EENTRO =        -0.06229113
  eigenvalues    EBANDS =     -6338.40798419
  atomic energy  EATOM  =     13537.65479391
  Solvation  Ediel_sol  =         0.00000000
  ---------------------------------------------------
  free energy    TOTEN  =      -894.70977168 eV

  energy without entropy =     -894.64748055  energy(sigma->0) =     -894.67862611


--------------------------------------------------------------------------------------------------------




--------------------------------------- Iteration      1(   5)  ---------------------------------------


     EDDAV:  cpu time     11.1061: real time     11.1098
       DOS:  cpu time      0.0007: real time      0.0007
    CHARGE:  cpu time      1.2071: real time      1.2084
    MIXING:  cpu time      0.2756: real time      0.2756
    --------------------------------------------
      LOOP:  cpu time     12.5895: real time     12.5945

 eigenvalue-minimisations  :  1760
 total energy-change (2. order) :-0.1547085E+01  (-0.1522927E+01)
 number of electron     368.0000002 magnetization 
 augmentation part       10.0800426 magnetization 

 Broyden mixing:
  rms(total) = 0.45075E+01    rms(broyden)= 0.45069E+01
  rms(prec ) = 0.46238E+01
  weight for this iteration     100.00

 Free energy of the ion-electron system (eV)
  ---------------------------------------------------
  alpha Z        PSCENC =        91.34886789
  Ewald energy   TEWEN  =    119077.87667035
  -Hartree energ DENC   =   -128430.42808649
  -exchange      EXHF   =         0.00000000
  -V(xc)+E(xc)   XCENC  =      1219.69359239
  PAW double counting   =      9984.02826696   -10036.41360137
  entropy T*S    EENTRO =        -0.06262187
  eigenvalues    EBANDS =     -6339.95473830
  atomic energy  EATOM  =     13537.65479391
  Solvation  Ediel_sol  =         0.00000000
  ---------------------------------------------------
  free energy    TOTEN  =      -896.25685653 eV

  energy without entropy =     -896.19423466  energy(sigma->0) =     -896.22554559


--------------------------------------------------------------------------------------------------------




--------------------------------------- Iteration      1(   6)  ---------------------------------------


    POTLOK:  cpu time      0.3227: real time      0.3227
    SETDIJ:  cpu time      0.0405: real time      0.0405
     EDDAV:  cpu time     10.2506: real time     10.2541
       DOS:  cpu time      0.0007: real time      0.0007
    CHARGE:  cpu time      1.1579: real time      1.1598
    MIXING:  cpu time      0.2786: real time      0.2797
    --------------------------------------------
      LOOP:  cpu time     12.0511: real time     12.0574

 eigenvalue-minimisations  :  1584
 total energy-change (2. order) : 0.4852992E+02  (-0.4637107E+01)
 number of electron     368.0000002 magnetization 
 augmentation part        9.6624557 magnetization 

 Broyden mixing:
  rms(total) = 0.26469E+01    rms(broyden)= 0.26469E+01
  rms(prec ) = 0.27044E+01
  weight for this iteration     100.00

 eigenvalues of (default mixing * dielectric matrix)
  average eigenvalue GAMMA=   2.1816
  2.1816

 Free energy of the ion-electron system (eV)
  ---------------------------------------------------
  alpha Z        PSCENC =        91.34886789
  Ewald energy   TEWEN  =    119077.87667035
  -Hartree energ DENC   =   -128994.35371747
  -exchange      EXHF   =         0.00000000
  -V(xc)+E(xc)   XCENC  =      1242.79309586
  PAW double counting   =     18825.58448921   -18885.46869061
  entropy T*S    EENTRO =        -0.06615162
  eigenvalues    EBANDS =     -5743.09629411
  atomic energy  EATOM  =     13537.65479391
  Solvation  Ediel_sol  =         0.00000000
  ---------------------------------------------------
  free energy    TOTEN  =      -847.72693659 eV

  energy without entropy =     -847.66078497  energy(sigma->0) =     -847.69386078


--------------------------------------------------------------------------------------------------------




--------------------------------------- Iteration      1(   7)  ---------------------------------------


    POTLOK:  cpu time      0.3199: real time      0.3200
    SETDIJ:  cpu time      0.0403: real time      0.0403
     EDDAV:  cpu time     10.0721: real time     10.0814
       DOS:  cpu time      0.0007: real time      0.0007
    CHARGE:  cpu time      1.1513: real time      1.1534
    MIXING:  cpu time      0.2782: real time      0.2783
    --------------------------------------------
      LOOP:  cpu time     11.8627: real time     11.8741

 eigenvalue-minimisations  :  1552
 total energy-change (2. order) : 0.1802468E+02  (-0.6384218E+01)
 number of electron     368.0000002 magnetization 
 augmentation part        9.1148376 magnetization 

 Broyden mixing:
  rms(total) = 0.72423E+00    rms(broyden)= 0.72396E+00
  rms(prec ) = 0.73386E+00
  weight for this iteration     100.00

 eigenvalues of (default mixing * dielectric matrix)
  average eigenvalue GAMMA=   2.1611
  2.1611  2.1611

 Free energy of the ion-electron system (eV)
  ---------------------------------------------------
  alpha Z        PSCENC =        91.34886789
  Ewald energy   TEWEN  =    119077.87667035
  -Hartree energ DENC   =   -129747.87084615
  -exchange      EXHF   =         0.00000000
  -V(xc)+E(xc)   XCENC  =      1273.52599689
  PAW double counting   =     36141.89022593   -36208.56546030
  entropy T*S    EENTRO =        -0.07476839
  eigenvalues    EBANDS =     -4995.48773861
  atomic energy  EATOM  =     13537.65479391
  Solvation  Ediel_sol  =         0.00000000
  ---------------------------------------------------
  free energy    TOTEN  =      -829.70225848 eV

  energy without entropy =     -829.62749009  energy(sigma->0) =     -829.66487428


--------------------------------------------------------------------------------------------------------




--------------------------------------- Iteration      1(   8)  ---------------------------------------


    POTLOK:  cpu time      0.3219: real time      0.3220
    SETDIJ:  cpu time      0.0405: real time      0.0405
     EDDAV:  cpu time     10.2837: real time     10.2870
       DOS:  cpu time      0.0007: real time      0.0007
    CHARGE:  cpu time      1.1543: real time      1.1545
    MIXING:  cpu time      0.2828: real time      0.2828
    --------------------------------------------
      LOOP:  cpu time     12.0839: real time     12.0876

 eigenvalue-minimisations  :  1592
 total energy-change (2. order) : 0.2684272E+00  (-0.2333636E+00)
 number of electron     368.0000002 magnetization 
 augmentation part        9.0969873 magnetization 

 Broyden mixing:
  rms(total) = 0.10803E+00    rms(broyden)= 0.10800E+00
  rms(prec ) = 0.12874E+00
  weight for this iteration     100.00

 eigenvalues of (default mixing * dielectric matrix)
  average eigenvalue GAMMA=   1.8445
  1.1622  1.9482  2.4232

 Free energy of the ion-electron system (eV)
  ---------------------------------------------------
  alpha Z        PSCENC =        91.34886789
  Ewald energy   TEWEN  =    119077.87667035
  -Hartree energ DENC   =   -129837.24774865
  -exchange      EXHF   =         0.00000000
  -V(xc)+E(xc)   XCENC  =      1273.37533972
  PAW double counting   =     40175.32990904   -40239.49042464
  entropy T*S    EENTRO =        -0.06997214
  eigenvalues    EBANDS =     -4908.21126672
  atomic energy  EATOM  =     13537.65479391
  Solvation  Ediel_sol  =         0.00000000
  ---------------------------------------------------
  free energy    TOTEN  =      -829.43383124 eV

  energy without entropy =     -829.36385910  energy(sigma->0) =     -829.39884517


--------------------------------------------------------------------------------------------------------




--------------------------------------- Iteration      1(   9)  ---------------------------------------


    POTLOK:  cpu time      0.3220: real time      0.3220
    SETDIJ:  cpu time      0.0401: real time      0.0401
     EDDAV:  cpu time     10.6872: real time     10.6909
       DOS:  cpu time      0.0007: real time      0.0007
    CHARGE:  cpu time      1.1545: real time      1.1554
    MIXING:  cpu time      0.2881: real time      0.2898
    --------------------------------------------
      LOOP:  cpu time     12.4926: real time     12.4989

 eigenvalue-minimisations  :  1672
 total energy-change (2. order) : 0.1077860E+00  (-0.2364711E-01)
 number of electron     368.0000002 magnetization 
 augmentation part        9.0756919 magnetization 

 Broyden mixing:
  rms(total) = 0.56716E-01    rms(broyden)= 0.56708E-01
  rms(prec ) = 0.78018E-01
  weight for this iteration     100.00

 eigenvalues of (default mixing * dielectric matrix)
  average eigenvalue GAMMA=   1.6977
  2.2143  2.2143  1.1456  1.2168

 Free energy of the ion-electron system (eV)
  ---------------------------------------------------
  alpha Z        PSCENC =        91.34886789
  Ewald energy   TEWEN  =    119077.87667035
  -Hartree energ DENC   =   -129906.60498227
  -exchange      EXHF   =         0.00000000
  -V(xc)+E(xc)   XCENC  =      1274.69231547
  PAW double counting   =     40842.47561932   -40906.58241449
  entropy T*S    EENTRO =        -0.07165572
  eigenvalues    EBANDS =     -4840.11525970
  atomic energy  EATOM  =     13537.65479391
  Solvation  Ediel_sol  =         0.00000000
  ---------------------------------------------------
  free energy    TOTEN  =      -829.32604524 eV

  energy without entropy =     -829.25438952  energy(sigma->0) =     -829.29021738


--------------------------------------------------------------------------------------------------------




--------------------------------------- Iteration      1(  10)  ---------------------------------------


    POTLOK:  cpu time      0.3198: real time      0.3199
    SETDIJ:  cpu time      0.0402: real time      0.0402
     EDDAV:  cpu time     11.0484: real time     11.0522
       DOS:  cpu time      0.0007: real time      0.0007
    CHARGE:  cpu time      1.1533: real time      1.1537
    MIXING:  cpu time      0.2948: real time      0.2948
    --------------------------------------------
      LOOP:  cpu time     12.8572: real time     12.8616

 eigenvalue-minimisations  :  1744
 total energy-change (2. order) : 0.3789875E-01  (-0.4171613E-02)
 number of electron     368.0000002 magnetization 
 augmentation part        9.0670248 magnetization 

 Broyden mixing:
  rms(total) = 0.35992E-01    rms(broyden)= 0.35989E-01
  rms(prec ) = 0.55324E-01
  weight for this iteration     100.00

 eigenvalues of (default mixing * dielectric matrix)
  average eigenvalue GAMMA=   1.6876
  2.3995  2.3995  1.5807  1.1994  0.8587

 Free energy of the ion-electron system (eV)
  ---------------------------------------------------
  alpha Z        PSCENC =        91.34886789
  Ewald energy   TEWEN  =    119077.87667035
  -Hartree energ DENC   =   -129955.55055661
  -exchange      EXHF   =         0.00000000
  -V(xc)+E(xc)   XCENC  =      1275.04044510
  PAW double counting   =     40631.37576900   -40695.35679546
  entropy T*S    EENTRO =        -0.07157217
  eigenvalues    EBANDS =     -4791.60576850
  atomic energy  EATOM  =     13537.65479391
  Solvation  Ediel_sol  =         0.00000000
  ---------------------------------------------------
  free energy    TOTEN  =      -829.28814649 eV

  energy without entropy =     -829.21657432  energy(sigma->0) =     -829.25236040


--------------------------------------------------------------------------------------------------------




--------------------------------------- Iteration      1(  11)  ---------------------------------------


    POTLOK:  cpu time      0.3223: real time      0.3223
    SETDIJ:  cpu time      0.0402: real time      0.0402
     EDDAV:  cpu time     10.1984: real time     10.2021
       DOS:  cpu time      0.0007: real time      0.0007
    CHARGE:  cpu time      1.1636: real time      1.1655
    MIXING:  cpu time      0.2981: real time      0.3002
    --------------------------------------------
      LOOP:  cpu time     12.0233: real time     12.0311

 eigenvalue-minimisations  :  1576
 total energy-change (2. order) : 0.2713617E-01  (-0.1946293E-02)
 number of electron     368.0000002 magnetization 
 augmentation part        9.0620346 magnetization 

 Broyden mixing:
  rms(total) = 0.24021E-01    rms(broyden)= 0.24019E-01
  rms(prec ) = 0.38446E-01
  weight for this iteration     100.00

 eigenvalues of (default mixing * dielectric matrix)
  average eigenvalue GAMMA=   1.7847
  3.0108  2.5401  1.9176  0.9415  1.1492  1.1492

 Free energy of the ion-electron system (eV)
  ---------------------------------------------------
  alpha Z        PSCENC =        91.34886789
  Ewald energy   TEWEN  =    119077.87667035
  -Hartree energ DENC   =   -130013.46333172
  -exchange      EXHF   =         0.00000000
  -V(xc)+E(xc)   XCENC  =      1275.57141071
  PAW double counting   =     40585.76696688   -40649.66068475
  entropy T*S    EENTRO =        -0.07140022
  eigenvalues    EBANDS =     -4734.28430338
  atomic energy  EATOM  =     13537.65479391
  Solvation  Ediel_sol  =         0.00000000
  ---------------------------------------------------
  free energy    TOTEN  =      -829.26101032 eV

  energy without entropy =     -829.18961011  energy(sigma->0) =     -829.22531021


--------------------------------------------------------------------------------------------------------




--------------------------------------- Iteration      1(  12)  ---------------------------------------


    POTLOK:  cpu time      0.3218: real time      0.3217
    SETDIJ:  cpu time      0.0402: real time      0.0402
     EDDAV:  cpu time     10.0665: real time     10.0699
       DOS:  cpu time      0.0007: real time      0.0007
    CHARGE:  cpu time      1.1526: real time      1.1540
    MIXING:  cpu time      0.3069: real time      0.3070
    --------------------------------------------
      LOOP:  cpu time     11.8888: real time     11.8936

 eigenvalue-minimisations  :  1552
 total energy-change (2. order) : 0.4219891E-02  (-0.2590437E-02)
 number of electron     368.0000002 magnetization 
 augmentation part        9.0548655 magnetization 

 Broyden mixing:
  rms(total) = 0.14643E-01    rms(broyden)= 0.14639E-01
  rms(prec ) = 0.22575E-01
  weight for this iteration     100.00

 eigenvalues of (default mixing * dielectric matrix)
  average eigenvalue GAMMA=   2.0290
  4.6839  2.3286  2.0288  2.0288  0.9647  1.0842  1.0842

 Free energy of the ion-electron system (eV)
  ---------------------------------------------------
  alpha Z        PSCENC =        91.34886789
  Ewald energy   TEWEN  =    119077.87667035
  -Hartree energ DENC   =   -130083.42339658
  -exchange      EXHF   =         0.00000000
  -V(xc)+E(xc)   XCENC  =      1276.22175505
  PAW double counting   =     40609.16971057   -40673.03275078
  entropy T*S    EENTRO =        -0.07178935
  eigenvalues    EBANDS =     -4665.00065149
  atomic energy  EATOM  =     13537.65479391
  Solvation  Ediel_sol  =         0.00000000
  ---------------------------------------------------
  free energy    TOTEN  =      -829.25679043 eV

  energy without entropy =     -829.18500109  energy(sigma->0) =     -829.22089576


--------------------------------------------------------------------------------------------------------




--------------------------------------- Iteration      1(  13)  ---------------------------------------


    POTLOK:  cpu time      0.3205: real time      0.3205
    SETDIJ:  cpu time      0.0401: real time      0.0401
     EDDAV:  cpu time     10.1063: real time     10.1098
       DOS:  cpu time      0.0007: real time      0.0007
    CHARGE:  cpu time      1.1540: real time      1.1543
    MIXING:  cpu time      0.3151: real time      0.3155
    --------------------------------------------
      LOOP:  cpu time     11.9368: real time     11.9409

 eigenvalue-minimisations  :  1560
 total energy-change (2. order) :-0.1188032E-01  (-0.7484575E-03)
 number of electron     368.0000002 magnetization 
 augmentation part        9.0521930 magnetization 

 Broyden mixing:
  rms(total) = 0.83892E-02    rms(broyden)= 0.83873E-02
  rms(prec ) = 0.12120E-01
  weight for this iteration     100.00

 eigenvalues of (default mixing * dielectric matrix)
  average eigenvalue GAMMA=   2.1053
  5.4838  2.5093  2.5093  1.8812  0.9032  1.1830  1.1830  1.1893

 Free energy of the ion-electron system (eV)
  ---------------------------------------------------
  alpha Z        PSCENC =        91.34886789
  Ewald energy   TEWEN  =    119077.87667035
  -Hartree energ DENC   =   -130131.09128135
  -exchange      EXHF   =         0.00000000
  -V(xc)+E(xc)   XCENC  =      1276.42251231
  PAW double counting   =     40575.98977853   -40639.84750161
  entropy T*S    EENTRO =        -0.07155342
  eigenvalues    EBANDS =     -4617.55095736
  atomic energy  EATOM  =     13537.65479391
  Solvation  Ediel_sol  =         0.00000000
  ---------------------------------------------------
  free energy    TOTEN  =      -829.26867075 eV

  energy without entropy =     -829.19711733  energy(sigma->0) =     -829.23289404


--------------------------------------------------------------------------------------------------------




--------------------------------------- Iteration      1(  14)  ---------------------------------------


    POTLOK:  cpu time      0.3230: real time      0.3230
    SETDIJ:  cpu time      0.0402: real time      0.0402
     EDDAV:  cpu time     10.2242: real time     10.2306
       DOS:  cpu time      0.0007: real time      0.0007
    CHARGE:  cpu time      1.1542: real time      1.1544
    MIXING:  cpu time      0.3247: real time      0.3247
    --------------------------------------------
      LOOP:  cpu time     12.0670: real time     12.0736

 eigenvalue-minimisations  :  1584
 total energy-change (2. order) :-0.1816477E-01  (-0.1471432E-03)
 number of electron     368.0000002 magnetization 
 augmentation part        9.0510860 magnetization 

 Broyden mixing:
  rms(total) = 0.51483E-02    rms(broyden)= 0.51477E-02
  rms(prec ) = 0.73045E-02
  weight for this iteration     100.00

 eigenvalues of (default mixing * dielectric matrix)
  average eigenvalue GAMMA=   2.1596
  6.3339  2.8124  2.4660  1.9915  1.5806  1.1614  1.0750  1.0750  0.9402

 Free energy of the ion-electron system (eV)
  ---------------------------------------------------
  alpha Z        PSCENC =        91.34886789
  Ewald energy   TEWEN  =    119077.87667035
  -Hartree energ DENC   =   -130148.92577224
  -exchange      EXHF   =         0.00000000
  -V(xc)+E(xc)   XCENC  =      1276.44749204
  PAW double counting   =     40570.06325297   -40633.93631585
  entropy T*S    EENTRO =        -0.07168315
  eigenvalues    EBANDS =     -4599.74414145
  atomic energy  EATOM  =     13537.65479391
  Solvation  Ediel_sol  =         0.00000000
  ---------------------------------------------------
  free energy    TOTEN  =      -829.28683552 eV

  energy without entropy =     -829.21515237  energy(sigma->0) =     -829.25099394


--------------------------------------------------------------------------------------------------------




--------------------------------------- Iteration      1(  15)  ---------------------------------------


    POTLOK:  cpu time      0.3228: real time      0.3227
    SETDIJ:  cpu time      0.0402: real time      0.0402
     EDDAV:  cpu time     10.2710: real time     10.2747
       DOS:  cpu time      0.0007: real time      0.0007
    CHARGE:  cpu time      1.1517: real time      1.1528
    MIXING:  cpu time      0.3303: real time      0.3323
    --------------------------------------------
      LOOP:  cpu time     12.1167: real time     12.1234

 eigenvalue-minimisations  :  1592
 total energy-change (2. order) :-0.1685595E-01  (-0.1191282E-03)
 number of electron     368.0000002 magnetization 
 augmentation part        9.0509772 magnetization 

 Broyden mixing:
  rms(total) = 0.29746E-02    rms(broyden)= 0.29744E-02
  rms(prec ) = 0.42230E-02
  weight for this iteration     100.00

 eigenvalues of (default mixing * dielectric matrix)
  average eigenvalue GAMMA=   2.2562
  7.1443  3.5232  2.2698  2.2698  1.7912  1.2629  1.2629  1.1053  0.9660  0.9660

 Free energy of the ion-electron system (eV)
  ---------------------------------------------------
  alpha Z        PSCENC =        91.34886789
  Ewald energy   TEWEN  =    119077.87667035
  -Hartree energ DENC   =   -130157.16715148
  -exchange      EXHF   =         0.00000000
  -V(xc)+E(xc)   XCENC  =      1276.41521846
  PAW double counting   =     40568.42641944   -40632.29530562
  entropy T*S    EENTRO =        -0.07171532
  eigenvalues    EBANDS =     -4591.49148910
  atomic energy  EATOM  =     13537.65479391
  Solvation  Ediel_sol  =         0.00000000
  ---------------------------------------------------
  free energy    TOTEN  =      -829.30369146 eV

  energy without entropy =     -829.23197615  energy(sigma->0) =     -829.26783381


--------------------------------------------------------------------------------------------------------




--------------------------------------- Iteration      1(  16)  ---------------------------------------


    POTLOK:  cpu time      0.3224: real time      0.3224
    SETDIJ:  cpu time      0.0403: real time      0.0403
     EDDAV:  cpu time     10.2722: real time     10.2759
       DOS:  cpu time      0.0007: real time      0.0007
    CHARGE:  cpu time      1.1666: real time      1.1663
    MIXING:  cpu time      0.3405: real time      0.3407
    --------------------------------------------
      LOOP:  cpu time     12.1427: real time     12.1464

 eigenvalue-minimisations  :  1592
 total energy-change (2. order) :-0.1052078E-01  (-0.7001584E-04)
 number of electron     368.0000002 magnetization 
 augmentation part        9.0508148 magnetization 

 Broyden mixing:
  rms(total) = 0.19273E-02    rms(broyden)= 0.19272E-02
  rms(prec ) = 0.24791E-02
  weight for this iteration     100.00

 eigenvalues of (default mixing * dielectric matrix)
  average eigenvalue GAMMA=   2.3331
  7.9562  4.0314  2.4326  2.4326  1.8800  1.4415  1.4415  1.0510  1.0510  0.9164
  1.0299

 Free energy of the ion-electron system (eV)
  ---------------------------------------------------
  alpha Z        PSCENC =        91.34886789
  Ewald energy   TEWEN  =    119077.87667035
  -Hartree energ DENC   =   -130162.12881809
  -exchange      EXHF   =         0.00000000
  -V(xc)+E(xc)   XCENC  =      1276.40289305
  PAW double counting   =     40568.46862078   -40632.33649661
  entropy T*S    EENTRO =        -0.07168607
  eigenvalues    EBANDS =     -4586.52905745
  atomic energy  EATOM  =     13537.65479391
  Solvation  Ediel_sol  =         0.00000000
  ---------------------------------------------------
  free energy    TOTEN  =      -829.31421224 eV

  energy without entropy =     -829.24252617  energy(sigma->0) =     -829.27836920


--------------------------------------------------------------------------------------------------------




--------------------------------------- Iteration      1(  17)  ---------------------------------------


    POTLOK:  cpu time      0.3203: real time      0.3203
    SETDIJ:  cpu time      0.0405: real time      0.0405
     EDDAV:  cpu time     10.3109: real time     10.3145
       DOS:  cpu time      0.0007: real time      0.0007
    CHARGE:  cpu time      1.1559: real time      1.1563
    MIXING:  cpu time      0.3492: real time      0.3502
    --------------------------------------------
      LOOP:  cpu time     12.1776: real time     12.1826

 eigenvalue-minimisations  :  1600
 total energy-change (2. order) :-0.4600315E-02  (-0.2674903E-04)
 number of electron     368.0000002 magnetization 
 augmentation part        9.0507143 magnetization 

 Broyden mixing:
  rms(total) = 0.10063E-02    rms(broyden)= 0.10063E-02
  rms(prec ) = 0.13251E-02
  weight for this iteration     100.00

 eigenvalues of (default mixing * dielectric matrix)
  average eigenvalue GAMMA=   2.3719
  8.4200  4.6424  2.4624  2.4624  2.0181  1.4958  1.3846  1.3846  0.9393  1.1252
  1.0639  1.0639

 Free energy of the ion-electron system (eV)
  ---------------------------------------------------
  alpha Z        PSCENC =        91.34886789
  Ewald energy   TEWEN  =    119077.87667035
  -Hartree energ DENC   =   -130164.08813604
  -exchange      EXHF   =         0.00000000
  -V(xc)+E(xc)   XCENC  =      1276.40109098
  PAW double counting   =     40570.61684873   -40634.48235528
  entropy T*S    EENTRO =        -0.07170482
  eigenvalues    EBANDS =     -4584.57488827
  atomic energy  EATOM  =     13537.65479391
  Solvation  Ediel_sol  =         0.00000000
  ---------------------------------------------------
  free energy    TOTEN  =      -829.31881256 eV

  energy without entropy =     -829.24710773  energy(sigma->0) =     -829.28296014


--------------------------------------------------------------------------------------------------------




--------------------------------------- Iteration      1(  18)  ---------------------------------------


    POTLOK:  cpu time      0.3206: real time      0.3206
    SETDIJ:  cpu time      0.0404: real time      0.0404
     EDDAV:  cpu time     10.2950: real time     10.2988
       DOS:  cpu time      0.0007: real time      0.0007
    CHARGE:  cpu time      1.1555: real time      1.1569
    MIXING:  cpu time      0.3597: real time      0.3612
    --------------------------------------------
      LOOP:  cpu time     12.1719: real time     12.1786

 eigenvalue-minimisations  :  1600
 total energy-change (2. order) :-0.2043449E-02  (-0.8187264E-05)
 number of electron     368.0000002 magnetization 
 augmentation part        9.0506512 magnetization 

 Broyden mixing:
  rms(total) = 0.57311E-03    rms(broyden)= 0.57304E-03
  rms(prec ) = 0.74774E-03
  weight for this iteration     100.00

 eigenvalues of (default mixing * dielectric matrix)
  average eigenvalue GAMMA=   2.4149
  8.8368  5.0291  2.9179  2.3155  2.3155  1.7582  1.4654  1.4654  1.2166  0.9562
  0.9562  1.0806  1.0806

 Free energy of the ion-electron system (eV)
  ---------------------------------------------------
  alpha Z        PSCENC =        91.34886789
  Ewald energy   TEWEN  =    119077.87667035
  -Hartree energ DENC   =   -130164.92428941
  -exchange      EXHF   =         0.00000000
  -V(xc)+E(xc)   XCENC  =      1276.40092598
  PAW double counting   =     40571.71442105   -40635.57961889
  entropy T*S    EENTRO =        -0.07169189
  eigenvalues    EBANDS =     -4583.74093499
  atomic energy  EATOM  =     13537.65479391
  Solvation  Ediel_sol  =         0.00000000
  ---------------------------------------------------
  free energy    TOTEN  =      -829.32085601 eV

  energy without entropy =     -829.24916411  energy(sigma->0) =     -829.28501006


--------------------------------------------------------------------------------------------------------




--------------------------------------- Iteration      1(  19)  ---------------------------------------


    POTLOK:  cpu time      0.3227: real time      0.3227
    SETDIJ:  cpu time      0.0403: real time      0.0403
     EDDAV:  cpu time      9.1708: real time      9.1741
       DOS:  cpu time      0.0008: real time      0.0008
    CHARGE:  cpu time      1.1559: real time      1.1574
    MIXING:  cpu time      0.3712: real time      0.3732
    --------------------------------------------
      LOOP:  cpu time     11.0617: real time     11.0684

 eigenvalue-minimisations  :  1368
 total energy-change (2. order) :-0.1030252E-02  (-0.3590407E-05)
 number of electron     368.0000002 magnetization 
 augmentation part        9.0506459 magnetization 

 Broyden mixing:
  rms(total) = 0.33572E-03    rms(broyden)= 0.33570E-03
  rms(prec ) = 0.41323E-03
  weight for this iteration     100.00

 eigenvalues of (default mixing * dielectric matrix)
  average eigenvalue GAMMA=   2.4235
  8.9707  5.6185  3.2375  2.3823  2.3823  1.9789  1.4172  1.4172  1.2807  1.2807
  0.9446  0.9710  1.0235  1.0235

 Free energy of the ion-electron system (eV)
  ---------------------------------------------------
  alpha Z        PSCENC =        91.34886789
  Ewald energy   TEWEN  =    119077.87667035
  -Hartree energ DENC   =   -130165.25598730
  -exchange      EXHF   =         0.00000000
  -V(xc)+E(xc)   XCENC  =      1276.39965428
  PAW double counting   =     40570.20258503   -40634.06737022
  entropy T*S    EENTRO =        -0.07169976
  eigenvalues    EBANDS =     -4583.40940043
  atomic energy  EATOM  =     13537.65479391
  Solvation  Ediel_sol  =         0.00000000
  ---------------------------------------------------
  free energy    TOTEN  =      -829.32188626 eV

  energy without entropy =     -829.25018650  energy(sigma->0) =     -829.28603638


--------------------------------------------------------------------------------------------------------




--------------------------------------- Iteration      1(  20)  ---------------------------------------


    POTLOK:  cpu time      0.3205: real time      0.3205
    SETDIJ:  cpu time      0.0403: real time      0.0402
     EDDAV:  cpu time      9.2352: real time      9.2386
       DOS:  cpu time      0.0008: real time      0.0008
    CHARGE:  cpu time      1.1563: real time      1.1569
    MIXING:  cpu time      0.3850: real time      0.3856
    --------------------------------------------
      LOOP:  cpu time     11.1380: real time     11.1427

 eigenvalue-minimisations  :  1376
 total energy-change (2. order) :-0.3204583E-03  (-0.5652855E-06)
 number of electron     368.0000002 magnetization 
 augmentation part        9.0506509 magnetization 

 Broyden mixing:
  rms(total) = 0.20762E-03    rms(broyden)= 0.20762E-03
  rms(prec ) = 0.25137E-03
  weight for this iteration     100.00

 eigenvalues of (default mixing * dielectric matrix)
  average eigenvalue GAMMA=   2.4618
  9.1932  5.9254  3.7065  2.5104  2.5104  1.8826  1.7223  1.5162  1.5162  1.2616
  1.0610  1.0610  0.9674  0.9674  1.1249

 Free energy of the ion-electron system (eV)
  ---------------------------------------------------
  alpha Z        PSCENC =        91.34886789
  Ewald energy   TEWEN  =    119077.87667035
  -Hartree energ DENC   =   -130165.36270590
  -exchange      EXHF   =         0.00000000
  -V(xc)+E(xc)   XCENC  =      1276.39827139
  PAW double counting   =     40569.90973627   -40633.77444278
  entropy T*S    EENTRO =        -0.07169690
  eigenvalues    EBANDS =     -4583.30170094
  atomic energy  EATOM  =     13537.65479391
  Solvation  Ediel_sol  =         0.00000000
  ---------------------------------------------------
  free energy    TOTEN  =      -829.32220672 eV

  energy without entropy =     -829.25050981  energy(sigma->0) =     -829.28635827


--------------------------------------------------------------------------------------------------------




--------------------------------------- Iteration      1(  21)  ---------------------------------------


    POTLOK:  cpu time      0.3207: real time      0.3205
    SETDIJ:  cpu time      0.0402: real time      0.0402
     EDDAV:  cpu time      8.3917: real time      8.3950
       DOS:  cpu time      0.0007: real time      0.0007
    CHARGE:  cpu time      1.1656: real time      1.1661
    MIXING:  cpu time      0.3976: real time      0.3980
    --------------------------------------------
      LOOP:  cpu time     10.3164: real time     10.3206

 eigenvalue-minimisations  :  1208
 total energy-change (2. order) :-0.1902202E-03  (-0.2083330E-06)
 number of electron     368.0000002 magnetization 
 augmentation part        9.0506424 magnetization 

 Broyden mixing:
  rms(total) = 0.79486E-04    rms(broyden)= 0.79474E-04
  rms(prec ) = 0.10474E-03
  weight for this iteration     100.00

 eigenvalues of (default mixing * dielectric matrix)
  average eigenvalue GAMMA=   2.4386
  9.1975  6.2340  3.9756  2.6311  2.4197  2.1160  1.8793  1.4989  1.3841  1.3841
  1.2210  1.0953  0.9650  0.9650  1.0256  1.0256

 Free energy of the ion-electron system (eV)
  ---------------------------------------------------
  alpha Z        PSCENC =        91.34886789
  Ewald energy   TEWEN  =    119077.87667035
  -Hartree energ DENC   =   -130165.46911485
  -exchange      EXHF   =         0.00000000
  -V(xc)+E(xc)   XCENC  =      1276.39824179
  PAW double counting   =     40569.72848855   -40633.59358130
  entropy T*S    EENTRO =        -0.07169927
  eigenvalues    EBANDS =     -4583.19506400
  atomic energy  EATOM  =     13537.65479391
  Solvation  Ediel_sol  =         0.00000000
  ---------------------------------------------------
  free energy    TOTEN  =      -829.32239694 eV

  energy without entropy =     -829.25069766  energy(sigma->0) =     -829.28654730


[...]
   -.185E+02 -.953E+01 -.165E+03   0.184E+02 0.922E+01 0.165E+03   -.386E+00 -.495E+00 -.678E+00   0.362E-05 0.277E-05 -.126E-05
   -.284E+02 -.546E+01 -.147E+03   0.282E+02 0.559E+01 0.147E+03   -.818E+00 0.754E+00 -.632E-01   0.945E-05 -.234E-05 -.194E-05
   -.129E+02 0.132E+02 -.573E+02   0.132E+02 -.139E+02 0.572E+02   0.435E-01 0.518E-01 0.314E+00   0.723E-05 -.171E-05 -.222E-05
   -.369E+02 0.124E+02 -.140E+03   0.375E+02 -.137E+02 0.140E+03   -.103E+00 -.715E+00 -.110E+01   0.606E-05 -.571E-06 -.728E-06
   -.130E+02 -.124E+02 -.389E+02   0.129E+02 0.137E+02 0.385E+02   0.306E+00 0.101E+01 0.104E+01   0.598E-05 -.147E-05 -.352E-06
   -.240E+02 -.441E+01 -.105E+03   0.238E+02 0.469E+01 0.105E+03   0.468E+00 0.102E+01 -.477E+00   0.302E-05 -.192E-05 0.372E-06
   -.686E+01 0.149E+02 -.153E+02   0.744E+01 -.161E+02 0.155E+02   0.600E+00 -.924E+00 -.891E+00   0.354E-05 0.224E-05 -.133E-05
   -.345E+02 0.671E+01 -.126E+03   0.353E+02 -.686E+01 0.126E+03   0.928E+00 0.211E+00 -.137E+01   0.531E-05 -.158E-05 -.689E-06
   -.781E+01 -.118E+02 -.278E+02   0.725E+01 0.120E+02 0.281E+02   0.125E-01 -.337E-01 0.184E+00   0.601E-05 0.142E-05 -.189E-05
   -.162E+02 -.120E+02 -.105E+03   0.153E+02 0.129E+02 0.106E+03   -.715E+00 -.763E+00 -.487E+00   0.409E-05 -.163E-05 -.188E-05
   0.145E+02 0.111E+02 0.546E+02   -.147E+02 -.111E+02 -.550E+02   0.634E+00 -.258E+00 0.657E+00   0.384E-05 0.356E-05 -.232E-05
   -.161E+02 0.606E+01 -.502E+02   0.164E+02 -.693E+01 0.507E+02   -.644E+00 -.596E+00 0.212E+00   -.543E-05 0.386E-05 0.902E-06
   0.929E+01 -.207E+02 0.603E+02   -.873E+01 0.225E+02 -.605E+02   0.939E+00 0.569E+00 -.314E+00   -.356E-05 -.338E-05 0.199E-05
   -.113E+02 -.425E+01 -.456E+02   0.120E+02 0.439E+01 0.457E+02   0.187E+00 0.789E+00 -.105E+01   -.299E-05 0.314E-05 -.318E-06
   0.364E+02 0.122E+02 0.138E+03   -.378E+02 -.116E+02 -.138E+03   0.303E-02 0.771E+00 0.123E+01   0.944E-06 0.435E-07 0.334E-06
   0.739E+01 -.284E+01 0.960E+01   -.920E+01 0.365E+01 -.932E+01   -.640E-01 -.224E+00 0.131E+00   0.179E-05 0.262E-05 -.156E-05
   0.101E+02 -.758E+01 0.949E+02   -.971E+01 0.736E+01 -.946E+02   -.350E+00 -.134E+01 -.474E-01   -.290E-06 0.114E-05 -.278E-06
   -.631E+01 -.328E+01 0.383E+02   0.675E+01 0.291E+01 -.380E+02   0.120E+01 -.545E+00 -.142E+01   -.625E-05 -.317E-05 -.163E-06
   -.569E+01 0.180E+02 0.137E+03   0.709E+01 -.197E+02 -.137E+03   -.633E+00 -.679E+00 0.110E+01   -.975E-05 0.539E-05 0.130E-06
   -.555E+01 0.165E+02 0.101E+03   0.590E+01 -.171E+02 -.101E+03   0.756E+00 0.160E+01 0.616E+00   -.627E-05 -.459E-05 0.101E-05
   0.495E+01 -.175E+02 0.582E+02   -.602E+01 0.186E+02 -.575E+02   -.956E+00 0.193E+01 -.138E+01   -.315E-05 0.341E-05 0.206E-07
   -.143E+02 -.230E+01 0.152E+03   0.144E+02 0.830E+00 -.153E+03   -.766E+00 -.751E+00 0.218E+01   0.310E-05 0.295E-05 0.124E-05
   -.430E+01 0.763E+01 0.739E+02   0.391E+01 -.920E+01 -.737E+02   0.627E+00 -.949E+00 -.726E+00   0.477E-05 -.747E-06 0.223E-06
   -.103E+02 0.134E+02 0.468E+02   0.985E+01 -.131E+02 -.462E+02   0.211E-02 -.305E+00 -.177E+01   0.280E-05 0.366E-05 0.249E-06
   -.231E+02 -.101E+02 0.119E+03   0.233E+02 0.101E+02 -.119E+03   0.302E+00 -.463E+00 0.214E+01   0.382E-06 -.247E-05 0.223E-06
   -.239E+02 0.120E+02 0.160E+02   0.240E+02 -.121E+02 -.158E+02   0.487E+00 0.495E+00 0.271E+00   -.636E-05 0.382E-06 -.232E-05
   -.367E+02 -.528E+01 0.711E+02   0.365E+02 0.677E+01 -.711E+02   0.967E+00 -.877E-01 -.579E+00   -.573E-05 -.993E-06 -.266E-05
   0.352E+01 0.683E+02 -.815E+02   -.475E+01 -.690E+02 0.821E+02   0.194E+01 0.959E+00 -.493E+00   -.151E-05 -.348E-05 -.219E-06
   -.250E+02 -.672E+02 0.100E+02   0.234E+02 0.683E+02 -.104E+02   0.703E+00 -.191E+01 0.957E+00   0.286E-05 0.507E-05 -.425E-06
   -.249E+02 0.658E+02 0.130E+03   0.290E+02 -.663E+02 -.129E+03   -.532E+00 0.294E+01 0.999E-01   0.421E-05 -.945E-06 0.126E-05
   -.254E+02 -.636E+02 0.150E+03   0.275E+02 0.635E+02 -.151E+03   -.214E+01 -.923E+00 0.936E+00   0.307E-05 0.109E-05 0.576E-07
   0.233E+01 -.214E+01 0.615E+02   -.298E+01 0.294E+01 -.620E+02   -.212E+01 0.340E+00 -.835E+00   0.336E-05 -.592E-05 0.302E-05
   0.217E+02 -.125E+02 0.346E+02   -.227E+02 0.126E+02 -.343E+02   0.137E+00 0.145E+00 -.112E+01   0.481E-05 -.142E-05 0.812E-06
   0.123E+01 0.182E+02 0.638E+01   -.725E+00 -.197E+02 -.660E+01   -.361E+00 -.134E+01 0.299E+00   -.451E-05 0.305E-05 -.224E-05
   -.334E+01 -.177E+02 0.394E+02   0.352E+01 0.193E+02 -.399E+02   0.169E+00 0.266E+00 0.796E+00   -.137E-05 -.200E-05 -.173E-06
   0.296E+02 -.126E+02 -.119E+03   -.291E+02 0.127E+02 0.120E+03   0.128E+01 -.327E+00 -.123E+01   -.950E-05 -.277E-05 -.271E-05
   0.606E+00 0.174E+01 -.244E+02   0.982E-01 -.157E+01 0.249E+02   0.110E+01 -.732E-01 0.112E+00   -.117E-04 0.160E-05 -.323E-05
   0.171E+02 0.646E+01 -.108E+03   -.173E+02 -.590E+01 0.108E+03   -.475E+00 0.102E+01 -.679E+00   -.564E-05 -.492E-05 -.565E-06
   0.267E+01 -.918E+01 -.197E+02   -.252E+01 0.860E+01 0.193E+02   0.241E+00 -.261E+00 0.134E+01   -.675E-05 0.461E-05 -.217E-05
   0.139E+02 -.141E+02 -.128E+03   -.142E+02 0.146E+02 0.129E+03   -.999E+00 0.528E+00 -.730E+00   -.191E-05 -.168E-05 -.978E-06
   0.134E+02 0.123E+02 -.729E+02   -.143E+02 -.131E+02 0.727E+02   -.479E+00 -.161E-01 -.135E+00   -.127E-05 0.212E-05 -.637E-06
   0.678E+01 0.137E+02 -.998E+02   -.663E+01 -.146E+02 0.994E+02   -.493E-01 -.523E+00 0.650E+00   -.354E-05 0.988E-07 -.147E-05
   0.119E+02 -.119E+02 -.117E+03   -.126E+02 0.122E+02 0.117E+03   -.224E+00 -.262E+00 -.626E+00   -.287E-05 0.184E-06 -.138E-05
   -.578E+01 -.650E+01 -.113E+03   0.576E+01 0.664E+01 0.113E+03   -.904E-01 0.468E-01 0.675E-01   -.249E-05 0.967E-07 -.119E-05
   -.963E+01 -.267E+01 -.134E+03   0.978E+01 0.478E+01 0.134E+03   0.322E+00 0.113E+01 0.381E+00   -.752E-06 -.345E-05 -.149E-05
   -.176E+02 0.102E+02 -.944E+02   0.179E+02 -.101E+02 0.942E+02   -.197E+00 -.299E+00 -.254E+00   0.420E-05 0.995E-06 -.140E-05
   -.195E+02 -.707E+01 -.146E+03   0.192E+02 0.616E+01 0.146E+03   -.286E+00 -.134E+01 -.159E+01   0.556E-05 0.287E-05 -.117E-05
   -.683E+01 -.121E+02 -.119E+02   0.727E+01 0.132E+02 0.114E+02   0.291E+00 0.470E+00 0.715E+00   0.854E-05 0.139E-05 -.323E-05
   -.245E+02 0.705E+01 -.524E+02   0.261E+02 -.680E+01 0.516E+02   0.114E+01 0.720E+00 0.577E+00   0.698E-05 0.403E-07 -.239E-05
   0.548E+01 0.200E+02 0.161E+02   -.612E+01 -.221E+02 -.157E+02   -.107E+01 -.736E+00 -.921E+00   0.701E-05 0.117E-05 -.246E-05
   0.881E+01 -.327E+02 0.427E+02   -.894E+01 0.353E+02 -.431E+02   0.599E+00 0.130E+01 0.114E+01   0.465E-05 -.907E-06 -.141E-05
   0.808E+01 -.108E+02 0.854E+02   -.736E+01 0.117E+02 -.865E+02   0.534E+00 0.292E+00 0.123E+01   0.377E-05 0.715E-06 -.136E-05
   0.123E+02 0.110E+02 0.423E+02   -.126E+02 -.119E+02 -.427E+02   0.393E-02 0.327E-01 0.134E+01   0.520E-05 0.449E-06 -.255E-06
   0.313E+02 0.970E+01 0.893E+02   -.321E+02 -.969E+01 -.893E+02   -.234E+00 0.854E-01 0.529E+00   0.564E-05 0.113E-06 -.230E-05
   0.110E+02 -.141E+02 0.433E+02   -.112E+02 0.143E+02 -.434E+02   -.983E+00 -.259E+00 0.174E+00   0.456E-05 -.501E-06 -.127E-05
   0.133E+02 -.174E+01 0.767E+02   -.133E+02 0.113E+01 -.765E+02   -.661E+00 -.992E+00 -.111E+01   0.197E-05 -.221E-05 -.251E-05
   -.615E+01 0.147E+02 -.187E+02   0.656E+01 -.151E+02 0.190E+02   -.482E+00 -.998E+00 -.359E+00   -.135E-06 0.251E-05 0.300E-06
   0.345E+02 0.929E+01 0.151E+03   -.348E+02 -.895E+01 -.152E+03   0.308E+00 0.469E+00 0.186E+01   -.313E-05 -.750E-06 0.415E-06
   0.134E+02 -.879E+01 0.428E+02   -.138E+02 0.890E+01 -.428E+02   -.639E-01 0.375E+00 -.501E+00   -.318E-05 -.321E-05 -.114E-05
   0.224E+02 -.802E+00 0.151E+03   -.218E+02 -.118E+00 -.151E+03   -.303E+00 -.651E+00 -.112E+01   -.943E-07 0.191E-05 -.768E-06
   0.608E+01 0.114E+02 0.579E+02   -.596E+01 -.116E+02 -.576E+02   -.414E+00 0.113E+01 -.226E+00   0.318E-06 -.414E-05 -.184E-05
   0.214E+02 0.135E+02 0.207E+03   -.214E+02 -.140E+02 -.207E+03   -.331E-01 -.477E+00 0.991E-01   0.169E-05 0.639E-06 0.138E-06
   0.309E+02 -.164E+02 0.221E+03   -.312E+02 0.166E+02 -.222E+03   -.768E-02 -.884E+00 0.267E+01   0.210E-05 -.370E-05 0.820E-07
   0.843E+01 -.160E+02 0.186E+03   -.820E+01 0.174E+02 -.186E+03   0.455E+00 0.405E+00 0.410E+00   -.767E-05 0.463E-08 0.838E-06
   -.709E+00 0.106E+02 0.146E+03   0.694E+00 -.110E+02 -.145E+03   0.313E-01 -.247E+00 -.763E+00   -.895E-05 0.113E-05 0.116E-05
   -.632E+01 0.905E+01 0.143E+03   0.605E+01 -.900E+01 -.143E+03   -.328E+00 0.255E+00 -.109E+01   -.788E-05 -.452E-05 0.423E-06
   -.143E+02 -.161E+02 0.186E+03   0.159E+02 0.163E+02 -.186E+03   0.133E+01 -.145E+00 0.184E+01   -.900E-05 0.216E-06 0.118E-05
   -.202E+02 -.262E+02 0.147E+03   0.208E+02 0.286E+02 -.148E+03   0.514E-01 0.996E+00 0.337E-01   0.633E-06 -.740E-06 0.182E-06
   -.846E+00 0.155E+02 0.114E+03   -.748E+00 -.149E+02 -.113E+03   -.871E+00 0.114E+01 -.213E+01   0.336E-05 -.453E-06 0.111E-05
   -.132E+02 0.196E+02 0.214E+03   0.109E+02 -.209E+02 -.215E+03   -.678E+00 -.598E+00 0.117E+01   0.620E-06 0.234E-05 -.709E-07
   -.355E+02 -.248E+02 0.176E+03   0.363E+02 0.266E+02 -.176E+03   -.385E+00 0.920E+00 0.474E+00   0.115E-05 -.408E-05 -.696E-06
   -.576E+02 0.609E+01 0.159E+03   0.596E+02 -.777E+01 -.158E+03   0.184E+01 -.107E+01 0.107E+01   -.181E-05 0.374E-06 -.127E-05
   -.468E+02 -.158E+01 0.150E+03   0.468E+02 0.549E+00 -.150E+03   0.111E+00 -.113E+01 0.221E+00   -.149E-05 0.202E-05 -.805E-06
   -.358E+02 0.643E+02 0.141E+03   0.317E+02 -.644E+02 -.142E+03   0.710E+00 0.186E+01 -.230E+00   0.266E-05 0.194E-06 -.431E-06
   -.541E+02 -.705E+02 0.176E+03   0.524E+02 0.710E+02 -.178E+03   0.427E+00 -.128E+01 0.158E+01   0.470E-05 -.100E-05 -.382E-06
 -----------------------------------------------------------------------------------------------
   -.136E+01 0.433E+00 -.902E+00   -.625E-12 0.213E-12 -.853E-13   0.129E+01 -.266E+00 0.828E+00   -.689E-05 0.333E-05 -.546E-04
 
 
 POSITION                                       TOTAL-FORCE (eV/Angst)
 -----------------------------------------------------------------------------------
      0.07520      0.89047     17.14940         0.612533     -2.646732     -1.562336
      0.18372      2.21166     16.88680        -1.294614      1.475998      0.182140
      1.30028      0.16132     17.23440        -1.672145      0.457303      0.604620
      1.34140      2.89102     17.10000         1.864647     -1.047504      1.512253
      2.42630      0.83768     17.73110         1.425485     -0.020812      0.206746
      2.45820      2.22281     17.73070        -0.619452     -0.072888     -0.650503
      3.69684      0.19604     17.93520        -0.320626      0.059765     -0.031688
      3.68551      2.87397     17.98960        -0.714575      0.565797      0.592875
      4.89734      0.87660     18.32450         0.458019     -3.870574     -1.031705
      4.88477      2.20582     18.34470         0.741431      2.590561     -0.150545
      6.18973      0.18151     18.30350        -1.070025      1.698732      0.657890
      6.15513      2.86983     18.39770         1.196964     -0.520858      1.067869
      7.41450      0.84405     18.47440         1.267791      1.014361      0.275365
      7.44801      2.24747     18.56110        -1.845238     -2.002273     -0.651083
      8.67632      0.19494     18.41310         0.977144     -1.152666      0.055878
      8.68974      2.86649     18.43160         0.696148      0.335535     -0.175670
      9.98206      0.83179     18.34440        -1.327709     -0.288230     -0.137613
      9.95249      2.21581     18.28050        -0.489997     -0.810489     -0.093109
     11.19170      0.13540     18.02680        -0.942961      0.883434     -0.012179
     11.10750      2.85184     17.79300         0.324647     -0.645684      0.155332
     12.38400      0.83361     17.73760         0.439895     -1.964837     -0.570700
     12.32060      2.16363     17.50770         0.239894      2.235629      0.622806
     13.57420      0.12946     17.35070         0.244907      1.303396     -0.054453
     13.47840      2.88677     17.07490         1.190454     -2.119788     -0.674909
     14.78530      0.83740     17.11170         1.685068      0.053987     -1.228374
     14.73590      2.20712     16.84300        -0.554478      0.175162      0.497508
     16.05010      0.19643     16.73410        -1.649849      0.122760      0.264686
     15.88290      2.85659     16.29280         0.409633     -0.238914      0.232163
     17.22440      0.85854     16.31480        -0.380740     -1.460962      0.657748
     17.10580      2.17024     16.02950         1.497644      2.381818     -0.554623
     18.41320      0.14714     16.01530         0.853565      0.926318     -0.952668
     18.31260      2.83834     15.51410        -1.347027      1.324071      0.904887
     19.61400      0.85110     15.67400        -1.872911      0.587280      0.411307
     19.56560      2.23115     15.43990         0.011854     -1.558650      0.238310
     20.78580      0.18179     15.44470         1.637766     -0.912994     -1.050215
     20.79410      2.87623     15.18840         0.773672     -2.422704      0.934487
     22.03980      0.78572     15.28850         1.106083      0.954008      0.588848
     22.07370      2.14573     15.34070        -2.019435      3.016552     -0.754330
     23.32120      0.18147     15.21480        -0.619910     -2.224716      1.321976
     23.27580      2.88553     15.32720         0.242922     -2.519641     -0.563599
     24.50640      0.85675     15.57200        -0.415250      0.052597     -1.158237
     24.51480      2.22430     15.43680         0.479385     -0.442454      1.692851
     25.69960      0.18154     15.86770         0.642327      0.340839      0.394956
     25.72360      2.88744     15.70750         0.836020      1.400056     -0.576816
     26.74650      0.88210     16.45330         0.711623      0.229971      0.153392
     26.83900      2.25385     16.25960        -0.861516     -0.821380      0.600546
      0.36377      4.80909     16.15440         3.587126      2.488190      0.863928
      0.42467      6.25244     16.14370        -0.071469     -1.044861      0.444614
      1.49890      4.20316     16.79100        -2.762484      1.142812     -1.384927
      1.41927      6.93516     16.83140        -0.947093      0.231735     -0.818941
      2.62104      4.93680     17.22460         0.143937     -2.810736      0.081597
      2.61393      6.27016     17.15010         0.352870      1.820991      0.336862
      3.70070      4.25685     17.84930         1.711628     -0.241526     -0.612621
      3.74320      6.94937     17.61960         1.807542      0.087151      0.606187
      4.97254      4.88196     18.05610        -0.666396      1.575731     -0.873714
      4.98658      6.27713     17.85720         0.389735     -0.842970      0.887862
      6.21165      4.22249     18.29660        -1.260407      1.032367     -0.427564
      6.22948      6.93719     18.14890        -1.404755     -0.898992     -0.327976
      7.44642      4.90383     18.27710         0.100063     -1.384046      0.319461
      7.45807      6.26020     18.29320        -1.003246      0.005192     -0.582217
      8.68798      4.23123     18.27270        -0.104657      0.193877      0.117670
      8.68175      6.88397     18.32250         0.474269      3.238963      0.600527
      9.91374      4.88992     18.05490         0.062436     -0.195771     -0.408471
      9.92041      6.27068     18.16690        -0.619961     -2.241739     -1.036008
     11.08330      4.20276     17.64420         0.739637      1.522674      0.208075
     11.08990      6.87873     17.79740         2.785398      0.972882     -0.234468
     12.29140      4.89368     17.22520        -1.702237     -2.922685     -0.546126
     12.25670      6.21062     17.23590         0.467104      3.986036      0.704830
     13.44950      4.21705     16.80870         1.247602      1.153094      0.107354
     13.51470      6.91721     16.97140        -0.340604     -0.864745      0.998827
     14.69070      4.90196     16.43820        -1.040087      0.093295      0.447048
     14.74870      6.28140     16.59210        -1.188008     -0.030480      0.134398
     15.89210      4.24663     16.14850        -0.580849     -1.598103     -0.854286
     16.00190      6.94851     16.48460        -0.077450     -1.464493     -0.127774
     17.07040      4.88805     15.71050        -0.006578      0.805957      0.879001
     17.15290      6.24430     15.98310        -0.461182      0.490650     -0.453010
     18.28300      4.24877     15.40150         0.375713     -1.573627     -0.963999
     18.37870      6.89065     15.72010        -0.296942      0.858383      0.014619
     19.50530      4.91522     15.07000         0.013245     -0.909010      0.031303
     19.52480      6.29853     15.11300        -0.296533     -0.711180      1.678380
     20.75940      4.20929     15.01560         0.679251      1.811808      0.039399
     20.77510      6.94077     15.15200         0.017083     -0.599375     -0.314486
     22.03630      4.87270     15.04250        -0.590614      0.304414     -1.071398
     22.00010      6.25678     14.99290         2.945156      0.077058      0.956443
     23.29160      4.20083     15.11870         0.673204      3.394261     -0.485293
     23.35250      6.87143     15.18130        -2.465220      1.689027     -1.320165
     24.61660      4.90635     15.08530        -2.944426     -1.875499      0.100261
     24.60470      6.23857     15.15850         0.476204      2.788066      0.267919
     25.77510      4.26876     15.39960         3.804193     -2.753928      1.468100
     25.83880      6.97450     15.48090         0.086305     -2.158087      0.176639
     27.04830      4.86412     15.69270        -3.366100      1.732063     -1.985103
     27.06250      6.28374     15.63160        -1.291465     -0.795006      0.165159
 -----------------------------------------------------------------------------------
    total drift:                               -0.068319      0.166867     -0.074668


--------------------------------------------------------------------------------------------------------



  FREE ENERGIE OF THE ION-ELECTRON SYSTEM (eV)
  ---------------------------------------------------
  free  energy   TOTEN  =      -829.32249319 eV

  energy  without entropy=     -829.25079483  energy(sigma->0) =     -829.28664401
 


--------------------------------------------------------------------------------------------------------


    POTLOK:  cpu time      0.4536: real time      0.4535


--------------------------------------------------------------------------------------------------------


     LOOP+:  cpu time    332.5282: real time    332.7130
    4ORBIT:  cpu time      0.0000: real time      0.0000

 total amount of memory used by VASP MPI-rank0  2294504. kBytes
=======================================================================

   base                                    :      30000. kBytes
   nonlr-proj                              :      15070. kBytes
   fftplans                                :     436558. kBytes
   grid                                    :     732614. kBytes
   one-center                              :        282. kBytes
   wavefun                                 :    1079980. kBytes
 
  
  
 General timing and accounting informations for this job:
 ========================================================
  
                  Total CPU time used (sec):      365.674
                            User time (sec):      357.330
                          System time (sec):        8.344
                         Elapsed time (sec):      365.943
  
                   Maximum memory used (kb):     3737040.
                   Average memory used (kb):          N/A
  
                          Minor page faults:      3179837
                          Major page faults:         5006
                 Voluntary context switches:         9613
