unknown system                          
            1
    28.050000    0.000000    0.000000
     0.000000    8.100000    0.000000
     0.000000    0.000000   33.500000
   C 
    92
Direct configuration=     1
   0.00268095  0.10993432  0.51192239
   0.00654980  0.27304444  0.50408358
   0.04635579  0.01991617  0.51445970
   0.04782175  0.35691605  0.51044776
   0.08649911  0.10341765  0.52928657
   0.08763636  0.27442099  0.52927463
   0.13179465  0.02420284  0.53537910
   0.13139073  0.35481111  0.53700299
   0.17459323  0.10822222  0.54700000
   0.17414510  0.27232346  0.54760299
   0.22066774  0.02240914  0.54637313
   0.21943422  0.35430000  0.54918507
   0.26433155  0.10420333  0.55147463
   0.26552620  0.27746543  0.55406269
   0.30931622  0.02406654  0.54964478
   0.30979465  0.35388765  0.55019701
   0.35586667  0.10269037  0.54759403
   0.35481248  0.27355679  0.54568657
   0.39899109  0.01671580  0.53811343
   0.39598930  0.35207901  0.53113433
   0.44149733  0.10291519  0.52948060
   0.43923708  0.26711481  0.52261791
   0.48392870  0.01598321  0.51793134
   0.48051337  0.35639136  0.50969851
   0.52710517  0.10338284  0.51079701
   0.52534403  0.27248395  0.50277612
   0.57219608  0.02425086  0.49952537
   0.56623529  0.35266543  0.48635224
   0.61406061  0.10599247  0.48700896
   0.60983244  0.26793086  0.47849254
   0.65644207  0.01816506  0.47806866
   0.65285561  0.35041235  0.46310746
   0.69925134  0.10507370  0.46788060
   0.69752585  0.27545062  0.46089254
   0.74102674  0.02244346  0.46103582
   0.74132264  0.35509012  0.45338507
   0.78573262  0.09700235  0.45637313
   0.78694118  0.26490494  0.45793134
   0.83141533  0.02240407  0.45417313
   0.82979679  0.35623827  0.45752836
   0.87366845  0.10577210  0.46483582
   0.87396791  0.27460494  0.46080000
   0.91620677  0.02241222  0.47366269
   0.91706239  0.35647407  0.46888060
   0.95352941  0.10890148  0.49114328
   0.95682709  0.27825309  0.48536119
   0.01296863  0.59371481  0.48222090
   0.01513971  0.77190617  0.48190149
   0.05343672  0.51890864  0.50122388
   0.05059786  0.85619259  0.50242985
   0.09344171  0.60948148  0.51416716
   0.09318824  0.77409383  0.51194328
   0.13193226  0.52553704  0.53281493
   0.13344742  0.85794691  0.52595821
   0.17727415  0.60271111  0.53898806
   0.17777469  0.77495432  0.53305075
   0.22144920  0.52129506  0.54616716
   0.22208485  0.85644321  0.54175821
   0.26546952  0.60541111  0.54558507
   0.26588485  0.77286420  0.54606567
   0.30973191  0.52237407  0.54545373
   0.30950980  0.84987284  0.54694030
   0.35343102  0.60369383  0.53895224
   0.35366881  0.77415802  0.54229552
   0.39512656  0.51885926  0.52669254
   0.39536185  0.84922593  0.53126567
   0.43819608  0.60415802  0.51418507
   0.43695900  0.76674321  0.51450448
   0.47948307  0.52062346  0.50175224
   0.48180749  0.85397654  0.50660896
   0.52373262  0.60518025  0.49069254
   0.52580036  0.77548148  0.49528657
   0.56656328  0.52427531  0.48204478
   0.57047772  0.85784074  0.49207761
   0.60857041  0.60346296  0.46897015
   0.61151159  0.77090123  0.47710746
   0.65180036  0.52453951  0.45974627
   0.65521212  0.85069753  0.46925672
   0.69537611  0.60681728  0.44985075
   0.69607130  0.77759630  0.45113433
   0.74008556  0.51966543  0.44822687
   0.74064528  0.85688519  0.45229851
   0.78560784  0.60156790  0.44902985
   0.78431729  0.77244198  0.44754925
   0.83036007  0.51862099  0.45130448
   0.83253119  0.84832469  0.45317313
   0.87759715  0.60572222  0.45030746
   0.87717291  0.77019383  0.45249254
   0.91889840  0.52700741  0.45968955
   0.92116934  0.86104938  0.46211642
   0.96428877  0.60050864  0.46843881
   0.96479501  0.77577037  0.46661493
