  92  92   0   0
  0.8273226E+02  0.2805000E-08  0.8100000E-09  0.3350000E-08  0.5000000E-15
   1.0000000000000000E-004
  CAR 
 unknown system                          
      3.91764258    -25.18538876  301     -3.13882591      1.00000000
    -25.185  0.0000E+00  0.0000E+00
    -25.088  0.0000E+00  0.0000E+00
    -24.991  0.0000E+00  0.0000E+00
    -24.894  0.0000E+00  0.0000E+00
    -24.797  0.0000E+00  0.0000E+00
    -24.700  0.0000E+00  0.0000E+00
    -24.603  0.0000E+00  0.0000E+00
    -24.506  0.0000E+00  0.0000E+00
    -24.409  0.0000E+00  0.0000E+00
    -24.312  0.4006E-14  0.3886E-15
    -24.215  0.8529E-12  0.8313E-13
    -24.118  0.1101E-09  0.1076E-10
    -24.021  0.8992E-08  0.8831E-09
    -23.924  0.4664E-06  0.4613E-07
    -23.827  0.1545E-04  0.1545E-05
    -23.730  0.3289E-03  0.3345E-04
    -23.633  0.4551E-02  0.4750E-03
    -23.536  0.4149E-01  0.4500E-02
    -23.439  0.2535E+00  0.2909E-01
    -23.342  0.1061E+01  0.1320E+00
    -23.245  0.3114E+01  0.4341E+00
    -23.148  0.6589E+01  0.1073E+01
    -23.051  0.1040E+02  0.2083E+01
    -22.954  0.1291E+02  0.3335E+01
    -22.857  0.1372E+02  0.4666E+01
    -22.760  0.1398E+02  0.6022E+01
    -22.663  0.1458E+02  0.7436E+01
    -22.566  0.1512E+02  0.8903E+01
    -22.469  0.1483E+02  0.1034E+02
    -22.372  0.1378E+02  0.1168E+02
    -22.275  0.1308E+02  0.1295E+02
    -22.178  0.1351E+02  0.1426E+02
    -22.081  0.1438E+02  0.1565E+02
    -21.984  0.1468E+02  0.1708E+02
    -21.887  0.1421E+02  0.1846E+02
    -21.790  0.1340E+02  0.1976E+02
    -21.693  0.1278E+02  0.2100E+02
    -21.596  0.1227E+02  0.2219E+02
    -21.499  0.1166E+02  0.2332E+02
    -21.402  0.1162E+02  0.2444E+02
    -21.305  0.1281E+02  0.2569E+02
    -21.208  0.1451E+02  0.2709E+02
    -21.111  0.1564E+02  0.2861E+02
    -21.014  0.1575E+02  0.3014E+02
    -20.917  0.1457E+02  0.3155E+02
    -20.820  0.1267E+02  0.3278E+02
    -20.723  0.1174E+02  0.3392E+02
    -20.626  0.1241E+02  0.3512E+02
    -20.529  0.1332E+02  0.3642E+02
    -20.432  0.1334E+02  0.3771E+02
    -20.335  0.1314E+02  0.3898E+02
    -20.238  0.1381E+02  0.4032E+02
    -20.141  0.1529E+02  0.4181E+02
    -20.044  0.1630E+02  0.4339E+02
    -19.947  0.1577E+02  0.4492E+02
    -19.850  0.1392E+02  0.4627E+02
    -19.753  0.1212E+02  0.4745E+02
    -19.656  0.1224E+02  0.4863E+02
    -19.559  0.1456E+02  0.5004E+02
    -19.462  0.1653E+02  0.5165E+02
    -19.365  0.1589E+02  0.5319E+02
    -19.268  0.1399E+02  0.5455E+02
    -19.171  0.1337E+02  0.5585E+02
    -19.074  0.1408E+02  0.5721E+02
    -18.977  0.1441E+02  0.5861E+02
    -18.880  0.1379E+02  0.5995E+02
    -18.783  0.1347E+02  0.6125E+02
    -18.686  0.1474E+02  0.6268E+02
    -18.589  0.1668E+02  0.6430E+02
    -18.492  0.1728E+02  0.6598E+02
    -18.395  0.1655E+02  0.6758E+02
    -18.298  0.1619E+02  0.6915E+02
    -18.201  0.1664E+02  0.7077E+02
    -18.104  0.1661E+02  0.7238E+02
    -18.007  0.1517E+02  0.7385E+02
    -17.910  0.1316E+02  0.7513E+02
    -17.813  0.1239E+02  0.7633E+02
    -17.716  0.1305E+02  0.7760E+02
    -17.619  0.1331E+02  0.7889E+02
    -17.522  0.1247E+02  0.8010E+02
    -17.425  0.1184E+02  0.8125E+02
    -17.328  0.1196E+02  0.8241E+02
    -17.231  0.1183E+02  0.8355E+02
    -17.134  0.1107E+02  0.8463E+02
    -17.037  0.1041E+02  0.8564E+02
    -16.940  0.1024E+02  0.8663E+02
    -16.843  0.1045E+02  0.8765E+02
    -16.746  0.1120E+02  0.8873E+02
    -16.648  0.1255E+02  0.8995E+02
    -16.551  0.1383E+02  0.9129E+02
    -16.454  0.1457E+02  0.9270E+02
    -16.357  0.1542E+02  0.9420E+02
    -16.260  0.1674E+02  0.9582E+02
    -16.163  0.1793E+02  0.9756E+02
    -16.066  0.1827E+02  0.9933E+02
    -15.969  0.1745E+02  0.1010E+03
    -15.872  0.1578E+02  0.1026E+03
    -15.775  0.1388E+02  0.1039E+03
    -15.678  0.1228E+02  0.1051E+03
    -15.581  0.1122E+02  0.1062E+03
    -15.484  0.1122E+02  0.1073E+03
    -15.387  0.1356E+02  0.1086E+03
    -15.290  0.1812E+02  0.1103E+03
    -15.193  0.2247E+02  0.1125E+03
    -15.096  0.2438E+02  0.1149E+03
    -14.999  0.2345E+02  0.1172E+03
    -14.902  0.2050E+02  0.1192E+03
    -14.805  0.1665E+02  0.1208E+03
    -14.708  0.1289E+02  0.1220E+03
    -14.611  0.9956E+01  0.1230E+03
    -14.514  0.8484E+01  0.1238E+03
    -14.417  0.8983E+01  0.1247E+03
    -14.320  0.1090E+02  0.1257E+03
    -14.223  0.1263E+02  0.1270E+03
    -14.126  0.1338E+02  0.1283E+03
    -14.029  0.1374E+02  0.1296E+03
    -13.932  0.1405E+02  0.1310E+03
    -13.835  0.1460E+02  0.1324E+03
    -13.738  0.1615E+02  0.1339E+03
    -13.641  0.1837E+02  0.1357E+03
    -13.544  0.1983E+02  0.1376E+03
    -13.447  0.1997E+02  0.1396E+03
    -13.350  0.1946E+02  0.1415E+03
    -13.253  0.1871E+02  0.1433E+03
    -13.156  0.1739E+02  0.1450E+03
    -13.059  0.1581E+02  0.1465E+03
    -12.962  0.1515E+02  0.1480E+03
    -12.865  0.1552E+02  0.1495E+03
    -12.768  0.1567E+02  0.1510E+03
    -12.671  0.1482E+02  0.1524E+03
    -12.574  0.1336E+02  0.1537E+03
    -12.477  0.1246E+02  0.1549E+03
    -12.380  0.1320E+02  0.1562E+03
    -12.283  0.1622E+02  0.1578E+03
    -12.186  0.2101E+02  0.1598E+03
    -12.089  0.2503E+02  0.1623E+03
    -11.992  0.2572E+02  0.1648E+03
    -11.895  0.2330E+02  0.1670E+03
    -11.798  0.2041E+02  0.1690E+03
    -11.701  0.1894E+02  0.1708E+03
    -11.604  0.1820E+02  0.1726E+03
    -11.507  0.1695E+02  0.1742E+03
    -11.410  0.1629E+02  0.1758E+03
    -11.313  0.1786E+02  0.1776E+03
    -11.216  0.2102E+02  0.1796E+03
    -11.119  0.2478E+02  0.1820E+03
    -11.022  0.2890E+02  0.1848E+03
    -10.925  0.3209E+02  0.1879E+03
    -10.828  0.3336E+02  0.1912E+03
    -10.731  0.3395E+02  0.1945E+03
    -10.634  0.3536E+02  0.1979E+03
    -10.537  0.3730E+02  0.2015E+03
    -10.440  0.3837E+02  0.2052E+03
    -10.343  0.3733E+02  0.2088E+03
    -10.246  0.3468E+02  0.2122E+03
    -10.149  0.3270E+02  0.2154E+03
    -10.052  0.3244E+02  0.2185E+03
     -9.955  0.3261E+02  0.2217E+03
     -9.858  0.3286E+02  0.2249E+03
     -9.761  0.3454E+02  0.2282E+03
     -9.664  0.3748E+02  0.2319E+03
     -9.567  0.3967E+02  0.2357E+03
     -9.470  0.4033E+02  0.2396E+03
     -9.373  0.4011E+02  0.2435E+03
     -9.276  0.3859E+02  0.2473E+03
     -9.179  0.3521E+02  0.2507E+03
     -9.082  0.3183E+02  0.2538E+03
     -8.985  0.3105E+02  0.2568E+03
     -8.888  0.3281E+02  0.2600E+03
     -8.791  0.3493E+02  0.2633E+03
     -8.694  0.3609E+02  0.2669E+03
     -8.597  0.3633E+02  0.2704E+03
     -8.500  0.3560E+02  0.2738E+03
     -8.403  0.3362E+02  0.2771E+03
     -8.306  0.3098E+02  0.2801E+03
     -8.209  0.2876E+02  0.2829E+03
     -8.112  0.2730E+02  0.2855E+03
     -8.015  0.2630E+02  0.2881E+03
     -7.918  0.2578E+02  0.2906E+03
     -7.821  0.2583E+02  0.2931E+03
     -7.724  0.2596E+02  0.2956E+03
     -7.627  0.2626E+02  0.2982E+03
     -7.530  0.2750E+02  0.3008E+03
     -7.433  0.2909E+02  0.3036E+03
     -7.336  0.2935E+02  0.3065E+03
     -7.239  0.2812E+02  0.3092E+03
     -7.142  0.2667E+02  0.3118E+03
     -7.044  0.2603E+02  0.3143E+03
     -6.947  0.2617E+02  0.3169E+03
     -6.850  0.2610E+02  0.3194E+03
     -6.753  0.2532E+02  0.3219E+03
     -6.656  0.2464E+02  0.3243E+03
     -6.559  0.2409E+02  0.3266E+03
     -6.462  0.2259E+02  0.3288E+03
     -6.365  0.2026E+02  0.3307E+03
     -6.268  0.1886E+02  0.3326E+03
     -6.171  0.1971E+02  0.3345E+03
     -6.074  0.2242E+02  0.3367E+03
     -5.977  0.2544E+02  0.3391E+03
     -5.880  0.2702E+02  0.3418E+03
     -5.783  0.2609E+02  0.3443E+03
     -5.686  0.2293E+02  0.3465E+03
     -5.589  0.1875E+02  0.3483E+03
     -5.492  0.1473E+02  0.3498E+03
     -5.395  0.1178E+02  0.3509E+03
     -5.298  0.1088E+02  0.3520E+03
     -5.201  0.1205E+02  0.3531E+03
     -5.104  0.1286E+02  0.3544E+03
     -5.007  0.1127E+02  0.3555E+03
     -4.910  0.8846E+01  0.3563E+03
     -4.813  0.8045E+01  0.3571E+03
     -4.716  0.9273E+01  0.3580E+03
     -4.619  0.1184E+02  0.3592E+03
     -4.522  0.1468E+02  0.3606E+03
     -4.425  0.1567E+02  0.3621E+03
     -4.328  0.1301E+02  0.3634E+03
     -4.231  0.8068E+01  0.3641E+03
     -4.134  0.4218E+01  0.3645E+03
     -4.037  0.2935E+01  0.3648E+03
     -3.940  0.3136E+01  0.3651E+03
     -3.843  0.3530E+01  0.3655E+03
     -3.746  0.3705E+01  0.3658E+03
     -3.649  0.3612E+01  0.3662E+03
     -3.552  0.3436E+01  0.3665E+03
     -3.455  0.3464E+01  0.3669E+03
     -3.358  0.3491E+01  0.3672E+03
     -3.261  0.3387E+01  0.3675E+03
     -3.164  0.3750E+01  0.3679E+03
     -3.067  0.4763E+01  0.3684E+03
     -2.970  0.5790E+01  0.3689E+03
     -2.873  0.6760E+01  0.3696E+03
     -2.776  0.8314E+01  0.3704E+03
     -2.679  0.9721E+01  0.3713E+03
     -2.582  0.8849E+01  0.3722E+03
     -2.485  0.5730E+01  0.3727E+03
     -2.388  0.3131E+01  0.3730E+03
     -2.291  0.3029E+01  0.3733E+03
     -2.194  0.5039E+01  0.3738E+03
     -2.097  0.7202E+01  0.3745E+03
     -2.000  0.7412E+01  0.3752E+03
     -1.903  0.5865E+01  0.3758E+03
     -1.806  0.5605E+01  0.3764E+03
     -1.709  0.9170E+01  0.3772E+03
     -1.612  0.1546E+02  0.3787E+03
     -1.515  0.2086E+02  0.3808E+03
     -1.418  0.2297E+02  0.3830E+03
     -1.321  0.2194E+02  0.3851E+03
     -1.224  0.1959E+02  0.3870E+03
     -1.127  0.1792E+02  0.3888E+03
     -1.030  0.1736E+02  0.3904E+03
     -0.933  0.1693E+02  0.3921E+03
     -0.836  0.1598E+02  0.3936E+03
     -0.739  0.1454E+02  0.3950E+03
     -0.642  0.1291E+02  0.3963E+03
     -0.545  0.1173E+02  0.3974E+03
     -0.448  0.1124E+02  0.3985E+03
     -0.351  0.1122E+02  0.3996E+03
     -0.254  0.1219E+02  0.4008E+03
     -0.157  0.1482E+02  0.4022E+03
     -0.060  0.1822E+02  0.4040E+03
      0.037  0.2073E+02  0.4060E+03
      0.134  0.2185E+02  0.4081E+03
      0.231  0.2194E+02  0.4103E+03
      0.328  0.2078E+02  0.4123E+03
      0.425  0.1831E+02  0.4141E+03
      0.522  0.1681E+02  0.4157E+03
      0.619  0.1911E+02  0.4175E+03
      0.716  0.2448E+02  0.4199E+03
      0.813  0.2940E+02  0.4228E+03
      0.910  0.3230E+02  0.4259E+03
      1.007  0.3485E+02  0.4293E+03
      1.104  0.3852E+02  0.4330E+03
      1.201  0.4285E+02  0.4372E+03
      1.298  0.4695E+02  0.4417E+03
      1.395  0.4946E+02  0.4465E+03
      1.492  0.4853E+02  0.4512E+03
      1.589  0.4367E+02  0.4555E+03
      1.686  0.3581E+02  0.4589E+03
      1.783  0.2585E+02  0.4615E+03
      1.880  0.1537E+02  0.4629E+03
      1.977  0.7190E+01  0.4636E+03
      2.074  0.2668E+01  0.4639E+03
      2.171  0.8021E+00  0.4640E+03
      2.268  0.1895E+00  0.4640E+03
      2.365  0.3258E-01  0.4640E+03
      2.462  0.3808E-02  0.4640E+03
      2.560  0.2908E-03  0.4640E+03
      2.657  0.1423E-04  0.4640E+03
      2.754  0.4421E-06  0.4640E+03
      2.851  0.8687E-08  0.4640E+03
      2.948  0.1077E-09  0.4640E+03
      3.045  0.8406E-12  0.4640E+03
      3.142  0.4006E-14  0.4640E+03
      3.239  0.0000E+00  0.4640E+03
      3.336  0.0000E+00  0.4640E+03
      3.433  0.0000E+00  0.4640E+03
      3.530  0.0000E+00  0.4640E+03
      3.627  0.0000E+00  0.4640E+03
      3.724  0.0000E+00  0.4640E+03
      3.821  0.0000E+00  0.4640E+03
      3.918  0.0000E+00  0.4640E+03
