       N       E                     dE             d eps       ncg     rms          rms(c)
DAV:   1     0.371181999377E+04    0.37118E+04   -0.11895E+05  1712   0.105E+03
DAV:   2     0.187955120369E+03   -0.35239E+04   -0.32660E+04  2136   0.238E+02
DAV:   3    -0.833803199862E+03   -0.10218E+04   -0.99891E+03  1792   0.135E+02
DAV:   4    -0.895900980087E+03   -0.62098E+02   -0.61129E+02  1704   0.431E+01
DAV:   5    -0.897409952211E+03   -0.15090E+01   -0.14902E+01  1792   0.656E+00    0.456E+01
DAV:   6    -0.847630837037E+03    0.49779E+02   -0.47715E+01  1592   0.127E+01    0.268E+01
DAV:   7    -0.829094283227E+03    0.18537E+02   -0.65523E+01  1568   0.144E+01    0.735E+00
DAV:   8    -0.828799533277E+03    0.29475E+00   -0.23198E+00  1616   0.332E+00    0.108E+00
DAV:   9    -0.828690342458E+03    0.10919E+00   -0.26151E-01  1656   0.995E-01    0.576E-01
DAV:  10    -0.828653775742E+03    0.36567E-01   -0.43785E-02  1800   0.429E-01    0.379E-01
DAV:  11    -0.828621183038E+03    0.32593E-01   -0.21890E-02  1520   0.246E-01    0.248E-01
DAV:  12    -0.828613996813E+03    0.71862E-02   -0.26819E-02  1536   0.235E-01    0.155E-01
DAV:  13    -0.828626526872E+03   -0.12530E-01   -0.91278E-03  1536   0.154E-01    0.850E-02
DAV:  14    -0.828643436822E+03   -0.16910E-01   -0.12020E-03  1584   0.713E-02    0.594E-02
DAV:  15    -0.828664627854E+03   -0.21191E-01   -0.20085E-03  1560   0.679E-02    0.310E-02
DAV:  16    -0.828673208925E+03   -0.85811E-02   -0.46743E-04  1624   0.375E-02    0.226E-02
DAV:  17    -0.828678511333E+03   -0.53024E-02   -0.34703E-04  1560   0.242E-02    0.115E-02
DAV:  18    -0.828680373326E+03   -0.18620E-02   -0.72641E-05  1640   0.132E-02    0.624E-03
DAV:  19    -0.828681461868E+03   -0.10885E-02   -0.37057E-05  1416   0.855E-03    0.405E-03
DAV:  20    -0.828681883931E+03   -0.42206E-03   -0.89149E-06  1360   0.423E-03    0.246E-03
DAV:  21    -0.828682106629E+03   -0.22270E-03   -0.22732E-06  1264   0.263E-03    0.997E-04
DAV:  22    -0.828682173878E+03   -0.67249E-04   -0.44994E-07  1032   0.122E-03    0.728E-04
DAV:  23    -0.828682207331E+03   -0.33453E-04   -0.23810E-07   960   0.976E-04    0.487E-04
DAV:  24    -0.828682222209E+03   -0.14878E-04   -0.11810E-07   952   0.613E-04    0.377E-04
DAV:  25    -0.828682227555E+03   -0.53458E-05   -0.36379E-08   960   0.567E-04    0.174E-04
DAV:  26    -0.828682231671E+03   -0.41160E-05   -0.30941E-08   920   0.292E-04    0.212E-04
DAV:  27    -0.828682233443E+03   -0.17722E-05   -0.85783E-09   936   0.258E-04    0.769E-05
DAV:  28    -0.828682235159E+03   -0.17162E-05   -0.71618E-09   952   0.155E-04    0.944E-05
DAV:  29    -0.828682235880E+03   -0.72073E-06   -0.26604E-09   952   0.115E-04
   1 F= -.82868224E+03 E0= -.82863737E+03  d E =-.897352E-01
