  92  92   0   0
  0.8273226E+02  0.2805000E-08  0.8100000E-09  0.3350000E-08  0.5000000E-15
   1.0000000000000000E-004
  CAR 
 unknown system                          
      3.74209277    -25.15767823  301     -3.14959891      1.00000000
    -25.158  0.0000E+00  0.0000E+00
    -25.061  0.0000E+00  0.0000E+00
    -24.965  0.0000E+00  0.0000E+00
    -24.869  0.0000E+00  0.0000E+00
    -24.772  0.0000E+00  0.0000E+00
    -24.676  0.0000E+00  0.0000E+00
    -24.580  0.0000E+00  0.0000E+00
    -24.483  0.0000E+00  0.0000E+00
    -24.387  0.0000E+00  0.0000E+00
    -24.291  0.2881E-14  0.2776E-15
    -24.194  0.6085E-12  0.5890E-13
    -24.098  0.7892E-10  0.7662E-11
    -24.002  0.6528E-08  0.6365E-09
    -23.905  0.3456E-06  0.3393E-07
    -23.809  0.1177E-04  0.1168E-05
    -23.713  0.2598E-03  0.2620E-04
    -23.616  0.3745E-02  0.3869E-03
    -23.520  0.3563E-01  0.3820E-02
    -23.424  0.2267E+00  0.2566E-01
    -23.327  0.9798E+00  0.1200E+00
    -23.231  0.2934E+01  0.4026E+00
    -23.135  0.6245E+01  0.1004E+01
    -23.038  0.9792E+01  0.1947E+01
    -22.942  0.1191E+02  0.3095E+01
    -22.846  0.1226E+02  0.4275E+01
    -22.749  0.1237E+02  0.5467E+01
    -22.653  0.1367E+02  0.6784E+01
    -22.557  0.1529E+02  0.8258E+01
    -22.460  0.1538E+02  0.9739E+01
    -22.364  0.1422E+02  0.1111E+02
    -22.268  0.1366E+02  0.1242E+02
    -22.171  0.1412E+02  0.1378E+02
    -22.075  0.1466E+02  0.1520E+02
    -21.979  0.1479E+02  0.1662E+02
    -21.882  0.1451E+02  0.1802E+02
    -21.786  0.1389E+02  0.1936E+02
    -21.690  0.1323E+02  0.2063E+02
    -21.593  0.1266E+02  0.2185E+02
    -21.497  0.1193E+02  0.2300E+02
    -21.401  0.1130E+02  0.2409E+02
    -21.304  0.1174E+02  0.2522E+02
    -21.208  0.1368E+02  0.2654E+02
    -21.112  0.1613E+02  0.2809E+02
    -21.015  0.1718E+02  0.2975E+02
    -20.919  0.1576E+02  0.3126E+02
    -20.823  0.1320E+02  0.3254E+02
    -20.726  0.1180E+02  0.3367E+02
    -20.630  0.1199E+02  0.3483E+02
    -20.534  0.1261E+02  0.3604E+02
    -20.437  0.1296E+02  0.3729E+02
    -20.341  0.1328E+02  0.3857E+02
    -20.245  0.1398E+02  0.3992E+02
    -20.148  0.1519E+02  0.4138E+02
    -20.052  0.1634E+02  0.4295E+02
    -19.956  0.1637E+02  0.4453E+02
    -19.859  0.1492E+02  0.4597E+02
    -19.763  0.1283E+02  0.4720E+02
    -19.667  0.1212E+02  0.4837E+02
    -19.570  0.1390E+02  0.4971E+02
    -19.474  0.1608E+02  0.5126E+02
    -19.378  0.1580E+02  0.5278E+02
    -19.281  0.1375E+02  0.5411E+02
    -19.185  0.1286E+02  0.5534E+02
    -19.089  0.1391E+02  0.5668E+02
    -18.992  0.1506E+02  0.5814E+02
    -18.896  0.1472E+02  0.5955E+02
    -18.800  0.1369E+02  0.6087E+02
    -18.703  0.1414E+02  0.6223E+02
    -18.607  0.1620E+02  0.6379E+02
    -18.511  0.1733E+02  0.6546E+02
    -18.414  0.1618E+02  0.6702E+02
    -18.318  0.1486E+02  0.6845E+02
    -18.222  0.1564E+02  0.6996E+02
    -18.125  0.1736E+02  0.7163E+02
    -18.029  0.1731E+02  0.7330E+02
    -17.933  0.1514E+02  0.7476E+02
    -17.836  0.1325E+02  0.7604E+02
    -17.740  0.1303E+02  0.7729E+02
    -17.644  0.1306E+02  0.7855E+02
    -17.547  0.1226E+02  0.7973E+02
    -17.451  0.1164E+02  0.8085E+02
    -17.355  0.1181E+02  0.8199E+02
    -17.258  0.1187E+02  0.8313E+02
    -17.162  0.1109E+02  0.8420E+02
    -17.066  0.1019E+02  0.8518E+02
    -16.969  0.1022E+02  0.8617E+02
    -16.873  0.1070E+02  0.8720E+02
    -16.777  0.1081E+02  0.8824E+02
    -16.680  0.1128E+02  0.8933E+02
    -16.584  0.1272E+02  0.9055E+02
    -16.488  0.1429E+02  0.9193E+02
    -16.391  0.1550E+02  0.9342E+02
    -16.295  0.1665E+02  0.9503E+02
    -16.199  0.1756E+02  0.9672E+02
    -16.102  0.1764E+02  0.9842E+02
    -16.006  0.1683E+02  0.1000E+03
    -15.910  0.1598E+02  0.1016E+03
    -15.813  0.1546E+02  0.1031E+03
    -15.717  0.1464E+02  0.1045E+03
    -15.621  0.1306E+02  0.1057E+03
    -15.524  0.1155E+02  0.1068E+03
    -15.428  0.1214E+02  0.1080E+03
    -15.332  0.1542E+02  0.1095E+03
    -15.235  0.1924E+02  0.1114E+03
    -15.139  0.2160E+02  0.1134E+03
    -15.043  0.2253E+02  0.1156E+03
    -14.946  0.2233E+02  0.1178E+03
    -14.850  0.2055E+02  0.1197E+03
    -14.754  0.1700E+02  0.1214E+03
    -14.657  0.1270E+02  0.1226E+03
    -14.561  0.9371E+01  0.1235E+03
    -14.465  0.8217E+01  0.1243E+03
    -14.368  0.9209E+01  0.1252E+03
    -14.272  0.1090E+02  0.1262E+03
    -14.176  0.1202E+02  0.1274E+03
    -14.079  0.1288E+02  0.1286E+03
    -13.983  0.1398E+02  0.1300E+03
    -13.887  0.1492E+02  0.1314E+03
    -13.790  0.1556E+02  0.1329E+03
    -13.694  0.1644E+02  0.1345E+03
    -13.598  0.1765E+02  0.1362E+03
    -13.501  0.1866E+02  0.1380E+03
    -13.405  0.1934E+02  0.1399E+03
    -13.309  0.1992E+02  0.1418E+03
    -13.212  0.1997E+02  0.1437E+03
    -13.116  0.1868E+02  0.1455E+03
    -13.020  0.1667E+02  0.1471E+03
    -12.923  0.1550E+02  0.1486E+03
    -12.827  0.1533E+02  0.1501E+03
    -12.731  0.1503E+02  0.1515E+03
    -12.634  0.1393E+02  0.1529E+03
    -12.538  0.1265E+02  0.1541E+03
    -12.442  0.1236E+02  0.1553E+03
    -12.345  0.1399E+02  0.1566E+03
    -12.249  0.1746E+02  0.1583E+03
    -12.153  0.2119E+02  0.1603E+03
    -12.056  0.2345E+02  0.1626E+03
    -11.960  0.2403E+02  0.1649E+03
    -11.864  0.2348E+02  0.1672E+03
    -11.767  0.2209E+02  0.1693E+03
    -11.671  0.2029E+02  0.1713E+03
    -11.575  0.1814E+02  0.1730E+03
    -11.478  0.1600E+02  0.1745E+03
    -11.382  0.1556E+02  0.1760E+03
    -11.286  0.1782E+02  0.1778E+03
    -11.189  0.2167E+02  0.1799E+03
    -11.093  0.2576E+02  0.1823E+03
    -10.997  0.2924E+02  0.1852E+03
    -10.900  0.3152E+02  0.1882E+03
    -10.804  0.3308E+02  0.1914E+03
    -10.708  0.3474E+02  0.1947E+03
    -10.611  0.3644E+02  0.1982E+03
    -10.515  0.3786E+02  0.2019E+03
    -10.419  0.3822E+02  0.2056E+03
    -10.322  0.3657E+02  0.2091E+03
    -10.226  0.3403E+02  0.2124E+03
    -10.130  0.3306E+02  0.2155E+03
    -10.033  0.3378E+02  0.2188E+03
     -9.937  0.3420E+02  0.2221E+03
     -9.841  0.3380E+02  0.2253E+03
     -9.744  0.3399E+02  0.2286E+03
     -9.648  0.3558E+02  0.2321E+03
     -9.552  0.3787E+02  0.2357E+03
     -9.455  0.3970E+02  0.2395E+03
     -9.359  0.4004E+02  0.2434E+03
     -9.263  0.3823E+02  0.2471E+03
     -9.166  0.3483E+02  0.2504E+03
     -9.070  0.3193E+02  0.2535E+03
     -8.974  0.3160E+02  0.2565E+03
     -8.877  0.3380E+02  0.2598E+03
     -8.781  0.3618E+02  0.2633E+03
     -8.685  0.3656E+02  0.2668E+03
     -8.588  0.3513E+02  0.2702E+03
     -8.492  0.3342E+02  0.2734E+03
     -8.396  0.3226E+02  0.2765E+03
     -8.299  0.3113E+02  0.2795E+03
     -8.203  0.2975E+02  0.2824E+03
     -8.107  0.2902E+02  0.2852E+03
     -8.010  0.2911E+02  0.2880E+03
     -7.914  0.2886E+02  0.2908E+03
     -7.818  0.2784E+02  0.2934E+03
     -7.721  0.2687E+02  0.2960E+03
     -7.625  0.2667E+02  0.2986E+03
     -7.529  0.2719E+02  0.3012E+03
     -7.432  0.2774E+02  0.3039E+03
     -7.336  0.2772E+02  0.3066E+03
     -7.240  0.2756E+02  0.3092E+03
     -7.143  0.2804E+02  0.3119E+03
     -7.047  0.2881E+02  0.3147E+03
     -6.951  0.2822E+02  0.3174E+03
     -6.854  0.2564E+02  0.3199E+03
     -6.758  0.2271E+02  0.3221E+03
     -6.662  0.2146E+02  0.3241E+03
     -6.565  0.2176E+02  0.3262E+03
     -6.469  0.2181E+02  0.3283E+03
     -6.373  0.2073E+02  0.3303E+03
     -6.276  0.1957E+02  0.3322E+03
     -6.180  0.1982E+02  0.3341E+03
     -6.084  0.2203E+02  0.3362E+03
     -5.987  0.2523E+02  0.3387E+03
     -5.891  0.2728E+02  0.3413E+03
     -5.795  0.2681E+02  0.3439E+03
     -5.698  0.2423E+02  0.3462E+03
     -5.602  0.2056E+02  0.3482E+03
     -5.506  0.1642E+02  0.3498E+03
     -5.410  0.1257E+02  0.3510E+03
     -5.313  0.1066E+02  0.3520E+03
     -5.217  0.1140E+02  0.3531E+03
     -5.121  0.1250E+02  0.3543E+03
     -5.024  0.1150E+02  0.3554E+03
     -4.928  0.9237E+01  0.3563E+03
     -4.832  0.8226E+01  0.3571E+03
     -4.735  0.9497E+01  0.3580E+03
     -4.639  0.1227E+02  0.3592E+03
     -4.543  0.1489E+02  0.3606E+03
     -4.446  0.1545E+02  0.3621E+03
     -4.350  0.1287E+02  0.3634E+03
     -4.254  0.8546E+01  0.3642E+03
     -4.157  0.5197E+01  0.3647E+03
     -4.061  0.3691E+01  0.3651E+03
     -3.965  0.3048E+01  0.3653E+03
     -3.868  0.2797E+01  0.3656E+03
     -3.772  0.3149E+01  0.3659E+03
     -3.676  0.3800E+01  0.3663E+03
     -3.579  0.4158E+01  0.3667E+03
     -3.483  0.3884E+01  0.3671E+03
     -3.387  0.3052E+01  0.3674E+03
     -3.290  0.2415E+01  0.3676E+03
     -3.194  0.2716E+01  0.3678E+03
     -3.098  0.3741E+01  0.3682E+03
     -3.001  0.4808E+01  0.3687E+03
     -2.905  0.5665E+01  0.3692E+03
     -2.809  0.6658E+01  0.3699E+03
     -2.712  0.8066E+01  0.3706E+03
     -2.616  0.8988E+01  0.3715E+03
     -2.520  0.7994E+01  0.3723E+03
     -2.423  0.5592E+01  0.3728E+03
     -2.327  0.4246E+01  0.3732E+03
     -2.231  0.5238E+01  0.3737E+03
     -2.134  0.7084E+01  0.3744E+03
     -2.038  0.7517E+01  0.3751E+03
     -1.942  0.6418E+01  0.3757E+03
     -1.845  0.6291E+01  0.3764E+03
     -1.749  0.9414E+01  0.3773E+03
     -1.653  0.1500E+02  0.3787E+03
     -1.556  0.2007E+02  0.3806E+03
     -1.460  0.2250E+02  0.3828E+03
     -1.364  0.2240E+02  0.3850E+03
     -1.267  0.2109E+02  0.3870E+03
     -1.171  0.1945E+02  0.3889E+03
     -1.075  0.1746E+02  0.3906E+03
     -0.978  0.1521E+02  0.3920E+03
     -0.882  0.1362E+02  0.3933E+03
     -0.786  0.1362E+02  0.3946E+03
     -0.689  0.1460E+02  0.3960E+03
     -0.593  0.1474E+02  0.3975E+03
     -0.497  0.1323E+02  0.3987E+03
     -0.400  0.1162E+02  0.3999E+03
     -0.304  0.1219E+02  0.4010E+03
     -0.208  0.1503E+02  0.4025E+03
     -0.111  0.1803E+02  0.4042E+03
     -0.015  0.1964E+02  0.4061E+03
      0.081  0.2011E+02  0.4080E+03
      0.178  0.2012E+02  0.4100E+03
      0.274  0.1964E+02  0.4119E+03
      0.370  0.1844E+02  0.4137E+03
      0.467  0.1740E+02  0.4153E+03
      0.563  0.1825E+02  0.4171E+03
      0.659  0.2171E+02  0.4192E+03
      0.756  0.2657E+02  0.4217E+03
      0.852  0.3075E+02  0.4247E+03
      0.948  0.3366E+02  0.4279E+03
      1.045  0.3636E+02  0.4314E+03
      1.141  0.3961E+02  0.4353E+03
      1.237  0.4355E+02  0.4395E+03
      1.334  0.4768E+02  0.4441E+03
      1.430  0.5006E+02  0.4489E+03
      1.526  0.4853E+02  0.4535E+03
      1.623  0.4232E+02  0.4576E+03
      1.719  0.3210E+02  0.4607E+03
      1.815  0.2007E+02  0.4627E+03
      1.912  0.9669E+01  0.4636E+03
      2.008  0.3367E+01  0.4639E+03
      2.104  0.8090E+00  0.4640E+03
      2.201  0.1302E+00  0.4640E+03
      2.297  0.1378E-01  0.4640E+03
      2.393  0.9484E-03  0.4640E+03
      2.490  0.4215E-04  0.4640E+03
      2.586  0.1203E-05  0.4640E+03
      2.682  0.2200E-07  0.4640E+03
      2.779  0.2567E-09  0.4640E+03
      2.875  0.1909E-11  0.4640E+03
      2.971  0.7491E-14  0.4640E+03
      3.068  0.0000E+00  0.4640E+03
      3.164  0.0000E+00  0.4640E+03
      3.260  0.0000E+00  0.4640E+03
      3.357  0.0000E+00  0.4640E+03
      3.453  0.0000E+00  0.4640E+03
      3.549  0.0000E+00  0.4640E+03
      3.646  0.0000E+00  0.4640E+03
      3.742  0.0000E+00  0.4640E+03
