       N       E                     dE             d eps       ncg     rms          rms(c)
DAV:   1     0.368491552010E+04    0.36849E+04   -0.11893E+05  1712   0.105E+03
DAV:   2     0.180154302340E+03   -0.35048E+04   -0.32421E+04  2128   0.239E+02
DAV:   3    -0.832900742682E+03   -0.10131E+04   -0.99269E+03  1808   0.135E+02
DAV:   4    -0.894632465348E+03   -0.61732E+02   -0.60786E+02  1704   0.430E+01
DAV:   5    -0.896172691237E+03   -0.15402E+01   -0.15199E+01  1840   0.658E+00    0.452E+01
DAV:   6    -0.847364762131E+03    0.48808E+02   -0.46760E+01  1576   0.125E+01    0.265E+01
DAV:   7    -0.829157445548E+03    0.18207E+02   -0.64276E+01  1560   0.142E+01    0.724E+00
DAV:   8    -0.828869543228E+03    0.28790E+00   -0.23335E+00  1608   0.328E+00    0.990E-01
DAV:   9    -0.828765410402E+03    0.10413E+00   -0.25188E-01  1648   0.972E-01    0.565E-01
DAV:  10    -0.828728405153E+03    0.37005E-01   -0.46239E-02  1752   0.433E-01    0.361E-01
DAV:  11    -0.828698266361E+03    0.30139E-01   -0.23892E-02  1568   0.252E-01    0.242E-01
DAV:  12    -0.828694511962E+03    0.37544E-02   -0.21790E-02  1568   0.223E-01    0.153E-01
DAV:  13    -0.828706767191E+03   -0.12255E-01   -0.89594E-03  1552   0.155E-01    0.858E-02
DAV:  14    -0.828723068010E+03   -0.16301E-01   -0.12831E-03  1616   0.724E-02    0.604E-02
DAV:  15    -0.828742758220E+03   -0.19690E-01   -0.16622E-03  1560   0.649E-02    0.299E-02
DAV:  16    -0.828752196520E+03   -0.94383E-02   -0.55183E-04  1608   0.379E-02    0.225E-02
DAV:  17    -0.828757311022E+03   -0.51145E-02   -0.30374E-04  1584   0.230E-02    0.119E-02
DAV:  18    -0.828759682467E+03   -0.23714E-02   -0.11386E-04  1616   0.150E-02    0.604E-03
DAV:  19    -0.828760660282E+03   -0.97781E-03   -0.30794E-05  1416   0.829E-03    0.379E-03
DAV:  20    -0.828761071433E+03   -0.41115E-03   -0.78835E-06  1376   0.403E-03    0.231E-03
DAV:  21    -0.828761286303E+03   -0.21487E-03   -0.28569E-06  1264   0.267E-03    0.109E-03
DAV:  22    -0.828761340049E+03   -0.53746E-04   -0.23204E-07  1072   0.105E-03    0.677E-04
DAV:  23    -0.828761380202E+03   -0.40153E-04   -0.34375E-07   936   0.971E-04    0.503E-04
DAV:  24    -0.828761392388E+03   -0.12186E-04   -0.88945E-08   984   0.530E-04    0.259E-04
DAV:  25    -0.828761398662E+03   -0.62747E-05   -0.41163E-08   904   0.450E-04    0.185E-04
DAV:  26    -0.828761402361E+03   -0.36989E-05   -0.25706E-08   904   0.264E-04    0.139E-04
DAV:  27    -0.828761404016E+03   -0.16543E-05   -0.75399E-09   944   0.209E-04    0.749E-05
DAV:  28    -0.828761405804E+03   -0.17886E-05   -0.65657E-09   960   0.136E-04    0.595E-05
DAV:  29    -0.828761406279E+03   -0.47454E-06   -0.20777E-09   936   0.983E-05
   1 F= -.82876141E+03 E0= -.82872446E+03  d E =-.738921E-01
