 vasp.6.5.0 16Dec24 (build Feb 19 2025 19:45:31) complex                         
 executed on              LinuxNV date 2025.10.25  19:09:52
 running    2 mpi-ranks, on    1 nodes
 distrk:  each k-point on    2 cores,    1 groups
 distr:  one band on NCORE=   1 cores,    2 groups
 Offloading initialized ...    2 GPUs detected


--------------------------------------------------------------------------------------------------------


 INCAR:
   ISTART = 0            (Not Read existing wavefunction
   ISPIN = 1            (Non-Spin polarised DFT, Default\=1)
   ICHARG = 2            (The initial guess charge density is generated by superposition of atomic charge density)
   LREAL = Auto         (Projection operators: automatic)
   ENCUT = 500          (Cut-off energy for plane wave basis set, in eV)
   LWAVE = .FALSE.       (Write WAVECAR or not)
   LCHARG = .FALSE.       (Write CHGCAR or not)
   PREC = Accurate   (Precision level)
   KGAMMA = .TRUE.
   ALGO = Normal
   NSW = 0           (Default: NSW \= 0)
   IBRION = -1           (Ions are not moved)
   ISMEAR = 0
   EDIFF = 1E-06        (SCF energy convergence
   NELM = 150          (Max electronic SCF steps)

 POTCAR:    PAW_PBE C 08Apr2002                   
 POTCAR:    PAW_PBE C 08Apr2002                   
   SHA256 =  253f7b50bb8d59471dbedb8285d89021f4a42ed1a2c5d38a03a736e69125dd95 C/POTCAR              
   COPYR  = (c) Copyright 08Apr2002 Georg Kresse                                                    
   COPYR  = This file is part of the software VASP. Any use, copying, and all other rights are regul
   COPYR  = If you do not have a valid VASP license, you may not use, copy or distribute this file. 
   VRHFIN =C: s2p2                                                                                  
   LEXCH  = PE                                                                                      
   EATOM  =   147.1560 eV,   10.8157 Ry                                                             
                                                                                                    
   TITEL  = PAW_PBE C 08Apr2002                                                                     
   LULTRA =        F    use ultrasoft PP ?                                                          
   IUNSCR =        1    unscreen: 0-lin 1-nonlin 2-no                                               
   RPACOR =    1.200    partial core radius                                                         
   POMASS =   12.011; ZVAL   =    4.000    mass and valenz                                          
   RCORE  =    1.500    outmost cutoff radius                                                       
   RWIGS  =    1.630; RWIGS  =    0.863    wigner-seitz radius (au A)                               
   ENMAX  =  400.000; ENMIN  =  300.000 eV                                                          
   ICORE  =        2    local potential                                                             
   LCOR   =        T    correct aug charges                                                         
   LPAW   =        T    paw PP                                                                      
   EAUG   =  644.873                                                                                
   DEXC   =    0.000                                                                                
   RMAX   =    1.529    core radius for proj-oper                                                   
   RAUG   =    1.300    factor for augmentation sphere                                              
   RDEP   =    1.501    radius for radial grids                                                     
   RDEPT  =    1.300    core radius for aug-charge                                                  
                                                                                                    
   Atomic configuration                                                                             
    4 entries                                                                                       
     n  l   j            E        occ.                                                              
     1  0  0.50      -273.3789   2.0000                                                             
     2  0  0.50       -13.7508   2.0000                                                             
     2  1  0.50        -5.2854   2.0000                                                             
     3  2  1.50        -5.4423   0.0000                                                             
   Description                                                                                      
     l       E           TYP  RCUT    TYP  RCUT                                                     
     0    -13.7508458     23  1.200                                                                 
     0     -8.2022199     23  1.200                                                                 
     1     -5.2854383     23  1.500                                                                 
     1     34.0145650     23  1.500                                                                 
     2     -5.4423304      7  1.500                                                                 
  local pseudopotential read in
  partial core-charges read in
  partial kinetic energy density read in
  atomic valenz-charges read in
  non local Contribution for L=            0  read in
    real space projection operators read in
  non local Contribution for L=            0  read in
    real space projection operators read in
  non local Contribution for L=            1  read in
    real space projection operators read in
  non local Contribution for L=            1  read in
    real space projection operators read in
    PAW grid and wavefunctions read in
 
   number of l-projection  operators is LMAX  =            4
   number of lm-projection operators is LMMAX =            8
 
 Optimization of the real space projectors (new method)

 maximal supplied QI-value         = 25.13
 optimisation between [QCUT,QGAM] = [ 11.31, 22.87] = [ 35.82,146.48] Ry 
 Optimized for a Real-space Cutoff    1.03 Angstroem

   l    n(q)    QCUT    max X(q) W(low)/X(q) W(high)/X(q)  e(spline) 
   0      7    11.310   115.676    0.20E-03    0.90E-03    0.20E-06
   0      7    11.310    87.132    0.20E-03    0.89E-03    0.19E-06
   1      6    11.310     4.429    0.16E-03    0.28E-03    0.12E-06
   1      6    11.310     2.733    0.12E-03    0.21E-03    0.99E-07
  PAW_PBE C 08Apr2002                   :
 energy of atom  1       EATOM= -147.1560
 kinetic energy error for atom=    0.0076 (will be added to EATOM!!)
 
 
 POSCAR:  C
  positions in cartesian coordinates
  No initial velocities read in


 exchange-correlation table for PE
   RHO(1)=    0.500       N(1)  =     2000
   RHO(2)=  100.500       N(2)  =     4000
 


--------------------------------------------------------------------------------------------------------


 ion  position               nearest neighbor table
   1  0.403  0.634  0.859-   3 1.40   2 1.40  45 1.47  46 2.01
   2  0.403  0.806  0.859-   1 1.40   4 1.40  46 1.46  45 2.01
   3  0.447  0.555  0.853-  50 1.39   1 1.40   5 1.43
   4  0.447  0.889  0.857-  49 1.37   2 1.40   6 1.42
   5  0.492  0.631  0.848-   7 1.39   6 1.41   3 1.43
   6  0.490  0.806  0.847-   8 1.41   5 1.41   4 1.42
   7  0.534  0.554  0.835-   5 1.39  54 1.39   9 1.41
   8  0.535  0.878  0.840-  53 1.40   6 1.41  10 1.43
   9  0.573  0.635  0.817-  10 1.40   7 1.41  11 1.43
  10  0.573  0.807  0.817-   9 1.40  12 1.42   8 1.43
  11  0.615  0.551  0.804-  13 1.41  58 1.41   9 1.43
  12  0.616  0.884  0.804-  57 1.36  10 1.42  14 1.43
  13  0.657  0.630  0.792-  11 1.41  15 1.41  14 1.41
  14  0.658  0.804  0.790-  13 1.41  12 1.43  16 1.47
  15  0.701  0.551  0.782-  13 1.41  62 1.41  17 1.45
  16  0.704  0.884  0.783-  61 1.35  18 1.43  14 1.47
  17  0.744  0.632  0.769-  19 1.39  18 1.39  15 1.45
  18  0.746  0.803  0.770-  20 1.39  17 1.39  16 1.43
  19  0.788  0.555  0.765-  17 1.39  66 1.40  21 1.45
  20  0.791  0.880  0.768-  18 1.39  65 1.40  22 1.40
  21  0.834  0.632  0.758-  22 1.39  23 1.41  19 1.45
  22  0.835  0.802  0.763-  24 1.36  21 1.39  20 1.40
  23  0.878  0.551  0.760-  70 1.40  21 1.41  25 1.44
  24  0.878  0.882  0.764-  22 1.36  69 1.38  26 1.42
  25  0.923  0.633  0.765-  26 1.35  27 1.43  23 1.44
  26  0.922  0.800  0.768-  25 1.35  24 1.42  28 1.42
  27  0.966  0.555  0.779-  74 1.35  25 1.43  29 1.44
  28  0.962  0.886  0.783-  73 1.39  26 1.42  30 1.43
  29  0.011  0.636  0.785-  31 1.39  27 1.44  30 1.45
  30  0.009  0.815  0.787-  32 1.40  28 1.43  29 1.45
  31  0.050  0.553  0.800-  78 1.36  29 1.39  33 1.46
  32  0.053  0.891  0.796-  77 1.37  30 1.40  34 1.44
  33  0.094  0.638  0.813-  34 1.35  35 1.36  31 1.46
  34  0.095  0.804  0.809-  33 1.35  36 1.43  32 1.44
  35  0.133  0.563  0.828-  33 1.36  82 1.39  37 1.45
  36  0.138  0.887  0.820-  81 1.37  38 1.41  34 1.43
  37  0.178  0.648  0.836-  38 1.36  39 1.45  35 1.45
  38  0.182  0.811  0.827-  37 1.36  40 1.39  36 1.41
  39  0.220  0.566  0.852-  86 1.38  41 1.44  37 1.45
  40  0.225  0.888  0.833-  38 1.39  85 1.39  42 1.41
  41  0.265  0.647  0.858-  42 1.36  43 1.42  39 1.44
  42  0.267  0.809  0.848-  41 1.36  44 1.39  40 1.41
  43  0.307  0.556  0.865-  90 1.37  45 1.40  41 1.42
  44  0.310  0.892  0.850-  89 1.37  46 1.37  42 1.39
  45  0.351  0.638  0.859-  46 1.37  43 1.40   1 1.47   2 2.01
  46  0.352  0.807  0.857-  45 1.37  44 1.37   2 1.46   1 2.01
  47  0.403  0.137  0.867-  48 1.42  49 1.43  91 1.47  92 2.05
  48  0.404  0.312  0.867-  50 1.40  47 1.42  92 1.49  91 2.06
  49  0.448  0.055  0.864-   4 1.37  51 1.42  47 1.43
  50  0.448  0.385  0.860-   3 1.39  48 1.40  52 1.46
  51  0.493  0.132  0.856-  52 1.36  49 1.42  53 1.47
  52  0.494  0.300  0.854-  51 1.36  54 1.44  50 1.46
  53  0.538  0.050  0.845-  55 1.39   8 1.40  51 1.47
  54  0.536  0.385  0.842-   7 1.39  56 1.40  52 1.44
  55  0.578  0.135  0.832-  56 1.38  53 1.39  57 1.47
  56  0.580  0.305  0.835-  55 1.38  54 1.40  58 1.42
  57  0.617  0.049  0.812-  12 1.36  59 1.43  55 1.47
  58  0.617  0.381  0.813-  11 1.41  56 1.42  60 1.42
  59  0.661  0.130  0.802-  61 1.39  60 1.39  57 1.43
  60  0.661  0.302  0.803-  59 1.39  62 1.40  58 1.42
  61  0.702  0.049  0.788-  16 1.35  59 1.39  63 1.46
  62  0.702  0.379  0.788-  60 1.40  15 1.41  64 1.41
  63  0.747  0.132  0.782-  64 1.36  65 1.39  61 1.46
  64  0.745  0.300  0.778-  63 1.36  62 1.41  66 1.46
  65  0.790  0.049  0.776-  67 1.38  63 1.39  20 1.40
  66  0.790  0.383  0.769-  68 1.39  19 1.40  64 1.46
  67  0.832  0.132  0.772-  65 1.38  68 1.39  69 1.42
  68  0.833  0.302  0.766-  66 1.39  67 1.39  70 1.43
  69  0.877  0.050  0.770-  24 1.38  71 1.40  67 1.42
  70  0.879  0.379  0.765-  23 1.40  72 1.42  68 1.43
  71  0.920  0.132  0.777-  73 1.38  72 1.38  69 1.40
  72  0.923  0.301  0.773-  71 1.38  74 1.40  70 1.42
  73  0.964  0.057  0.784-  71 1.38  28 1.39  75 1.41
  74  0.966  0.388  0.779-  27 1.35  72 1.40  76 1.42
  75  0.008  0.133  0.792-  77 1.38  76 1.41  73 1.41
  76  0.008  0.307  0.792-  75 1.41  74 1.42  78 1.45
  77  0.050  0.057  0.802-  32 1.37  75 1.38  79 1.43
  78  0.052  0.387  0.805-  31 1.36  80 1.39  76 1.45
  79  0.092  0.138  0.816-  80 1.36  81 1.40  77 1.43
  80  0.092  0.305  0.819-  79 1.36  78 1.39  82 1.43
  81  0.135  0.054  0.826-  36 1.37  79 1.40  83 1.47
  82  0.135  0.392  0.829-  35 1.39  84 1.40  80 1.43
  83  0.178  0.147  0.834-  84 1.37  85 1.45  81 1.47
  84  0.176  0.312  0.843-  83 1.37  82 1.40  86 1.43
  85  0.222  0.058  0.839-  40 1.39  87 1.40  83 1.45
  86  0.220  0.396  0.851-  39 1.38  84 1.43  88 1.44
  87  0.265  0.137  0.849-  88 1.38  85 1.40  89 1.41
  88  0.263  0.305  0.856-  87 1.38  90 1.44  86 1.44
  89  0.310  0.060  0.854-  44 1.37  91 1.38  87 1.41
  90  0.308  0.388  0.865-  92 1.37  43 1.37  88 1.44
  91  0.351  0.135  0.868-  89 1.38  92 1.44  47 1.47  48 2.06
  92  0.351  0.313  0.869-  90 1.37  91 1.44  48 1.49  47 2.05
 
  LATTYP: Found a simple orthorhombic cell.
 ALAT       =     8.1000000000
 B/A-ratio  =     3.4629629630
 C/A-ratio  =     4.1358024691
  
  Lattice vectors:
  
 A1 = (   0.0000000000,  -8.1000000000,   0.0000000000)
 A2 = (  28.0500000000,   0.0000000000,   0.0000000000)
 A3 = (   0.0000000000,   0.0000000000,  33.5000000000)


Analysis of symmetry for initial positions (statically):
=====================================================================
 Subroutine PRICEL returns:
 Original cell was already a primitive cell.
 

 Routine SETGRP: Setting up the symmetry group for a 
 simple orthorhombic supercell.


 Subroutine GETGRP returns: Found  1 space group operations
 (whereof  1 operations were pure point group operations)
 out of a pool of  8 trial point group operations.


The static configuration has the point symmetry C_1 .


Analysis of symmetry for dynamics (positions and initial velocities):
=====================================================================
 Subroutine PRICEL returns:
 Original cell was already a primitive cell.
 

 Routine SETGRP: Setting up the symmetry group for a 
 simple orthorhombic supercell.


 Subroutine GETGRP returns: Found  1 space group operations
 (whereof  1 operations were pure point group operations)
 out of a pool of  8 trial point group operations.


The dynamic configuration has the point symmetry C_1 .


 Subroutine INISYM returns: Found  1 space group operations
 (whereof  1 operations are pure point group operations),
 and found     1 'primitive' translations


----------------------------------------------------------------------------------------

                                     Primitive cell                                     

  volume of cell :    7611.3675

  direct lattice vectors                    reciprocal lattice vectors
    28.050000000  0.000000000  0.000000000     0.035650624  0.000000000  0.000000000
     0.000000000  8.100000000  0.000000000     0.000000000  0.123456790  0.000000000
     0.000000000  0.000000000 33.500000000     0.000000000  0.000000000  0.029850746

  length of vectors
    28.050000000  8.100000000 33.500000000     0.035650624  0.123456790  0.029850746

  position of ions in fractional coordinates (direct lattice)
     0.403076649  0.633743210  0.858948358
     0.403465241  0.806450617  0.858653433
     0.446884135  0.554890123  0.853406567
     0.447344029  0.888846914  0.856578209
     0.492374332  0.631337037  0.847582687
     0.490367201  0.805691358  0.847415224
     0.534060606  0.553949383  0.835278209
     0.535344029  0.878064198  0.840397612
     0.572634581  0.634966667  0.816557015
     0.573033868  0.807164198  0.817349254
     0.615016043  0.550734568  0.803948060
     0.615793226  0.884307407  0.804162090
     0.657183601  0.629791358  0.791606866
     0.657586453  0.804128395  0.789636418
     0.700566845  0.551425926  0.782022388
     0.703832442  0.883738272  0.783063881
     0.744117647  0.631990123  0.768867463
     0.746385027  0.803329630  0.770315821
     0.788078431  0.555467901  0.765118209
     0.790620321  0.879880247  0.767812239
     0.833985740  0.631825926  0.758296418
     0.834934046  0.802380247  0.762559701
     0.878242424  0.550744444  0.759902985
     0.877711230  0.882208642  0.763784478
     0.923254902  0.633006173  0.764972537
     0.921882353  0.799571605  0.768273731
     0.965579323  0.555009877  0.779497015
     0.962320856  0.885680247  0.782836418
     0.010730232  0.635772840  0.784982687
     0.008968164  0.815112346  0.786914030
     0.050453476  0.553485185  0.799799104
     0.052777897  0.890833333  0.795587761
     0.093950802  0.637816049  0.812593433
     0.094594296  0.804261728  0.808903284
     0.133281996  0.563355556  0.827814030
     0.137579679  0.887139506  0.820265970
     0.177827094  0.647645679  0.836427761
     0.181897326  0.810532099  0.827476119
     0.219863102  0.566403704  0.851800896
     0.225383601  0.888383951  0.833400896
     0.264886275  0.647176543  0.858130746
     0.266667380  0.809001235  0.847670149
     0.307362567  0.556343210  0.864971642
     0.309970410  0.891911111  0.850364776
     0.350840642  0.638016049  0.859128955
     0.351622460  0.806533333  0.856842090
     0.403358289  0.137061728  0.866998507
     0.404128342  0.311959259  0.867480000
     0.448356506  0.054763086  0.863744179
     0.448367201  0.385243210  0.859974925
     0.492823529  0.132240741  0.856400896
     0.493857398  0.300276543  0.854080299
     0.537554367  0.049932716  0.844990448
     0.536495544  0.384872840  0.842099403
     0.578035651  0.134592593  0.832340896
     0.579729055  0.304528395  0.834835224
     0.617422460  0.048853333  0.812102985
     0.617212121  0.380901235  0.813286567
     0.661126560  0.130491358  0.801819104
     0.660673797  0.302381481  0.802850448
     0.701522282  0.049250370  0.788293433
     0.701693405  0.378943210  0.787544179
     0.747037433  0.132301235  0.782157612
     0.745233512  0.299739506  0.778356119
     0.789846702  0.048677037  0.776075821
     0.789860963  0.383240741  0.768989254
     0.832399287  0.131929630  0.772305373
     0.833233512  0.302198765  0.766114925
     0.877008913  0.050061235  0.770478806
     0.879062389  0.378581481  0.764819403
     0.920474153  0.132038272  0.776630149
     0.923376114  0.301445679  0.772880597
     0.963618538  0.057388148  0.784232836
     0.966007130  0.387769136  0.778691642
     0.008087558  0.133472840  0.791718209
     0.007925740  0.307092593  0.792152836
     0.050008200  0.057044691  0.802295522
     0.051623886  0.386753086  0.805416418
     0.092241711  0.137861728  0.816321791
     0.092071301  0.304927160  0.818891642
     0.134523351  0.054220988  0.826028358
     0.134917291  0.391714815  0.828850448
     0.178243137  0.147364198  0.834153433
     0.175945811  0.312455556  0.842611940
     0.222490553  0.057708642  0.839382388
     0.219675579  0.396222222  0.851125672
     0.265368627  0.136850617  0.849433731
     0.263252050  0.304643210  0.856430746
     0.310367558  0.060048025  0.853620000
     0.307517647  0.387767901  0.864544179
     0.351141533  0.135376543  0.868024478
     0.350877718  0.313202469  0.868713433

  ion indices of the primitive-cell ions
   primitive index   ion index
                 1           1
                 2           2
                 3           3
                 4           4
                 5           5
                 6           6
                 7           7
                 8           8
                 9           9
                10          10
                11          11
                12          12
                13          13
                14          14
                15          15
                16          16
                17          17
                18          18
                19          19
                20          20
                21          21
                22          22
                23          23
                24          24
                25          25
                26          26
                27          27
                28          28
                29          29
                30          30
                31          31
                32          32
                33          33
                34          34
                35          35
                36          36
                37          37
                38          38
                39          39
                40          40
                41          41
                42          42
                43          43
                44          44
                45          45
                46          46
                47          47
                48          48
                49          49
                50          50
                51          51
                52          52
                53          53
                54          54
                55          55
                56          56
                57          57
                58          58
                59          59
                60          60
                61          61
                62          62
                63          63
                64          64
                65          65
                66          66
                67          67
                68          68
                69          69
                70          70
                71          71
                72          72
                73          73
                74          74
                75          75
                76          76
                77          77
                78          78
                79          79
                80          80
                81          81
                82          82
                83          83
                84          84
                85          85
                86          86
                87          87
                88          88
                89          89
                90          90
                91          91
                92          92

----------------------------------------------------------------------------------------

 
 
 KPOINTS: K-Spacing Value to Generate K-Mesh: 0.03

Automatic generation of k-mesh.
 Grid dimensions read from file:
 generate k-points for:    1    4    1

 Generating k-lattice:

  Cartesian coordinates                     Fractional coordinates (reciprocal lattice)
     0.035650624  0.000000000  0.000000000     1.000000000  0.000000000  0.000000000
     0.000000000  0.030864198  0.000000000     0.000000000  0.250000000  0.000000000
     0.000000000  0.000000000  0.029850746     0.000000000  0.000000000  1.000000000

  Length of vectors
     0.035650624  0.030864198  0.029850746

  Shift w.r.t. Gamma in fractional coordinates (k-lattice)
     0.000000000  0.000000000  0.000000000

 
 Subroutine IBZKPT returns following result:
 ===========================================
 
 Found      3 irreducible k-points:
 
 Following reciprocal coordinates:
            Coordinates               Weight
  0.000000  0.000000  0.000000      1.000000
  0.000000  0.250000  0.000000      2.000000
  0.000000  0.500000  0.000000      1.000000
 
 Following cartesian coordinates:
            Coordinates               Weight
  0.000000  0.000000  0.000000      1.000000
  0.000000  0.030864  0.000000      2.000000
  0.000000  0.061728  0.000000      1.000000
 


--------------------------------------------------------------------------------------------------------




 Dimension of arrays:
   k-points           NKPTS =      3   k-points in BZ     NKDIM =      3   number of bands    NBANDS=    232
   number of dos      NEDOS =    301   number of ions     NIONS =     92
   non local maximal  LDIM  =      4   non local SUM 2l+1 LMDIM =      8
   total plane-waves  NPLWV = ******
   max r-space proj   IRMAX =   1967   max aug-charges    IRDMAX=   5083
   dimension x,y,z NGX =   210 NGY =   60 NGZ =  250
   dimension x,y,z NGXF=   420 NGYF=  120 NGZF=  500
   support grid    NGXF=   420 NGYF=  120 NGZF=  500
   ions per type =              92
   NGX,Y,Z   is equivalent  to a cutoff of  12.45, 12.31, 12.41 a.u.
   NGXF,Y,Z  is equivalent  to a cutoff of  24.89, 24.63, 24.81 a.u.

 SYSTEM =  unknown system                          
 POSCAR =   C                                      

 Startparameter for this run:
   NWRITE =      2    write-flag & timer
   PREC   = accura    normal or accurate (medium, high low for compatibility)
   ISTART =      0    job   : 0-new  1-cont  2-samecut
   ICHARG =      2    charge: 1-file 2-atom 10-const
   ISPIN  =      1    spin polarized calculation?
   LNONCOLLINEAR =      F non collinear calculations
   LSORBIT =      F    spin-orbit coupling
   INIWAV =      1    electr: 0-lowe 1-rand  2-diag
   LASPH  =      F    aspherical Exc in radial PAW
 Electronic Relaxation 1
   ENCUT  =  500.0 eV  36.75 Ry    6.06 a.u.  51.14 14.77 61.08*2*pi/ulx,y,z
   ENINI  =  500.0     initial cutoff
   ENAUG  =  644.9 eV  augmentation charge cutoff
   NELM   =    150;   NELMIN=  2; NELMDL= -5     # of ELM steps 
   EDIFF  = 0.1E-05   stopping-criterion for ELM
   LREAL  =      T    real-space projection
   NLSPLINE    = F    spline interpolate recip. space projectors
   LCOMPAT=      F    compatible to vasp.4.4
   GGA_COMPAT  = T    GGA compatible to vasp.4.4-vasp.4.6
   LMAXPAW     = -100 max onsite density
   LMAXMIX     =    2 max onsite mixed and CHGCAR
   VOSKOWN=      0    Vosko Wilk Nusair interpolation
   ROPT   =   -0.00025
 Ionic relaxation
   EDIFFG = 0.1E-04   stopping-criterion for IOM
   NSW    =      0    number of steps for IOM
   NBLOCK =      1;   KBLOCK =      1    inner block; outer block 
   IBRION =     -1    ionic relax: 0-MD 1-quasi-New 2-CG
   NFREE  =      0    steps in history (QN), initial steepest desc. (CG)
   ISIF   =      2    stress and relaxation
   IWAVPR =     10    prediction:  0-non 1-charg 2-wave 3-comb
   ISYM   =      2    0-nonsym 1-usesym 2-fastsym
   LCORR  =      T    Harris-Foulkes like correction to forces

   POTIM  = 0.5000    time-step for ionic-motion
   TEIN   =    0.0    initial temperature
   TEBEG  =    0.0;   TEEND  =   0.0 temperature during run
   SMASS  =  -3.00    Nose mass-parameter (am)
   estimated Nose-frequenzy (Omega)   =  0.10E-29 period in steps = 0.13E+47 mass=  -0.180E-25a.u.
   SCALEE = 1.0000    scale energy and forces
   NPACO  =    256;   APACO  = 10.0  distance and # of slots for P.C.
   PSTRESS=    0.0 pullay stress

  Mass of Ions in am
   POMASS =  12.01
  Ionic Valenz
   ZVAL   =   4.00
  Atomic Wigner-Seitz radii
   RWIGS  =  -1.00
  virtual crystal weights 
   VCA    =   1.00
   NELECT =     368.0000    total number of electrons
   NUPDOWN=      -1.0000    fix difference up-down

 DOS related values:
   EMIN   =  10.00;   EMAX   =-10.00  energy-range for DOS
   EFERMI =   0.00;   METHOD = LEGACY      
   ISMEAR =     0;   SIGMA  =   0.20  broadening in eV -4-tet -1-fermi 0-gaus
   EFERMI_NEDOS =   21; number of points for ismear=-14 and -15

 Electronic relaxation 2 (details)
   IALGO  =     38    algorithm
   LDIAG  =      T    sub-space diagonalisation (order eigenvalues)
   LSUBROT=      F    optimize rotation matrix (better conditioning)
   TURBO    =      0    0=normal 1=particle mesh
   IRESTART =      0    0=no restart 2=restart with 2 vectors
   NREBOOT  =      0    no. of reboots
   NMIN     =      0    reboot dimension
   EREF     =   0.00    reference energy to select bands
   IMIX   =      4    mixing-type and parameters
     AMIX     =   0.40;   BMIX     =  1.00
     AMIX_MAG =   1.60;   BMIX_MAG =  1.00
     AMIN     =   0.10
     WC   =   100.;   INIMIX=   1;  MIXPRE=   1;  MAXMIX= -45

 Intra band minimization:
   WEIMIN = 0.0000     energy-eigenvalue tresh-hold
   EBREAK =  0.11E-08  absolut break condition
   DEPER  =   0.30     relativ break condition  

   TIME   =   0.40     timestep for ELM

  volume/ion in A,a.u.               =      82.73       558.30
  Fermi-wavevector in a.u.,A,eV,Ry     =   0.596398  1.127030  4.839472  0.355691
  Thomas-Fermi vector in A             =   1.646729
 
 Write flags
   LWAVE        =      F    write WAVECAR
   LDOWNSAMPLE  =      F    k-point downsampling of WAVECAR
   LCHARG       =      F    write CHGCAR
   LVTOT        =      F    write LOCPOT, total local potential
   LVHAR        =      F    write LOCPOT, Hartree potential only
   WRT_POTENTIAL= false  ! write potential to hdf5 file
   LELF         =      F    write electronic localiz. function (ELF)
   LORBIT       =      0    0 simple, 1 ext, 2 COOP (PROOUT), +10 PAW based schemes


 Python interface
   PLUGINS active      =      F    recompile with -DPLUGINS to activate
 
 Dipole corrections
   LMONO      =      F    monopole corrections only (constant potential shift)
   LDIPOL     =      F    correct potential (dipole corrections)
   IDIPOL     =      0    1-x, 2-y, 3-z, 4-all directions 
   EPSILON    =  1.0000000 bulk dielectric constant
   LVACPOTAV  =      F  vacuum potentials using an averaging scheme for the charge density
   VACPOTFLAT =  0.1000000 required flatness to determine vacuum potential
 
Coulomb truncation method
  LTRUNCATE          =      F  Coulomb kernel truncation to be used
  IDIMENSIONALITY    =      3  Dimensionality of cutoff (0 molecules / 2 surfaces)
  ISURFACE           =     -1  Direction of surface normal
  LCOARSEN           =      F  Coarsen the charge grid before padding, preferred

 
 Exchange correlation treatment:
   GGA     = PE    functional components
   XC_C    = 1    coefficients multiplying the functional components
   LIBXC   =     F    Libxc                    
   VOSKOWN =     0    Vosko Wilk Nusair interpolation
   LHFCALC =     F    Hartree Fock is set to
   LHFONE  =     F    Hartree Fock one center treatment
   AEXX    =    0.0000 exact exchange contribution

 Parameters of functionals:
   PE:
     No parameter
 
 Van der Waals corrections
   IVDW    =     0    specifies the selected vdW correction

 Linear response parameters
   LEPSILON=     F    determine dielectric tensor
   LRPA    =     F    only Hartree local field effects (RPA)
   LNABLA  =     F    use nabla operator in PAW spheres
   LVEL    =     F    velocity operator in full k-point grid
   CSHIFT  =0.1000    complex shift for real part using Kramers Kronig
   OMEGAMAX=  -1.0    maximum frequency
   DEG_THRESHOLD= 0.2000000E-02 threshold for treating states as degnerate
   RTIME   =   -0.100 relaxation time in fs
  (WPLASMAI=    0.000 imaginary part of plasma frequency in eV, 0.658/RTIME)
   DFIELD  = 0.0000000 0.0000000 0.0000000 field for delta impulse in time
 
  Optional k-point grid parameters
   LKPOINTS_OPT  =     F    use optional k-point grid
   KPOINTS_OPT_MODE=     1    mode for optional k-point grid
 
 Orbital magnetization related:
   ORBITALMAG=     F  switch on orbital magnetization
   LCHIMAG   =     F  perturbation theory with respect to B field
   DQ        =  0.001000  dq finite difference perturbation B field
   LLRAUG    =     F  two centre corrections for induced B field
   LBONE     =     F  B-component reconstruction in AE one-centre
   LVGVCALC  =     T  calculate vGv susceptibility
   LVGVAPPL  =     F  apply vGv susceptibility instead of pGv for G=0

 Random number generation:
   RANDOM_GENERATOR = DEFAULT
   PCG_SEED         = not used


--------------------------------------------------------------------------------------------------------


 Static calculation
 charge density and potential will be updated during run
 non-spin polarized calculation
 Variant of blocked Davidson
 Davidson routine will perform the subspace rotation
 perform sub-space diagonalisation
    after iterative eigenvector-optimisation
 modified Broyden-mixing scheme, WC =      100.0
 initial mixing is a Kerker type mixing with AMIX =  0.4000 and BMIX =      1.0000
 Hartree-type preconditioning will be used
 using additional bands            48
 real space projection scheme for non local part
 use partial core corrections
 calculate Harris-corrections to forces 
   (improved forces if not selfconsistent)
 use gradient corrections 
 use of overlap-Matrix (Vanderbilt PP)
 Gauss-broadening in eV      SIGMA  =   0.20


--------------------------------------------------------------------------------------------------------


  energy-cutoff  :      500.00
  volume of cell :     7611.37
      direct lattice vectors                 reciprocal lattice vectors
    28.050000000  0.000000000  0.000000000     0.035650624  0.000000000  0.000000000
     0.000000000  8.100000000  0.000000000     0.000000000  0.123456790  0.000000000
     0.000000000  0.000000000 33.500000000     0.000000000  0.000000000  0.029850746

  length of vectors
    28.050000000  8.100000000 33.500000000     0.035650624  0.123456790  0.029850746


 
 k-points in units of 2pi/SCALE and weight: K-Spacing Value to Generate K-Mesh: 0.03
   0.00000000  0.00000000  0.00000000       0.250
   0.00000000  0.03086420  0.00000000       0.500
   0.00000000  0.06172840  0.00000000       0.250
 
 k-points in reciprocal lattice and weights: K-Spacing Value to Generate K-Mesh: 0.03
   0.00000000  0.00000000  0.00000000       0.250
   0.00000000  0.25000000  0.00000000       0.500
   0.00000000  0.50000000  0.00000000       0.250
 
 position of ions in fractional coordinates (direct lattice) 
   0.40307665  0.63374321  0.85894836
   0.40346524  0.80645062  0.85865343
   0.44688414  0.55489012  0.85340657
   0.44734403  0.88884691  0.85657821
   0.49237433  0.63133704  0.84758269
   0.49036720  0.80569136  0.84741522
   0.53406061  0.55394938  0.83527821
   0.53534403  0.87806420  0.84039761
   0.57263458  0.63496667  0.81655701
   0.57303387  0.80716420  0.81734925
   0.61501604  0.55073457  0.80394806
   0.61579323  0.88430741  0.80416209
   0.65718360  0.62979136  0.79160687
   0.65758645  0.80412840  0.78963642
   0.70056684  0.55142593  0.78202239
   0.70383244  0.88373827  0.78306388
   0.74411765  0.63199012  0.76886746
   0.74638503  0.80332963  0.77031582
   0.78807843  0.55546790  0.76511821
   0.79062032  0.87988025  0.76781224
   0.83398574  0.63182593  0.75829642
   0.83493405  0.80238025  0.76255970
   0.87824242  0.55074444  0.75990299
   0.87771123  0.88220864  0.76378448
   0.92325490  0.63300617  0.76497254
   0.92188235  0.79957160  0.76827373
   0.96557932  0.55500988  0.77949701
   0.96232086  0.88568025  0.78283642
   0.01073023  0.63577284  0.78498269
   0.00896816  0.81511235  0.78691403
   0.05045348  0.55348519  0.79979910
   0.05277790  0.89083333  0.79558776
   0.09395080  0.63781605  0.81259343
   0.09459430  0.80426173  0.80890328
   0.13328200  0.56335556  0.82781403
   0.13757968  0.88713951  0.82026597
   0.17782709  0.64764568  0.83642776
   0.18189733  0.81053210  0.82747612
   0.21986310  0.56640370  0.85180090
   0.22538360  0.88838395  0.83340090
   0.26488627  0.64717654  0.85813075
   0.26666738  0.80900123  0.84767015
   0.30736257  0.55634321  0.86497164
   0.30997041  0.89191111  0.85036478
   0.35084064  0.63801605  0.85912896
   0.35162246  0.80653333  0.85684209
   0.40335829  0.13706173  0.86699851
   0.40412834  0.31195926  0.86748000
   0.44835651  0.05476309  0.86374418
   0.44836720  0.38524321  0.85997493
   0.49282353  0.13224074  0.85640090
   0.49385740  0.30027654  0.85408030
   0.53755437  0.04993272  0.84499045
   0.53649554  0.38487284  0.84209940
   0.57803565  0.13459259  0.83234090
   0.57972906  0.30452840  0.83483522
   0.61742246  0.04885333  0.81210299
   0.61721212  0.38090123  0.81328657
   0.66112656  0.13049136  0.80181910
   0.66067380  0.30238148  0.80285045
   0.70152228  0.04925037  0.78829343
   0.70169340  0.37894321  0.78754418
   0.74703743  0.13230123  0.78215761
   0.74523351  0.29973951  0.77835612
   0.78984670  0.04867704  0.77607582
   0.78986096  0.38324074  0.76898925
   0.83239929  0.13192963  0.77230537
   0.83323351  0.30219877  0.76611493
   0.87700891  0.05006123  0.77047881
   0.87906239  0.37858148  0.76481940
   0.92047415  0.13203827  0.77663015
   0.92337611  0.30144568  0.77288060
   0.96361854  0.05738815  0.78423284
   0.96600713  0.38776914  0.77869164
   0.00808756  0.13347284  0.79171821
   0.00792574  0.30709259  0.79215284
   0.05000820  0.05704469  0.80229552
   0.05162389  0.38675309  0.80541642
   0.09224171  0.13786173  0.81632179
   0.09207130  0.30492716  0.81889164
   0.13452335  0.05422099  0.82602836
   0.13491729  0.39171481  0.82885045
   0.17824314  0.14736420  0.83415343
   0.17594581  0.31245556  0.84261194
   0.22249055  0.05770864  0.83938239
   0.21967558  0.39622222  0.85112567
   0.26536863  0.13685062  0.84943373
   0.26325205  0.30464321  0.85643075
   0.31036756  0.06004802  0.85362000
   0.30751765  0.38776790  0.86454418
   0.35114153  0.13537654  0.86802448
   0.35087772  0.31320247  0.86871343
 
 position of ions in cartesian coordinates  (Angst):
  11.30630000  5.13332000 28.77477000
  11.31720000  6.53225000 28.76489000
  12.53510000  4.49461000 28.58912000
  12.54800000  7.19966000 28.69537000
  13.81110000  5.11383000 28.39402000
  13.75480000  6.52610000 28.38841000
  14.98040000  4.48699000 27.98182000
  15.01640000  7.11232000 28.15332000
  16.06240000  5.14323000 27.35466000
  16.07360000  6.53803000 27.38120000
  17.25120000  4.46095000 26.93226000
  17.27300000  7.16289000 26.93943000
  18.43400000  5.10131000 26.51883000
  18.44530000  6.51344000 26.45282000
  19.65090000  4.46655000 26.19775000
  19.74250000  7.15828000 26.23264000
  20.87250000  5.11912000 25.75706000
  20.93610000  6.50697000 25.80558000
  22.10560000  4.49929000 25.63146000
  22.17690000  7.12703000 25.72171000
  23.39330000  5.11779000 25.40293000
  23.41990000  6.49928000 25.54575000
  24.63470000  4.46103000 25.45675000
  24.61980000  7.14589000 25.58678000
  25.89730000  5.12735000 25.62658000
  25.85880000  6.47653000 25.73717000
  27.08450000  4.49558000 26.11315000
  26.99310000  7.17401000 26.22502000
   0.30098300  5.14976000 26.29692000
   0.25155700  6.60241000 26.36162000
   1.41522000  4.48323000 26.79327000
   1.48042000  7.21575000 26.65219000
   2.63532000  5.16631000 27.22188000
   2.65337000  6.51452000 27.09826000
   3.73856000  4.56318000 27.73177000
   3.85911000  7.18583000 27.47891000
   4.98805000  5.24593000 28.02033000
   5.10222000  6.56531000 27.72045000
   6.16716000  4.58787000 28.53533000
   6.32201000  7.19591000 27.91893000
   7.43006000  5.24213000 28.74738000
   7.48002000  6.55291000 28.39695000
   8.62152000  4.50638000 28.97655000
   8.69467000  7.22448000 28.48722000
   9.84108000  5.16793000 28.78082000
   9.86301000  6.53292000 28.70421000
  11.31420000  1.11020000 29.04445000
  11.33580000  2.52687000 29.06058000
  12.57640000  0.44358100 28.93543000
  12.57670000  3.12047000 28.80916000
  13.82370000  1.07115000 28.68943000
  13.85270000  2.43224000 28.61169000
  15.07840000  0.40445500 28.30718000
  15.04870000  3.11747000 28.21033000
  16.21390000  1.09020000 27.88342000
  16.26140000  2.46668000 27.96698000
  17.31870000  0.39571200 27.20545000
  17.31280000  3.08530000 27.24510000
  18.54460000  1.05698000 26.86094000
  18.53190000  2.44929000 26.89549000
  19.67770000  0.39892800 26.40783000
  19.68250000  3.06944000 26.38273000
  20.95440000  1.07164000 26.20228000
  20.90380000  2.42789000 26.07493000
  22.15520000  0.39428400 25.99854000
  22.15560000  3.10425000 25.76114000
  23.34880000  1.06863000 25.87223000
  23.37220000  2.44781000 25.66485000
  24.60010000  0.40549600 25.81104000
  24.65770000  3.06651000 25.62145000
  25.81930000  1.06951000 26.01711000
  25.90070000  2.44171000 25.89150000
  27.02950000  0.46484400 26.27180000
  27.09650000  3.14093000 26.08617000
   0.22685600  1.08113000 26.52256000
   0.22231700  2.48745000 26.53712000
   1.40273000  0.46206200 26.87690000
   1.44805000  3.13270000 26.98145000
   2.58738000  1.11668000 27.34678000
   2.58260000  2.46991000 27.43287000
   3.77338000  0.43919000 27.67195000
   3.78443000  3.17289000 27.76649000
   4.99972000  1.19365000 27.94414000
   4.93528000  2.53089000 28.22750000
   6.24086000  0.46744000 28.11931000
   6.16190000  3.20940000 28.51271000
   7.44359000  1.10849000 28.45603000
   7.38422000  2.46761000 28.69043000
   8.70581000  0.48638900 28.59627000
   8.62587000  3.14092000 28.96223000
   9.84952000  1.09655000 29.07882000
   9.84212000  2.53694000 29.10190000
 


--------------------------------------------------------------------------------------------------------


 k-point     1 :   0.0000 0.0000 0.0000  plane waves:  193173
 k-point     2 :   0.0000 0.2500 0.0000  plane waves:  193166
 k-point     3 :   0.0000 0.5000 0.0000  plane waves:  193226

 maximum and minimum number of plane-waves per node :    193226   193166

 maximum number of plane-waves:    193226
 maximum index in each direction: 
   IXMAX=   51   IYMAX=   14   IZMAX=   61
   IXMIN=  -51   IYMIN=  -15   IZMIN=  -61


 serial   3D FFT for wavefunctions
 parallel 3D FFT for charge:
    minimum data exchange during FFTs selected (reduces bandwidth)


 total amount of memory used by VASP MPI-rank0  2294518. kBytes
=======================================================================

   base                                    :      30000. kBytes
   nonlr-proj                              :      15084. kBytes
   fftplans                                :     436558. kBytes
   grid                                    :     732614. kBytes
   one-center                              :        282. kBytes
   wavefun                                 :    1079980. kBytes
 
     INWAV:  cpu time      0.0000: real time      0.0000
 Broyden mixing: mesh for mixing (old mesh)
   NGX =103   NGY = 29   NGZ =123
  (NGX  =420   NGY  =120   NGZ  =500)
  gives a total of 367401 points

 initial charge density was supplied:
 charge density of overlapping atoms calculated
 number of electron     368.0000000 magnetization 
 keeping initial charge density in first step


--------------------------------------------------------------------------------------------------------


 Maximum index for non-local projection operator          1872
 Maximum index for augmentation-charges          2386 (set IRDMAX)


--------------------------------------------------------------------------------------------------------


 First call to EWALD:  gamma=   0.090
 Maximum number of real-space cells   2x   6x   2
 Maximum number of reciprocal cells   4x   1x   4

    FEWALD:  cpu time      0.1596: real time      0.1596


--------------------------------------- Ionic step        1  -------------------------------------------




--------------------------------------- Iteration      1(   1)  ---------------------------------------


    POTLOK:  cpu time      0.4201: real time      0.4544
    SETDIJ:  cpu time      0.0414: real time      0.0415
     EDDAV:  cpu time     11.0941: real time     11.0984
       DOS:  cpu time      0.0008: real time      0.0008
    --------------------------------------------
      LOOP:  cpu time     11.5564: real time     11.5951

 eigenvalue-minimisations  :  1712
 total energy-change (2. order) : 0.3684916E+04  (-0.1189274E+05)
 number of electron     368.0000000 magnetization 
 augmentation part      368.0000000 magnetization 

 Free energy of the ion-electron system (eV)
  ---------------------------------------------------
  alpha Z        PSCENC =        91.34886789
  Ewald energy   TEWEN  =    119266.48596413
  -Hartree energ DENC   =   -128609.27232523
  -exchange      EXHF   =         0.00000000
  -V(xc)+E(xc)   XCENC  =      1220.58827302
  PAW double counting   =      9984.02826696   -10036.41360137
  entropy T*S    EENTRO =        -0.84358314
  eigenvalues    EBANDS =     -1768.66113607
  atomic energy  EATOM  =     13537.65479391
  Solvation  Ediel_sol  =         0.00000000
  ---------------------------------------------------
  free energy    TOTEN  =      3684.91552010 eV

  energy without entropy =     3685.75910324  energy(sigma->0) =     3685.33731167


--------------------------------------------------------------------------------------------------------




--------------------------------------- Iteration      1(   2)  ---------------------------------------


     EDDAV:  cpu time     13.0551: real time     13.0598
       DOS:  cpu time      0.0007: real time      0.0007
    --------------------------------------------
      LOOP:  cpu time     13.0558: real time     13.0605

 eigenvalue-minimisations  :  2128
 total energy-change (2. order) :-0.3504761E+04  (-0.3242089E+04)
 number of electron     368.0000000 magnetization 
 augmentation part      368.0000000 magnetization 

 Free energy of the ion-electron system (eV)
  ---------------------------------------------------
  alpha Z        PSCENC =        91.34886789
  Ewald energy   TEWEN  =    119266.48596413
  -Hartree energ DENC   =   -128609.27232523
  -exchange      EXHF   =         0.00000000
  -V(xc)+E(xc)   XCENC  =      1220.58827302
  PAW double counting   =      9984.02826696   -10036.41360137
  entropy T*S    EENTRO =        -0.24821719
  eigenvalues    EBANDS =     -5274.01771979
  atomic energy  EATOM  =     13537.65479391
  Solvation  Ediel_sol  =         0.00000000
  ---------------------------------------------------
  free energy    TOTEN  =       180.15430234 eV

  energy without entropy =      180.40251953  energy(sigma->0) =      180.27841093


--------------------------------------------------------------------------------------------------------




--------------------------------------- Iteration      1(   3)  ---------------------------------------


     EDDAV:  cpu time     11.4150: real time     11.4192
       DOS:  cpu time      0.0007: real time      0.0007
    --------------------------------------------
      LOOP:  cpu time     11.4156: real time     11.4199

 eigenvalue-minimisations  :  1808
 total energy-change (2. order) :-0.1013055E+04  (-0.9926912E+03)
 number of electron     368.0000000 magnetization 
 augmentation part      368.0000000 magnetization 

 Free energy of the ion-electron system (eV)
  ---------------------------------------------------
  alpha Z        PSCENC =        91.34886789
  Ewald energy   TEWEN  =    119266.48596413
  -Hartree energ DENC   =   -128609.27232523
  -exchange      EXHF   =         0.00000000
  -V(xc)+E(xc)   XCENC  =      1220.58827302
  PAW double counting   =      9984.02826696   -10036.41360137
  entropy T*S    EENTRO =        -0.04339817
  eigenvalues    EBANDS =     -6287.27758382
  atomic energy  EATOM  =     13537.65479391
  Solvation  Ediel_sol  =         0.00000000
  ---------------------------------------------------
  free energy    TOTEN  =      -832.90074268 eV

  energy without entropy =     -832.85734451  energy(sigma->0) =     -832.87904360


--------------------------------------------------------------------------------------------------------




--------------------------------------- Iteration      1(   4)  ---------------------------------------


     EDDAV:  cpu time     10.9104: real time     10.9145
       DOS:  cpu time      0.0007: real time      0.0007
    --------------------------------------------
      LOOP:  cpu time     10.9110: real time     10.9151

 eigenvalue-minimisations  :  1704
 total energy-change (2. order) :-0.6173172E+02  (-0.6078554E+02)
 number of electron     368.0000000 magnetization 
 augmentation part      368.0000000 magnetization 

 Free energy of the ion-electron system (eV)
  ---------------------------------------------------
  alpha Z        PSCENC =        91.34886789
  Ewald energy   TEWEN  =    119266.48596413
  -Hartree energ DENC   =   -128609.27232523
  -exchange      EXHF   =         0.00000000
  -V(xc)+E(xc)   XCENC  =      1220.58827302
  PAW double counting   =      9984.02826696   -10036.41360137
  entropy T*S    EENTRO =        -0.05866115
  eigenvalues    EBANDS =     -6348.99404351
  atomic energy  EATOM  =     13537.65479391
  Solvation  Ediel_sol  =         0.00000000
  ---------------------------------------------------
  free energy    TOTEN  =      -894.63246535 eV

  energy without entropy =     -894.57380420  energy(sigma->0) =     -894.60313477


--------------------------------------------------------------------------------------------------------




--------------------------------------- Iteration      1(   5)  ---------------------------------------


     EDDAV:  cpu time     11.5749: real time     11.5819
       DOS:  cpu time      0.0007: real time      0.0007
    CHARGE:  cpu time      1.2085: real time      1.2119
    MIXING:  cpu time      0.2741: real time      0.2748
    --------------------------------------------
      LOOP:  cpu time     13.0583: real time     13.0692

 eigenvalue-minimisations  :  1840
 total energy-change (2. order) :-0.1540226E+01  (-0.1519877E+01)
 number of electron     367.9999993 magnetization 
 augmentation part       10.1071094 magnetization 

 Broyden mixing:
  rms(total) = 0.45188E+01    rms(broyden)= 0.45182E+01
  rms(prec ) = 0.46353E+01
  weight for this iteration     100.00

 Free energy of the ion-electron system (eV)
  ---------------------------------------------------
  alpha Z        PSCENC =        91.34886789
  Ewald energy   TEWEN  =    119266.48596413
  -Hartree energ DENC   =   -128609.27232523
  -exchange      EXHF   =         0.00000000
  -V(xc)+E(xc)   XCENC  =      1220.58827302
  PAW double counting   =      9984.02826696   -10036.41360137
  entropy T*S    EENTRO =        -0.05954748
  eigenvalues    EBANDS =     -6350.53338307
  atomic energy  EATOM  =     13537.65479391
  Solvation  Ediel_sol  =         0.00000000
  ---------------------------------------------------
  free energy    TOTEN  =      -896.17269124 eV

  energy without entropy =     -896.11314376  energy(sigma->0) =     -896.14291750


--------------------------------------------------------------------------------------------------------




--------------------------------------- Iteration      1(   6)  ---------------------------------------


    POTLOK:  cpu time      0.3189: real time      0.3220
    SETDIJ:  cpu time      0.0395: real time      0.0395
     EDDAV:  cpu time     10.2231: real time     10.2301
       DOS:  cpu time      0.0007: real time      0.0007
    CHARGE:  cpu time      1.1543: real time      1.1567
    MIXING:  cpu time      0.2778: real time      0.2788
    --------------------------------------------
      LOOP:  cpu time     12.0142: real time     12.0278

 eigenvalue-minimisations  :  1576
 total energy-change (2. order) : 0.4880793E+02  (-0.4675955E+01)
 number of electron     367.9999993 magnetization 
 augmentation part        9.6856925 magnetization 

 Broyden mixing:
  rms(total) = 0.26527E+01    rms(broyden)= 0.26526E+01
  rms(prec ) = 0.27104E+01
  weight for this iteration     100.00

 eigenvalues of (default mixing * dielectric matrix)
  average eigenvalue GAMMA=   2.1831
  2.1831

 Free energy of the ion-electron system (eV)
  ---------------------------------------------------
  alpha Z        PSCENC =        91.34886789
  Ewald energy   TEWEN  =    119266.48596413
  -Hartree energ DENC   =   -129175.28347786
  -exchange      EXHF   =         0.00000000
  -V(xc)+E(xc)   XCENC  =      1243.74075855
  PAW double counting   =     18864.18946110   -18924.11443885
  entropy T*S    EENTRO =        -0.06795698
  eigenvalues    EBANDS =     -5751.31873402
  atomic energy  EATOM  =     13537.65479391
  Solvation  Ediel_sol  =         0.00000000
  ---------------------------------------------------
  free energy    TOTEN  =      -847.36476213 eV

  energy without entropy =     -847.29680515  energy(sigma->0) =     -847.33078364


--------------------------------------------------------------------------------------------------------




--------------------------------------- Iteration      1(   7)  ---------------------------------------


    POTLOK:  cpu time      0.3203: real time      0.3203
    SETDIJ:  cpu time      0.0397: real time      0.0397
     EDDAV:  cpu time     10.1787: real time     10.1828
       DOS:  cpu time      0.0007: real time      0.0007
    CHARGE:  cpu time      1.1563: real time      1.1566
    MIXING:  cpu time      0.2788: real time      0.2789
    --------------------------------------------
      LOOP:  cpu time     11.9745: real time     11.9790

 eigenvalue-minimisations  :  1560
 total energy-change (2. order) : 0.1820732E+02  (-0.6427569E+01)
 number of electron     367.9999993 magnetization 
 augmentation part        9.1371806 magnetization 

 Broyden mixing:
  rms(total) = 0.72351E+00    rms(broyden)= 0.72324E+00
  rms(prec ) = 0.73327E+00
  weight for this iteration     100.00

 eigenvalues of (default mixing * dielectric matrix)
  average eigenvalue GAMMA=   2.1887
  2.1887  2.1887

 Free energy of the ion-electron system (eV)
  ---------------------------------------------------
  alpha Z        PSCENC =        91.34886789
  Ewald energy   TEWEN  =    119266.48596413
  -Hartree energ DENC   =   -129933.78809121
  -exchange      EXHF   =         0.00000000
  -V(xc)+E(xc)   XCENC  =      1274.58234972
  PAW double counting   =     36290.16782922   -36356.92280371
  entropy T*S    EENTRO =        -0.07669049
  eigenvalues    EBANDS =     -4998.60966501
  atomic energy  EATOM  =     13537.65479391
  Solvation  Ediel_sol  =         0.00000000
  ---------------------------------------------------
  free energy    TOTEN  =      -829.15744555 eV

  energy without entropy =     -829.08075506  energy(sigma->0) =     -829.11910031


--------------------------------------------------------------------------------------------------------




--------------------------------------- Iteration      1(   8)  ---------------------------------------


    POTLOK:  cpu time      0.3197: real time      0.3197
    SETDIJ:  cpu time      0.0401: real time      0.0401
     EDDAV:  cpu time     10.4185: real time     10.4223
       DOS:  cpu time      0.0008: real time      0.0008
    CHARGE:  cpu time      1.1566: real time      1.1571
    MIXING:  cpu time      0.2801: real time      0.2813
    --------------------------------------------
      LOOP:  cpu time     12.2157: real time     12.2214

 eigenvalue-minimisations  :  1608
 total energy-change (2. order) : 0.2879023E+00  (-0.2333481E+00)
 number of electron     367.9999993 magnetization 
 augmentation part        9.1208654 magnetization 

 Broyden mixing:
  rms(total) = 0.99037E-01    rms(broyden)= 0.99003E-01
  rms(prec ) = 0.12123E+00
  weight for this iteration     100.00

 eigenvalues of (default mixing * dielectric matrix)
  average eigenvalue GAMMA=   1.8585
  1.1977  2.4365  1.9412

 Free energy of the ion-electron system (eV)
  ---------------------------------------------------
  alpha Z        PSCENC =        91.34886789
  Ewald energy   TEWEN  =    119266.48596413
  -Hartree energ DENC   =   -130027.87585110
  -exchange      EXHF   =         0.00000000
  -V(xc)+E(xc)   XCENC  =      1274.43680212
  PAW double counting   =     40456.55750288   -40520.70952350
  entropy T*S    EENTRO =        -0.07278085
  eigenvalues    EBANDS =     -4906.69531871
  atomic energy  EATOM  =     13537.65479391
  Solvation  Ediel_sol  =         0.00000000
  ---------------------------------------------------
  free energy    TOTEN  =      -828.86954323 eV

  energy without entropy =     -828.79676237  energy(sigma->0) =     -828.83315280


--------------------------------------------------------------------------------------------------------




--------------------------------------- Iteration      1(   9)  ---------------------------------------


    POTLOK:  cpu time      0.3188: real time      0.3188
    SETDIJ:  cpu time      0.0402: real time      0.0402
     EDDAV:  cpu time     10.5904: real time     10.5944
       DOS:  cpu time      0.0008: real time      0.0008
    CHARGE:  cpu time      1.1538: real time      1.1566
    MIXING:  cpu time      0.2857: real time      0.2868
    --------------------------------------------
      LOOP:  cpu time     12.3897: real time     12.3976

 eigenvalue-minimisations  :  1648
 total energy-change (2. order) : 0.1041328E+00  (-0.2518792E-01)
 number of electron     367.9999993 magnetization 
 augmentation part        9.0988203 magnetization 

 Broyden mixing:
  rms(total) = 0.56516E-01    rms(broyden)= 0.56508E-01
  rms(prec ) = 0.78075E-01
  weight for this iteration     100.00

 eigenvalues of (default mixing * dielectric matrix)
  average eigenvalue GAMMA=   1.6838
  2.2126  2.2126  1.1551  1.1551

 Free energy of the ion-electron system (eV)
  ---------------------------------------------------
  alpha Z        PSCENC =        91.34886789
  Ewald energy   TEWEN  =    119266.48596413
  -Hartree energ DENC   =   -130096.72562900
  -exchange      EXHF   =         0.00000000
  -V(xc)+E(xc)   XCENC  =      1275.78417465
  PAW double counting   =     41016.69028242   -41080.86333757
  entropy T*S    EENTRO =        -0.07383878
  eigenvalues    EBANDS =     -4839.06668806
  atomic energy  EATOM  =     13537.65479391
  Solvation  Ediel_sol  =         0.00000000
  ---------------------------------------------------
  free energy    TOTEN  =      -828.76541040 eV

  energy without entropy =     -828.69157162  energy(sigma->0) =     -828.72849101


--------------------------------------------------------------------------------------------------------




--------------------------------------- Iteration      1(  10)  ---------------------------------------


    POTLOK:  cpu time      0.3197: real time      0.3198
    SETDIJ:  cpu time      0.0402: real time      0.0402
     EDDAV:  cpu time     11.1036: real time     11.1077
       DOS:  cpu time      0.0007: real time      0.0007
    CHARGE:  cpu time      1.1503: real time      1.1545
    MIXING:  cpu time      0.2902: real time      0.2918
    --------------------------------------------
      LOOP:  cpu time     12.9047: real time     12.9148

 eigenvalue-minimisations  :  1752
 total energy-change (2. order) : 0.3700525E-01  (-0.4623914E-02)
 number of electron     367.9999993 magnetization 
 augmentation part        9.0894704 magnetization 

 Broyden mixing:
  rms(total) = 0.36091E-01    rms(broyden)= 0.36089E-01
  rms(prec ) = 0.55767E-01
  weight for this iteration     100.00

 eigenvalues of (default mixing * dielectric matrix)
  average eigenvalue GAMMA=   1.7312
  2.4711  2.4711  1.6192  1.2467  0.8478

 Free energy of the ion-electron system (eV)
  ---------------------------------------------------
  alpha Z        PSCENC =        91.34886789
  Ewald energy   TEWEN  =    119266.48596413
  -Hartree energ DENC   =   -130144.63373848
  -exchange      EXHF   =         0.00000000
  -V(xc)+E(xc)   XCENC  =      1276.11107285
  PAW double counting   =     40800.02768968   -40864.07693511
  entropy T*S    EENTRO =        -0.07380298
  eigenvalues    EBANDS =     -4791.57231703
  atomic energy  EATOM  =     13537.65479391
  Solvation  Ediel_sol  =         0.00000000
  ---------------------------------------------------
  free energy    TOTEN  =      -828.72840515 eV

  energy without entropy =     -828.65460217  energy(sigma->0) =     -828.69150366


--------------------------------------------------------------------------------------------------------




--------------------------------------- Iteration      1(  11)  ---------------------------------------


    POTLOK:  cpu time      0.3215: real time      0.3215
    SETDIJ:  cpu time      0.0400: real time      0.0400
     EDDAV:  cpu time     10.1777: real time     10.1815
       DOS:  cpu time      0.0008: real time      0.0008
    CHARGE:  cpu time      1.1637: real time      1.1648
    MIXING:  cpu time      0.2975: real time      0.2982
    --------------------------------------------
      LOOP:  cpu time     12.0013: real time     12.0068

 eigenvalue-minimisations  :  1568
 total energy-change (2. order) : 0.3013879E-01  (-0.2389172E-02)
 number of electron     367.9999993 magnetization 
 augmentation part        9.0843149 magnetization 

 Broyden mixing:
  rms(total) = 0.24241E-01    rms(broyden)= 0.24238E-01
  rms(prec ) = 0.37733E-01
  weight for this iteration     100.00

 eigenvalues of (default mixing * dielectric matrix)
  average eigenvalue GAMMA=   1.7813
  3.0020  2.5446  1.9220  0.9487  1.1351  1.1351

 Free energy of the ion-electron system (eV)
  ---------------------------------------------------
  alpha Z        PSCENC =        91.34886789
  Ewald energy   TEWEN  =    119266.48596413
  -Hartree energ DENC   =   -130210.95977368
  -exchange      EXHF   =         0.00000000
  -V(xc)+E(xc)   XCENC  =      1276.70064487
  PAW double counting   =     40722.81549247   -40786.76209402
  entropy T*S    EENTRO =        -0.07372800
  eigenvalues    EBANDS =     -4725.90843393
  atomic energy  EATOM  =     13537.65479391
  Solvation  Ediel_sol  =         0.00000000
  ---------------------------------------------------
  free energy    TOTEN  =      -828.69826636 eV

  energy without entropy =     -828.62453836  energy(sigma->0) =     -828.66140236


--------------------------------------------------------------------------------------------------------




--------------------------------------- Iteration      1(  12)  ---------------------------------------


    POTLOK:  cpu time      0.3213: real time      0.3214
    SETDIJ:  cpu time      0.0401: real time      0.0402
     EDDAV:  cpu time     10.1748: real time     10.1793
       DOS:  cpu time      0.0008: real time      0.0008
    CHARGE:  cpu time      1.1497: real time      1.1525
    MIXING:  cpu time      0.3052: real time      0.3064
    --------------------------------------------
      LOOP:  cpu time     11.9918: real time     12.0005

 eigenvalue-minimisations  :  1568
 total energy-change (2. order) : 0.3754399E-02  (-0.2179001E-02)
 number of electron     367.9999993 magnetization 
 augmentation part        9.0773306 magnetization 

 Broyden mixing:
  rms(total) = 0.15318E-01    rms(broyden)= 0.15315E-01
  rms(prec ) = 0.23306E-01
  weight for this iteration     100.00

 eigenvalues of (default mixing * dielectric matrix)
  average eigenvalue GAMMA=   2.0693
  4.8495  2.4241  2.0348  2.0348  0.9405  1.1008  1.1008

 Free energy of the ion-electron system (eV)
  ---------------------------------------------------
  alpha Z        PSCENC =        91.34886789
  Ewald energy   TEWEN  =    119266.48596413
  -Hartree energ DENC   =   -130273.73703636
  -exchange      EXHF   =         0.00000000
  -V(xc)+E(xc)   XCENC  =      1277.30226687
  PAW double counting   =     40773.70334874   -40837.63552863
  entropy T*S    EENTRO =        -0.07397857
  eigenvalues    EBANDS =     -4663.74320994
  atomic energy  EATOM  =     13537.65479391
  Solvation  Ediel_sol  =         0.00000000
  ---------------------------------------------------
  free energy    TOTEN  =      -828.69451196 eV

  energy without entropy =     -828.62053339  energy(sigma->0) =     -828.65752268


--------------------------------------------------------------------------------------------------------




--------------------------------------- Iteration      1(  13)  ---------------------------------------


    POTLOK:  cpu time      0.3216: real time      0.3217
    SETDIJ:  cpu time      0.0400: real time      0.0400
     EDDAV:  cpu time     10.0875: real time     10.0915
       DOS:  cpu time      0.0008: real time      0.0008
    CHARGE:  cpu time      1.1515: real time      1.1532
    MIXING:  cpu time      0.3118: real time      0.3137
    --------------------------------------------
      LOOP:  cpu time     11.9131: real time     11.9208

 eigenvalue-minimisations  :  1552
 total energy-change (2. order) :-0.1225523E-01  (-0.8959382E-03)
 number of electron     367.9999993 magnetization 
 augmentation part        9.0746173 magnetization 

 Broyden mixing:
  rms(total) = 0.85796E-02    rms(broyden)= 0.85774E-02
  rms(prec ) = 0.12107E-01
  weight for this iteration     100.00

 eigenvalues of (default mixing * dielectric matrix)
  average eigenvalue GAMMA=   2.0787
  5.4246  2.4586  2.4586  1.8616  1.1999  1.1999  0.8758  1.1504

 Free energy of the ion-electron system (eV)
  ---------------------------------------------------
  alpha Z        PSCENC =        91.34886789
  Ewald energy   TEWEN  =    119266.48596413
  -Hartree energ DENC   =   -130324.86884616
  -exchange      EXHF   =         0.00000000
  -V(xc)+E(xc)   XCENC  =      1277.50826404
  PAW double counting   =     40731.49753389   -40795.42322399
  entropy T*S    EENTRO =        -0.07376400
  eigenvalues    EBANDS =     -4612.83635691
  atomic energy  EATOM  =     13537.65479391
  Solvation  Ediel_sol  =         0.00000000
  ---------------------------------------------------
  free energy    TOTEN  =      -828.70676719 eV

  energy without entropy =     -828.63300319  energy(sigma->0) =     -828.66988519


--------------------------------------------------------------------------------------------------------




--------------------------------------- Iteration      1(  14)  ---------------------------------------


    POTLOK:  cpu time      0.3224: real time      0.3225
    SETDIJ:  cpu time      0.0399: real time      0.0399
     EDDAV:  cpu time     10.4218: real time     10.4258
       DOS:  cpu time      0.0007: real time      0.0007
    CHARGE:  cpu time      1.1526: real time      1.1550
    MIXING:  cpu time      0.3222: real time      0.3224
    --------------------------------------------
      LOOP:  cpu time     12.2596: real time     12.2663

 eigenvalue-minimisations  :  1616
 total energy-change (2. order) :-0.1630082E-01  (-0.1283055E-03)
 number of electron     367.9999993 magnetization 
 augmentation part        9.0735902 magnetization 

 Broyden mixing:
  rms(total) = 0.60373E-02    rms(broyden)= 0.60367E-02
  rms(prec ) = 0.82117E-02
  weight for this iteration     100.00

 eigenvalues of (default mixing * dielectric matrix)
  average eigenvalue GAMMA=   2.1661
  6.2784  2.6651  2.6651  1.8741  1.5027  1.5027  1.0960  0.9555  0.9555

 Free energy of the ion-electron system (eV)
  ---------------------------------------------------
  alpha Z        PSCENC =        91.34886789
  Ewald energy   TEWEN  =    119266.48596413
  -Hartree energ DENC   =   -130339.74453315
  -exchange      EXHF   =         0.00000000
  -V(xc)+E(xc)   XCENC  =      1277.53898650
  PAW double counting   =     40734.96777219   -40798.90553012
  entropy T*S    EENTRO =        -0.07386778
  eigenvalues    EBANDS =     -4597.99552157
  atomic energy  EATOM  =     13537.65479391
  Solvation  Ediel_sol  =         0.00000000
  ---------------------------------------------------
  free energy    TOTEN  =      -828.72306801 eV

  energy without entropy =     -828.64920023  energy(sigma->0) =     -828.68613412


--------------------------------------------------------------------------------------------------------




--------------------------------------- Iteration      1(  15)  ---------------------------------------


    POTLOK:  cpu time      0.3218: real time      0.3219
    SETDIJ:  cpu time      0.0399: real time      0.0399
     EDDAV:  cpu time     10.1362: real time     10.1401
       DOS:  cpu time      0.0008: real time      0.0008
    CHARGE:  cpu time      1.1540: real time      1.1548
    MIXING:  cpu time      0.3303: real time      0.3312
    --------------------------------------------
      LOOP:  cpu time     11.9830: real time     11.9886

 eigenvalue-minimisations  :  1560
 total energy-change (2. order) :-0.1969021E-01  (-0.1662202E-03)
 number of electron     367.9999993 magnetization 
 augmentation part        9.0733988 magnetization 

 Broyden mixing:
  rms(total) = 0.29941E-02    rms(broyden)= 0.29937E-02
  rms(prec ) = 0.42449E-02
  weight for this iteration     100.00

 eigenvalues of (default mixing * dielectric matrix)
  average eigenvalue GAMMA=   2.2320
  7.0289  3.4817  2.2396  2.2396  1.6505  1.3294  1.3294  1.0871  0.9666  0.9666

 Free energy of the ion-electron system (eV)
  ---------------------------------------------------
  alpha Z        PSCENC =        91.34886789
  Ewald energy   TEWEN  =    119266.48596413
  -Hartree energ DENC   =   -130349.55466635
  -exchange      EXHF   =         0.00000000
  -V(xc)+E(xc)   XCENC  =      1277.50824520
  PAW double counting   =     40736.14000199   -40800.07576382
  entropy T*S    EENTRO =        -0.07393506
  eigenvalues    EBANDS =     -4588.17626611
  atomic energy  EATOM  =     13537.65479391
  Solvation  Ediel_sol  =         0.00000000
  ---------------------------------------------------
  free energy    TOTEN  =      -828.74275822 eV

  energy without entropy =     -828.66882316  energy(sigma->0) =     -828.70579069


--------------------------------------------------------------------------------------------------------




--------------------------------------- Iteration      1(  16)  ---------------------------------------


    POTLOK:  cpu time      0.3218: real time      0.3218
    SETDIJ:  cpu time      0.0400: real time      0.0401
     EDDAV:  cpu time     10.3680: real time     10.3746
       DOS:  cpu time      0.0008: real time      0.0008
    CHARGE:  cpu time      1.1624: real time      1.1631
    MIXING:  cpu time      0.3399: real time      0.3401
    --------------------------------------------
      LOOP:  cpu time     12.2328: real time     12.2404

 eigenvalue-minimisations  :  1608
 total energy-change (2. order) :-0.9438299E-02  (-0.5518316E-04)
 number of electron     367.9999993 magnetization 
 augmentation part        9.0733133 magnetization 

 Broyden mixing:
  rms(total) = 0.22464E-02    rms(broyden)= 0.22462E-02
  rms(prec ) = 0.28177E-02
  weight for this iteration     100.00

 eigenvalues of (default mixing * dielectric matrix)
  average eigenvalue GAMMA=   2.3216
  7.8661  3.9679  2.3758  2.3758  1.8811  1.5094  1.5094  0.9130  1.0153  1.0619
  1.0619

 Free energy of the ion-electron system (eV)
  ---------------------------------------------------
  alpha Z        PSCENC =        91.34886789
  Ewald energy   TEWEN  =    119266.48596413
  -Hartree energ DENC   =   -130353.91900544
  -exchange      EXHF   =         0.00000000
  -V(xc)+E(xc)   XCENC  =      1277.48805718
  PAW double counting   =     40730.02038881   -40793.95557204
  entropy T*S    EENTRO =        -0.07387902
  eigenvalues    EBANDS =     -4583.80181195
  atomic energy  EATOM  =     13537.65479391
  Solvation  Ediel_sol  =         0.00000000
  ---------------------------------------------------
  free energy    TOTEN  =      -828.75219652 eV

  energy without entropy =     -828.67831750  energy(sigma->0) =     -828.71525701


--------------------------------------------------------------------------------------------------------




--------------------------------------- Iteration      1(  17)  ---------------------------------------


    POTLOK:  cpu time      0.3191: real time      0.3193
    SETDIJ:  cpu time      0.0401: real time      0.0401
     EDDAV:  cpu time     10.2455: real time     10.2495
       DOS:  cpu time      0.0008: real time      0.0008
    CHARGE:  cpu time      1.1533: real time      1.1548
    MIXING:  cpu time      0.3499: real time      0.3499
    --------------------------------------------
      LOOP:  cpu time     12.1086: real time     12.1144

 eigenvalue-minimisations  :  1584
 total energy-change (2. order) :-0.5114502E-02  (-0.3037390E-04)
 number of electron     367.9999993 magnetization 
 augmentation part        9.0732014 magnetization 

 Broyden mixing:
  rms(total) = 0.11893E-02    rms(broyden)= 0.11892E-02
  rms(prec ) = 0.15145E-02
  weight for this iteration     100.00

 eigenvalues of (default mixing * dielectric matrix)
  average eigenvalue GAMMA=   2.3745
  8.3689  4.6173  2.4695  2.4695  1.9401  1.6694  1.3892  1.3892  0.9615  0.9932
  1.1129  1.1129

 Free energy of the ion-electron system (eV)
  ---------------------------------------------------
  alpha Z        PSCENC =        91.34886789
  Ewald energy   TEWEN  =    119266.48596413
  -Hartree energ DENC   =   -130356.24770249
  -exchange      EXHF   =         0.00000000
  -V(xc)+E(xc)   XCENC  =      1277.48812750
  PAW double counting   =     40734.51921291   -40798.45217118
  entropy T*S    EENTRO =        -0.07389333
  eigenvalues    EBANDS =     -4581.48051037
  atomic energy  EATOM  =     13537.65479391
  Solvation  Ediel_sol  =         0.00000000
  ---------------------------------------------------
  free energy    TOTEN  =      -828.75731102 eV

  energy without entropy =     -828.68341769  energy(sigma->0) =     -828.72036436


--------------------------------------------------------------------------------------------------------




--------------------------------------- Iteration      1(  18)  ---------------------------------------


    POTLOK:  cpu time      0.3218: real time      0.3218
    SETDIJ:  cpu time      0.0404: real time      0.0404
     EDDAV:  cpu time     10.4086: real time     10.4153
       DOS:  cpu time      0.0008: real time      0.0008
    CHARGE:  cpu time      1.1541: real time      1.1548
    MIXING:  cpu time      0.3612: real time      0.3613
    --------------------------------------------
      LOOP:  cpu time     12.2870: real time     12.2945

 eigenvalue-minimisations  :  1616
 total energy-change (2. order) :-0.2371446E-02  (-0.1138634E-04)
 number of electron     367.9999993 magnetization 
 augmentation part        9.0731414 magnetization 

 Broyden mixing:
  rms(total) = 0.60378E-03    rms(broyden)= 0.60367E-03
  rms(prec ) = 0.78685E-03
  weight for this iteration     100.00

 eigenvalues of (default mixing * dielectric matrix)
  average eigenvalue GAMMA=   2.3887
  8.8054  4.9415  2.7845  2.5407  2.0090  1.5713  1.5713  1.5648  1.2215  0.9445
  0.9445  1.0768  1.0768

 Free energy of the ion-electron system (eV)
  ---------------------------------------------------
  alpha Z        PSCENC =        91.34886789
  Ewald energy   TEWEN  =    119266.48596413
  -Hartree energ DENC   =   -130357.15621409
  -exchange      EXHF   =         0.00000000
  -V(xc)+E(xc)   XCENC  =      1277.48677093
  PAW double counting   =     40733.94472469   -40797.87728336
  entropy T*S    EENTRO =        -0.07388748
  eigenvalues    EBANDS =     -4580.57341909
  atomic energy  EATOM  =     13537.65479391
  Solvation  Ediel_sol  =         0.00000000
  ---------------------------------------------------
  free energy    TOTEN  =      -828.75968247 eV

  energy without entropy =     -828.68579499  energy(sigma->0) =     -828.72273873


--------------------------------------------------------------------------------------------------------




--------------------------------------- Iteration      1(  19)  ---------------------------------------


    POTLOK:  cpu time      0.3222: real time      0.3222
    SETDIJ:  cpu time      0.0401: real time      0.0401
     EDDAV:  cpu time      9.4422: real time      9.4453
       DOS:  cpu time      0.0008: real time      0.0008
    CHARGE:  cpu time      1.1519: real time      1.1537
    MIXING:  cpu time      0.3718: real time      0.3737
    --------------------------------------------
      LOOP:  cpu time     11.3290: real time     11.3358

 eigenvalue-minimisations  :  1416
 total energy-change (2. order) :-0.9778145E-03  (-0.3079420E-05)
 number of electron     367.9999993 magnetization 
 augmentation part        9.0731299 magnetization 

 Broyden mixing:
  rms(total) = 0.37928E-03    rms(broyden)= 0.37925E-03
  rms(prec ) = 0.47092E-03
  weight for this iteration     100.00

 eigenvalues of (default mixing * dielectric matrix)
  average eigenvalue GAMMA=   2.4050
  8.9573  5.4751  3.1286  2.3594  2.3594  1.8905  1.4920  1.4920  1.2866  1.2866
  0.9223  0.9955  0.9955  1.0287

 Free energy of the ion-electron system (eV)
  ---------------------------------------------------
  alpha Z        PSCENC =        91.34886789
  Ewald energy   TEWEN  =    119266.48596413
  -Hartree energ DENC   =   -130357.52837839
  -exchange      EXHF   =         0.00000000
  -V(xc)+E(xc)   XCENC  =      1277.48661258
  PAW double counting   =     40733.25866791   -40797.19028844
  entropy T*S    EENTRO =        -0.07389239
  eigenvalues    EBANDS =     -4580.20300748
  atomic energy  EATOM  =     13537.65479391
  Solvation  Ediel_sol  =         0.00000000
  ---------------------------------------------------
  free energy    TOTEN  =      -828.76066028 eV

  energy without entropy =     -828.68676789  energy(sigma->0) =     -828.72371409


--------------------------------------------------------------------------------------------------------




--------------------------------------- Iteration      1(  20)  ---------------------------------------


    POTLOK:  cpu time      0.3221: real time      0.3221
    SETDIJ:  cpu time      0.0401: real time      0.0401
     EDDAV:  cpu time      9.2676: real time      9.2711
       DOS:  cpu time      0.0012: real time      0.0012
    CHARGE:  cpu time      1.1553: real time      1.1590
    MIXING:  cpu time      0.3846: real time      0.3850
    --------------------------------------------
      LOOP:  cpu time     11.1709: real time     11.1785

 eigenvalue-minimisations  :  1376
 total energy-change (2. order) :-0.4111509E-03  (-0.7883490E-06)
 number of electron     367.9999993 magnetization 
 augmentation part        9.0731248 magnetization 

 Broyden mixing:
  rms(total) = 0.23112E-03    rms(broyden)= 0.23111E-03
  rms(prec ) = 0.28044E-03
  weight for this iteration     100.00

 eigenvalues of (default mixing * dielectric matrix)
  average eigenvalue GAMMA=   2.4430
  9.1668  5.8735  3.6305  2.4921  2.4921  1.9334  1.6348  1.6348  1.3502  1.3502
  0.9464  1.0305  1.0305  1.0391  1.0391

 Free energy of the ion-electron system (eV)
  ---------------------------------------------------
  alpha Z        PSCENC =        91.34886789
  Ewald energy   TEWEN  =    119266.48596413
  -Hartree energ DENC   =   -130357.68438261
  -exchange      EXHF   =         0.00000000
  -V(xc)+E(xc)   XCENC  =      1277.48577786
  PAW double counting   =     40733.66135514   -40797.59301945
  entropy T*S    EENTRO =        -0.07389213
  eigenvalues    EBANDS =     -4580.04653618
  atomic energy  EATOM  =     13537.65479391
  Solvation  Ediel_sol  =         0.00000000
  ---------------------------------------------------
  free energy    TOTEN  =      -828.76107143 eV

  energy without entropy =     -828.68717930  energy(sigma->0) =     -828.72412537


--------------------------------------------------------------------------------------------------------




--------------------------------------- Iteration      1(  21)  ---------------------------------------


    POTLOK:  cpu time      0.3194: real time      0.3194
    SETDIJ:  cpu time      0.0402: real time      0.0402
     EDDAV:  cpu time      8.7000: real time      8.7058
       DOS:  cpu time      0.0008: real time      0.0008
    CHARGE:  cpu time      1.1685: real time      1.1691
    MIXING:  cpu time      0.3961: real time      0.3962
    --------------------------------------------
      LOOP:  cpu time     10.6250: real time     10.6315

 eigenvalue-minimisations  :  1264
 total energy-change (2. order) :-0.2148702E-03  (-0.2856889E-06)
 number of electron     367.9999993 magnetization 
 augmentation part        9.0731248 magnetization 

 Broyden mixing:
  rms(total) = 0.10925E-03    rms(broyden)= 0.10924E-03
  rms(prec ) = 0.13544E-03
  weight for this iteration     100.00

 eigenvalues of (default mixing * dielectric matrix)
  average eigenvalue GAMMA=   2.4062
  9.1781  6.1489  3.7910  2.5134  2.5134  2.0206  1.5511  1.5511  1.6622  1.2587
  1.2587  1.1364  0.9475  0.9787  0.9947  0.9947

 Free energy of the ion-electron system (eV)
  ---------------------------------------------------
  alpha Z        PSCENC =        91.34886789
  Ewald energy   TEWEN  =    119266.48596413
  -Hartree energ DENC   =   -130357.76550704
  -exchange      EXHF   =         0.00000000
  -V(xc)+E(xc)   XCENC  =      1277.48493594
  PAW double counting   =     40732.69724527   -40796.62929256
  entropy T*S    EENTRO =        -0.07389179
  eigenvalues    EBANDS =     -4579.96440206
  atomic energy  EATOM  =     13537.65479391
  Solvation  Ediel_sol  =         0.00000000
  ---------------------------------------------------
  free energy    TOTEN  =      -828.76128630 eV

  energy without entropy =     -828.68739452  energy(sigma->0) =     -828.72434041


[...]
   0.368E+02 -.913E+01 0.166E+03   -.374E+02 0.855E+01 -.166E+03   -.950E+00 -.318E+00 0.946E+00   -.869E-05 -.346E-05 0.174E-05
   0.120E+02 -.456E+01 0.155E+03   -.110E+02 0.367E+01 -.155E+03   0.742E+00 -.126E+01 -.121E+01   -.541E-05 -.848E-06 0.218E-05
   0.143E+02 0.569E+01 0.143E+03   -.139E+02 -.527E+01 -.143E+03   -.625E+00 0.918E+00 0.780E+00   -.532E-05 -.352E-05 0.157E-05
   0.133E+02 0.173E+02 0.223E+03   -.141E+02 -.172E+02 -.224E+03   -.194E+00 0.397E+00 0.137E+01   -.355E-06 -.238E-05 0.234E-05
   0.108E+02 -.326E+01 0.164E+03   -.115E+02 0.214E+01 -.164E+03   -.103E+01 -.305E+00 -.999E+00   0.109E-05 -.247E-05 0.158E-05
   -.126E+02 -.237E+01 0.207E+03   0.131E+02 0.126E+01 -.207E+03   0.456E+00 -.219E+00 -.947E-01   0.701E-05 -.537E-06 0.268E-05
   -.179E+02 0.249E+01 0.181E+03   0.192E+02 -.196E+01 -.182E+03   0.194E+00 0.476E+00 0.132E+01   0.798E-05 -.371E-05 0.205E-05
   -.290E+02 0.194E+02 0.198E+03   0.292E+02 -.206E+02 -.199E+03   -.607E+00 0.398E+00 0.179E+01   0.785E-05 0.622E-06 0.322E-05
   -.256E+02 -.129E+02 0.153E+03   0.257E+02 0.135E+02 -.153E+03   0.106E+00 0.101E+01 0.700E+00   0.819E-05 -.360E-05 0.213E-05
   -.103E+02 -.210E+02 0.598E+02   0.103E+02 0.225E+02 -.587E+02   0.537E+00 -.372E+00 -.322E+01   0.240E-05 -.807E-06 0.246E-06
   -.268E+01 0.189E+02 0.235E+02   0.285E+01 -.188E+02 -.227E+02   0.223E+01 0.124E+00 -.177E+01   0.327E-05 -.104E-05 0.541E-06
   -.273E+02 -.263E+01 0.132E+03   0.265E+02 0.470E+01 -.133E+03   -.118E+01 0.156E+00 0.206E+01   0.347E-05 -.164E-05 0.605E-06
   -.149E+02 0.595E+00 0.913E+02   0.141E+02 -.219E+01 -.916E+02   0.260E+00 -.238E+01 -.269E+00   0.594E-05 0.132E-05 0.713E-06
   -.152E+02 -.147E+02 0.465E+02   0.163E+02 0.153E+02 -.460E+02   0.135E+01 0.440E+00 0.299E+00   0.589E-05 0.703E-06 0.161E-05
   -.361E+02 0.154E+02 0.111E+03   0.370E+02 -.158E+02 -.112E+03   -.958E+00 -.240E+00 0.184E+01   0.485E-05 0.271E-05 0.152E-05
   0.122E+02 0.138E+02 0.757E+01   -.145E+02 -.142E+02 -.874E+01   -.563E+00 0.568E+00 -.322E+00   0.855E-06 0.118E-05 0.128E-06
   -.791E+01 -.163E+02 0.454E+02   0.775E+01 0.171E+02 -.455E+02   0.387E+00 0.823E+00 -.362E+00   -.800E-06 -.259E-05 -.280E-06
   0.258E+01 -.637E+01 -.784E+02   -.996E+00 0.563E+01 0.799E+02   0.142E+01 -.740E+00 -.715E+00   -.632E-05 -.870E-06 -.209E-05
   -.516E+01 0.793E+01 0.189E+02   0.484E+01 -.800E+01 -.196E+02   -.323E+00 0.774E+00 0.129E+00   -.307E-05 -.666E-06 -.100E-05
   0.115E+02 0.211E+02 -.724E+02   -.114E+02 -.224E+02 0.724E+02   0.317E+00 -.846E+00 0.297E+00   -.761E-05 0.159E-05 -.256E-05
   -.150E+02 -.891E+01 0.513E+02   0.151E+02 0.912E+01 -.517E+02   -.110E+01 -.690E+00 0.632E+00   -.374E-05 0.275E-05 -.125E-05
   0.257E+02 -.129E+02 -.158E+03   -.259E+02 0.136E+02 0.159E+03   0.159E-01 -.615E+00 -.882E+00   -.872E-05 -.329E-05 -.178E-05
   -.251E+02 0.455E+01 0.749E+02   0.255E+02 -.411E+01 -.758E+02   -.125E+01 0.669E+00 0.205E+01   -.803E-05 0.267E-05 -.166E-05
   0.186E+02 0.120E+02 -.173E+03   -.189E+02 -.130E+02 0.173E+03   -.809E+00 -.556E+00 -.834E+00   -.631E-05 0.145E-05 -.176E-05
   0.155E+01 -.654E+01 -.446E+02   -.163E+01 0.670E+01 0.446E+02   -.383E-01 0.765E-01 -.733E+00   -.619E-05 0.599E-05 -.362E-05
   -.174E+00 -.299E+01 -.196E+03   0.304E+00 0.365E+01 0.197E+03   0.645E+00 0.137E+01 -.207E+01   -.243E-05 -.366E-05 -.946E-06
   -.217E+02 -.401E+01 -.129E+02   0.221E+02 0.401E+01 0.124E+02   0.829E+00 -.570E+00 0.847E+00   -.451E-05 0.620E-05 -.183E-05
   -.116E+02 0.683E+02 -.858E+02   0.795E+01 -.703E+02 0.850E+02   0.178E+01 0.109E+01 0.182E+01   0.619E-05 -.334E-06 -.164E-05
   -.166E+02 -.625E+02 -.799E+02   0.136E+02 0.644E+02 0.804E+02   0.169E+01 -.151E+01 -.926E+00   0.430E-05 0.333E-05 -.143E-05
   -.475E+01 0.615E+02 -.169E+03   0.805E+01 -.615E+02 0.168E+03   -.366E+00 0.123E+01 0.830E+00   0.677E-05 0.188E-05 -.165E-05
   0.897E+00 -.614E+02 -.183E+03   0.190E+01 0.610E+02 0.184E+03   -.135E+01 -.206E+01 -.873E+00   0.261E-05 -.447E-05 -.148E-05
   -.231E+01 -.896E+01 -.195E+03   0.162E+01 0.953E+01 0.196E+03   -.631E+00 0.247E+00 -.164E+01   0.286E-05 0.134E-05 -.272E-05
   -.973E+01 0.750E+01 -.141E+03   0.107E+02 -.710E+01 0.141E+03   -.104E+01 -.114E+00 -.540E+00   0.233E-05 -.458E-05 -.105E-05
   -.246E+02 0.188E+02 -.163E+03   0.256E+02 -.193E+02 0.163E+03   0.527E+00 0.403E+00 0.140E+00   0.120E-05 0.177E-05 -.579E-06
   -.124E+02 -.194E+02 -.139E+03   0.122E+02 0.200E+02 0.139E+03   -.861E+00 0.884E+00 0.170E+00   0.622E-05 -.365E-05 -.135E-05
   -.201E+02 -.478E+01 -.146E+03   0.191E+02 0.413E+01 0.146E+03   -.932E+00 0.215E+00 0.242E+00   0.201E-05 0.871E-06 -.678E-06
   -.102E+02 0.509E+01 -.109E+03   0.960E+01 -.501E+01 0.109E+03   -.224E+00 0.470E-01 0.713E+00   0.312E-05 0.359E-06 -.564E-06
   -.324E+02 0.145E+02 -.955E+02   0.333E+02 -.152E+02 0.949E+02   0.785E+00 -.766E+00 0.958E-01   0.436E-06 0.180E-05 0.566E-06
   -.477E+02 -.143E+02 -.157E+03   0.484E+02 0.146E+02 0.158E+03   -.761E+00 -.528E+00 -.293E+01   -.129E-05 -.101E-06 -.334E-06
   0.146E+02 -.176E+02 0.284E+01   -.149E+02 0.189E+02 -.256E+01   0.675E+00 0.727E+00 0.531E+00   -.100E-05 -.378E-05 -.152E-06
   0.465E+01 0.453E+01 -.322E+01   -.498E+01 -.375E+01 0.268E+01   0.137E+01 0.949E+00 0.716E+00   -.225E-05 0.157E-05 0.121E-05
   0.739E+01 0.785E+01 -.167E+01   -.861E+01 -.762E+01 0.263E+01   -.406E+00 0.193E+00 -.319E+00   -.389E-05 -.360E-06 0.998E-06
   -.837E+00 -.132E+02 -.173E+02   0.680E+00 0.130E+02 0.181E+02   0.104E+00 -.830E+00 -.107E+01   -.237E-05 0.287E-06 0.149E-06
   0.127E+02 -.127E+02 0.597E+02   -.115E+02 0.136E+02 -.603E+02   0.157E+01 0.247E+00 0.664E+00   -.788E-05 -.725E-06 0.219E-05
   0.121E+02 0.214E+01 0.606E+02   -.121E+02 -.921E+00 -.609E+02   0.410E+00 0.924E+00 -.834E-01   -.650E-05 0.306E-05 0.141E-05
   0.130E+02 0.108E+02 0.316E+02   -.143E+02 -.113E+02 -.310E+02   -.663E+00 -.169E+00 -.630E+00   -.843E-05 0.694E-06 0.213E-05
   0.129E+02 -.208E+02 0.943E+02   -.121E+02 0.214E+02 -.946E+02   0.545E+00 -.414E-01 0.659E+00   -.702E-05 0.347E-05 0.198E-05
   0.112E+02 0.348E+00 0.375E+02   -.116E+02 -.121E+01 -.374E+02   0.183E+00 0.169E+00 -.791E+00   -.482E-05 0.110E-05 0.264E-05
   0.229E+02 0.536E+01 0.124E+03   -.242E+02 -.442E+01 -.124E+03   -.786E+00 0.254E-01 -.153E+00   -.350E-05 0.293E-05 0.171E-05
   -.171E+01 -.110E+01 0.618E+02   0.238E+01 0.188E+01 -.616E+02   0.968E+00 0.491E-01 -.782E+00   0.120E-05 0.245E-05 0.228E-05
   0.191E+00 -.954E+01 0.151E+03   0.570E+00 0.912E+01 -.151E+03   0.233E+00 -.731E+00 0.128E+01   0.739E-06 0.404E-05 0.196E-05
   -.360E+01 -.112E+02 0.963E+02   0.294E+01 0.111E+02 -.963E+02   0.421E+00 0.102E+00 0.238E+00   0.708E-05 0.178E-05 0.239E-05
   -.632E+01 0.999E+01 0.156E+03   0.659E+01 -.933E+01 -.157E+03   -.837E+00 0.102E+01 -.163E+00   0.580E-05 0.889E-06 0.244E-05
   0.143E+01 0.517E+01 0.588E+02   -.188E+01 -.456E+01 -.586E+02   0.883E+00 0.971E+00 -.435E+00   0.795E-05 0.172E-05 0.190E-05
   -.134E+02 -.112E+02 0.109E+03   0.127E+02 0.110E+02 -.109E+03   -.142E+01 0.182E+00 -.470E+00   0.641E-05 0.185E-05 0.185E-05
   -.145E+02 -.698E+01 0.341E+02   0.148E+02 0.613E+01 -.340E+02   -.208E-02 -.148E+01 -.964E-02   0.564E-05 -.402E-06 0.910E-06
   -.241E+02 0.116E+02 0.114E+03   0.250E+02 -.120E+02 -.114E+03   -.108E+00 -.836E+00 0.184E+01   0.164E-05 0.432E-05 0.118E-06
   -.795E+01 0.334E+01 0.539E+02   0.735E+01 -.169E+01 -.543E+02   -.972E+00 0.105E+01 0.843E+00   0.717E-05 -.498E-05 0.118E-05
   -.127E+02 -.118E+02 0.357E+02   0.134E+02 0.113E+02 -.351E+02   0.438E+00 -.737E+00 -.364E+00   0.356E-05 0.650E-06 0.271E-06
   -.117E+02 -.108E+02 0.611E+01   0.129E+02 0.108E+02 -.521E+01   0.731E+00 -.935E-01 -.932E+00   0.441E-05 -.191E-05 0.170E-06
   0.873E+01 0.114E+02 -.146E+02   -.999E+01 -.120E+02 0.142E+02   -.171E+01 0.196E+00 -.957E+00   0.656E-05 0.236E-05 0.168E-05
   0.833E+01 0.153E+02 -.341E+02   -.863E+01 -.163E+02 0.338E+02   -.559E+00 -.472E-01 0.515E+00   -.163E-05 0.372E-06 -.628E-06
   0.867E+01 -.115E+02 -.674E+02   -.768E+01 0.121E+02 0.683E+02   -.237E-01 0.641E+00 -.949E+00   0.136E-05 -.171E-05 -.206E-06
   0.300E+01 -.957E+01 -.682E+02   -.207E+01 0.101E+02 0.687E+02   0.701E+00 0.104E+01 -.155E+01   -.418E-05 -.581E-06 -.157E-05
   0.802E+01 0.650E+01 -.514E+02   -.837E+01 -.611E+01 0.509E+02   -.118E+01 0.124E+00 0.171E+01   -.132E-05 0.318E-06 0.235E-06
   -.109E+01 0.117E+02 -.237E+02   0.101E+01 -.130E+02 0.229E+02   0.348E-02 -.188E+01 0.194E+01   -.321E-05 0.227E-05 0.351E-06
   0.205E+02 -.627E+01 -.150E+03   -.201E+02 0.695E+01 0.152E+03   0.780E+00 -.311E+00 -.268E+01   -.520E-05 0.714E-06 -.133E-05
   0.905E+01 -.154E+02 -.233E+02   -.102E+02 0.157E+02 0.233E+02   0.863E+00 0.454E+00 -.121E+01   -.204E-05 -.925E-07 -.530E-06
   0.128E+02 0.117E+02 -.131E+03   -.126E+02 -.122E+02 0.131E+03   -.167E+00 -.873E+00 0.972E+00   -.742E-05 -.461E-05 -.150E-05
   -.204E+01 0.374E+01 -.542E+02   0.185E+01 -.333E+01 0.541E+02   0.716E-01 0.119E+01 0.479E+00   -.383E-05 -.391E-06 -.916E-06
   0.134E+02 -.105E+02 -.129E+03   -.139E+02 0.104E+02 0.129E+03   0.643E+00 0.998E+00 -.542E-01   -.567E-05 -.548E-05 -.214E-05
   -.197E+02 -.136E+02 -.419E+02   0.201E+02 0.142E+02 0.407E+02   -.454E+00 -.460E+00 0.172E+01   -.634E-05 0.229E-05 -.214E-05
   0.646E+01 0.790E+01 -.161E+03   -.765E+01 -.859E+01 0.161E+03   0.545E+00 0.441E+00 0.684E+00   -.367E-05 -.526E-05 -.205E-05
   -.707E+01 0.583E+02 -.210E+03   0.456E+01 -.580E+02 0.212E+03   0.156E+01 0.210E+01 -.298E+01   0.203E-05 0.424E-06 -.302E-05
   -.193E+02 -.540E+02 -.190E+03   0.175E+02 0.533E+02 0.190E+03   0.137E+01 -.219E+01 0.651E-01   0.505E-05 -.217E-05 -.181E-05
 -----------------------------------------------------------------------------------------------
   0.385E+00 -.370E+00 0.581E+00   -.426E-13 -.433E-12 0.256E-12   -.421E+00 0.368E+00 -.650E+00   0.115E-05 0.220E-05 0.396E-05
 
 
 POSITION                                       TOTAL-FORCE (eV/Angst)
 -----------------------------------------------------------------------------------
     11.30630      5.13332     28.77477         2.442569      1.365994     -0.658127
     11.31720      6.53225     28.76489         2.225040     -0.850941     -0.352567
     12.53510      4.49461     28.58912         0.423362     -1.173471      1.060349
     12.54800      7.19966     28.69537        -0.694194     -1.202119      0.284254
     13.81110      5.11383     28.39402        -2.692869      2.602866     -0.962294
     13.75480      6.52610     28.38841         0.884961     -2.100795      0.380325
     14.98040      4.48699     27.98182         0.335217     -1.050247     -0.021060
     15.01640      7.11232     28.15332         0.193939      2.503614     -1.621324
     16.06240      5.14323     27.35466         0.686433      0.141727     -0.026505
     16.07360      6.53803     27.38120        -0.010710     -1.957551      0.794114
     17.25120      4.46095     26.93226        -0.801939     -1.149498      1.202341
     17.27300      7.16289     26.93943        -0.479634      0.030841      0.334653
     18.43400      5.10131     26.51883         0.260482      1.802771     -1.128781
     18.44530      6.51344     26.45282         0.828889     -1.297584      0.327766
     19.65090      4.46655     26.19775         0.762654     -1.143673     -0.304543
     19.74250      7.15828     26.23264        -2.522228     -1.300363     -0.415485
     20.87250      5.11912     25.75706        -1.204419      0.659015      0.903385
     20.93610      6.50697     25.80558        -1.520118     -0.894224      0.483460
     22.10560      4.49929     25.63146         1.795607     -2.150385     -0.953231
     22.17690      7.12703     25.72171        -0.222528      1.333803      0.743486
     23.39330      5.11779     25.40293        -0.987032      0.482907      0.729897
     23.41990      6.49928     25.54575        -1.771280     -1.425262     -1.119408
     24.63470      4.46103     25.45675         0.952987     -1.327414      0.072312
     24.61980      7.14589     25.58678         1.493712      1.002049      1.047478
     25.89730      5.12735     25.62658        -0.344349     -0.732310      0.963095
     25.85880      6.47653     25.73717         0.150868      1.549256      0.409261
     27.08450      4.49558     26.11315         0.585565      1.120411     -2.150260
     26.99310      7.17401     26.22502         2.399560      0.198168     -1.014461
      0.30098      5.14976     26.29692        -1.949835      2.221288      0.842145
      0.25156      6.60241     26.36162        -0.448962     -3.972821     -0.517256
      1.41522      4.48323     26.79327         2.460059      1.082780      0.833642
      1.48042      7.21575     26.65219        -0.094170     -0.639219      1.416792
      2.63532      5.16631     27.22188        -2.850358      0.101398     -1.500241
      2.65337      6.51452     27.09826         0.235815      1.575538     -0.403709
      3.73856      4.56318     27.73177         3.004411     -1.485143      0.701574
      3.85911      7.18583     27.47891        -0.645595      0.700250     -0.551455
      4.98805      5.24593     28.02033         0.358910     -2.099669      0.360315
      5.10222      6.56531     27.72045        -1.078972     -0.480612      0.207988
      6.16716      4.58787     28.53533        -0.263156      0.103566     -0.563296
      6.32201      7.19591     27.91893        -0.847351      1.109876      1.132679
      7.43006      5.24213     28.74738        -1.130519     -1.498416     -0.607439
      7.48002      6.55291     28.39695        -0.123754      0.243757     -0.749748
      8.62152      4.50638     28.97655         0.776605      2.025836     -0.972649
      8.69467      7.22448     28.48722         1.219119     -0.570240      0.313957
      9.84108      5.16793     28.78082        -1.863414     -0.869617      1.047410
      9.86301      6.53292     28.70421        -1.319135      0.358813     -0.352088
     11.31420      1.11020     29.04445         2.936812      1.233987      0.665369
     11.33580      2.52687     29.06058         1.449750     -2.470106      0.017411
     12.57640      0.44358     28.93543        -1.317541      0.812156     -0.726667
     12.57670      3.12047     28.80916        -0.089539      0.287911     -0.624599
     13.82370      1.07115     28.68943         1.520584     -0.130901      0.170258
     13.85270      2.43224     28.61169        -1.125293      1.452628      0.435357
     15.07840      0.40446     28.30718        -1.927689     -0.437476      0.476057
     15.04870      3.11747     28.21033        -0.806520      0.127905      0.533183
     16.21390      1.09020     27.88342         1.616384     -1.479502     -0.453931
     16.26140      2.46668     27.96698        -0.086435     -0.162851     -1.861115
     17.31870      0.39571     27.20545         0.405929      2.011149      0.811522
     17.31280      3.08530     27.24510         1.044459      1.731193      0.172280
     18.54460      1.05698     26.86094        -1.627256      0.414653      0.645910
     18.53190      2.44929     26.89549        -0.051664     -1.053611     -0.192476
     19.67770      0.39893     26.40783         2.772766      1.138552      0.095155
     19.68250      3.06944     26.38273         0.423011      2.143674     -0.429198
     20.95440      1.07164     26.20228        -1.933828     -0.607791     -0.010995
     20.90380      2.42789     26.07493         1.387505      0.582803      0.354833
     22.15520      0.39428     25.99854        -0.188663     -0.694254     -0.693200
     22.15560      3.10425     25.76114        -2.034162      0.965321     -0.005855
     23.34880      1.06863     25.87223         1.634259      0.830778     -0.574855
     23.37220      2.44781     25.66485         0.994529     -1.156544      1.161529
     24.60010      0.40550     25.81104        -0.236973      0.049708      0.150232
     24.65770      3.06651     25.62145        -0.561574      1.686882     -0.405556
     25.81930      1.06951     26.01711         0.433479      1.578975     -0.272284
     25.90070      2.44171     25.89150        -2.078933      0.006311     -0.363008
     27.02950      0.46484     26.27180         0.370393     -2.324728      0.008068
     27.09650      3.14093     26.08617         0.814268     -1.316275      1.409409
      0.22686      1.08113     26.52256        -1.576149      2.705516      0.427328
      0.22232      2.48745     26.53712         1.087257     -1.191724      0.280429
      1.40273      0.46206     26.87690         1.956745     -0.101761     -0.026116
      1.44805      3.13270     26.98145        -2.967651     -0.367058     -1.382300
      2.58738      1.11668     27.34678        -0.860951     -1.055715      0.200029
      2.58260      2.46991     27.43287         0.970666      1.214600     -0.046321
      3.77338      0.43919     27.67195         1.628605      1.573960     -0.992815
      3.78443      3.17289     27.76649        -1.533528      0.508503      1.234495
      4.99972      1.19365     27.94414        -0.074220     -3.219173      1.048876
      4.93528      2.53089     28.22750         1.206633      0.370556     -1.259848
      6.24086      0.46744     28.11931        -0.278777      0.743155     -1.130164
      6.16190      3.20940     28.51271         0.092917     -1.296757      0.760820
      7.44359      1.10849     28.45603        -0.121470      1.600835      0.429275
      7.38422      2.46761     28.69043         0.172372      0.979400      0.331514
      8.70581      0.48639     28.59627        -0.021677      0.178453      0.498875
      8.62587      3.14092     28.96223        -0.651475     -0.247394      0.343768
      9.84952      1.09655     29.07882        -0.955678      2.363642     -1.169954
      9.84212      2.53694     29.10190        -0.421920     -2.924536      0.312524
 -----------------------------------------------------------------------------------
    total drift:                               -0.036084     -0.001752     -0.068741


--------------------------------------------------------------------------------------------------------



  FREE ENERGIE OF THE ION-ELECTRON SYSTEM (eV)
  ---------------------------------------------------
  free  energy   TOTEN  =      -828.76140628 eV

  energy  without entropy=     -828.68751421  energy(sigma->0) =     -828.72446024
 


--------------------------------------------------------------------------------------------------------


    POTLOK:  cpu time      0.4530: real time      0.4528


--------------------------------------------------------------------------------------------------------


     LOOP+:  cpu time    334.5283: real time    334.7457
    4ORBIT:  cpu time      0.0000: real time      0.0000

 total amount of memory used by VASP MPI-rank0  2294518. kBytes
=======================================================================

   base                                    :      30000. kBytes
   nonlr-proj                              :      15084. kBytes
   fftplans                                :     436558. kBytes
   grid                                    :     732614. kBytes
   one-center                              :        282. kBytes
   wavefun                                 :    1079980. kBytes
 
  
  
 General timing and accounting informations for this job:
 ========================================================
  
                  Total CPU time used (sec):      367.972
                            User time (sec):      359.564
                          System time (sec):        8.408
                         Elapsed time (sec):      368.273
  
                   Maximum memory used (kb):     3731960.
                   Average memory used (kb):          N/A
  
                          Minor page faults:      3179353
                          Major page faults:         6621
                 Voluntary context switches:        10375
