  92  92   0   0
  0.8273226E+02  0.2805000E-08  0.8100000E-09  0.3350000E-08  0.5000000E-15
   1.0000000000000000E-004
  CAR 
 unknown system                          
      3.91067733    -25.31955552  301     -3.15891031      1.00000000
    -25.320  0.0000E+00  0.0000E+00
    -25.222  0.0000E+00  0.0000E+00
    -25.125  0.0000E+00  0.0000E+00
    -25.027  0.0000E+00  0.0000E+00
    -24.930  0.0000E+00  0.0000E+00
    -24.832  0.0000E+00  0.0000E+00
    -24.735  0.0000E+00  0.0000E+00
    -24.638  0.0000E+00  0.0000E+00
    -24.540  0.0000E+00  0.0000E+00
    -24.443  0.5128E-14  0.4996E-15
    -24.345  0.1086E-11  0.1063E-12
    -24.248  0.1413E-09  0.1387E-10
    -24.150  0.1160E-07  0.1144E-08
    -24.053  0.6024E-06  0.5984E-07
    -23.955  0.1989E-04  0.1998E-05
    -23.858  0.4192E-03  0.4284E-04
    -23.761  0.5671E-02  0.5954E-03
    -23.663  0.4956E-01  0.5424E-02
    -23.566  0.2820E+00  0.3290E-01
    -23.468  0.1058E+01  0.1360E+00
    -23.371  0.2682E+01  0.3972E+00
    -23.273  0.4863E+01  0.8711E+00
    -23.176  0.7054E+01  0.1558E+01
    -23.079  0.9307E+01  0.2465E+01
    -22.981  0.1152E+02  0.3588E+01
    -22.884  0.1300E+02  0.4855E+01
    -22.786  0.1420E+02  0.6238E+01
    -22.689  0.1603E+02  0.7799E+01
    -22.591  0.1697E+02  0.9453E+01
    -22.494  0.1500E+02  0.1092E+02
    -22.397  0.1168E+02  0.1205E+02
    -22.299  0.1041E+02  0.1307E+02
    -22.202  0.1185E+02  0.1422E+02
    -22.104  0.1376E+02  0.1556E+02
    -22.007  0.1430E+02  0.1696E+02
    -21.909  0.1382E+02  0.1830E+02
    -21.812  0.1334E+02  0.1960E+02
    -21.714  0.1270E+02  0.2084E+02
    -21.617  0.1175E+02  0.2199E+02
    -21.520  0.1128E+02  0.2308E+02
    -21.422  0.1182E+02  0.2424E+02
    -21.325  0.1300E+02  0.2550E+02
    -21.227  0.1433E+02  0.2690E+02
    -21.130  0.1565E+02  0.2842E+02
    -21.032  0.1641E+02  0.3002E+02
    -20.935  0.1547E+02  0.3153E+02
    -20.838  0.1305E+02  0.3280E+02
    -20.740  0.1147E+02  0.3392E+02
    -20.643  0.1195E+02  0.3508E+02
    -20.545  0.1295E+02  0.3635E+02
    -20.448  0.1309E+02  0.3762E+02
    -20.350  0.1311E+02  0.3890E+02
    -20.253  0.1403E+02  0.4027E+02
    -20.156  0.1548E+02  0.4177E+02
    -20.058  0.1637E+02  0.4337E+02
    -19.961  0.1598E+02  0.4493E+02
    -19.863  0.1417E+02  0.4631E+02
    -19.766  0.1184E+02  0.4746E+02
    -19.668  0.1133E+02  0.4856E+02
    -19.571  0.1371E+02  0.4990E+02
    -19.474  0.1632E+02  0.5149E+02
    -19.376  0.1620E+02  0.5307E+02
    -19.279  0.1447E+02  0.5448E+02
    -19.181  0.1402E+02  0.5584E+02
    -19.084  0.1500E+02  0.5731E+02
    -18.986  0.1526E+02  0.5879E+02
    -18.889  0.1388E+02  0.6015E+02
    -18.791  0.1287E+02  0.6140E+02
    -18.694  0.1431E+02  0.6279E+02
    -18.597  0.1668E+02  0.6442E+02
    -18.499  0.1693E+02  0.6607E+02
    -18.402  0.1533E+02  0.6756E+02
    -18.304  0.1484E+02  0.6901E+02
    -18.207  0.1641E+02  0.7061E+02
    -18.109  0.1772E+02  0.7233E+02
    -18.012  0.1665E+02  0.7396E+02
    -17.915  0.1430E+02  0.7535E+02
    -17.817  0.1323E+02  0.7664E+02
    -17.720  0.1355E+02  0.7796E+02
    -17.622  0.1347E+02  0.7927E+02
    -17.525  0.1265E+02  0.8050E+02
    -17.427  0.1187E+02  0.8166E+02
    -17.330  0.1115E+02  0.8275E+02
    -17.233  0.1054E+02  0.8378E+02
    -17.135  0.1038E+02  0.8479E+02
    -17.038  0.1053E+02  0.8581E+02
    -16.940  0.1056E+02  0.8684E+02
    -16.843  0.1044E+02  0.8786E+02
    -16.745  0.1079E+02  0.8891E+02
    -16.648  0.1218E+02  0.9010E+02
    -16.550  0.1409E+02  0.9147E+02
    -16.453  0.1560E+02  0.9299E+02
    -16.356  0.1637E+02  0.9458E+02
    -16.258  0.1643E+02  0.9618E+02
    -16.161  0.1642E+02  0.9778E+02
    -16.063  0.1717E+02  0.9946E+02
    -15.966  0.1793E+02  0.1012E+03
    -15.868  0.1672E+02  0.1028E+03
    -15.771  0.1361E+02  0.1042E+03
    -15.674  0.1109E+02  0.1052E+03
    -15.576  0.1047E+02  0.1063E+03
    -15.479  0.1114E+02  0.1073E+03
    -15.381  0.1329E+02  0.1086E+03
    -15.284  0.1729E+02  0.1103E+03
    -15.186  0.2168E+02  0.1124E+03
    -15.089  0.2432E+02  0.1148E+03
    -14.992  0.2412E+02  0.1172E+03
    -14.894  0.2128E+02  0.1192E+03
    -14.797  0.1707E+02  0.1209E+03
    -14.699  0.1292E+02  0.1222E+03
    -14.602  0.1005E+02  0.1231E+03
    -14.504  0.9077E+01  0.1240E+03
    -14.407  0.9579E+01  0.1250E+03
    -14.310  0.1055E+02  0.1260E+03
    -14.212  0.1146E+02  0.1271E+03
    -14.115  0.1240E+02  0.1283E+03
    -14.017  0.1344E+02  0.1296E+03
    -13.920  0.1440E+02  0.1310E+03
    -13.822  0.1516E+02  0.1325E+03
    -13.725  0.1617E+02  0.1341E+03
    -13.627  0.1766E+02  0.1358E+03
    -13.530  0.1907E+02  0.1376E+03
    -13.433  0.1986E+02  0.1396E+03
    -13.335  0.2007E+02  0.1415E+03
    -13.238  0.1959E+02  0.1434E+03
    -13.140  0.1802E+02  0.1452E+03
    -13.043  0.1605E+02  0.1468E+03
    -12.945  0.1522E+02  0.1482E+03
    -12.848  0.1572E+02  0.1498E+03
    -12.751  0.1591E+02  0.1513E+03
    -12.653  0.1450E+02  0.1527E+03
    -12.556  0.1259E+02  0.1540E+03
    -12.458  0.1234E+02  0.1552E+03
    -12.361  0.1413E+02  0.1566E+03
    -12.263  0.1697E+02  0.1582E+03
    -12.166  0.2005E+02  0.1602E+03
    -12.069  0.2234E+02  0.1623E+03
    -11.971  0.2315E+02  0.1646E+03
    -11.874  0.2312E+02  0.1668E+03
    -11.776  0.2286E+02  0.1691E+03
    -11.679  0.2157E+02  0.1712E+03
    -11.581  0.1883E+02  0.1730E+03
    -11.484  0.1639E+02  0.1746E+03
    -11.386  0.1640E+02  0.1762E+03
    -11.289  0.1864E+02  0.1780E+03
    -11.192  0.2173E+02  0.1801E+03
    -11.094  0.2554E+02  0.1826E+03
    -10.997  0.2961E+02  0.1855E+03
    -10.899  0.3237E+02  0.1887E+03
    -10.802  0.3363E+02  0.1919E+03
    -10.704  0.3493E+02  0.1953E+03
    -10.607  0.3719E+02  0.1990E+03
    -10.510  0.3922E+02  0.2028E+03
    -10.412  0.3898E+02  0.2066E+03
    -10.315  0.3656E+02  0.2101E+03
    -10.217  0.3428E+02  0.2135E+03
    -10.120  0.3376E+02  0.2168E+03
    -10.022  0.3396E+02  0.2201E+03
     -9.925  0.3308E+02  0.2233E+03
     -9.828  0.3196E+02  0.2264E+03
     -9.730  0.3276E+02  0.2296E+03
     -9.633  0.3532E+02  0.2331E+03
     -9.535  0.3817E+02  0.2368E+03
     -9.438  0.4055E+02  0.2407E+03
     -9.340  0.4108E+02  0.2447E+03
     -9.243  0.3822E+02  0.2485E+03
     -9.145  0.3313E+02  0.2517E+03
     -9.048  0.2963E+02  0.2546E+03
     -8.951  0.3010E+02  0.2575E+03
     -8.853  0.3314E+02  0.2607E+03
     -8.756  0.3594E+02  0.2642E+03
     -8.658  0.3691E+02  0.2678E+03
     -8.561  0.3571E+02  0.2713E+03
     -8.463  0.3314E+02  0.2745E+03
     -8.366  0.3116E+02  0.2776E+03
     -8.269  0.3086E+02  0.2806E+03
     -8.171  0.3084E+02  0.2836E+03
     -8.074  0.2927E+02  0.2864E+03
     -7.976  0.2683E+02  0.2891E+03
     -7.879  0.2574E+02  0.2916E+03
     -7.781  0.2663E+02  0.2942E+03
     -7.684  0.2839E+02  0.2969E+03
     -7.587  0.2982E+02  0.2998E+03
     -7.489  0.3007E+02  0.3028E+03
     -7.392  0.2900E+02  0.3056E+03
     -7.294  0.2752E+02  0.3083E+03
     -7.197  0.2625E+02  0.3108E+03
     -7.099  0.2558E+02  0.3133E+03
     -7.002  0.2593E+02  0.3158E+03
     -6.905  0.2659E+02  0.3184E+03
     -6.807  0.2653E+02  0.3210E+03
     -6.710  0.2597E+02  0.3235E+03
     -6.612  0.2514E+02  0.3260E+03
     -6.515  0.2312E+02  0.3282E+03
     -6.417  0.2006E+02  0.3302E+03
     -6.320  0.1814E+02  0.3320E+03
     -6.222  0.1872E+02  0.3338E+03
     -6.125  0.2125E+02  0.3359E+03
     -6.028  0.2450E+02  0.3383E+03
     -5.930  0.2664E+02  0.3408E+03
     -5.833  0.2621E+02  0.3434E+03
     -5.735  0.2377E+02  0.3457E+03
     -5.638  0.2052E+02  0.3477E+03
     -5.540  0.1678E+02  0.3494E+03
     -5.443  0.1291E+02  0.3506E+03
     -5.346  0.1045E+02  0.3516E+03
     -5.248  0.1074E+02  0.3527E+03
     -5.151  0.1231E+02  0.3539E+03
     -5.053  0.1210E+02  0.3551E+03
     -4.956  0.9946E+01  0.3560E+03
     -4.858  0.8653E+01  0.3569E+03
     -4.761  0.9790E+01  0.3578E+03
     -4.664  0.1239E+02  0.3590E+03
     -4.566  0.1488E+02  0.3605E+03
     -4.469  0.1572E+02  0.3620E+03
     -4.371  0.1344E+02  0.3633E+03
     -4.274  0.8997E+01  0.3642E+03
     -4.176  0.5420E+01  0.3647E+03
     -4.079  0.3711E+01  0.3651E+03
     -3.981  0.2636E+01  0.3653E+03
     -3.884  0.1843E+01  0.3655E+03
     -3.787  0.2034E+01  0.3657E+03
     -3.689  0.3152E+01  0.3660E+03
     -3.592  0.4208E+01  0.3664E+03
     -3.494  0.4465E+01  0.3669E+03
     -3.397  0.3935E+01  0.3673E+03
     -3.299  0.3205E+01  0.3676E+03
     -3.202  0.3004E+01  0.3679E+03
     -3.105  0.3526E+01  0.3682E+03
     -3.007  0.4306E+01  0.3686E+03
     -2.910  0.4680E+01  0.3691E+03
     -2.812  0.4795E+01  0.3695E+03
     -2.715  0.5694E+01  0.3701E+03
     -2.617  0.7376E+01  0.3708E+03
     -2.520  0.8267E+01  0.3716E+03
     -2.423  0.7387E+01  0.3723E+03
     -2.325  0.5824E+01  0.3729E+03
     -2.228  0.5594E+01  0.3735E+03
     -2.130  0.6969E+01  0.3741E+03
     -2.033  0.7843E+01  0.3749E+03
     -1.935  0.6785E+01  0.3756E+03
     -1.838  0.5339E+01  0.3761E+03
     -1.741  0.6156E+01  0.3767E+03
     -1.643  0.1021E+02  0.3777E+03
     -1.546  0.1627E+02  0.3793E+03
     -1.448  0.2159E+02  0.3814E+03
     -1.351  0.2361E+02  0.3837E+03
     -1.253  0.2208E+02  0.3858E+03
     -1.156  0.1971E+02  0.3877E+03
     -1.058  0.1903E+02  0.3896E+03
     -0.961  0.1881E+02  0.3914E+03
     -0.864  0.1683E+02  0.3931E+03
     -0.766  0.1379E+02  0.3944E+03
     -0.669  0.1164E+02  0.3955E+03
     -0.571  0.1105E+02  0.3966E+03
     -0.474  0.1136E+02  0.3977E+03
     -0.376  0.1150E+02  0.3988E+03
     -0.279  0.1162E+02  0.4000E+03
     -0.182  0.1338E+02  0.4013E+03
     -0.084  0.1695E+02  0.4029E+03
      0.013  0.2017E+02  0.4049E+03
      0.111  0.2165E+02  0.4070E+03
      0.208  0.2196E+02  0.4091E+03
      0.306  0.2168E+02  0.4113E+03
      0.403  0.2046E+02  0.4133E+03
      0.500  0.1907E+02  0.4151E+03
      0.598  0.1994E+02  0.4171E+03
      0.695  0.2376E+02  0.4194E+03
      0.793  0.2793E+02  0.4221E+03
      0.890  0.3015E+02  0.4250E+03
      0.988  0.3174E+02  0.4281E+03
      1.085  0.3562E+02  0.4316E+03
      1.183  0.4185E+02  0.4357E+03
      1.280  0.4788E+02  0.4403E+03
      1.377  0.5132E+02  0.4453E+03
      1.475  0.5058E+02  0.4503E+03
      1.572  0.4535E+02  0.4547E+03
      1.670  0.3713E+02  0.4583E+03
      1.767  0.2747E+02  0.4610E+03
      1.865  0.1738E+02  0.4627E+03
      1.962  0.8813E+01  0.4635E+03
      2.059  0.3472E+01  0.4639E+03
      2.157  0.1058E+01  0.4640E+03
      2.254  0.2446E+00  0.4640E+03
      2.352  0.4097E-01  0.4640E+03
      2.449  0.4714E-02  0.4640E+03
      2.547  0.3582E-03  0.4640E+03
      2.644  0.1756E-04  0.4640E+03
      2.741  0.5478E-06  0.4640E+03
      2.839  0.1081E-07  0.4640E+03
      2.936  0.1342E-09  0.4640E+03
      3.034  0.1047E-11  0.4640E+03
      3.131  0.5128E-14  0.4640E+03
      3.229  0.0000E+00  0.4640E+03
      3.326  0.0000E+00  0.4640E+03
      3.424  0.0000E+00  0.4640E+03
      3.521  0.0000E+00  0.4640E+03
      3.618  0.0000E+00  0.4640E+03
      3.716  0.0000E+00  0.4640E+03
      3.813  0.0000E+00  0.4640E+03
      3.911  0.0000E+00  0.4640E+03
