       N       E                     dE             d eps       ncg     rms          rms(c)
DAV:   1     0.364474108203E+04    0.36447E+04   -0.11986E+05  1728   0.105E+03
DAV:   2     0.171799798830E+03   -0.34729E+04   -0.32112E+04  2144   0.237E+02
DAV:   3    -0.836037215967E+03   -0.10078E+04   -0.98448E+03  1792   0.134E+02
DAV:   4    -0.897792193382E+03   -0.61755E+02   -0.60708E+02  1720   0.426E+01
DAV:   5    -0.899341592123E+03   -0.15494E+01   -0.15226E+01  1752   0.653E+00    0.459E+01
DAV:   6    -0.848665642251E+03    0.50676E+02   -0.48209E+01  1568   0.127E+01    0.270E+01
DAV:   7    -0.829732420638E+03    0.18933E+02   -0.67148E+01  1576   0.146E+01    0.742E+00
DAV:   8    -0.829436223809E+03    0.29620E+00   -0.25149E+00  1584   0.334E+00    0.967E-01
DAV:   9    -0.829326993102E+03    0.10923E+00   -0.26352E-01  1640   0.984E-01    0.576E-01
DAV:  10    -0.829283648627E+03    0.43344E-01   -0.51356E-02  1728   0.430E-01    0.359E-01
DAV:  11    -0.829253901988E+03    0.29747E-01   -0.21338E-02  1560   0.236E-01    0.242E-01
DAV:  12    -0.829250075498E+03    0.38265E-02   -0.24249E-02  1520   0.230E-01    0.149E-01
DAV:  13    -0.829261580396E+03   -0.11505E-01   -0.85955E-03  1560   0.134E-01    0.853E-02
DAV:  14    -0.829283031401E+03   -0.21451E-01   -0.14780E-03  1560   0.633E-02    0.482E-02
DAV:  15    -0.829302838485E+03   -0.19807E-01   -0.17211E-03  1568   0.577E-02    0.317E-02
DAV:  16    -0.829310703175E+03   -0.78647E-02   -0.45417E-04  1640   0.334E-02    0.174E-02
DAV:  17    -0.829314933247E+03   -0.42301E-02   -0.23341E-04  1560   0.207E-02    0.958E-03
DAV:  18    -0.829316853881E+03   -0.19206E-02   -0.74443E-05  1632   0.115E-02    0.531E-03
DAV:  19    -0.829317710157E+03   -0.85628E-03   -0.27238E-05  1344   0.683E-03    0.348E-03
DAV:  20    -0.829317996943E+03   -0.28679E-03   -0.32679E-06  1344   0.304E-03    0.175E-03
DAV:  21    -0.829318173868E+03   -0.17693E-03   -0.19937E-06  1144   0.207E-03    0.967E-04
DAV:  22    -0.829318210595E+03   -0.36726E-04   -0.17712E-07  1032   0.932E-04    0.614E-04
DAV:  23    -0.829318246006E+03   -0.35411E-04   -0.30141E-07   904   0.810E-04    0.374E-04
DAV:  24    -0.829318255516E+03   -0.95105E-05   -0.70451E-08   952   0.551E-04    0.168E-04
DAV:  25    -0.829318260383E+03   -0.48666E-05   -0.47085E-08   912   0.317E-04    0.185E-04
DAV:  26    -0.829318262871E+03   -0.24879E-05   -0.15070E-08   912   0.243E-04    0.861E-05
DAV:  27    -0.829318264878E+03   -0.20071E-05   -0.93690E-09   936   0.163E-04    0.771E-05
DAV:  28    -0.829318265934E+03   -0.10561E-05   -0.37390E-09   952   0.126E-04    0.383E-05
DAV:  29    -0.829318266390E+03   -0.45606E-06   -0.19073E-09   912   0.723E-05
   1 F= -.82931827E+03 E0= -.82928359E+03  d E =-.693543E-01
