  92  92   0   0
  0.8273226E+02  0.2805000E-08  0.8100000E-09  0.3350000E-08  0.5000000E-15
   1.0000000000000000E-004
  CAR 
 unknown system                          
      3.76624572    -25.16442085  301     -3.13514085      1.00000000
    -25.164  0.0000E+00  0.0000E+00
    -25.068  0.0000E+00  0.0000E+00
    -24.972  0.0000E+00  0.0000E+00
    -24.875  0.0000E+00  0.0000E+00
    -24.779  0.0000E+00  0.0000E+00
    -24.682  0.0000E+00  0.0000E+00
    -24.586  0.0000E+00  0.0000E+00
    -24.489  0.0000E+00  0.0000E+00
    -24.393  0.0000E+00  0.0000E+00
    -24.297  0.3166E-14  0.3053E-15
    -24.200  0.6323E-12  0.6128E-13
    -24.104  0.8163E-10  0.7934E-11
    -24.007  0.6696E-08  0.6537E-09
    -23.911  0.3505E-06  0.3446E-07
    -23.814  0.1177E-04  0.1170E-05
    -23.718  0.2555E-03  0.2581E-04
    -23.621  0.3622E-02  0.3751E-03
    -23.525  0.3400E-01  0.3654E-02
    -23.429  0.2152E+00  0.2440E-01
    -23.332  0.9366E+00  0.1147E+00
    -23.236  0.2863E+01  0.3909E+00
    -23.139  0.6277E+01  0.9962E+00
    -23.043  0.1011E+02  0.1971E+01
    -22.946  0.1250E+02  0.3176E+01
    -22.850  0.1316E+02  0.4445E+01
    -22.754  0.1382E+02  0.5778E+01
    -22.657  0.1526E+02  0.7249E+01
    -22.561  0.1575E+02  0.8769E+01
    -22.464  0.1438E+02  0.1016E+02
    -22.368  0.1312E+02  0.1142E+02
    -22.271  0.1369E+02  0.1274E+02
    -22.175  0.1494E+02  0.1418E+02
    -22.078  0.1520E+02  0.1565E+02
    -21.982  0.1470E+02  0.1707E+02
    -21.886  0.1436E+02  0.1845E+02
    -21.789  0.1408E+02  0.1981E+02
    -21.693  0.1344E+02  0.2110E+02
    -21.596  0.1265E+02  0.2232E+02
    -21.500  0.1199E+02  0.2348E+02
    -21.403  0.1159E+02  0.2460E+02
    -21.307  0.1197E+02  0.2575E+02
    -21.211  0.1354E+02  0.2706E+02
    -21.114  0.1557E+02  0.2856E+02
    -21.018  0.1643E+02  0.3014E+02
    -20.921  0.1524E+02  0.3161E+02
    -20.825  0.1328E+02  0.3289E+02
    -20.728  0.1254E+02  0.3410E+02
    -20.632  0.1319E+02  0.3537E+02
    -20.536  0.1367E+02  0.3669E+02
    -20.439  0.1314E+02  0.3796E+02
    -20.343  0.1245E+02  0.3916E+02
    -20.246  0.1263E+02  0.4038E+02
    -20.150  0.1365E+02  0.4169E+02
    -20.053  0.1482E+02  0.4312E+02
    -19.957  0.1541E+02  0.4461E+02
    -19.860  0.1494E+02  0.4605E+02
    -19.764  0.1405E+02  0.4740E+02
    -19.668  0.1450E+02  0.4880E+02
    -19.571  0.1637E+02  0.5038E+02
    -19.475  0.1703E+02  0.5202E+02
    -19.378  0.1499E+02  0.5347E+02
    -19.282  0.1247E+02  0.5467E+02
    -19.185  0.1219E+02  0.5585E+02
    -19.089  0.1353E+02  0.5715E+02
    -18.993  0.1398E+02  0.5850E+02
    -18.896  0.1298E+02  0.5975E+02
    -18.800  0.1240E+02  0.6095E+02
    -18.703  0.1373E+02  0.6227E+02
    -18.607  0.1618E+02  0.6383E+02
    -18.510  0.1770E+02  0.6554E+02
    -18.414  0.1766E+02  0.6724E+02
    -18.317  0.1739E+02  0.6892E+02
    -18.221  0.1773E+02  0.7063E+02
    -18.125  0.1759E+02  0.7233E+02
    -18.028  0.1595E+02  0.7387E+02
    -17.932  0.1376E+02  0.7519E+02
    -17.835  0.1263E+02  0.7641E+02
    -17.739  0.1263E+02  0.7763E+02
    -17.642  0.1246E+02  0.7883E+02
    -17.546  0.1148E+02  0.7994E+02
    -17.450  0.1049E+02  0.8095E+02
    -17.353  0.1062E+02  0.8197E+02
    -17.257  0.1163E+02  0.8310E+02
    -17.160  0.1235E+02  0.8429E+02
    -17.064  0.1226E+02  0.8547E+02
    -16.967  0.1147E+02  0.8657E+02
    -16.871  0.1073E+02  0.8761E+02
    -16.775  0.1120E+02  0.8869E+02
    -16.678  0.1281E+02  0.8992E+02
    -16.582  0.1404E+02  0.9128E+02
    -16.485  0.1421E+02  0.9265E+02
    -16.389  0.1439E+02  0.9403E+02
    -16.292  0.1539E+02  0.9552E+02
    -16.196  0.1692E+02  0.9715E+02
    -16.099  0.1817E+02  0.9890E+02
    -16.003  0.1804E+02  0.1006E+03
    -15.907  0.1616E+02  0.1022E+03
    -15.810  0.1373E+02  0.1035E+03
    -15.714  0.1216E+02  0.1047E+03
    -15.617  0.1172E+02  0.1058E+03
    -15.521  0.1219E+02  0.1070E+03
    -15.424  0.1410E+02  0.1084E+03
    -15.328  0.1769E+02  0.1101E+03
    -15.232  0.2151E+02  0.1121E+03
    -15.135  0.2360E+02  0.1144E+03
    -15.039  0.2315E+02  0.1167E+03
    -14.942  0.2062E+02  0.1186E+03
    -14.846  0.1702E+02  0.1203E+03
    -14.749  0.1331E+02  0.1216E+03
    -14.653  0.1008E+02  0.1225E+03
    -14.557  0.8172E+01  0.1233E+03
    -14.460  0.8306E+01  0.1241E+03
    -14.364  0.9937E+01  0.1251E+03
    -14.267  0.1166E+02  0.1262E+03
    -14.171  0.1277E+02  0.1274E+03
    -14.074  0.1397E+02  0.1288E+03
    -13.978  0.1592E+02  0.1303E+03
    -13.881  0.1785E+02  0.1320E+03
    -13.785  0.1877E+02  0.1339E+03
    -13.689  0.1847E+02  0.1356E+03
    -13.592  0.1733E+02  0.1373E+03
    -13.496  0.1659E+02  0.1389E+03
    -13.399  0.1704E+02  0.1405E+03
    -13.303  0.1789E+02  0.1423E+03
    -13.206  0.1807E+02  0.1440E+03
    -13.110  0.1706E+02  0.1457E+03
    -13.014  0.1541E+02  0.1471E+03
    -12.917  0.1463E+02  0.1486E+03
    -12.821  0.1498E+02  0.1500E+03
    -12.724  0.1505E+02  0.1515E+03
    -12.628  0.1419E+02  0.1528E+03
    -12.531  0.1334E+02  0.1541E+03
    -12.435  0.1383E+02  0.1554E+03
    -12.338  0.1630E+02  0.1570E+03
    -12.242  0.2044E+02  0.1590E+03
    -12.146  0.2458E+02  0.1614E+03
    -12.049  0.2622E+02  0.1639E+03
    -11.953  0.2465E+02  0.1663E+03
    -11.856  0.2157E+02  0.1683E+03
    -11.760  0.1852E+02  0.1701E+03
    -11.663  0.1590E+02  0.1717E+03
    -11.567  0.1418E+02  0.1730E+03
    -11.471  0.1430E+02  0.1744E+03
    -11.374  0.1663E+02  0.1760E+03
    -11.278  0.2033E+02  0.1780E+03
    -11.181  0.2433E+02  0.1803E+03
    -11.085  0.2812E+02  0.1830E+03
    -10.988  0.3102E+02  0.1860E+03
    -10.892  0.3255E+02  0.1892E+03
    -10.796  0.3303E+02  0.1923E+03
    -10.699  0.3324E+02  0.1956E+03
    -10.603  0.3415E+02  0.1988E+03
    -10.506  0.3622E+02  0.2023E+03
    -10.410  0.3842E+02  0.2060E+03
    -10.313  0.3869E+02  0.2098E+03
    -10.217  0.3645E+02  0.2133E+03
    -10.120  0.3408E+02  0.2166E+03
    -10.024  0.3341E+02  0.2198E+03
     -9.928  0.3335E+02  0.2230E+03
     -9.831  0.3323E+02  0.2262E+03
     -9.735  0.3457E+02  0.2296E+03
     -9.638  0.3803E+02  0.2332E+03
     -9.542  0.4192E+02  0.2373E+03
     -9.445  0.4423E+02  0.2415E+03
     -9.349  0.4343E+02  0.2457E+03
     -9.253  0.3906E+02  0.2495E+03
     -9.156  0.3334E+02  0.2527E+03
     -9.060  0.3012E+02  0.2556E+03
     -8.963  0.3090E+02  0.2586E+03
     -8.867  0.3376E+02  0.2618E+03
     -8.770  0.3618E+02  0.2653E+03
     -8.674  0.3688E+02  0.2689E+03
     -8.578  0.3557E+02  0.2723E+03
     -8.481  0.3272E+02  0.2755E+03
     -8.385  0.2969E+02  0.2783E+03
     -8.288  0.2800E+02  0.2810E+03
     -8.192  0.2754E+02  0.2837E+03
     -8.095  0.2685E+02  0.2863E+03
     -7.999  0.2568E+02  0.2888E+03
     -7.902  0.2528E+02  0.2912E+03
     -7.806  0.2623E+02  0.2937E+03
     -7.710  0.2753E+02  0.2964E+03
     -7.613  0.2790E+02  0.2991E+03
     -7.517  0.2778E+02  0.3017E+03
     -7.420  0.2804E+02  0.3045E+03
     -7.324  0.2783E+02  0.3071E+03
     -7.227  0.2646E+02  0.3097E+03
     -7.131  0.2524E+02  0.3121E+03
     -7.035  0.2511E+02  0.3145E+03
     -6.938  0.2526E+02  0.3170E+03
     -6.842  0.2542E+02  0.3194E+03
     -6.745  0.2614E+02  0.3220E+03
     -6.649  0.2686E+02  0.3245E+03
     -6.552  0.2608E+02  0.3271E+03
     -6.456  0.2347E+02  0.3293E+03
     -6.359  0.2052E+02  0.3313E+03
     -6.263  0.1913E+02  0.3331E+03
     -6.167  0.1992E+02  0.3351E+03
     -6.070  0.2202E+02  0.3372E+03
     -5.974  0.2417E+02  0.3395E+03
     -5.877  0.2567E+02  0.3420E+03
     -5.781  0.2584E+02  0.3445E+03
     -5.684  0.2390E+02  0.3468E+03
     -5.588  0.1980E+02  0.3487E+03
     -5.492  0.1473E+02  0.3501E+03
     -5.395  0.1083E+02  0.3512E+03
     -5.299  0.9968E+01  0.3521E+03
     -5.202  0.1174E+02  0.3533E+03
     -5.106  0.1296E+02  0.3545E+03
     -5.009  0.1142E+02  0.3556E+03
     -4.913  0.8804E+01  0.3565E+03
     -4.817  0.7739E+01  0.3572E+03
     -4.720  0.8618E+01  0.3580E+03
     -4.624  0.1058E+02  0.3591E+03
     -4.527  0.1293E+02  0.3603E+03
     -4.431  0.1438E+02  0.3617E+03
     -4.334  0.1327E+02  0.3630E+03
     -4.238  0.9782E+01  0.3639E+03
     -4.141  0.5965E+01  0.3645E+03
     -4.045  0.3427E+01  0.3648E+03
     -3.949  0.2514E+01  0.3651E+03
     -3.852  0.2984E+01  0.3653E+03
     -3.756  0.3993E+01  0.3657E+03
     -3.659  0.4461E+01  0.3662E+03
     -3.563  0.4280E+01  0.3666E+03
     -3.466  0.3924E+01  0.3670E+03
     -3.370  0.3396E+01  0.3673E+03
     -3.274  0.2880E+01  0.3676E+03
     -3.177  0.3012E+01  0.3678E+03
     -3.081  0.3906E+01  0.3682E+03
     -2.984  0.5291E+01  0.3687E+03
     -2.888  0.7180E+01  0.3694E+03
     -2.791  0.9316E+01  0.3703E+03
     -2.695  0.1037E+02  0.3713E+03
     -2.599  0.8897E+01  0.3722E+03
     -2.502  0.5579E+01  0.3727E+03
     -2.406  0.3023E+01  0.3730E+03
     -2.309  0.3071E+01  0.3733E+03
     -2.213  0.5383E+01  0.3738E+03
     -2.116  0.7670E+01  0.3746E+03
     -2.020  0.7660E+01  0.3753E+03
     -1.923  0.6026E+01  0.3759E+03
     -1.827  0.5871E+01  0.3765E+03
     -1.731  0.9017E+01  0.3773E+03
     -1.634  0.1439E+02  0.3787E+03
     -1.538  0.1948E+02  0.3806E+03
     -1.441  0.2219E+02  0.3827E+03
     -1.345  0.2193E+02  0.3848E+03
     -1.248  0.2001E+02  0.3868E+03
     -1.152  0.1874E+02  0.3886E+03
     -1.056  0.1880E+02  0.3904E+03
     -0.959  0.1826E+02  0.3922E+03
     -0.863  0.1596E+02  0.3937E+03
     -0.766  0.1333E+02  0.3950E+03
     -0.670  0.1196E+02  0.3961E+03
     -0.573  0.1182E+02  0.3973E+03
     -0.477  0.1190E+02  0.3984E+03
     -0.380  0.1163E+02  0.3995E+03
     -0.284  0.1224E+02  0.4007E+03
     -0.188  0.1484E+02  0.4022E+03
     -0.091  0.1798E+02  0.4039E+03
      0.005  0.1987E+02  0.4058E+03
      0.102  0.2096E+02  0.4078E+03
      0.198  0.2223E+02  0.4100E+03
      0.295  0.2260E+02  0.4122E+03
      0.391  0.2054E+02  0.4141E+03
      0.487  0.1764E+02  0.4158E+03
      0.584  0.1761E+02  0.4175E+03
      0.680  0.2162E+02  0.4196E+03
      0.777  0.2733E+02  0.4223E+03
      0.873  0.3214E+02  0.4254E+03
      0.970  0.3523E+02  0.4287E+03
      1.066  0.3708E+02  0.4323E+03
      1.162  0.3918E+02  0.4361E+03
      1.259  0.4317E+02  0.4403E+03
      1.355  0.4822E+02  0.4449E+03
      1.452  0.5090E+02  0.4498E+03
      1.548  0.4845E+02  0.4545E+03
      1.645  0.4062E+02  0.4584E+03
      1.741  0.2929E+02  0.4612E+03
      1.838  0.1738E+02  0.4629E+03
      1.934  0.7938E+01  0.4637E+03
      2.030  0.2616E+01  0.4639E+03
      2.127  0.5933E+00  0.4640E+03
      2.223  0.9003E-01  0.4640E+03
      2.320  0.8995E-02  0.4640E+03
      2.416  0.5862E-03  0.4640E+03
      2.513  0.2478E-04  0.4640E+03
      2.609  0.6765E-06  0.4640E+03
      2.705  0.1189E-07  0.4640E+03
      2.802  0.1343E-09  0.4640E+03
      2.898  0.9711E-12  0.4640E+03
      2.995  0.4029E-14  0.4640E+03
      3.091  0.0000E+00  0.4640E+03
      3.188  0.0000E+00  0.4640E+03
      3.284  0.0000E+00  0.4640E+03
      3.381  0.0000E+00  0.4640E+03
      3.477  0.0000E+00  0.4640E+03
      3.573  0.0000E+00  0.4640E+03
      3.670  0.0000E+00  0.4640E+03
      3.766  0.0000E+00  0.4640E+03
