 vasp.6.5.0 16Dec24 (build Feb 19 2025 19:45:31) complex                         
 executed on              LinuxNV date 2025.10.25  12:34:24
 running    2 mpi-ranks, on    1 nodes
 distrk:  each k-point on    2 cores,    1 groups
 distr:  one band on NCORE=   1 cores,    2 groups
 Offloading initialized ...    2 GPUs detected


--------------------------------------------------------------------------------------------------------


 INCAR:
   ISTART = 0            (Not Read existing wavefunction
   ISPIN = 1            (Non-Spin polarised DFT, Default\=1)
   ICHARG = 2            (The initial guess charge density is generated by superposition of atomic charge density)
   LREAL = Auto         (Projection operators: automatic)
   ENCUT = 500          (Cut-off energy for plane wave basis set, in eV)
   LWAVE = .FALSE.       (Write WAVECAR or not)
   LCHARG = .FALSE.       (Write CHGCAR or not)
   PREC = Accurate   (Precision level)
   KGAMMA = .TRUE.
   ALGO = Normal
   NSW = 0           (Default: NSW \= 0)
   IBRION = -1           (Ions are not moved)
   ISMEAR = 0
   EDIFF = 1E-06        (SCF energy convergence
   NELM = 150          (Max electronic SCF steps)

 POTCAR:    PAW_PBE C 08Apr2002                   
 POTCAR:    PAW_PBE C 08Apr2002                   
   SHA256 =  253f7b50bb8d59471dbedb8285d89021f4a42ed1a2c5d38a03a736e69125dd95 C/POTCAR              
   COPYR  = (c) Copyright 08Apr2002 Georg Kresse                                                    
   COPYR  = This file is part of the software VASP. Any use, copying, and all other rights are regul
   COPYR  = If you do not have a valid VASP license, you may not use, copy or distribute this file. 
   VRHFIN =C: s2p2                                                                                  
   LEXCH  = PE                                                                                      
   EATOM  =   147.1560 eV,   10.8157 Ry                                                             
                                                                                                    
   TITEL  = PAW_PBE C 08Apr2002                                                                     
   LULTRA =        F    use ultrasoft PP ?                                                          
   IUNSCR =        1    unscreen: 0-lin 1-nonlin 2-no                                               
   RPACOR =    1.200    partial core radius                                                         
   POMASS =   12.011; ZVAL   =    4.000    mass and valenz                                          
   RCORE  =    1.500    outmost cutoff radius                                                       
   RWIGS  =    1.630; RWIGS  =    0.863    wigner-seitz radius (au A)                               
   ENMAX  =  400.000; ENMIN  =  300.000 eV                                                          
   ICORE  =        2    local potential                                                             
   LCOR   =        T    correct aug charges                                                         
   LPAW   =        T    paw PP                                                                      
   EAUG   =  644.873                                                                                
   DEXC   =    0.000                                                                                
   RMAX   =    1.529    core radius for proj-oper                                                   
   RAUG   =    1.300    factor for augmentation sphere                                              
   RDEP   =    1.501    radius for radial grids                                                     
   RDEPT  =    1.300    core radius for aug-charge                                                  
                                                                                                    
   Atomic configuration                                                                             
    4 entries                                                                                       
     n  l   j            E        occ.                                                              
     1  0  0.50      -273.3789   2.0000                                                             
     2  0  0.50       -13.7508   2.0000                                                             
     2  1  0.50        -5.2854   2.0000                                                             
     3  2  1.50        -5.4423   0.0000                                                             
   Description                                                                                      
     l       E           TYP  RCUT    TYP  RCUT                                                     
     0    -13.7508458     23  1.200                                                                 
     0     -8.2022199     23  1.200                                                                 
     1     -5.2854383     23  1.500                                                                 
     1     34.0145650     23  1.500                                                                 
     2     -5.4423304      7  1.500                                                                 
  local pseudopotential read in
  partial core-charges read in
  partial kinetic energy density read in
  atomic valenz-charges read in
  non local Contribution for L=            0  read in
    real space projection operators read in
  non local Contribution for L=            0  read in
    real space projection operators read in
  non local Contribution for L=            1  read in
    real space projection operators read in
  non local Contribution for L=            1  read in
    real space projection operators read in
    PAW grid and wavefunctions read in
 
   number of l-projection  operators is LMAX  =            4
   number of lm-projection operators is LMMAX =            8
 
 Optimization of the real space projectors (new method)

 maximal supplied QI-value         = 25.13
 optimisation between [QCUT,QGAM] = [ 11.31, 22.87] = [ 35.82,146.48] Ry 
 Optimized for a Real-space Cutoff    1.03 Angstroem

   l    n(q)    QCUT    max X(q) W(low)/X(q) W(high)/X(q)  e(spline) 
   0      7    11.310   115.676    0.20E-03    0.90E-03    0.20E-06
   0      7    11.310    87.132    0.20E-03    0.89E-03    0.19E-06
   1      6    11.310     4.429    0.16E-03    0.28E-03    0.12E-06
   1      6    11.310     2.733    0.12E-03    0.21E-03    0.99E-07
  PAW_PBE C 08Apr2002                   :
 energy of atom  1       EATOM= -147.1560
 kinetic energy error for atom=    0.0076 (will be added to EATOM!!)
 
 
 POSCAR:  C
  positions in cartesian coordinates
  No initial velocities read in


 exchange-correlation table for PE
   RHO(1)=    0.500       N(1)  =     2000
   RHO(2)=  100.500       N(2)  =     4000
 


--------------------------------------------------------------------------------------------------------


 ion  position               nearest neighbor table
   1  0.006  0.104  0.456-   2 1.39  45 1.43   3 1.46  46 1.97
   2  0.008  0.274  0.450-   4 1.37   1 1.39  46 1.48
   3  0.051  0.029  0.468-   5 1.35  50 1.42   1 1.46
   4  0.052  0.348  0.448-   2 1.37   6 1.40  49 1.42
   5  0.094  0.102  0.468-   3 1.35   6 1.38   7 1.40
   6  0.094  0.269  0.459-   5 1.38   4 1.40   8 1.43
   7  0.137  0.023  0.478-  54 1.36   5 1.40   9 1.44
   8  0.138  0.355  0.464-  53 1.35   6 1.43  10 1.44
   9  0.181  0.110  0.481-  10 1.37  11 1.41   7 1.44
  10  0.183  0.276  0.473-   9 1.37  12 1.43   8 1.44
  11  0.222  0.030  0.496-  13 1.38   9 1.41  58 1.45
  12  0.226  0.360  0.482-  57 1.37  14 1.43  10 1.43
  13  0.267  0.104  0.494-  14 1.36  11 1.38  15 1.42
  14  0.270  0.268  0.487-  13 1.36  12 1.43  16 1.45
  15  0.306  0.023  0.512-  62 1.37  13 1.42  17 1.43
  16  0.312  0.356  0.500-  61 1.35  18 1.36  14 1.45
  17  0.352  0.103  0.516-  18 1.39  19 1.41  15 1.43
  18  0.352  0.273  0.510-  16 1.36  17 1.39  20 1.47
  19  0.394  0.027  0.529-  66 1.38  17 1.41  21 1.42
  20  0.396  0.360  0.522-  65 1.36  22 1.38  18 1.47
  21  0.439  0.109  0.533-  23 1.35  22 1.37  19 1.42
  22  0.438  0.277  0.530-  21 1.37  20 1.38  24 1.40
  23  0.480  0.026  0.538-  21 1.35  70 1.40  25 1.42
  24  0.480  0.359  0.539-  69 1.35  22 1.40  26 1.43
  25  0.525  0.104  0.535-  26 1.40  23 1.42  27 1.42
  26  0.526  0.277  0.538-  25 1.40  28 1.41  24 1.43
  27  0.570  0.019  0.533-  74 1.34  29 1.40  25 1.42
  28  0.571  0.353  0.542-  73 1.38  26 1.41  30 1.41
  29  0.612  0.105  0.528-  30 1.36  27 1.40  31 1.41
  30  0.613  0.273  0.530-  29 1.36  32 1.39  28 1.41
  31  0.656  0.021  0.522-  78 1.37  33 1.39  29 1.41
  32  0.657  0.350  0.524-  77 1.38  30 1.39  34 1.39
  33  0.696  0.100  0.507-  31 1.39  35 1.39  34 1.40
  34  0.697  0.273  0.508-  32 1.39  33 1.40  36 1.48
  35  0.739  0.015  0.501-  82 1.37  33 1.39  37 1.41
  36  0.742  0.359  0.498-  81 1.35  38 1.38  34 1.48
  37  0.780  0.097  0.488-  38 1.35  35 1.41  39 1.44
  38  0.781  0.263  0.488-  37 1.35  36 1.38  40 1.48
  39  0.825  0.015  0.482-  86 1.35  41 1.42  37 1.44
  40  0.826  0.354  0.481-  85 1.38  42 1.44  38 1.48
  41  0.868  0.097  0.473-  42 1.40  39 1.42  43 1.46
  42  0.869  0.269  0.469-  41 1.40  44 1.43  40 1.44
  43  0.913  0.012  0.466-  90 1.35  45 1.38  41 1.46
  44  0.913  0.353  0.462-  89 1.38  46 1.39  42 1.43
  45  0.955  0.097  0.458-  43 1.38   1 1.43  46 1.44
  46  0.956  0.274  0.453-  44 1.39  45 1.44   2 1.48   1 1.97
  47  0.007  0.605  0.451-  49 1.37  48 1.43  91 1.45  92 2.03
  48  0.008  0.776  0.461-  50 1.38  47 1.43  92 1.49
  49  0.050  0.522  0.452-  47 1.37   4 1.42  51 1.44
  50  0.050  0.854  0.470-  48 1.38  52 1.41   3 1.42
  51  0.093  0.606  0.462-  52 1.36  53 1.42  49 1.44
  52  0.094  0.769  0.473-  51 1.36  50 1.41  54 1.43
  53  0.136  0.520  0.469-   8 1.35  51 1.42  55 1.44
  54  0.137  0.855  0.480-   7 1.36  56 1.38  52 1.43
  55  0.179  0.607  0.482-  56 1.37  57 1.42  53 1.44
  56  0.178  0.771  0.491-  55 1.37  54 1.38  58 1.42
  57  0.224  0.528  0.487-  12 1.37  59 1.38  55 1.42
  58  0.222  0.852  0.500-  60 1.39  56 1.42  11 1.45
  59  0.265  0.607  0.500-  60 1.36  57 1.38  61 1.43
  60  0.265  0.772  0.507-  59 1.36  58 1.39  62 1.44
  61  0.309  0.521  0.505-  16 1.35  63 1.43  59 1.43
  62  0.308  0.856  0.517-  15 1.37  64 1.42  60 1.44
  63  0.351  0.603  0.519-  65 1.40  64 1.40  61 1.43
  64  0.352  0.774  0.526-  63 1.40  62 1.42  66 1.42
  65  0.395  0.527  0.527-  20 1.36  63 1.40  67 1.43
  66  0.395  0.859  0.534-  68 1.37  19 1.38  64 1.42
  67  0.437  0.611  0.539-  68 1.37  65 1.43  69 1.45
  68  0.437  0.780  0.542-  67 1.37  66 1.37  70 1.43
  69  0.482  0.524  0.544-  24 1.35  71 1.41  67 1.45
  70  0.483  0.857  0.546-  72 1.40  23 1.40  68 1.43
  71  0.526  0.607  0.550-  72 1.33  69 1.41  73 1.43
  72  0.526  0.771  0.545-  71 1.33  70 1.40  74 1.42
  73  0.571  0.522  0.548-  28 1.38  75 1.41  71 1.43
  74  0.570  0.856  0.540-  27 1.34  72 1.42  76 1.51
  75  0.615  0.600  0.543-  76 1.36  73 1.41  77 1.42
  76  0.617  0.767  0.539-  75 1.36  78 1.37  74 1.51
  77  0.658  0.516  0.533-  32 1.38  75 1.42  79 1.42
  78  0.657  0.857  0.531-  31 1.37  76 1.37  80 1.43
  79  0.702  0.602  0.526-  80 1.40  77 1.42  81 1.47
  80  0.702  0.774  0.528-  79 1.40  82 1.42  78 1.43
  81  0.742  0.522  0.506-  36 1.35  83 1.43  79 1.47
  82  0.744  0.855  0.514-  35 1.37  80 1.42  84 1.42
  83  0.787  0.603  0.501-  85 1.40  84 1.41  81 1.43
  84  0.789  0.775  0.508-  86 1.39  83 1.41  82 1.42
  85  0.827  0.524  0.485-  40 1.38  83 1.40  87 1.42
  86  0.829  0.856  0.494-  39 1.35  84 1.39  88 1.43
  87  0.872  0.601  0.479-  88 1.38  89 1.38  85 1.42
  88  0.872  0.770  0.484-  87 1.38  90 1.41  86 1.43
  89  0.911  0.523  0.463-  44 1.38  87 1.38  91 1.43
  90  0.915  0.848  0.473-  43 1.35  92 1.36  88 1.41
  91  0.956  0.597  0.451-  89 1.43  47 1.45  92 1.46
  92  0.955  0.773  0.459-  90 1.36  91 1.46  48 1.49  47 2.03
 
  LATTYP: Found a simple orthorhombic cell.
 ALAT       =     8.1000000000
 B/A-ratio  =     3.4629629630
 C/A-ratio  =     4.1358024691
  
  Lattice vectors:
  
 A1 = (   0.0000000000,  -8.1000000000,   0.0000000000)
 A2 = (  28.0500000000,   0.0000000000,   0.0000000000)
 A3 = (   0.0000000000,   0.0000000000,  33.5000000000)


Analysis of symmetry for initial positions (statically):
=====================================================================
 Subroutine PRICEL returns:
 Original cell was already a primitive cell.
 

 Routine SETGRP: Setting up the symmetry group for a 
 simple orthorhombic supercell.


 Subroutine GETGRP returns: Found  1 space group operations
 (whereof  1 operations were pure point group operations)
 out of a pool of  8 trial point group operations.


The static configuration has the point symmetry C_1 .


Analysis of symmetry for dynamics (positions and initial velocities):
=====================================================================
 Subroutine PRICEL returns:
 Original cell was already a primitive cell.
 

 Routine SETGRP: Setting up the symmetry group for a 
 simple orthorhombic supercell.


 Subroutine GETGRP returns: Found  1 space group operations
 (whereof  1 operations were pure point group operations)
 out of a pool of  8 trial point group operations.


The dynamic configuration has the point symmetry C_1 .


 Subroutine INISYM returns: Found  1 space group operations
 (whereof  1 operations are pure point group operations),
 and found     1 'primitive' translations


----------------------------------------------------------------------------------------

                                     Primitive cell                                     

  volume of cell :    7611.3675

  direct lattice vectors                    reciprocal lattice vectors
    28.050000000  0.000000000  0.000000000     0.035650624  0.000000000  0.000000000
     0.000000000  8.100000000  0.000000000     0.000000000  0.123456790  0.000000000
     0.000000000  0.000000000 33.500000000     0.000000000  0.000000000  0.029850746

  length of vectors
    28.050000000  8.100000000 33.500000000     0.035650624  0.123456790  0.029850746

  position of ions in fractional coordinates (direct lattice)
     0.005746096  0.103699877  0.455814925
     0.008158966  0.273808642  0.450098507
     0.051019608  0.028802222  0.467898507
     0.051842424  0.348113580  0.448238806
     0.094407130  0.102123827  0.467785075
     0.094134759  0.268659259  0.458808955
     0.137036720  0.022908025  0.477513433
     0.138090196  0.354985185  0.464017910
     0.181498396  0.110028765  0.480767164
     0.182935829  0.275838272  0.472543284
     0.222322638  0.029828395  0.495617910
     0.226388592  0.360134568  0.482146269
     0.266530481  0.104031975  0.494349254
     0.269645276  0.268432099  0.486847761
     0.306329768  0.023434198  0.511674627
     0.311642781  0.355814815  0.500441791
     0.351683422  0.102863333  0.515504478
     0.352038146  0.272655556  0.510023881
     0.393978610  0.027437531  0.528976119
     0.395750446  0.359781481  0.522128358
     0.438520499  0.108646049  0.532838806
     0.437654189  0.277135802  0.529602985
     0.480010695  0.026291605  0.538200000
     0.480470588  0.358659259  0.538614925
     0.525351159  0.104081728  0.534940299
     0.525836007  0.277038272  0.537605970
     0.569761141  0.018953827  0.533265672
     0.570695187  0.352927160  0.541886567
     0.612370766  0.105098025  0.528026866
     0.613030303  0.273419753  0.529695522
     0.655811052  0.020650370  0.521722388
     0.657001783  0.350330864  0.524220896
     0.696356506  0.099888148  0.507325373
     0.696737968  0.272662963  0.507716418
     0.738930481  0.015109877  0.501265672
     0.741914439  0.358612346  0.497841791
     0.780196078  0.097357407  0.487850746
     0.780959002  0.263385185  0.487994030
     0.824916221  0.014903457  0.481892537
     0.826185383  0.353956790  0.480916418
     0.868449198  0.096870988  0.473423881
     0.869037433  0.269012346  0.469265672
     0.913433155  0.011874099  0.465922388
     0.913069519  0.353059259  0.462056716
     0.955016043  0.097249259  0.457695522
     0.955500891  0.273858025  0.452611940
     0.007140071  0.605012346  0.450501493
     0.007757647  0.776317284  0.460623881
     0.049851693  0.522211111  0.451722388
     0.050115152  0.854290123  0.469668657
     0.093065241  0.606125926  0.462411940
     0.093600000  0.768525926  0.472820896
     0.136365775  0.520266667  0.469277612
     0.137424955  0.854674074  0.479785075
     0.178905169  0.607134568  0.481534328
     0.178231373  0.771475309  0.491140299
     0.223602139  0.528340741  0.487107463
     0.221583957  0.852393827  0.500498507
     0.264811052  0.606695062  0.499561194
     0.264686275  0.772093827  0.506650746
     0.309068093  0.521330864  0.505077612
     0.308259893  0.856409877  0.517289552
     0.351072727  0.603124691  0.519211940
     0.351508021  0.773958025  0.526208955
     0.394905526  0.526886420  0.526868657
     0.394830660  0.858706173  0.534352239
     0.437397504  0.610670370  0.538561194
     0.437137255  0.779655556  0.542346269
     0.482331551  0.524081481  0.544002985
     0.482691622  0.856698765  0.546271642
     0.525992870  0.606977778  0.549788060
     0.525960784  0.770545679  0.545280597
     0.570627451  0.522020988  0.547647761
     0.569828877  0.856101235  0.539964179
     0.615418895  0.599739506  0.543271642
     0.617094474  0.767356790  0.539477612
     0.658238859  0.516097531  0.533256716
     0.657443850  0.856567901  0.531331343
     0.701547237  0.602182716  0.526110448
     0.702338681  0.774408642  0.527782090
     0.741982175  0.521619753  0.506444776
     0.744046346  0.854692593  0.513898507
     0.786912656  0.602980247  0.501122388
     0.788602496  0.775130864  0.507504478
     0.826962567  0.523990123  0.484928358
     0.829158645  0.856428395  0.493922388
     0.871996435  0.601146914  0.478817910
     0.871839572  0.770106173  0.483940299
     0.911465241  0.522843210  0.462752239
     0.915026738  0.848358025  0.473495522
     0.955647059  0.596871605  0.450782090
     0.954798574  0.773323457  0.459400000

  ion indices of the primitive-cell ions
   primitive index   ion index
                 1           1
                 2           2
                 3           3
                 4           4
                 5           5
                 6           6
                 7           7
                 8           8
                 9           9
                10          10
                11          11
                12          12
                13          13
                14          14
                15          15
                16          16
                17          17
                18          18
                19          19
                20          20
                21          21
                22          22
                23          23
                24          24
                25          25
                26          26
                27          27
                28          28
                29          29
                30          30
                31          31
                32          32
                33          33
                34          34
                35          35
                36          36
                37          37
                38          38
                39          39
                40          40
                41          41
                42          42
                43          43
                44          44
                45          45
                46          46
                47          47
                48          48
                49          49
                50          50
                51          51
                52          52
                53          53
                54          54
                55          55
                56          56
                57          57
                58          58
                59          59
                60          60
                61          61
                62          62
                63          63
                64          64
                65          65
                66          66
                67          67
                68          68
                69          69
                70          70
                71          71
                72          72
                73          73
                74          74
                75          75
                76          76
                77          77
                78          78
                79          79
                80          80
                81          81
                82          82
                83          83
                84          84
                85          85
                86          86
                87          87
                88          88
                89          89
                90          90
                91          91
                92          92

----------------------------------------------------------------------------------------

 
 
 KPOINTS: K-Spacing Value to Generate K-Mesh: 0.03

Automatic generation of k-mesh.
 Grid dimensions read from file:
 generate k-points for:    1    4    1

 Generating k-lattice:

  Cartesian coordinates                     Fractional coordinates (reciprocal lattice)
     0.035650624  0.000000000  0.000000000     1.000000000  0.000000000  0.000000000
     0.000000000  0.030864198  0.000000000     0.000000000  0.250000000  0.000000000
     0.000000000  0.000000000  0.029850746     0.000000000  0.000000000  1.000000000

  Length of vectors
     0.035650624  0.030864198  0.029850746

  Shift w.r.t. Gamma in fractional coordinates (k-lattice)
     0.000000000  0.000000000  0.000000000

 
 Subroutine IBZKPT returns following result:
 ===========================================
 
 Found      3 irreducible k-points:
 
 Following reciprocal coordinates:
            Coordinates               Weight
  0.000000  0.000000  0.000000      1.000000
  0.000000  0.250000  0.000000      2.000000
  0.000000  0.500000  0.000000      1.000000
 
 Following cartesian coordinates:
            Coordinates               Weight
  0.000000  0.000000  0.000000      1.000000
  0.000000  0.030864  0.000000      2.000000
  0.000000  0.061728  0.000000      1.000000
 


--------------------------------------------------------------------------------------------------------




 Dimension of arrays:
   k-points           NKPTS =      3   k-points in BZ     NKDIM =      3   number of bands    NBANDS=    232
   number of dos      NEDOS =    301   number of ions     NIONS =     92
   non local maximal  LDIM  =      4   non local SUM 2l+1 LMDIM =      8
   total plane-waves  NPLWV = ******
   max r-space proj   IRMAX =   1967   max aug-charges    IRDMAX=   5083
   dimension x,y,z NGX =   210 NGY =   60 NGZ =  250
   dimension x,y,z NGXF=   420 NGYF=  120 NGZF=  500
   support grid    NGXF=   420 NGYF=  120 NGZF=  500
   ions per type =              92
   NGX,Y,Z   is equivalent  to a cutoff of  12.45, 12.31, 12.41 a.u.
   NGXF,Y,Z  is equivalent  to a cutoff of  24.89, 24.63, 24.81 a.u.

 SYSTEM =  unknown system                          
 POSCAR =   C                                      

 Startparameter for this run:
   NWRITE =      2    write-flag & timer
   PREC   = accura    normal or accurate (medium, high low for compatibility)
   ISTART =      0    job   : 0-new  1-cont  2-samecut
   ICHARG =      2    charge: 1-file 2-atom 10-const
   ISPIN  =      1    spin polarized calculation?
   LNONCOLLINEAR =      F non collinear calculations
   LSORBIT =      F    spin-orbit coupling
   INIWAV =      1    electr: 0-lowe 1-rand  2-diag
   LASPH  =      F    aspherical Exc in radial PAW
 Electronic Relaxation 1
   ENCUT  =  500.0 eV  36.75 Ry    6.06 a.u.  51.14 14.77 61.08*2*pi/ulx,y,z
   ENINI  =  500.0     initial cutoff
   ENAUG  =  644.9 eV  augmentation charge cutoff
   NELM   =    150;   NELMIN=  2; NELMDL= -5     # of ELM steps 
   EDIFF  = 0.1E-05   stopping-criterion for ELM
   LREAL  =      T    real-space projection
   NLSPLINE    = F    spline interpolate recip. space projectors
   LCOMPAT=      F    compatible to vasp.4.4
   GGA_COMPAT  = T    GGA compatible to vasp.4.4-vasp.4.6
   LMAXPAW     = -100 max onsite density
   LMAXMIX     =    2 max onsite mixed and CHGCAR
   VOSKOWN=      0    Vosko Wilk Nusair interpolation
   ROPT   =   -0.00025
 Ionic relaxation
   EDIFFG = 0.1E-04   stopping-criterion for IOM
   NSW    =      0    number of steps for IOM
   NBLOCK =      1;   KBLOCK =      1    inner block; outer block 
   IBRION =     -1    ionic relax: 0-MD 1-quasi-New 2-CG
   NFREE  =      0    steps in history (QN), initial steepest desc. (CG)
   ISIF   =      2    stress and relaxation
   IWAVPR =     10    prediction:  0-non 1-charg 2-wave 3-comb
   ISYM   =      2    0-nonsym 1-usesym 2-fastsym
   LCORR  =      T    Harris-Foulkes like correction to forces

   POTIM  = 0.5000    time-step for ionic-motion
   TEIN   =    0.0    initial temperature
   TEBEG  =    0.0;   TEEND  =   0.0 temperature during run
   SMASS  =  -3.00    Nose mass-parameter (am)
   estimated Nose-frequenzy (Omega)   =  0.10E-29 period in steps = 0.13E+47 mass=  -0.180E-25a.u.
   SCALEE = 1.0000    scale energy and forces
   NPACO  =    256;   APACO  = 10.0  distance and # of slots for P.C.
   PSTRESS=    0.0 pullay stress

  Mass of Ions in am
   POMASS =  12.01
  Ionic Valenz
   ZVAL   =   4.00
  Atomic Wigner-Seitz radii
   RWIGS  =  -1.00
  virtual crystal weights 
   VCA    =   1.00
   NELECT =     368.0000    total number of electrons
   NUPDOWN=      -1.0000    fix difference up-down

 DOS related values:
   EMIN   =  10.00;   EMAX   =-10.00  energy-range for DOS
   EFERMI =   0.00;   METHOD = LEGACY      
   ISMEAR =     0;   SIGMA  =   0.20  broadening in eV -4-tet -1-fermi 0-gaus
   EFERMI_NEDOS =   21; number of points for ismear=-14 and -15

 Electronic relaxation 2 (details)
   IALGO  =     38    algorithm
   LDIAG  =      T    sub-space diagonalisation (order eigenvalues)
   LSUBROT=      F    optimize rotation matrix (better conditioning)
   TURBO    =      0    0=normal 1=particle mesh
   IRESTART =      0    0=no restart 2=restart with 2 vectors
   NREBOOT  =      0    no. of reboots
   NMIN     =      0    reboot dimension
   EREF     =   0.00    reference energy to select bands
   IMIX   =      4    mixing-type and parameters
     AMIX     =   0.40;   BMIX     =  1.00
     AMIX_MAG =   1.60;   BMIX_MAG =  1.00
     AMIN     =   0.10
     WC   =   100.;   INIMIX=   1;  MIXPRE=   1;  MAXMIX= -45

 Intra band minimization:
   WEIMIN = 0.0000     energy-eigenvalue tresh-hold
   EBREAK =  0.11E-08  absolut break condition
   DEPER  =   0.30     relativ break condition  

   TIME   =   0.40     timestep for ELM

  volume/ion in A,a.u.               =      82.73       558.30
  Fermi-wavevector in a.u.,A,eV,Ry     =   0.596398  1.127030  4.839472  0.355691
  Thomas-Fermi vector in A             =   1.646729
 
 Write flags
   LWAVE        =      F    write WAVECAR
   LDOWNSAMPLE  =      F    k-point downsampling of WAVECAR
   LCHARG       =      F    write CHGCAR
   LVTOT        =      F    write LOCPOT, total local potential
   LVHAR        =      F    write LOCPOT, Hartree potential only
   WRT_POTENTIAL= false  ! write potential to hdf5 file
   LELF         =      F    write electronic localiz. function (ELF)
   LORBIT       =      0    0 simple, 1 ext, 2 COOP (PROOUT), +10 PAW based schemes


 Python interface
   PLUGINS active      =      F    recompile with -DPLUGINS to activate
 
 Dipole corrections
   LMONO      =      F    monopole corrections only (constant potential shift)
   LDIPOL     =      F    correct potential (dipole corrections)
   IDIPOL     =      0    1-x, 2-y, 3-z, 4-all directions 
   EPSILON    =  1.0000000 bulk dielectric constant
   LVACPOTAV  =      F  vacuum potentials using an averaging scheme for the charge density
   VACPOTFLAT =  0.1000000 required flatness to determine vacuum potential
 
Coulomb truncation method
  LTRUNCATE          =      F  Coulomb kernel truncation to be used
  IDIMENSIONALITY    =      3  Dimensionality of cutoff (0 molecules / 2 surfaces)
  ISURFACE           =     -1  Direction of surface normal
  LCOARSEN           =      F  Coarsen the charge grid before padding, preferred

 
 Exchange correlation treatment:
   GGA     = PE    functional components
   XC_C    = 1    coefficients multiplying the functional components
   LIBXC   =     F    Libxc                    
   VOSKOWN =     0    Vosko Wilk Nusair interpolation
   LHFCALC =     F    Hartree Fock is set to
   LHFONE  =     F    Hartree Fock one center treatment
   AEXX    =    0.0000 exact exchange contribution

 Parameters of functionals:
   PE:
     No parameter
 
 Van der Waals corrections
   IVDW    =     0    specifies the selected vdW correction

 Linear response parameters
   LEPSILON=     F    determine dielectric tensor
   LRPA    =     F    only Hartree local field effects (RPA)
   LNABLA  =     F    use nabla operator in PAW spheres
   LVEL    =     F    velocity operator in full k-point grid
   CSHIFT  =0.1000    complex shift for real part using Kramers Kronig
   OMEGAMAX=  -1.0    maximum frequency
   DEG_THRESHOLD= 0.2000000E-02 threshold for treating states as degnerate
   RTIME   =   -0.100 relaxation time in fs
  (WPLASMAI=    0.000 imaginary part of plasma frequency in eV, 0.658/RTIME)
   DFIELD  = 0.0000000 0.0000000 0.0000000 field for delta impulse in time
 
  Optional k-point grid parameters
   LKPOINTS_OPT  =     F    use optional k-point grid
   KPOINTS_OPT_MODE=     1    mode for optional k-point grid
 
 Orbital magnetization related:
   ORBITALMAG=     F  switch on orbital magnetization
   LCHIMAG   =     F  perturbation theory with respect to B field
   DQ        =  0.001000  dq finite difference perturbation B field
   LLRAUG    =     F  two centre corrections for induced B field
   LBONE     =     F  B-component reconstruction in AE one-centre
   LVGVCALC  =     T  calculate vGv susceptibility
   LVGVAPPL  =     F  apply vGv susceptibility instead of pGv for G=0

 Random number generation:
   RANDOM_GENERATOR = DEFAULT
   PCG_SEED         = not used


--------------------------------------------------------------------------------------------------------


 Static calculation
 charge density and potential will be updated during run
 non-spin polarized calculation
 Variant of blocked Davidson
 Davidson routine will perform the subspace rotation
 perform sub-space diagonalisation
    after iterative eigenvector-optimisation
 modified Broyden-mixing scheme, WC =      100.0
 initial mixing is a Kerker type mixing with AMIX =  0.4000 and BMIX =      1.0000
 Hartree-type preconditioning will be used
 using additional bands            48
 real space projection scheme for non local part
 use partial core corrections
 calculate Harris-corrections to forces 
   (improved forces if not selfconsistent)
 use gradient corrections 
 use of overlap-Matrix (Vanderbilt PP)
 Gauss-broadening in eV      SIGMA  =   0.20


--------------------------------------------------------------------------------------------------------


  energy-cutoff  :      500.00
  volume of cell :     7611.37
      direct lattice vectors                 reciprocal lattice vectors
    28.050000000  0.000000000  0.000000000     0.035650624  0.000000000  0.000000000
     0.000000000  8.100000000  0.000000000     0.000000000  0.123456790  0.000000000
     0.000000000  0.000000000 33.500000000     0.000000000  0.000000000  0.029850746

  length of vectors
    28.050000000  8.100000000 33.500000000     0.035650624  0.123456790  0.029850746


 
 k-points in units of 2pi/SCALE and weight: K-Spacing Value to Generate K-Mesh: 0.03
   0.00000000  0.00000000  0.00000000       0.250
   0.00000000  0.03086420  0.00000000       0.500
   0.00000000  0.06172840  0.00000000       0.250
 
 k-points in reciprocal lattice and weights: K-Spacing Value to Generate K-Mesh: 0.03
   0.00000000  0.00000000  0.00000000       0.250
   0.00000000  0.25000000  0.00000000       0.500
   0.00000000  0.50000000  0.00000000       0.250
 
 position of ions in fractional coordinates (direct lattice) 
   0.00574610  0.10369988  0.45581493
   0.00815897  0.27380864  0.45009851
   0.05101961  0.02880222  0.46789851
   0.05184242  0.34811358  0.44823881
   0.09440713  0.10212383  0.46778507
   0.09413476  0.26865926  0.45880896
   0.13703672  0.02290802  0.47751343
   0.13809020  0.35498519  0.46401791
   0.18149840  0.11002877  0.48076716
   0.18293583  0.27583827  0.47254328
   0.22232264  0.02982840  0.49561791
   0.22638859  0.36013457  0.48214627
   0.26653048  0.10403198  0.49434925
   0.26964528  0.26843210  0.48684776
   0.30632977  0.02343420  0.51167463
   0.31164278  0.35581481  0.50044179
   0.35168342  0.10286333  0.51550448
   0.35203815  0.27265556  0.51002388
   0.39397861  0.02743753  0.52897612
   0.39575045  0.35978148  0.52212836
   0.43852050  0.10864605  0.53283881
   0.43765419  0.27713580  0.52960299
   0.48001070  0.02629160  0.53820000
   0.48047059  0.35865926  0.53861493
   0.52535116  0.10408173  0.53494030
   0.52583601  0.27703827  0.53760597
   0.56976114  0.01895383  0.53326567
   0.57069519  0.35292716  0.54188657
   0.61237077  0.10509802  0.52802687
   0.61303030  0.27341975  0.52969552
   0.65581105  0.02065037  0.52172239
   0.65700178  0.35033086  0.52422090
   0.69635651  0.09988815  0.50732537
   0.69673797  0.27266296  0.50771642
   0.73893048  0.01510988  0.50126567
   0.74191444  0.35861235  0.49784179
   0.78019608  0.09735741  0.48785075
   0.78095900  0.26338519  0.48799403
   0.82491622  0.01490346  0.48189254
   0.82618538  0.35395679  0.48091642
   0.86844920  0.09687099  0.47342388
   0.86903743  0.26901235  0.46926567
   0.91343316  0.01187410  0.46592239
   0.91306952  0.35305926  0.46205672
   0.95501604  0.09724926  0.45769552
   0.95550089  0.27385802  0.45261194
   0.00714007  0.60501235  0.45050149
   0.00775765  0.77631728  0.46062388
   0.04985169  0.52221111  0.45172239
   0.05011515  0.85429012  0.46966866
   0.09306524  0.60612593  0.46241194
   0.09360000  0.76852593  0.47282090
   0.13636578  0.52026667  0.46927761
   0.13742496  0.85467407  0.47978507
   0.17890517  0.60713457  0.48153433
   0.17823137  0.77147531  0.49114030
   0.22360214  0.52834074  0.48710746
   0.22158396  0.85239383  0.50049851
   0.26481105  0.60669506  0.49956119
   0.26468627  0.77209383  0.50665075
   0.30906809  0.52133086  0.50507761
   0.30825989  0.85640988  0.51728955
   0.35107273  0.60312469  0.51921194
   0.35150802  0.77395802  0.52620896
   0.39490553  0.52688642  0.52686866
   0.39483066  0.85870617  0.53435224
   0.43739750  0.61067037  0.53856119
   0.43713725  0.77965556  0.54234627
   0.48233155  0.52408148  0.54400299
   0.48269162  0.85669877  0.54627164
   0.52599287  0.60697778  0.54978806
   0.52596078  0.77054568  0.54528060
   0.57062745  0.52202099  0.54764776
   0.56982888  0.85610123  0.53996418
   0.61541889  0.59973951  0.54327164
   0.61709447  0.76735679  0.53947761
   0.65823886  0.51609753  0.53325672
   0.65744385  0.85656790  0.53133134
   0.70154724  0.60218272  0.52611045
   0.70233868  0.77440864  0.52778209
   0.74198217  0.52161975  0.50644478
   0.74404635  0.85469259  0.51389851
   0.78691266  0.60298025  0.50112239
   0.78860250  0.77513086  0.50750448
   0.82696257  0.52399012  0.48492836
   0.82915865  0.85642840  0.49392239
   0.87199643  0.60114691  0.47881791
   0.87183957  0.77010617  0.48394030
   0.91146524  0.52284321  0.46275224
   0.91502674  0.84835802  0.47349552
   0.95564706  0.59687160  0.45078209
   0.95479857  0.77332346  0.45940000
 
 position of ions in cartesian coordinates  (Angst):
   0.16117800  0.83996900 15.26980000
   0.22885900  2.21785000 15.07830000
   1.43110000  0.23329800 15.67460000
   1.45418000  2.81972000 15.01600000
   2.64812000  0.82720300 15.67080000
   2.64048000  2.17614000 15.37010000
   3.84388000  0.18555500 15.99670000
   3.87343000  2.87538000 15.54460000
   5.09103000  0.89123300 16.10570000
   5.13135000  2.23429000 15.83020000
   6.23615000  0.24161000 16.60320000
   6.35020000  2.91709000 16.15190000
   7.47618000  0.84265900 16.56070000
   7.56355000  2.17430000 16.30940000
   8.59255000  0.18981700 17.14110000
   8.74158000  2.88210000 16.76480000
   9.86472000  0.83319300 17.26940000
   9.87467000  2.20851000 17.08580000
  11.05110000  0.22224400 17.72070000
  11.10080000  2.91423000 17.49130000
  12.30050000  0.88003300 17.85010000
  12.27620000  2.24480000 17.74170000
  13.46430000  0.21296200 18.02970000
  13.47720000  2.90514000 18.04360000
  14.73610000  0.84306200 17.92050000
  14.74970000  2.24401000 18.00980000
  15.98180000  0.15352600 17.86440000
  16.00800000  2.85871000 18.15320000
  17.17700000  0.85129400 17.68890000
  17.19550000  2.21470000 17.74480000
  18.39550000  0.16726800 17.47770000
  18.42890000  2.83768000 17.56140000
  19.53280000  0.80909400 16.99540000
  19.54350000  2.20857000 17.00850000
  20.72700000  0.12239000 16.79240000
  20.81070000  2.90476000 16.67770000
  21.88450000  0.78859500 16.34300000
  21.90590000  2.13342000 16.34780000
  23.13890000  0.12071800 16.14340000
  23.17450000  2.86705000 16.11070000
  24.36000000  0.78465500 15.85970000
  24.37650000  2.17900000 15.72040000
  25.62180000  0.09618020 15.60840000
  25.61160000  2.85978000 15.47890000
  26.78820000  0.78771900 15.33280000
  26.80180000  2.21825000 15.16250000
   0.20027900  4.90060000 15.09180000
   0.21760200  6.28817000 15.43090000
   1.39834000  4.22991000 15.13270000
   1.40573000  6.91975000 15.73390000
   2.61048000  4.90962000 15.49080000
   2.62548000  6.22506000 15.83950000
   3.82506000  4.21416000 15.72080000
   3.85477000  6.92286000 16.07280000
   5.01829000  4.91779000 16.13140000
   4.99939000  6.24895000 16.45320000
   6.27204000  4.27956000 16.31810000
   6.21543000  6.90439000 16.76670000
   7.42795000  4.91423000 16.73530000
   7.42445000  6.25396000 16.97280000
   8.66936000  4.22278000 16.92010000
   8.64669000  6.93692000 17.32920000
   9.84759000  4.88531000 17.39360000
   9.85980000  6.26906000 17.62800000
  11.07710000  4.26778000 17.65010000
  11.07500000  6.95552000 17.90080000
  12.26900000  4.94643000 18.04180000
  12.26170000  6.31521000 18.16860000
  13.52940000  4.24506000 18.22410000
  13.53950000  6.93926000 18.30010000
  14.75410000  4.91652000 18.41790000
  14.75320000  6.24142000 18.26690000
  16.00610000  4.22837000 18.34620000
  15.98370000  6.93442000 18.08880000
  17.26250000  4.85789000 18.19960000
  17.30950000  6.21559000 18.07250000
  18.46360000  4.18039000 17.86410000
  18.44130000  6.93820000 17.79960000
  19.67840000  4.87768000 17.62470000
  19.70060000  6.27271000 17.68070000
  20.81260000  4.22512000 16.96590000
  20.87050000  6.92301000 17.21560000
  22.07290000  4.88414000 16.78760000
  22.12030000  6.27856000 17.00140000
  23.19630000  4.24432000 16.24510000
  23.25790000  6.93707000 16.54640000
  24.45950000  4.86929000 16.04040000
  24.45510000  6.23786000 16.21200000
  25.56660000  4.23503000 15.50220000
  25.66650000  6.87170000 15.86210000
  26.80590000  4.83466000 15.10120000
  26.78210000  6.26392000 15.38990000
 


--------------------------------------------------------------------------------------------------------


 k-point     1 :   0.0000 0.0000 0.0000  plane waves:  193173
 k-point     2 :   0.0000 0.2500 0.0000  plane waves:  193166
 k-point     3 :   0.0000 0.5000 0.0000  plane waves:  193226

 maximum and minimum number of plane-waves per node :    193226   193166

 maximum number of plane-waves:    193226
 maximum index in each direction: 
   IXMAX=   51   IYMAX=   14   IZMAX=   61
   IXMIN=  -51   IYMIN=  -15   IZMIN=  -61


 serial   3D FFT for wavefunctions
 parallel 3D FFT for charge:
    minimum data exchange during FFTs selected (reduces bandwidth)


 total amount of memory used by VASP MPI-rank0  2294504. kBytes
=======================================================================

   base                                    :      30000. kBytes
   nonlr-proj                              :      15070. kBytes
   fftplans                                :     436558. kBytes
   grid                                    :     732614. kBytes
   one-center                              :        282. kBytes
   wavefun                                 :    1079980. kBytes
 
     INWAV:  cpu time      0.0000: real time      0.0000
 Broyden mixing: mesh for mixing (old mesh)
   NGX =103   NGY = 29   NGZ =123
  (NGX  =420   NGY  =120   NGZ  =500)
  gives a total of 367401 points

 initial charge density was supplied:
 charge density of overlapping atoms calculated
 number of electron     368.0000000 magnetization 
 keeping initial charge density in first step


--------------------------------------------------------------------------------------------------------


 Maximum index for non-local projection operator          1872
 Maximum index for augmentation-charges          2384 (set IRDMAX)


--------------------------------------------------------------------------------------------------------


 First call to EWALD:  gamma=   0.090
 Maximum number of real-space cells   2x   6x   2
 Maximum number of reciprocal cells   4x   1x   4

    FEWALD:  cpu time      0.1604: real time      0.1605


--------------------------------------- Ionic step        1  -------------------------------------------




--------------------------------------- Iteration      1(   1)  ---------------------------------------


    POTLOK:  cpu time      0.4212: real time      0.4371
    SETDIJ:  cpu time      0.0399: real time      0.0399
     EDDAV:  cpu time     11.0647: real time     11.0699
       DOS:  cpu time      0.0008: real time      0.0008
    --------------------------------------------
      LOOP:  cpu time     11.5266: real time     11.5477

 eigenvalue-minimisations  :  1712
 total energy-change (2. order) : 0.3708947E+04  (-0.1189835E+05)
 number of electron     368.0000000 magnetization 
 augmentation part      368.0000000 magnetization 

 Free energy of the ion-electron system (eV)
  ---------------------------------------------------
  alpha Z        PSCENC =        91.34886789
  Ewald energy   TEWEN  =    120397.14611788
  -Hartree energ DENC   =   -129718.16490613
  -exchange      EXHF   =         0.00000000
  -V(xc)+E(xc)   XCENC  =      1221.86299296
  PAW double counting   =      9984.02826696   -10036.41360137
  entropy T*S    EENTRO =        -0.87607544
  eigenvalues    EBANDS =     -1767.63973368
  atomic energy  EATOM  =     13537.65479391
  Solvation  Ediel_sol  =         0.00000000
  ---------------------------------------------------
  free energy    TOTEN  =      3708.94672299 eV

  energy without entropy =     3709.82279842  energy(sigma->0) =     3709.38476070


--------------------------------------------------------------------------------------------------------




--------------------------------------- Iteration      1(   2)  ---------------------------------------


     EDDAV:  cpu time     13.1078: real time     13.1123
       DOS:  cpu time      0.0007: real time      0.0007
    --------------------------------------------
      LOOP:  cpu time     13.1085: real time     13.1131

 eigenvalue-minimisations  :  2144
 total energy-change (2. order) :-0.3525730E+04  (-0.3270516E+04)
 number of electron     368.0000000 magnetization 
 augmentation part      368.0000000 magnetization 

 Free energy of the ion-electron system (eV)
  ---------------------------------------------------
  alpha Z        PSCENC =        91.34886789
  Ewald energy   TEWEN  =    120397.14611788
  -Hartree energ DENC   =   -129718.16490613
  -exchange      EXHF   =         0.00000000
  -V(xc)+E(xc)   XCENC  =      1221.86299296
  PAW double counting   =      9984.02826696   -10036.41360137
  entropy T*S    EENTRO =        -0.21538018
  eigenvalues    EBANDS =     -5294.03037317
  atomic energy  EATOM  =     13537.65479391
  Solvation  Ediel_sol  =         0.00000000
  ---------------------------------------------------
  free energy    TOTEN  =       183.21677875 eV

  energy without entropy =      183.43215893  energy(sigma->0) =      183.32446884


--------------------------------------------------------------------------------------------------------




--------------------------------------- Iteration      1(   3)  ---------------------------------------


     EDDAV:  cpu time     11.2172: real time     11.2210
       DOS:  cpu time      0.0007: real time      0.0007
    --------------------------------------------
      LOOP:  cpu time     11.2179: real time     11.2217

 eigenvalue-minimisations  :  1776
 total energy-change (2. order) :-0.1016734E+04  (-0.9938184E+03)
 number of electron     368.0000000 magnetization 
 augmentation part      368.0000000 magnetization 

 Free energy of the ion-electron system (eV)
  ---------------------------------------------------
  alpha Z        PSCENC =        91.34886789
  Ewald energy   TEWEN  =    120397.14611788
  -Hartree energ DENC   =   -129718.16490613
  -exchange      EXHF   =         0.00000000
  -V(xc)+E(xc)   XCENC  =      1221.86299296
  PAW double counting   =      9984.02826696   -10036.41360137
  entropy T*S    EENTRO =        -0.05377611
  eigenvalues    EBANDS =     -6310.92620184
  atomic energy  EATOM  =     13537.65479391
  Solvation  Ediel_sol  =         0.00000000
  ---------------------------------------------------
  free energy    TOTEN  =      -833.51744584 eV

  energy without entropy =     -833.46366974  energy(sigma->0) =     -833.49055779


--------------------------------------------------------------------------------------------------------




--------------------------------------- Iteration      1(   4)  ---------------------------------------


     EDDAV:  cpu time     10.8931: real time     10.8968
       DOS:  cpu time      0.0007: real time      0.0007
    --------------------------------------------
      LOOP:  cpu time     10.8938: real time     10.8975

 eigenvalue-minimisations  :  1712
 total energy-change (2. order) :-0.6240618E+02  (-0.6135015E+02)
 number of electron     368.0000000 magnetization 
 augmentation part      368.0000000 magnetization 

 Free energy of the ion-electron system (eV)
  ---------------------------------------------------
  alpha Z        PSCENC =        91.34886789
  Ewald energy   TEWEN  =    120397.14611788
  -Hartree energ DENC   =   -129718.16490613
  -exchange      EXHF   =         0.00000000
  -V(xc)+E(xc)   XCENC  =      1221.86299296
  PAW double counting   =      9984.02826696   -10036.41360137
  entropy T*S    EENTRO =        -0.05988496
  eigenvalues    EBANDS =     -6373.32627439
  atomic energy  EATOM  =     13537.65479391
  Solvation  Ediel_sol  =         0.00000000
  ---------------------------------------------------
  free energy    TOTEN  =      -895.92362725 eV

  energy without entropy =     -895.86374229  energy(sigma->0) =     -895.89368477


--------------------------------------------------------------------------------------------------------




--------------------------------------- Iteration      1(   5)  ---------------------------------------


     EDDAV:  cpu time     11.0356: real time     11.0393
       DOS:  cpu time      0.0007: real time      0.0007
    CHARGE:  cpu time      1.2082: real time      1.2107
    MIXING:  cpu time      0.2725: real time      0.2741
    --------------------------------------------
      LOOP:  cpu time     12.5171: real time     12.5248

 eigenvalue-minimisations  :  1744
 total energy-change (2. order) :-0.1564060E+01  (-0.1539329E+01)
 number of electron     367.9999999 magnetization 
 augmentation part       10.1596972 magnetization 

 Broyden mixing:
  rms(total) = 0.45543E+01    rms(broyden)= 0.45537E+01
  rms(prec ) = 0.46718E+01
  weight for this iteration     100.00

 Free energy of the ion-electron system (eV)
  ---------------------------------------------------
  alpha Z        PSCENC =        91.34886789
  Ewald energy   TEWEN  =    120397.14611788
  -Hartree energ DENC   =   -129718.16490613
  -exchange      EXHF   =         0.00000000
  -V(xc)+E(xc)   XCENC  =      1221.86299296
  PAW double counting   =      9984.02826696   -10036.41360137
  entropy T*S    EENTRO =        -0.06056495
  eigenvalues    EBANDS =     -6374.88965446
  atomic energy  EATOM  =     13537.65479391
  Solvation  Ediel_sol  =         0.00000000
  ---------------------------------------------------
  free energy    TOTEN  =      -897.48768731 eV

  energy without entropy =     -897.42712236  energy(sigma->0) =     -897.45740484


--------------------------------------------------------------------------------------------------------




--------------------------------------- Iteration      1(   6)  ---------------------------------------


    POTLOK:  cpu time      0.3227: real time      0.3228
    SETDIJ:  cpu time      0.0403: real time      0.0402
     EDDAV:  cpu time     10.2521: real time     10.2555
       DOS:  cpu time      0.0007: real time      0.0007
    CHARGE:  cpu time      1.1595: real time      1.1602
    MIXING:  cpu time      0.2780: real time      0.2781
    --------------------------------------------
      LOOP:  cpu time     12.0533: real time     12.0575

 eigenvalue-minimisations  :  1584
 total energy-change (2. order) : 0.4965032E+02  (-0.4737725E+01)
 number of electron     367.9999998 magnetization 
 augmentation part        9.7364751 magnetization 

 Broyden mixing:
  rms(total) = 0.26754E+01    rms(broyden)= 0.26753E+01
  rms(prec ) = 0.27335E+01
  weight for this iteration     100.00

 eigenvalues of (default mixing * dielectric matrix)
  average eigenvalue GAMMA=   2.1786
  2.1786

 Free energy of the ion-electron system (eV)
  ---------------------------------------------------
  alpha Z        PSCENC =        91.34886789
  Ewald energy   TEWEN  =    120397.14611788
  -Hartree energ DENC   =   -130289.87415125
  -exchange      EXHF   =         0.00000000
  -V(xc)+E(xc)   XCENC  =      1245.19564283
  PAW double counting   =     18960.11265634   -19020.12970192
  entropy T*S    EENTRO =        -0.06900861
  eigenvalues    EBANDS =     -5769.22258189
  atomic energy  EATOM  =     13537.65479391
  Solvation  Ediel_sol  =         0.00000000
  ---------------------------------------------------
  free energy    TOTEN  =      -847.83736482 eV

  energy without entropy =     -847.76835621  energy(sigma->0) =     -847.80286051


--------------------------------------------------------------------------------------------------------




--------------------------------------- Iteration      1(   7)  ---------------------------------------


    POTLOK:  cpu time      0.3222: real time      0.3222
    SETDIJ:  cpu time      0.0418: real time      0.0418
     EDDAV:  cpu time     10.0812: real time     10.0869
       DOS:  cpu time      0.0007: real time      0.0007
    CHARGE:  cpu time      1.1543: real time      1.1559
    MIXING:  cpu time      0.2800: real time      0.2801
    --------------------------------------------
      LOOP:  cpu time     11.8802: real time     11.8876

 eigenvalue-minimisations  :  1552
 total energy-change (2. order) : 0.1851536E+02  (-0.6474933E+01)
 number of electron     367.9999998 magnetization 
 augmentation part        9.1820637 magnetization 

 Broyden mixing:
  rms(total) = 0.73373E+00    rms(broyden)= 0.73346E+00
  rms(prec ) = 0.74343E+00
  weight for this iteration     100.00

 eigenvalues of (default mixing * dielectric matrix)
  average eigenvalue GAMMA=   2.1386
  2.1386  2.1386

 Free energy of the ion-electron system (eV)
  ---------------------------------------------------
  alpha Z        PSCENC =        91.34886789
  Ewald energy   TEWEN  =    120397.14611788
  -Hartree energ DENC   =   -131053.86004891
  -exchange      EXHF   =         0.00000000
  -V(xc)+E(xc)   XCENC  =      1276.23091688
  PAW double counting   =     36586.33593014   -36653.26559404
  entropy T*S    EENTRO =        -0.07935329
  eigenvalues    EBANDS =     -5010.83363439
  atomic energy  EATOM  =     13537.65479391
  Solvation  Ediel_sol  =         0.00000000
  ---------------------------------------------------
  free energy    TOTEN  =      -829.32200394 eV

  energy without entropy =     -829.24265065  energy(sigma->0) =     -829.28232730


--------------------------------------------------------------------------------------------------------




--------------------------------------- Iteration      1(   8)  ---------------------------------------


    POTLOK:  cpu time      0.3220: real time      0.3219
    SETDIJ:  cpu time      0.0400: real time      0.0400
     EDDAV:  cpu time     10.4105: real time     10.4141
       DOS:  cpu time      0.0007: real time      0.0007
    CHARGE:  cpu time      1.1511: real time      1.1547
    MIXING:  cpu time      0.2823: real time      0.2824
    --------------------------------------------
      LOOP:  cpu time     12.2065: real time     12.2139

 eigenvalue-minimisations  :  1616
 total energy-change (2. order) : 0.2760265E+00  (-0.2301499E+00)
 number of electron     367.9999998 magnetization 
 augmentation part        9.1617539 magnetization 

 Broyden mixing:
  rms(total) = 0.11503E+00    rms(broyden)= 0.11500E+00
  rms(prec ) = 0.13528E+00
  weight for this iteration     100.00

 eigenvalues of (default mixing * dielectric matrix)
  average eigenvalue GAMMA=   1.8214
  1.0610  2.0053  2.3978

 Free energy of the ion-electron system (eV)
  ---------------------------------------------------
  alpha Z        PSCENC =        91.34886789
  Ewald energy   TEWEN  =    120397.14611788
  -Hartree energ DENC   =   -131146.74780438
  -exchange      EXHF   =         0.00000000
  -V(xc)+E(xc)   XCENC  =      1276.21327306
  PAW double counting   =     40685.65031732   -40750.11801373
  entropy T*S    EENTRO =        -0.07529561
  eigenvalues    EBANDS =     -4920.11823373
  atomic energy  EATOM  =     13537.65479391
  Solvation  Ediel_sol  =         0.00000000
  ---------------------------------------------------
  free energy    TOTEN  =      -829.04597740 eV

  energy without entropy =     -828.97068179  energy(sigma->0) =     -829.00832959


--------------------------------------------------------------------------------------------------------




--------------------------------------- Iteration      1(   9)  ---------------------------------------


    POTLOK:  cpu time      0.3217: real time      0.3216
    SETDIJ:  cpu time      0.0403: real time      0.0403
     EDDAV:  cpu time     10.7301: real time     10.7335
       DOS:  cpu time      0.0007: real time      0.0007
    CHARGE:  cpu time      1.1538: real time      1.1541
    MIXING:  cpu time      0.2854: real time      0.2871
    --------------------------------------------
      LOOP:  cpu time     12.5320: real time     12.5374

 eigenvalue-minimisations  :  1680
 total energy-change (2. order) : 0.1084809E+00  (-0.2082414E-01)
 number of electron     367.9999998 magnetization 
 augmentation part        9.1426309 magnetization 

 Broyden mixing:
  rms(total) = 0.57029E-01    rms(broyden)= 0.57022E-01
  rms(prec ) = 0.79342E-01
  weight for this iteration     100.00

 eigenvalues of (default mixing * dielectric matrix)
  average eigenvalue GAMMA=   1.6635
  2.1996  2.1996  0.9630  1.2916

 Free energy of the ion-electron system (eV)
  ---------------------------------------------------
  alpha Z        PSCENC =        91.34886789
  Ewald energy   TEWEN  =    120397.14611788
  -Hartree energ DENC   =   -131213.79069627
  -exchange      EXHF   =         0.00000000
  -V(xc)+E(xc)   XCENC  =      1277.38491625
  PAW double counting   =     41417.44721430   -41481.76428825
  entropy T*S    EENTRO =        -0.07589896
  eigenvalues    EBANDS =     -4854.28852324
  atomic energy  EATOM  =     13537.65479391
  Solvation  Ediel_sol  =         0.00000000
  ---------------------------------------------------
  free energy    TOTEN  =      -828.93749650 eV

  energy without entropy =     -828.86159754  energy(sigma->0) =     -828.89954702


--------------------------------------------------------------------------------------------------------




--------------------------------------- Iteration      1(  10)  ---------------------------------------


    POTLOK:  cpu time      0.3224: real time      0.3225
    SETDIJ:  cpu time      0.0401: real time      0.0401
     EDDAV:  cpu time     10.8283: real time     10.8321
       DOS:  cpu time      0.0008: real time      0.0008
    CHARGE:  cpu time      1.1531: real time      1.1543
    MIXING:  cpu time      0.2930: real time      0.2930
    --------------------------------------------
      LOOP:  cpu time     12.6376: real time     12.6427

 eigenvalue-minimisations  :  1704
 total energy-change (2. order) : 0.4026445E-01  (-0.3835378E-02)
 number of electron     367.9999998 magnetization 
 augmentation part        9.1333451 magnetization 

 Broyden mixing:
  rms(total) = 0.38237E-01    rms(broyden)= 0.38234E-01
  rms(prec ) = 0.58442E-01
  weight for this iteration     100.00

 eigenvalues of (default mixing * dielectric matrix)
  average eigenvalue GAMMA=   1.6587
  2.3585  2.3585  1.5828  1.1032  0.8907

 Free energy of the ion-electron system (eV)
  ---------------------------------------------------
  alpha Z        PSCENC =        91.34886789
  Ewald energy   TEWEN  =    120397.14611788
  -Hartree energ DENC   =   -131261.13278327
  -exchange      EXHF   =         0.00000000
  -V(xc)+E(xc)   XCENC  =      1277.79871970
  PAW double counting   =     41256.34111648   -41320.57447662
  entropy T*S    EENTRO =        -0.07612387
  eigenvalues    EBANDS =     -4807.40346414
  atomic energy  EATOM  =     13537.65479391
  Solvation  Ediel_sol  =         0.00000000
  ---------------------------------------------------
  free energy    TOTEN  =      -828.89723205 eV

  energy without entropy =     -828.82110818  energy(sigma->0) =     -828.85917012


--------------------------------------------------------------------------------------------------------




--------------------------------------- Iteration      1(  11)  ---------------------------------------


    POTLOK:  cpu time      0.3221: real time      0.3221
    SETDIJ:  cpu time      0.0401: real time      0.0401
     EDDAV:  cpu time     10.0265: real time     10.0329
       DOS:  cpu time      0.0007: real time      0.0007
    CHARGE:  cpu time      1.1643: real time      1.1659
    MIXING:  cpu time      0.2980: real time      0.2998
    --------------------------------------------
      LOOP:  cpu time     11.8517: real time     11.8616

 eigenvalue-minimisations  :  1544
 total energy-change (2. order) : 0.3287571E-01  (-0.2070534E-02)
 number of electron     367.9999998 magnetization 
 augmentation part        9.1285978 magnetization 

 Broyden mixing:
  rms(total) = 0.24073E-01    rms(broyden)= 0.24071E-01
  rms(prec ) = 0.39411E-01
  weight for this iteration     100.00

 eigenvalues of (default mixing * dielectric matrix)
  average eigenvalue GAMMA=   1.7783
  3.0722  2.5425  1.9120  0.9774  1.0828  1.0828

 Free energy of the ion-electron system (eV)
  ---------------------------------------------------
  alpha Z        PSCENC =        91.34886789
  Ewald energy   TEWEN  =    120397.14611788
  -Hartree energ DENC   =   -131323.56688877
  -exchange      EXHF   =         0.00000000
  -V(xc)+E(xc)   XCENC  =      1278.34652978
  PAW double counting   =     41197.41811550   -41261.54537882
  entropy T*S    EENTRO =        -0.07607191
  eigenvalues    EBANDS =     -4745.59044179
  atomic energy  EATOM  =     13537.65479391
  Solvation  Ediel_sol  =         0.00000000
  ---------------------------------------------------
  free energy    TOTEN  =      -828.86435634 eV

  energy without entropy =     -828.78828443  energy(sigma->0) =     -828.82632038


--------------------------------------------------------------------------------------------------------




--------------------------------------- Iteration      1(  12)  ---------------------------------------


    POTLOK:  cpu time      0.3221: real time      0.3222
    SETDIJ:  cpu time      0.0401: real time      0.0401
     EDDAV:  cpu time     10.1078: real time     10.1114
       DOS:  cpu time      0.0008: real time      0.0008
    CHARGE:  cpu time      1.1553: real time      1.1565
    MIXING:  cpu time      0.3073: real time      0.3074
    --------------------------------------------
      LOOP:  cpu time     11.9335: real time     11.9382

 eigenvalue-minimisations  :  1560
 total energy-change (2. order) : 0.7058226E-02  (-0.2741551E-02)
 number of electron     367.9999998 magnetization 
 augmentation part        9.1215049 magnetization 

 Broyden mixing:
  rms(total) = 0.14963E-01    rms(broyden)= 0.14959E-01
  rms(prec ) = 0.23042E-01
  weight for this iteration     100.00

 eigenvalues of (default mixing * dielectric matrix)
  average eigenvalue GAMMA=   2.0159
  4.6566  2.2715  2.2715  1.8638  1.0227  1.0127  1.0127

 Free energy of the ion-electron system (eV)
  ---------------------------------------------------
  alpha Z        PSCENC =        91.34886789
  Ewald energy   TEWEN  =    120397.14611788
  -Hartree energ DENC   =   -131398.29358497
  -exchange      EXHF   =         0.00000000
  -V(xc)+E(xc)   XCENC  =      1279.01750693
  PAW double counting   =     41194.44736174   -41258.53067973
  entropy T*S    EENTRO =        -0.07621601
  eigenvalues    EBANDS =     -4671.57146575
  atomic energy  EATOM  =     13537.65479391
  Solvation  Ediel_sol  =         0.00000000
  ---------------------------------------------------
  free energy    TOTEN  =      -828.85729811 eV

  energy without entropy =     -828.78108210  energy(sigma->0) =     -828.81919011


--------------------------------------------------------------------------------------------------------




--------------------------------------- Iteration      1(  13)  ---------------------------------------


    POTLOK:  cpu time      0.3228: real time      0.3228
    SETDIJ:  cpu time      0.0402: real time      0.0402
     EDDAV:  cpu time     10.0187: real time     10.0223
       DOS:  cpu time      0.0007: real time      0.0008
    CHARGE:  cpu time      1.1523: real time      1.1541
    MIXING:  cpu time      0.3151: real time      0.3153
    --------------------------------------------
      LOOP:  cpu time     11.8499: real time     11.8553

 eigenvalue-minimisations  :  1544
 total energy-change (2. order) :-0.1158204E-01  (-0.8399324E-03)
 number of electron     367.9999998 magnetization 
 augmentation part        9.1181687 magnetization 

 Broyden mixing:
  rms(total) = 0.83966E-02    rms(broyden)= 0.83942E-02
  rms(prec ) = 0.12271E-01
  weight for this iteration     100.00

 eigenvalues of (default mixing * dielectric matrix)
  average eigenvalue GAMMA=   2.0793
  5.5616  2.5733  2.1939  2.0844  1.1608  1.1608  0.9497  0.9497

 Free energy of the ion-electron system (eV)
  ---------------------------------------------------
  alpha Z        PSCENC =        91.34886789
  Ewald energy   TEWEN  =    120397.14611788
  -Hartree energ DENC   =   -131447.88665937
  -exchange      EXHF   =         0.00000000
  -V(xc)+E(xc)   XCENC  =      1279.25292379
  PAW double counting   =     41183.37795592   -41247.46671546
  entropy T*S    EENTRO =        -0.07620785
  eigenvalues    EBANDS =     -4622.21995685
  atomic energy  EATOM  =     13537.65479391
  Solvation  Ediel_sol  =         0.00000000
  ---------------------------------------------------
  free energy    TOTEN  =      -828.86888015 eV

  energy without entropy =     -828.79267230  energy(sigma->0) =     -828.83077623


--------------------------------------------------------------------------------------------------------




--------------------------------------- Iteration      1(  14)  ---------------------------------------


    POTLOK:  cpu time      0.3219: real time      0.3219
    SETDIJ:  cpu time      0.0401: real time      0.0401
     EDDAV:  cpu time     10.2287: real time     10.2358
       DOS:  cpu time      0.0008: real time      0.0008
    CHARGE:  cpu time      1.1542: real time      1.1546
    MIXING:  cpu time      0.3192: real time      0.3209
    --------------------------------------------
      LOOP:  cpu time     12.0649: real time     12.0739

 eigenvalue-minimisations  :  1584
 total energy-change (2. order) :-0.1773370E-01  (-0.1252744E-03)
 number of electron     367.9999998 magnetization 
 augmentation part        9.1177383 magnetization 

 Broyden mixing:
  rms(total) = 0.53768E-02    rms(broyden)= 0.53765E-02
  rms(prec ) = 0.76943E-02
  weight for this iteration     100.00

 eigenvalues of (default mixing * dielectric matrix)
  average eigenvalue GAMMA=   2.1707
  6.2708  2.7144  2.6880  1.8561  1.8561  1.1221  1.1221  0.9533  0.9533

 Free energy of the ion-electron system (eV)
  ---------------------------------------------------
  alpha Z        PSCENC =        91.34886789
  Ewald energy   TEWEN  =    120397.14611788
  -Hartree energ DENC   =   -131464.00223613
  -exchange      EXHF   =         0.00000000
  -V(xc)+E(xc)   XCENC  =      1279.23152861
  PAW double counting   =     41148.12979207   -41212.22481366
  entropy T*S    EENTRO =        -0.07619404
  eigenvalues    EBANDS =     -4606.09447037
  atomic energy  EATOM  =     13537.65479391
  Solvation  Ediel_sol  =         0.00000000
  ---------------------------------------------------
  free energy    TOTEN  =      -828.88661385 eV

  energy without entropy =     -828.81041981  energy(sigma->0) =     -828.84851683


--------------------------------------------------------------------------------------------------------




--------------------------------------- Iteration      1(  15)  ---------------------------------------


    POTLOK:  cpu time      0.3230: real time      0.3229
    SETDIJ:  cpu time      0.0400: real time      0.0400
     EDDAV:  cpu time     10.2781: real time     10.2819
       DOS:  cpu time      0.0008: real time      0.0008
    CHARGE:  cpu time      1.1539: real time      1.1549
    MIXING:  cpu time      0.3331: real time      0.3332
    --------------------------------------------
      LOOP:  cpu time     12.1289: real time     12.1337

 eigenvalue-minimisations  :  1592
 total energy-change (2. order) :-0.2017191E-01  (-0.1707391E-03)
 number of electron     367.9999998 magnetization 
 augmentation part        9.1171878 magnetization 

 Broyden mixing:
  rms(total) = 0.30602E-02    rms(broyden)= 0.30599E-02
  rms(prec ) = 0.42443E-02
  weight for this iteration     100.00

 eigenvalues of (default mixing * dielectric matrix)
  average eigenvalue GAMMA=   2.2511
  7.2409  3.5416  2.2111  2.2111  1.8116  1.2791  1.2791  0.9539  0.9539  1.0291

 Free energy of the ion-electron system (eV)
  ---------------------------------------------------
  alpha Z        PSCENC =        91.34886789
  Ewald energy   TEWEN  =    120397.14611788
  -Hartree energ DENC   =   -131474.61642381
  -exchange      EXHF   =         0.00000000
  -V(xc)+E(xc)   XCENC  =      1279.22838510
  PAW double counting   =     41171.63934522   -41235.73563188
  entropy T*S    EENTRO =        -0.07627039
  eigenvalues    EBANDS =     -4595.49596967
  atomic energy  EATOM  =     13537.65479391
  Solvation  Ediel_sol  =         0.00000000
  ---------------------------------------------------
  free energy    TOTEN  =      -828.90678576 eV

  energy without entropy =     -828.83051537  energy(sigma->0) =     -828.86865057


--------------------------------------------------------------------------------------------------------




--------------------------------------- Iteration      1(  16)  ---------------------------------------


    POTLOK:  cpu time      0.3218: real time      0.3218
    SETDIJ:  cpu time      0.0401: real time      0.0401
     EDDAV:  cpu time     10.3928: real time     10.3965
       DOS:  cpu time      0.0008: real time      0.0008
    CHARGE:  cpu time      1.1650: real time      1.1671
    MIXING:  cpu time      0.3401: real time      0.3412
    --------------------------------------------
      LOOP:  cpu time     12.2605: real time     12.2675

 eigenvalue-minimisations  :  1616
 total energy-change (2. order) :-0.8917788E-02  (-0.4853337E-04)
 number of electron     367.9999998 magnetization 
 augmentation part        9.1170939 magnetization 

 Broyden mixing:
  rms(total) = 0.20650E-02    rms(broyden)= 0.20649E-02
  rms(prec ) = 0.26513E-02
  weight for this iteration     100.00

 eigenvalues of (default mixing * dielectric matrix)
  average eigenvalue GAMMA=   2.3450
  7.9310  4.1484  2.4608  2.4608  1.8997  1.4503  1.4503  0.9873  0.9873  1.0094
  1.0094

 Free energy of the ion-electron system (eV)
  ---------------------------------------------------
  alpha Z        PSCENC =        91.34886789
  Ewald energy   TEWEN  =    120397.14611788
  -Hartree energ DENC   =   -131479.08100730
  -exchange      EXHF   =         0.00000000
  -V(xc)+E(xc)   XCENC  =      1279.20883294
  PAW double counting   =     41157.20202804   -41221.29829250
  entropy T*S    EENTRO =        -0.07624882
  eigenvalues    EBANDS =     -4591.02079558
  atomic energy  EATOM  =     13537.65479391
  Solvation  Ediel_sol  =         0.00000000
  ---------------------------------------------------
  free energy    TOTEN  =      -828.91570355 eV

  energy without entropy =     -828.83945473  energy(sigma->0) =     -828.87757914


--------------------------------------------------------------------------------------------------------




--------------------------------------- Iteration      1(  17)  ---------------------------------------


    POTLOK:  cpu time      0.3239: real time      0.3239
    SETDIJ:  cpu time      0.0402: real time      0.0402
     EDDAV:  cpu time     10.2227: real time     10.2264
       DOS:  cpu time      0.0008: real time      0.0008
    CHARGE:  cpu time      1.1544: real time      1.1560
    MIXING:  cpu time      0.3500: real time      0.3513
    --------------------------------------------
      LOOP:  cpu time     12.0920: real time     12.0985

 eigenvalue-minimisations  :  1584
 total energy-change (2. order) :-0.5788008E-02  (-0.4209582E-04)
 number of electron     367.9999998 magnetization 
 augmentation part        9.1170323 magnetization 

 Broyden mixing:
  rms(total) = 0.97236E-03    rms(broyden)= 0.97229E-03
  rms(prec ) = 0.12754E-02
  weight for this iteration     100.00

 eigenvalues of (default mixing * dielectric matrix)
  average eigenvalue GAMMA=   2.3467
  8.4321  4.5864  2.5500  2.3715  2.0799  1.4221  1.4221  1.3105  0.9650  0.9650
  0.9559  1.1006

 Free energy of the ion-electron system (eV)
  ---------------------------------------------------
  alpha Z        PSCENC =        91.34886789
  Ewald energy   TEWEN  =    120397.14611788
  -Hartree energ DENC   =   -131481.19577648
  -exchange      EXHF   =         0.00000000
  -V(xc)+E(xc)   XCENC  =      1279.20637408
  PAW double counting   =     41166.67305909   -41230.76366964
  entropy T*S    EENTRO =        -0.07625093
  eigenvalues    EBANDS =     -4588.91500736
  atomic energy  EATOM  =     13537.65479391
  Solvation  Ediel_sol  =         0.00000000
  ---------------------------------------------------
  free energy    TOTEN  =      -828.92149156 eV

  energy without entropy =     -828.84524063  energy(sigma->0) =     -828.88336609


--------------------------------------------------------------------------------------------------------




--------------------------------------- Iteration      1(  18)  ---------------------------------------


    POTLOK:  cpu time      0.3218: real time      0.3217
    SETDIJ:  cpu time      0.0402: real time      0.0402
     EDDAV:  cpu time      9.8952: real time      9.9002
       DOS:  cpu time      0.0007: real time      0.0007
    CHARGE:  cpu time      1.1529: real time      1.1539
    MIXING:  cpu time      0.3597: real time      0.3597
    --------------------------------------------
      LOOP:  cpu time     11.7705: real time     11.7764

 eigenvalue-minimisations  :  1512
 total energy-change (2. order) :-0.1585509E-02  (-0.5251315E-05)
 number of electron     367.9999998 magnetization 
 augmentation part        9.1169241 magnetization 

 Broyden mixing:
  rms(total) = 0.62016E-03    rms(broyden)= 0.62011E-03
  rms(prec ) = 0.80938E-03
  weight for this iteration     100.00

 eigenvalues of (default mixing * dielectric matrix)
  average eigenvalue GAMMA=   2.3967
  8.8825  5.0461  2.9025  2.4559  1.9465  1.9465  1.4464  1.4464  0.9648  0.9648
  1.0009  1.0771  1.0771

 Free energy of the ion-electron system (eV)
  ---------------------------------------------------
  alpha Z        PSCENC =        91.34886789
  Ewald energy   TEWEN  =    120397.14611788
  -Hartree energ DENC   =   -131481.99856828
  -exchange      EXHF   =         0.00000000
  -V(xc)+E(xc)   XCENC  =      1279.20818918
  PAW double counting   =     41165.31731890   -41229.40893617
  entropy T*S    EENTRO =        -0.07625859
  eigenvalues    EBANDS =     -4588.11460179
  atomic energy  EATOM  =     13537.65479391
  Solvation  Ediel_sol  =         0.00000000
  ---------------------------------------------------
  free energy    TOTEN  =      -828.92307707 eV

  energy without entropy =     -828.84681847  energy(sigma->0) =     -828.88494777


--------------------------------------------------------------------------------------------------------




--------------------------------------- Iteration      1(  19)  ---------------------------------------


    POTLOK:  cpu time      0.3230: real time      0.3231
    SETDIJ:  cpu time      0.0400: real time      0.0400
     EDDAV:  cpu time      8.8904: real time      8.8935
       DOS:  cpu time      0.0007: real time      0.0007
    CHARGE:  cpu time      1.1539: real time      1.1561
    MIXING:  cpu time      0.3727: real time      0.3733
    --------------------------------------------
      LOOP:  cpu time     10.7807: real time     10.7866

 eigenvalue-minimisations  :  1312
 total energy-change (2. order) :-0.1096675E-02  (-0.3635005E-05)
 number of electron     367.9999998 magnetization 
 augmentation part        9.1169631 magnetization 

 Broyden mixing:
  rms(total) = 0.33897E-03    rms(broyden)= 0.33896E-03
  rms(prec ) = 0.43335E-03
  weight for this iteration     100.00

 eigenvalues of (default mixing * dielectric matrix)
  average eigenvalue GAMMA=   2.4163
  8.9219  5.6649  3.2436  2.4275  2.4275  1.9335  1.4213  1.4213  1.2287  1.2287
  0.9643  0.9643  0.9902  0.9902

 Free energy of the ion-electron system (eV)
  ---------------------------------------------------
  alpha Z        PSCENC =        91.34886789
  Ewald energy   TEWEN  =    120397.14611788
  -Hartree energ DENC   =   -131482.26115484
  -exchange      EXHF   =         0.00000000
  -V(xc)+E(xc)   XCENC  =      1279.20406324
  PAW double counting   =     41163.21450126   -41227.30524482
  entropy T*S    EENTRO =        -0.07625359
  eigenvalues    EBANDS =     -4587.84986465
  atomic energy  EATOM  =     13537.65479391
  Solvation  Ediel_sol  =         0.00000000
  ---------------------------------------------------
  free energy    TOTEN  =      -828.92417374 eV

  energy without entropy =     -828.84792015  energy(sigma->0) =     -828.88604695


--------------------------------------------------------------------------------------------------------




--------------------------------------- Iteration      1(  20)  ---------------------------------------


    POTLOK:  cpu time      0.3231: real time      0.3230
    SETDIJ:  cpu time      0.0402: real time      0.0402
     EDDAV:  cpu time      9.1690: real time      9.1724
       DOS:  cpu time      0.0007: real time      0.0007
    CHARGE:  cpu time      1.1557: real time      1.1557
    MIXING:  cpu time      0.3848: real time      0.3859
    --------------------------------------------
      LOOP:  cpu time     11.0734: real time     11.0780

 eigenvalue-minimisations  :  1368
 total energy-change (2. order) :-0.4159978E-03  (-0.7871791E-06)
 number of electron     367.9999998 magnetization 
 augmentation part        9.1169350 magnetization 

 Broyden mixing:
  rms(total) = 0.18290E-03    rms(broyden)= 0.18289E-03
  rms(prec ) = 0.23288E-03
  weight for this iteration     100.00

 eigenvalues of (default mixing * dielectric matrix)
  average eigenvalue GAMMA=   2.4526
  9.2302  5.9567  3.7813  2.6478  2.3377  2.0182  1.5174  1.5174  1.5263  1.2467
  0.9695  0.9695  0.9783  1.0465  1.0465

 Free energy of the ion-electron system (eV)
  ---------------------------------------------------
  alpha Z        PSCENC =        91.34886789
  Ewald energy   TEWEN  =    120397.14611788
  -Hartree energ DENC   =   -131482.48166970
  -exchange      EXHF   =         0.00000000
  -V(xc)+E(xc)   XCENC  =      1279.20492973
  PAW double counting   =     41163.28436997   -41227.37578562
  entropy T*S    EENTRO =        -0.07625592
  eigenvalues    EBANDS =     -4587.62995787
  atomic energy  EATOM  =     13537.65479391
  Solvation  Ediel_sol  =         0.00000000
  ---------------------------------------------------
  free energy    TOTEN  =      -828.92458974 eV

  energy without entropy =     -828.84833382  energy(sigma->0) =     -828.88646178


--------------------------------------------------------------------------------------------------------




--------------------------------------- Iteration      1(  21)  ---------------------------------------


    POTLOK:  cpu time      0.3214: real time      0.3214
    SETDIJ:  cpu time      0.0401: real time      0.0400
     EDDAV:  cpu time      8.4998: real time      8.5030
       DOS:  cpu time      0.0007: real time      0.0007
    CHARGE:  cpu time      1.1652: real time      1.1671
    MIXING:  cpu time      0.3977: real time      0.3979
    --------------------------------------------
      LOOP:  cpu time     10.4249: real time     10.4301

 eigenvalue-minimisations  :  1232
 total energy-change (2. order) :-0.1973644E-03  (-0.2256151E-06)
 number of electron     367.9999998 magnetization 
 augmentation part        9.1169370 magnetization 

 Broyden mixing:
  rms(total) = 0.92657E-04    rms(broyden)= 0.92651E-04
  rms(prec ) = 0.11621E-03
  weight for this iteration     100.00

 eigenvalues of (default mixing * dielectric matrix)
  average eigenvalue GAMMA=   2.4415
  9.2228  6.2892  4.0250  2.7320  2.3011  2.3011  1.9034  1.4532  1.4532  1.2442
  1.2442  0.9693  0.9693  1.0178  0.9693  0.9693

 Free energy of the ion-electron system (eV)
  ---------------------------------------------------
  alpha Z        PSCENC =        91.34886789
  Ewald energy   TEWEN  =    120397.14611788
  -Hartree energ DENC   =   -131482.55765698
  -exchange      EXHF   =         0.00000000
  -V(xc)+E(xc)   XCENC  =      1279.20396413
  PAW double counting   =     41162.41879318   -41226.51044977
  entropy T*S    EENTRO =        -0.07625698
  eigenvalues    EBANDS =     -4587.55296037
  atomic energy  EATOM  =     13537.65479391
  Solvation  Ediel_sol  =         0.00000000
  ---------------------------------------------------
  free energy    TOTEN  =      -828.92478710 eV

  energy without entropy =     -828.84853013  energy(sigma->0) =     -828.88665861


--------------------------------------------------------------------------------------------------------




[...]
   -.243E+02 -.351E+01 0.441E+02   0.265E+02 0.326E+01 -.438E+02   0.126E+01 0.346E+00 0.988E+00   -.561E-05 0.151E-05 -.837E-06
   0.197E+02 -.132E+02 -.884E+02   -.196E+02 0.135E+02 0.888E+02   0.134E+00 -.565E+00 -.502E+00   -.464E-05 -.219E-05 -.789E-06
   0.147E+02 0.961E+01 -.113E+02   -.165E+02 -.104E+02 0.108E+02   -.564E-01 -.563E+00 -.424E+00   -.528E-05 0.131E-05 -.511E-06
   0.148E+02 0.559E+01 -.737E+02   -.166E+02 -.533E+01 0.733E+02   -.920E+00 -.408E-01 -.314E+00   -.466E-05 -.880E-06 -.126E-05
   0.169E+01 -.803E+01 -.319E+02   -.142E+01 0.816E+01 0.314E+02   0.900E+00 -.122E+00 0.101E+01   -.371E-05 0.427E-06 -.112E-05
   -.247E+01 -.870E+00 -.940E+02   0.457E+01 -.351E+00 0.942E+02   0.173E+01 -.360E+00 0.389E+00   -.338E-05 0.406E-06 -.131E-05
   0.361E+01 0.130E+02 -.105E+03   -.316E+01 -.139E+02 0.105E+03   0.148E+01 0.343E-01 -.695E+00   -.315E-05 0.390E-07 -.156E-05
   -.151E+01 0.789E+01 -.394E+02   0.132E+01 -.744E+01 0.392E+02   -.330E-01 0.642E+00 0.296E+00   -.340E-06 -.748E-06 -.125E-05
   0.225E+01 -.923E+01 -.708E+02   -.282E+01 0.865E+01 0.702E+02   -.604E-01 -.109E+01 0.936E+00   -.749E-07 0.114E-05 -.143E-05
   0.265E+01 -.778E+01 -.358E+02   -.331E+01 0.894E+01 0.357E+02   -.725E+00 0.590E+00 0.528E+00   0.250E-05 0.140E-05 -.899E-06
   -.114E+02 0.132E+02 -.155E+03   0.113E+02 -.129E+02 0.156E+03   -.622E+00 0.616E+00 -.163E+01   0.308E-05 -.112E-06 -.164E-05
   -.294E+01 0.939E+01 -.322E+02   0.342E+01 -.972E+01 0.319E+02   0.121E+00 -.420E+00 -.537E+00   0.291E-05 0.846E-06 -.713E-06
   0.221E+00 -.152E+02 -.395E+02   -.589E+00 0.155E+02 0.387E+02   0.166E-01 -.746E+00 0.141E+01   0.311E-05 0.791E-06 -.144E-05
   -.223E+01 -.330E+01 -.194E+02   0.169E+01 0.410E+01 0.194E+02   -.442E+00 -.208E+00 0.111E+00   0.156E-05 -.127E-05 -.365E-07
   -.175E+02 0.367E+01 -.518E+02   0.180E+02 -.363E+01 0.521E+02   -.668E+00 0.729E+00 -.568E+00   0.371E-06 0.288E-05 0.445E-06
   0.115E+02 0.304E+01 0.715E+02   -.117E+02 -.223E+01 -.719E+02   0.118E+00 0.226E+00 0.768E+00   0.320E-05 -.243E-05 -.711E-06
   -.565E+00 -.173E+02 0.625E+02   0.233E+01 0.178E+02 -.636E+02   -.791E-01 -.679E+00 0.484E+00   0.284E-05 0.237E-05 -.404E-06
   0.800E+01 0.425E+00 0.555E+02   -.775E+01 -.595E+00 -.557E+02   0.807E+00 0.423E+00 0.195E+00   0.367E-05 -.652E-06 -.760E-06
   0.219E+02 0.179E+01 0.776E+02   -.236E+02 -.295E+01 -.774E+02   -.233E+01 -.123E+01 0.954E+00   0.455E-05 0.223E-05 -.548E-06
   0.123E+02 0.147E+02 0.108E+03   -.121E+02 -.164E+02 -.108E+03   0.847E+00 0.120E+00 0.246E+00   -.830E-06 0.130E-05 0.374E-06
   -.228E+01 -.147E+02 0.877E+02   0.437E+01 0.164E+02 -.884E+02   0.833E+00 0.190E+01 -.544E+00   -.181E-05 -.147E-06 0.739E-06
   0.144E+02 -.148E+02 0.992E+02   -.149E+02 0.162E+02 -.100E+03   0.803E+00 0.672E+00 0.172E+01   -.543E-05 -.448E-06 0.823E-06
   0.991E+01 0.142E+02 0.666E+02   -.105E+02 -.153E+02 -.663E+02   -.244E+00 -.593E+00 -.118E+01   -.362E-05 0.152E-05 0.614E-06
   -.351E+00 0.375E+01 0.712E+02   0.109E+01 -.308E+01 -.710E+02   0.148E+00 0.301E+00 -.195E+01   -.121E-05 0.667E-06 -.229E-06
   0.150E+02 -.734E+01 0.124E+03   -.154E+02 0.687E+01 -.125E+03   -.678E-01 -.187E+00 0.159E+01   -.243E-06 0.219E-05 -.592E-06
   0.768E+01 -.150E+02 0.107E+03   -.877E+01 0.165E+02 -.107E+03   0.598E+00 0.180E+01 0.129E+01   0.213E-05 0.197E-05 -.686E-06
   0.244E+01 0.820E+01 0.111E+03   -.260E+01 -.837E+01 -.111E+03   -.261E+00 -.567E+00 -.107E+01   0.106E-06 -.151E-05 0.289E-06
   0.741E+01 0.505E+02 0.134E+03   -.108E+02 -.503E+02 -.134E+03   0.132E+01 0.210E+01 -.450E+00   0.871E-06 0.325E-05 0.311E-06
   0.692E+01 -.539E+02 0.195E+03   -.104E+02 0.541E+02 -.197E+03   0.101E+01 -.196E+01 0.197E+01   -.118E-05 -.326E-05 0.213E-05
   0.107E+02 0.451E+02 0.205E+03   -.727E+01 -.448E+02 -.205E+03   -.126E+01 0.105E+01 0.866E+00   -.224E-05 0.375E-05 0.266E-05
   0.137E+02 -.537E+02 0.819E+02   -.117E+02 0.537E+02 -.826E+02   -.157E+01 -.219E+01 -.112E+00   0.242E-06 -.109E-05 0.850E-06
   -.135E+01 -.615E+00 0.186E+03   0.184E+01 0.883E-02 -.186E+03   0.377E+00 0.443E+00 -.938E-01   0.402E-05 0.816E-06 0.205E-05
   0.215E+02 -.297E+01 -.870E+01   -.212E+02 0.412E+01 0.914E+01   -.106E+01 -.130E+00 -.318E+00   0.212E-05 -.575E-06 -.127E-06
   -.157E+01 0.967E+01 0.127E+03   0.137E+01 -.104E+02 -.127E+03   0.287E+00 -.499E+00 0.134E+01   0.311E-05 -.257E-06 0.721E-06
   0.626E+01 -.567E+01 -.225E+01   -.614E+01 0.604E+01 0.297E+01   -.458E+00 0.753E+00 -.135E+01   0.163E-05 0.139E-05 -.782E-07
   -.991E+01 -.140E+02 0.817E+02   0.998E+01 0.151E+02 -.817E+02   0.822E+00 0.970E+00 -.695E+00   0.493E-05 -.165E-05 0.100E-05
   0.103E+02 0.763E+01 0.113E+02   -.107E+02 -.775E+01 -.116E+02   -.127E+01 0.456E-01 0.144E+01   0.401E-05 0.200E-06 -.371E-06
   0.491E+01 0.152E+02 0.446E+02   -.538E+01 -.161E+02 -.450E+02   0.588E+00 -.652E+00 0.102E+01   0.448E-05 -.129E-05 -.979E-07
   0.162E+02 -.374E+01 -.824E+02   -.158E+02 0.384E+01 0.834E+02   0.527E+00 0.755E-01 -.188E+01   0.280E-05 -.773E-06 -.520E-06
   0.946E+00 -.770E+01 0.506E+02   -.193E+01 0.792E+01 -.511E+02   0.260E+00 -.891E+00 0.121E+00   0.240E-05 0.276E-06 0.372E-06
   0.262E+02 -.561E+01 -.921E+02   -.265E+02 0.704E+01 0.920E+02   -.518E+00 0.117E+01 -.309E-01   0.277E-05 -.116E-05 -.403E-06
   -.582E+01 0.112E+02 -.932E+00   0.669E+01 -.116E+02 0.131E+01   0.910E+00 -.212E+00 0.124E-01   -.230E-05 0.528E-06 -.650E-06
   0.484E+01 -.973E+01 -.720E+02   -.359E+01 0.104E+02 0.726E+02   -.420E+00 -.549E-01 0.230E+00   0.518E-07 -.215E-05 -.925E-06
   -.208E+01 -.208E+02 0.201E+02   0.179E+01 0.223E+02 -.204E+02   0.607E+00 0.539E+00 0.811E+00   -.398E-05 -.266E-06 -.443E-06
   0.225E+02 0.141E+02 -.109E+03   -.227E+02 -.149E+02 0.109E+03   -.131E+01 -.944E-02 -.414E+00   -.328E-05 -.441E-07 -.922E-06
   0.186E+02 0.526E+01 -.426E+02   -.192E+02 -.478E+01 0.427E+02   0.422E+00 0.952E+00 0.489E+00   -.378E-05 0.219E-06 -.470E-06
   0.244E+02 -.206E+01 -.124E+03   -.243E+02 0.152E+01 0.125E+03   -.947E+00 0.121E+00 -.812E+00   -.308E-05 0.543E-06 -.554E-06
   0.511E+01 -.134E+02 -.624E+02   -.468E+01 0.140E+02 0.625E+02   -.117E+00 -.455E+00 -.159E+00   -.500E-05 0.148E-05 -.552E-06
   0.294E+02 0.634E+01 -.136E+03   -.304E+02 -.595E+01 0.136E+03   -.994E+00 -.350E-01 0.354E-01   -.490E-05 -.125E-05 -.144E-05
   0.127E+02 0.156E+02 -.122E+03   -.121E+02 -.161E+02 0.122E+03   -.677E-01 -.677E+00 0.131E+00   -.538E-05 0.530E-06 -.191E-05
   0.144E+02 -.731E+01 -.175E+03   -.130E+02 0.702E+01 0.176E+03   0.252E+00 -.980E+00 -.309E+00   -.672E-05 0.123E-06 -.214E-05
   0.130E+02 -.119E+02 -.153E+03   -.140E+02 0.130E+02 0.153E+03   -.987E+00 0.519E+00 0.153E+00   -.284E-05 0.705E-06 -.179E-05
   0.590E+01 0.125E+01 -.194E+03   -.643E+01 -.786E+00 0.195E+03   -.157E+01 0.437E+00 -.185E+01   -.355E-05 -.638E-06 -.113E-05
   -.384E+01 0.177E+02 -.213E+03   0.432E+01 -.198E+02 0.214E+03   0.250E+00 -.863E+00 -.135E+01   -.112E-06 -.895E-06 -.184E-05
   -.702E+01 -.162E+02 -.137E+03   0.772E+01 0.180E+02 0.136E+03   -.162E-01 0.133E+01 0.129E+01   -.309E-06 -.470E-06 -.184E-05
   -.999E+01 -.830E+01 -.200E+03   0.953E+01 0.838E+01 0.200E+03   0.481E+00 -.183E+00 0.179E+00   0.305E-05 0.833E-06 -.202E-05
   -.167E+02 0.216E+02 -.110E+03   0.182E+02 -.240E+02 0.111E+03   0.385E+00 -.923E+00 -.218E+00   0.289E-05 -.152E-05 -.893E-06
   -.225E+02 0.114E+02 -.189E+03   0.226E+02 -.121E+02 0.189E+03   0.432E+00 0.502E+00 -.569E+00   0.466E-05 -.114E-06 -.216E-05
   -.209E+01 -.124E+02 -.143E+03   -.254E+00 0.133E+02 0.144E+03   -.175E+01 0.117E+01 0.269E+00   0.408E-05 -.153E-05 -.120E-05
   -.306E+02 -.393E+01 -.143E+03   0.310E+02 0.438E+01 0.143E+03   0.434E+00 0.398E+00 0.299E-01   0.139E-05 0.463E-06 -.704E-06
   -.254E+02 0.269E+01 -.123E+03   0.266E+02 -.304E+01 0.123E+03   0.100E+01 -.672E+00 -.146E+00   0.213E-05 -.140E-05 -.459E-06
   -.430E+02 0.174E+02 -.141E+03   0.433E+02 -.177E+02 0.141E+03   0.309E+00 -.174E+00 -.125E+01   0.203E-05 -.113E-05 -.958E-06
   -.385E+02 -.745E+01 -.169E+03   0.384E+02 0.753E+01 0.169E+03   0.825E-01 -.685E+00 -.949E+00   0.170E-05 -.321E-06 -.549E-06
   0.666E+01 -.200E+02 -.226E+01   -.693E+01 0.219E+02 0.248E+01   0.118E+01 -.353E-01 0.117E+01   0.234E-05 -.810E-06 -.107E-05
   -.281E+02 0.775E+01 -.101E+03   0.281E+02 -.836E+01 0.101E+03   -.198E+00 0.324E+00 -.712E-02   0.205E-05 0.199E-06 -.736E-06
   -.122E+02 0.111E+02 -.487E+02   0.116E+02 -.108E+02 0.497E+02   -.198E+00 0.652E+00 -.496E+00   -.136E-05 -.121E-05 -.370E-06
   -.319E+02 -.432E+00 -.137E+03   0.316E+02 -.399E+00 0.138E+03   -.749E+00 -.576E+00 -.120E+01   -.135E-05 -.936E-06 0.411E-07
   0.573E+01 -.717E+01 0.537E+02   -.580E+01 0.700E+01 -.545E+02   0.650E+00 -.107E+01 0.151E+01   -.339E-05 0.366E-06 0.438E-06
   -.303E+02 0.502E+01 -.687E+02   0.306E+02 -.576E+01 0.693E+02   0.835E-01 -.919E+00 -.949E+00   -.494E-05 0.604E-06 0.106E-05
   -.676E+01 0.166E+02 0.117E+02   0.609E+01 -.161E+02 -.105E+02   -.990E+00 0.735E+00 -.117E+01   -.211E-05 -.237E-05 -.452E-06
   -.130E+02 -.796E+01 -.386E+02   0.130E+02 0.777E+01 0.386E+02   0.791E+00 -.108E+00 -.701E-01   -.133E-05 -.139E-05 -.406E-07
   0.150E+01 -.731E+01 0.132E+03   -.419E+00 0.704E+01 -.133E+03   0.203E+01 -.103E+00 -.190E+00   -.741E-06 0.601E-06 0.101E-05
   -.173E+02 0.460E+01 -.131E+02   0.166E+02 -.542E+01 0.153E+02   -.388E+00 0.285E+00 -.253E+01   0.727E-06 -.757E-06 -.748E-07
   0.159E+02 0.554E+02 0.241E+03   -.196E+02 -.551E+02 -.241E+03   0.123E+00 0.355E+01 0.239E+01   0.350E-06 0.218E-05 0.150E-05
   -.542E+01 -.468E+02 0.139E+03   0.394E+01 0.450E+02 -.141E+03   0.211E+01 -.188E+01 0.129E+01   0.261E-05 -.287E-05 0.803E-07
 -----------------------------------------------------------------------------------------------
   0.375E+00 -.115E+01 -.243E+01   -.624E-12 -.377E-12 -.909E-12   -.459E+00 0.119E+01 0.247E+01   -.165E-05 -.706E-06 -.248E-04
 
 
 POSITION                                       TOTAL-FORCE (eV/Angst)
 -----------------------------------------------------------------------------------
      0.16118      0.83997     15.26980         5.317127     -0.125413      1.211706
      0.22886      2.21785     15.07830        -0.134854     -2.252323     -0.684938
      1.43110      0.23330     15.67460        -4.234843     -2.255980     -0.842778
      1.45418      2.81972     15.01600        -0.585081      2.041496      0.876691
      2.64812      0.82720     15.67080         0.300859      1.818714     -0.275937
      2.64048      2.17614     15.37010         1.563950      0.218070     -0.454126
      3.84388      0.18556     15.99670         1.139213      0.693494     -0.000515
      3.87343      2.87538     15.54460         0.804355     -1.287434      0.105030
      5.09103      0.89123     16.10570        -0.825720     -1.362523      0.315549
      5.13135      2.23429     15.83020        -0.381333      0.562637      0.391717
      6.23615      0.24161     16.60320        -0.915324     -2.612043     -1.043731
      6.35020      2.91709     16.15190        -0.620230     -1.572244     -1.475792
      7.47618      0.84266     16.56070         0.829849     -0.683377      1.460169
      7.56355      2.17430     16.30940        -0.226504      2.865807      1.169477
      8.59255      0.18982     17.14110         2.222712      0.470920     -0.631794
      8.74158      2.88210     16.76480        -2.224317     -1.180945     -1.774049
      9.86472      0.83319     17.26940        -0.642497      0.810237      0.211994
      9.87467      2.20851     17.08580         3.544373      0.089212      1.322977
     11.05110      0.22224     17.72070         0.155054     -0.286985     -0.051099
     11.10080      2.91423     17.49130        -1.844459     -1.385660     -0.888291
     12.30050      0.88003     17.85010        -2.686116      0.217654     -0.663522
     12.27620      2.24480     17.74170         1.175153      0.006821      0.481568
     13.46430      0.21296     18.02970         3.826296     -1.581495      0.630294
     13.47720      2.90514     18.04360         1.931377     -0.879608     -0.340768
     14.73610      0.84306     17.92050        -0.224148      1.090231      0.056232
     14.74970      2.24401     18.00980        -0.627420     -1.664395      0.344532
     15.98180      0.15353     17.86440        -1.388071      1.745240      0.382636
     16.00800      2.85871     18.15320        -0.737759      0.874745     -0.887282
     17.17700      0.85129     17.68890         0.603229     -0.750817     -0.774222
     17.19550      2.21470     17.74480        -0.349725     -0.448824      0.666218
     18.39550      0.16727     17.47770        -0.975593      0.592831      0.151246
     18.42890      2.83768     17.56140        -0.161287      0.771343     -0.297568
     19.53280      0.80909     16.99540        -0.075055      1.034132      0.359660
     19.54350      2.20857     17.00850         1.685986     -0.164523     -0.577423
     20.72700      0.12239     16.79240         1.060382      0.252269     -0.001992
     20.81070      2.90476     16.67770        -4.064877     -2.391007      1.150527
     21.88450      0.78860     16.34300         1.036994     -1.577112     -0.167444
     21.90590      2.13342     16.34780         2.916942      3.536011     -1.248383
     23.13890      0.12072     16.14340         0.295843      2.033191      0.887060
     23.17450      2.86705     16.11070        -0.878189     -1.709300     -0.878766
     24.36000      0.78465     15.85970         0.889138      0.976993     -1.676083
     24.37650      2.17900     15.72040        -0.491981     -0.656093      0.991552
     25.62180      0.09618     15.60840        -0.486206      3.253918      1.355521
     25.61160      2.85978     15.47890        -0.420452     -0.745286     -0.833596
     26.78820      0.78772     15.33280        -2.107809      2.251192     -0.533559
     26.80180      2.21825     15.16250        -2.446312     -1.776500      0.647495
      0.20028      4.90060     15.09180         2.205627      1.380209      0.602808
      0.21760      6.28817     15.43090         0.438216     -2.140748     -0.853977
      1.39834      4.22991     15.13270         0.868361     -0.164100     -0.481445
      1.40573      6.91975     15.73390        -0.773433      1.020343      0.117610
      2.61048      4.90962     15.49080         0.088388     -1.278819      0.703266
      2.62548      6.22506     15.83950        -0.339540      1.122091     -0.629284
      3.82506      4.21416     15.72080         0.894958      2.085684     -0.615276
      3.85477      6.92286     16.07280        -1.676329     -0.074128      1.080840
      5.01829      4.91779     16.13140         0.126633     -1.595537      0.608549
      4.99939      6.24895     16.45320         1.016288      0.178891     -0.835372
      6.27204      4.27956     16.31810        -0.724014     -0.671319     -0.401672
      6.21543      6.90439     16.76670        -0.840736      2.605732     -0.147701
      7.42795      4.91423     16.73530         1.778924     -0.614230      0.390227
      7.42445      6.25396     16.97280         0.829597      0.612362      0.786216
      8.66936      4.22278     16.92010         0.317919      2.049238      0.542178
      8.64669      6.93692     17.32920        -1.455210     -0.789069     -0.232728
      9.84759      4.88531     17.39360        -0.265427      1.439300      0.531936
      9.85980      6.26906     17.62800        -0.868043     -0.411256     -0.545088
     11.07710      4.26778     17.65010         0.317519      0.167724     -0.152602
     11.07500      6.95552     17.90080        -1.971821      0.357868     -0.162603
     12.26900      4.94643     18.04180         0.592917     -1.126848      0.445251
     12.26170      6.31521     18.16860         1.659838     -1.263438      0.388892
     13.52940      4.24506     18.22410        -1.985595      1.617576      0.063821
     13.53950      6.93926     18.30010        -2.098834      0.903879     -1.338255
     14.75410      4.91652     18.41790         0.726876     -2.880888     -0.390229
     14.75320      6.24142     18.26690         0.686107      3.191435      0.697901
     16.00610      4.22837     18.34620         0.012601     -0.107597      0.026514
     15.98370      6.93442     18.08880         1.918384     -3.369261      0.182914
     17.26250      4.85789     18.19960         0.490479     -0.218054      0.117568
     17.30950      6.21559     18.07250        -4.085850      2.036621      0.639823
     18.46360      4.18039     17.86410         0.784740      0.846747     -0.012005
     18.44130      6.93820     17.79960         2.159972     -1.024012     -0.331147
     19.67840      4.87768     17.62470         0.575038     -0.539741     -0.918925
     19.70060      6.27271     17.68070        -0.027879     -0.612807     -0.474713
     20.81260      4.22512     16.96590         0.906044      1.925929      1.389035
     20.87050      6.92301     17.21560        -0.185019     -0.294484      0.117983
     22.07290      4.88414     16.78760        -0.849870      0.984352      0.463654
     22.12030      6.27856     17.00140        -0.980770     -1.408158     -0.419916
     23.19630      4.24432     16.24510         0.580107     -1.235196      0.701508
     23.25790      6.93707     16.54640         0.416939     -1.665470     -0.374397
     24.45950      4.86929     16.04040        -1.660271      1.213279      0.105905
     24.45510      6.23786     16.21200         0.790046     -0.297710     -0.070665
     25.56660      4.23503     15.50220         3.111504     -0.372640     -0.939447
     25.66650      6.87170     15.86210        -1.061638     -0.536503     -0.293812
     26.80590      4.83466     15.10120        -3.615378      3.801586      1.930365
     26.78210      6.26392     15.38990         0.628960     -3.706104     -0.179693
 -----------------------------------------------------------------------------------
    total drift:                               -0.083585      0.043965      0.033874


--------------------------------------------------------------------------------------------------------



  FREE ENERGIE OF THE ION-ELECTRON SYSTEM (eV)
  ---------------------------------------------------
  free  energy   TOTEN  =      -828.92489360 eV

  energy  without entropy=     -828.84863726  energy(sigma->0) =     -828.88676543
 


--------------------------------------------------------------------------------------------------------


    POTLOK:  cpu time      0.4547: real time      0.4546


--------------------------------------------------------------------------------------------------------


     LOOP+:  cpu time    332.0752: real time    332.2523
    4ORBIT:  cpu time      0.0000: real time      0.0000

 total amount of memory used by VASP MPI-rank0  2294504. kBytes
=======================================================================

   base                                    :      30000. kBytes
   nonlr-proj                              :      15070. kBytes
   fftplans                                :     436558. kBytes
   grid                                    :     732614. kBytes
   one-center                              :        282. kBytes
   wavefun                                 :    1079980. kBytes
 
  
  
 General timing and accounting informations for this job:
 ========================================================
  
                  Total CPU time used (sec):      365.422
                            User time (sec):      357.008
                          System time (sec):        8.413
                         Elapsed time (sec):      365.666
  
                   Maximum memory used (kb):     3731120.
                   Average memory used (kb):          N/A
  
                          Minor page faults:      3178595
                          Major page faults:         5152
                 Voluntary context switches:         9406
