unknown system                          
            1
    28.050000    0.000000    0.000000
     0.000000    8.100000    0.000000
     0.000000    0.000000   33.500000
   C 
    92
Direct configuration=     1
   0.00574610  0.10369988  0.45581493
   0.00815897  0.27380864  0.45009851
   0.05101961  0.02880222  0.46789851
   0.05184242  0.34811358  0.44823881
   0.09440713  0.10212383  0.46778507
   0.09413476  0.26865926  0.45880896
   0.13703672  0.02290802  0.47751343
   0.13809020  0.35498519  0.46401791
   0.18149840  0.11002877  0.48076716
   0.18293583  0.27583827  0.47254328
   0.22232264  0.02982840  0.49561791
   0.22638859  0.36013457  0.48214627
   0.26653048  0.10403198  0.49434925
   0.26964528  0.26843210  0.48684776
   0.30632977  0.02343420  0.51167463
   0.31164278  0.35581481  0.50044179
   0.35168342  0.10286333  0.51550448
   0.35203815  0.27265556  0.51002388
   0.39397861  0.02743753  0.52897612
   0.39575045  0.35978148  0.52212836
   0.43852050  0.10864605  0.53283881
   0.43765419  0.27713580  0.52960299
   0.48001070  0.02629160  0.53820000
   0.48047059  0.35865926  0.53861493
   0.52535116  0.10408173  0.53494030
   0.52583601  0.27703827  0.53760597
   0.56976114  0.01895383  0.53326567
   0.57069519  0.35292716  0.54188657
   0.61237077  0.10509802  0.52802687
   0.61303030  0.27341975  0.52969552
   0.65581105  0.02065037  0.52172239
   0.65700178  0.35033086  0.52422090
   0.69635651  0.09988815  0.50732537
   0.69673797  0.27266296  0.50771642
   0.73893048  0.01510988  0.50126567
   0.74191444  0.35861235  0.49784179
   0.78019608  0.09735741  0.48785075
   0.78095900  0.26338519  0.48799403
   0.82491622  0.01490346  0.48189254
   0.82618538  0.35395679  0.48091642
   0.86844920  0.09687099  0.47342388
   0.86903743  0.26901235  0.46926567
   0.91343316  0.01187410  0.46592239
   0.91306952  0.35305926  0.46205672
   0.95501604  0.09724926  0.45769552
   0.95550089  0.27385802  0.45261194
   0.00714007  0.60501235  0.45050149
   0.00775765  0.77631728  0.46062388
   0.04985169  0.52221111  0.45172239
   0.05011515  0.85429012  0.46966866
   0.09306524  0.60612593  0.46241194
   0.09360000  0.76852593  0.47282090
   0.13636578  0.52026667  0.46927761
   0.13742496  0.85467407  0.47978507
   0.17890517  0.60713457  0.48153433
   0.17823137  0.77147531  0.49114030
   0.22360214  0.52834074  0.48710746
   0.22158396  0.85239383  0.50049851
   0.26481105  0.60669506  0.49956119
   0.26468627  0.77209383  0.50665075
   0.30906809  0.52133086  0.50507761
   0.30825989  0.85640988  0.51728955
   0.35107273  0.60312469  0.51921194
   0.35150802  0.77395802  0.52620896
   0.39490553  0.52688642  0.52686866
   0.39483066  0.85870617  0.53435224
   0.43739750  0.61067037  0.53856119
   0.43713725  0.77965556  0.54234627
   0.48233155  0.52408148  0.54400299
   0.48269162  0.85669877  0.54627164
   0.52599287  0.60697778  0.54978806
   0.52596078  0.77054568  0.54528060
   0.57062745  0.52202099  0.54764776
   0.56982888  0.85610123  0.53996418
   0.61541889  0.59973951  0.54327164
   0.61709447  0.76735679  0.53947761
   0.65823886  0.51609753  0.53325672
   0.65744385  0.85656790  0.53133134
   0.70154724  0.60218272  0.52611045
   0.70233868  0.77440864  0.52778209
   0.74198217  0.52161975  0.50644478
   0.74404635  0.85469259  0.51389851
   0.78691266  0.60298025  0.50112239
   0.78860250  0.77513086  0.50750448
   0.82696257  0.52399012  0.48492836
   0.82915865  0.85642840  0.49392239
   0.87199643  0.60114691  0.47881791
   0.87183957  0.77010617  0.48394030
   0.91146524  0.52284321  0.46275224
   0.91502674  0.84835802  0.47349552
   0.95564706  0.59687160  0.45078209
   0.95479857  0.77332346  0.45940000
