<?xml version="1.0" encoding="ISO-8859-1"?>
<modeling>
 <generator>
  <i name="program" type="string">vasp </i>
  <i name="version" type="string">6.5.0  </i>
  <i name="subversion" type="string">16Dec24 (build Feb 19 2025 19:45:31) complex                          parallel </i>
  <i name="platform" type="string">LinuxNV </i>
  <i name="date" type="string">2025 10 25 </i>
  <i name="time" type="string">17:43:07 </i>
 </generator>
 <incar>
  <i type="int" name="ISTART">     0</i>
  <i type="string" name="PREC">Accurate   (Precision level)</i>
  <i type="string" name="ALGO">Normal</i>
  <i type="int" name="ISPIN">     1</i>
  <i type="int" name="ICHARG">     2</i>
  <i type="int" name="NELM">   150</i>
  <i type="int" name="IBRION">    -1</i>
  <i name="EDIFF">      0.00000100</i>
  <i type="int" name="NSW">     0</i>
  <i name="ENCUT">    500.00000000</i>
  <i type="string" name="LREAL">Auto         (Projection operators: automatic)</i>
  <i type="int" name="ISMEAR">     0</i>
  <i type="logical" name="KGAMMA"> T  </i>
  <i type="logical" name="LWAVE"> F  </i>
  <i type="logical" name="LCHARG"> F  </i>
 </incar>
 <primitive_cell>
  <structure name="primitive_cell" >
   <crystal>
    <varray name="basis" >
     <v>      28.05000000       0.00000000       0.00000000 </v>
     <v>       0.00000000       8.10000000       0.00000000 </v>
     <v>       0.00000000       0.00000000      33.50000000 </v>
    </varray>
    <i name="volume">   7611.36750000 </i>
    <varray name="rec_basis" >
     <v>       0.03565062       0.00000000       0.00000000 </v>
     <v>       0.00000000       0.12345679       0.00000000 </v>
     <v>       0.00000000       0.00000000       0.02985075 </v>
    </varray>
   </crystal>
   <varray name="positions" >
    <v>       0.02313558       0.13148765       0.52303284 </v>
    <v>       0.02344909       0.30179877       0.52394328 </v>
    <v>       0.06466061       0.04695457       0.51682687 </v>
    <v>       0.06768128       0.37667654       0.52454627 </v>
    <v>       0.10997005       0.12744938       0.51647164 </v>
    <v>       0.11015437       0.29338395       0.51986567 </v>
    <v>       0.15327308       0.03868494       0.50515224 </v>
    <v>       0.15223922       0.37503086       0.50958209 </v>
    <v>       0.19761034       0.12682469       0.50012239 </v>
    <v>       0.19675187       0.29833457       0.49852836 </v>
    <v>       0.23810624       0.04616988       0.48714030 </v>
    <v>       0.23552371       0.37668889       0.48141194 </v>
    <v>       0.28040535       0.12627901       0.47387761 </v>
    <v>       0.27742709       0.29102099       0.46698806 </v>
    <v>       0.32242317       0.03662370       0.46644179 </v>
    <v>       0.31953654       0.37046667       0.45369552 </v>
    <v>       0.36529055       0.11746704       0.45591642 </v>
    <v>       0.36416756       0.28980000       0.45434030 </v>
    <v>       0.40704813       0.04150370       0.44728657 </v>
    <v>       0.40733690       0.36517037       0.44783582 </v>
    <v>       0.45172906       0.12313852       0.44996418 </v>
    <v>       0.45388948       0.28944938       0.44457015 </v>
    <v>       0.49595009       0.04234852       0.44255522 </v>
    <v>       0.49621747       0.36692346       0.43476119 </v>
    <v>       0.53987166       0.12527407       0.44629552 </v>
    <v>       0.53987522       0.28996420       0.43877612 </v>
    <v>       0.58175401       0.03613247       0.44763582 </v>
    <v>       0.58474866       0.36936914       0.43571642 </v>
    <v>       0.62596791       0.11394654       0.45236119 </v>
    <v>       0.62903387       0.28735556       0.44381194 </v>
    <v>       0.66944385       0.03422864       0.46038209 </v>
    <v>       0.67346168       0.36834074       0.44574925 </v>
    <v>       0.71288770       0.12402716       0.46841194 </v>
    <v>       0.71483066       0.28640988       0.46189552 </v>
    <v>       0.75658467       0.04067519       0.47639701 </v>
    <v>       0.75835651       0.37694074       0.46650746 </v>
    <v>       0.80047415       0.12628148       0.48794627 </v>
    <v>       0.80051693       0.29730123       0.48563284 </v>
    <v>       0.84264884       0.04978444       0.49715224 </v>
    <v>       0.84513725       0.38266543       0.49113731 </v>
    <v>       0.88449911       0.13317654       0.51181194 </v>
    <v>       0.88527986       0.30860988       0.50941493 </v>
    <v>       0.92686275       0.04505247       0.51934030 </v>
    <v>       0.92955437       0.38612963       0.51297910 </v>
    <v>       0.96954011       0.12763827       0.52585075 </v>
    <v>       0.97086988       0.30103580       0.52295522 </v>
    <v>       0.02449487       0.63041728       0.51534627 </v>
    <v>       0.02116863       0.80185926       0.51602090 </v>
    <v>       0.06626881       0.54709877       0.52193134 </v>
    <v>       0.06489305       0.87855679       0.51848657 </v>
    <v>       0.10799287       0.62483086       0.50913134 </v>
    <v>       0.10798111       0.79257037       0.50768060 </v>
    <v>       0.15032906       0.54317284       0.50072239 </v>
    <v>       0.15157683       0.87150370       0.50253433 </v>
    <v>       0.19151123       0.62629877       0.48521194 </v>
    <v>       0.19388592       0.79262716       0.48906269 </v>
    <v>       0.23391194       0.54203210       0.47421791 </v>
    <v>       0.23769091       0.87262593       0.48403284 </v>
    <v>       0.27405348       0.61870494       0.45896716 </v>
    <v>       0.27583601       0.78398272       0.46553731 </v>
    <v>       0.31801533       0.53744691       0.44819403 </v>
    <v>       0.31823387       0.86738889       0.45716119 </v>
    <v>       0.36238859       0.61758272       0.44231343 </v>
    <v>       0.36324421       0.78476790       0.44559104 </v>
    <v>       0.40611052       0.53142840       0.43877015 </v>
    <v>       0.40838146       0.86967284       0.44311940 </v>
    <v>       0.45104100       0.61905802       0.43175821 </v>
    <v>       0.45130125       0.79014444       0.43488358 </v>
    <v>       0.49513369       0.53944198       0.43101194 </v>
    <v>       0.49637077       0.87152716       0.43465075 </v>
    <v>       0.54032799       0.62302716       0.42591343 </v>
    <v>       0.54064528       0.78634815       0.43179403 </v>
    <v>       0.58501248       0.54032963       0.42912537 </v>
    <v>       0.58443494       0.86742716       0.43958806 </v>
    <v>       0.63064884       0.61787160       0.43071642 </v>
    <v>       0.62935472       0.78634198       0.43845075 </v>
    <v>       0.67529055       0.53987037       0.43636119 </v>
    <v>       0.67114795       0.86927778       0.45684478 </v>
    <v>       0.71926560       0.62450370       0.44470746 </v>
    <v>       0.71573975       0.78778395       0.45656119 </v>
    <v>       0.76396791       0.53957160       0.45730746 </v>
    <v>       0.75543672       0.87793210       0.47115522 </v>
    <v>       0.80365775       0.62907778       0.47065672 </v>
    <v>       0.80215330       0.79580494       0.47495224 </v>
    <v>       0.84608200       0.54250123       0.48034030 </v>
    <v>       0.84371836       0.87747160       0.49012537 </v>
    <v>       0.89068806       0.62944938       0.48764478 </v>
    <v>       0.88652050       0.79611852       0.49289851 </v>
    <v>       0.93214973       0.54573457       0.50187164 </v>
    <v>       0.92818538       0.87504444       0.51030448 </v>
    <v>       0.97356506       0.62393333       0.51028657 </v>
    <v>       0.97047415       0.79720247       0.51378209 </v>
   </varray>
  </structure>
  <varray name="primitive_index" >
   <v type="int" >        1 </v>
   <v type="int" >        2 </v>
   <v type="int" >        3 </v>
   <v type="int" >        4 </v>
   <v type="int" >        5 </v>
   <v type="int" >        6 </v>
   <v type="int" >        7 </v>
   <v type="int" >        8 </v>
   <v type="int" >        9 </v>
   <v type="int" >       10 </v>
   <v type="int" >       11 </v>
   <v type="int" >       12 </v>
   <v type="int" >       13 </v>
   <v type="int" >       14 </v>
   <v type="int" >       15 </v>
   <v type="int" >       16 </v>
   <v type="int" >       17 </v>
   <v type="int" >       18 </v>
   <v type="int" >       19 </v>
   <v type="int" >       20 </v>
   <v type="int" >       21 </v>
   <v type="int" >       22 </v>
   <v type="int" >       23 </v>
   <v type="int" >       24 </v>
   <v type="int" >       25 </v>
   <v type="int" >       26 </v>
   <v type="int" >       27 </v>
   <v type="int" >       28 </v>
   <v type="int" >       29 </v>
   <v type="int" >       30 </v>
   <v type="int" >       31 </v>
   <v type="int" >       32 </v>
   <v type="int" >       33 </v>
   <v type="int" >       34 </v>
   <v type="int" >       35 </v>
   <v type="int" >       36 </v>
   <v type="int" >       37 </v>
   <v type="int" >       38 </v>
   <v type="int" >       39 </v>
   <v type="int" >       40 </v>
   <v type="int" >       41 </v>
   <v type="int" >       42 </v>
   <v type="int" >       43 </v>
   <v type="int" >       44 </v>
   <v type="int" >       45 </v>
   <v type="int" >       46 </v>
   <v type="int" >       47 </v>
   <v type="int" >       48 </v>
   <v type="int" >       49 </v>
   <v type="int" >       50 </v>
   <v type="int" >       51 </v>
   <v type="int" >       52 </v>
   <v type="int" >       53 </v>
   <v type="int" >       54 </v>
   <v type="int" >       55 </v>
   <v type="int" >       56 </v>
   <v type="int" >       57 </v>
   <v type="int" >       58 </v>
   <v type="int" >       59 </v>
   <v type="int" >       60 </v>
   <v type="int" >       61 </v>
   <v type="int" >       62 </v>
   <v type="int" >       63 </v>
   <v type="int" >       64 </v>
   <v type="int" >       65 </v>
   <v type="int" >       66 </v>
   <v type="int" >       67 </v>
   <v type="int" >       68 </v>
   <v type="int" >       69 </v>
   <v type="int" >       70 </v>
   <v type="int" >       71 </v>
   <v type="int" >       72 </v>
   <v type="int" >       73 </v>
   <v type="int" >       74 </v>
   <v type="int" >       75 </v>
   <v type="int" >       76 </v>
   <v type="int" >       77 </v>
   <v type="int" >       78 </v>
   <v type="int" >       79 </v>
   <v type="int" >       80 </v>
   <v type="int" >       81 </v>
   <v type="int" >       82 </v>
   <v type="int" >       83 </v>
   <v type="int" >       84 </v>
   <v type="int" >       85 </v>
   <v type="int" >       86 </v>
   <v type="int" >       87 </v>
   <v type="int" >       88 </v>
   <v type="int" >       89 </v>
   <v type="int" >       90 </v>
   <v type="int" >       91 </v>
   <v type="int" >       92 </v>
  </varray>
 </primitive_cell>
 <kpoints>
  <generation param="Gamma">
   <v type="int" name="divisions">       1        4        1 </v>
   <v name="usershift">      0.00000000       0.00000000       0.00000000 </v>
   <v name="genvec1">      1.00000000       0.00000000       0.00000000 </v>
   <v name="genvec2">      0.00000000       0.25000000       0.00000000 </v>
   <v name="genvec3">      0.00000000       0.00000000       1.00000000 </v>
   <v name="shift">      0.00000000       0.00000000       0.00000000 </v>
  </generation>
  <varray name="kpointlist" >
   <v>       0.00000000       0.00000000       0.00000000 </v>
   <v>       0.00000000       0.25000000       0.00000000 </v>
   <v>       0.00000000       0.50000000       0.00000000 </v>
  </varray>
  <varray name="weights" >
   <v>       0.25000000 </v>
   <v>       0.50000000 </v>
   <v>       0.25000000 </v>
  </varray>
 </kpoints>
 <parameters>
  <separator name="general" >
   <i type="string" name="SYSTEM">unknown system</i>
   <i type="logical" name="LCOMPAT"> F  </i>
  </separator>
  <separator name="electronic" >
   <i type="string" name="PREC">accura</i>
   <i name="ENMAX">    500.00000000</i>
   <i name="ENAUG">    644.87300000</i>
   <i name="EDIFF">      0.00000100</i>
   <i type="int" name="IALGO">    38</i>
   <i type="int" name="IWAVPR">    10</i>
   <i type="int" name="NBANDS">   232</i>
   <i type="int" name="NBANDSLOW">    -1</i>
   <i type="int" name="NBANDSHIGH">    -1</i>
   <i name="NELECT">    368.00000000</i>
   <i type="int" name="TURBO">     0</i>
   <i type="int" name="IRESTART">     0</i>
   <i type="int" name="NREBOOT">     0</i>
   <i type="int" name="NMIN">     0</i>
   <i name="EREF">      0.00000000</i>
   <separator name="electronic smearing" >
    <i type="int" name="ISMEAR">     0</i>
    <i name="SIGMA">      0.20000000</i>
    <i name="KSPACING">      0.50000000</i>
    <i type="logical" name="KGAMMA"> T  </i>
    <i type="logical" name="KBLOWUP"> T  </i>
   </separator>
   <separator name="electronic projectors" >
    <i type="logical" name="LREAL"> T  </i>
    <v name="ROPT">     -0.00025000</v>
    <i type="int" name="LMAXPAW">  -100</i>
    <i type="int" name="LMAXMIX">     2</i>
    <i type="logical" name="NLSPLINE"> F  </i>
   </separator>
   <separator name="electronic startup" >
    <i type="int" name="ISTART">     0</i>
    <i type="int" name="ICHARG">     2</i>
    <i type="int" name="INIWAV">     1</i>
   </separator>
   <separator name="electronic spin" >
    <i type="int" name="ISPIN">     1</i>
    <i type="logical" name="LNONCOLLINEAR"> F  </i>
    <v name="MAGMOM">      1.00000000      1.00000000      1.00000000      1.00000000      1.00000000      1.00000000      1.00000000      1.00000000      1.00000000      1.00000000      1.00000000      1.00000000      1.00000000      1.00000000      1.00000000      1.00000000      1.00000000      1.00000000      1.00000000      1.00000000
      1.00000000      1.00000000      1.00000000      1.00000000      1.00000000      1.00000000      1.00000000      1.00000000      1.00000000      1.00000000      1.00000000      1.00000000      1.00000000      1.00000000      1.00000000      1.00000000      1.00000000      1.00000000      1.00000000      1.00000000
      1.00000000      1.00000000      1.00000000      1.00000000      1.00000000      1.00000000      1.00000000      1.00000000      1.00000000      1.00000000      1.00000000      1.00000000      1.00000000      1.00000000      1.00000000      1.00000000      1.00000000      1.00000000      1.00000000      1.00000000
      1.00000000      1.00000000      1.00000000      1.00000000      1.00000000      1.00000000      1.00000000      1.00000000      1.00000000      1.00000000      1.00000000      1.00000000      1.00000000      1.00000000      1.00000000      1.00000000      1.00000000      1.00000000      1.00000000      1.00000000
      1.00000000      1.00000000      1.00000000      1.00000000      1.00000000      1.00000000      1.00000000      1.00000000      1.00000000      1.00000000      1.00000000      1.00000000</v>
    <i name="NUPDOWN">     -1.00000000</i>
    <i type="logical" name="LSORBIT"> F  </i>
    <v name="SAXIS">      0.00000000      0.00000000      1.00000000</v>
    <i type="logical" name="LSPIRAL"> F  </i>
    <v name="QSPIRAL">      0.00000000      0.00000000      0.00000000</v>
    <i type="logical" name="LZEROZ"> F  </i>
   </separator>
   <separator name="electronic exchange-correlation" >
    <i type="logical" name="LASPH"> F  </i>
   </separator>
   <separator name="electronic convergence" >
    <i type="int" name="NELM">   150</i>
    <i type="int" name="NELMDL">    -5</i>
    <i type="int" name="NELMIN">     2</i>
    <i name="ENINI">    500.00000000</i>
    <separator name="electronic convergence detail" >
     <i type="logical" name="LDIAG"> T  </i>
     <i type="logical" name="LSUBROT"> F  </i>
     <i name="WEIMIN">      0.00000000</i>
     <i name="EBREAK">      0.00000000</i>
     <i name="DEPER">      0.30000000</i>
     <i type="int" name="NRMM">     4</i>
     <i name="TIME">      0.40000000</i>
    </separator>
   </separator>
   <separator name="electronic mixer" >
    <i name="AMIX">      0.40000000</i>
    <i name="BMIX">      1.00000000</i>
    <i name="AMIN">      0.10000000</i>
    <i name="AMIX_MAG">      1.60000000</i>
    <i name="BMIX_MAG">      1.00000000</i>
    <separator name="electronic mixer details" >
     <i type="int" name="IMIX">     4</i>
     <i type="logical" name="MIXFIRST"> F  </i>
     <i type="int" name="MAXMIX">   -45</i>
     <i name="WC">    100.00000000</i>
     <i type="int" name="INIMIX">     1</i>
     <i type="int" name="MIXPRE">     1</i>
     <i type="int" name="MREMOVE">     5</i>
    </separator>
   </separator>
   <separator name="electronic dipolcorrection" >
    <i type="logical" name="LDIPOL"> F  </i>
    <i type="logical" name="LMONO"> F  </i>
    <i type="int" name="IDIPOL">     0</i>
    <i name="EPSILON">      1.00000000</i>
    <v name="DIPOL">   -100.00000000   -100.00000000   -100.00000000</v>
    <i name="EFIELD">      0.00000000</i>
    <i type="logical" name="LVACPOTAV"> F  </i>
   </separator>
  </separator>
  <separator name="grids" >
   <i type="int" name="NGX">   210</i>
   <i type="int" name="NGY">    60</i>
   <i type="int" name="NGZ">   250</i>
   <i type="int" name="NGXF">   420</i>
   <i type="int" name="NGYF">   120</i>
   <i type="int" name="NGZF">   500</i>
   <i type="logical" name="ADDGRID"> F  </i>
  </separator>
  <separator name="ionic" >
   <i type="int" name="NSW">     0</i>
   <i type="int" name="IBRION">    -1</i>
   <i type="int" name="MDALGO">     0</i>
   <i type="int" name="ISIF">     2</i>
   <i name="PSTRESS">      0.00000000</i>
   <i name="EDIFFG">      0.00001000</i>
   <i type="int" name="NFREE">     0</i>
   <i name="POTIM">      0.50000000</i>
   <i name="SMASS">     -3.00000000</i>
   <i name="SCALEE">      1.00000000</i>
  </separator>
  <separator name="ionic md" >
   <i name="TEBEG">      0.00010000</i>
   <i name="TEEND">      0.00010000</i>
   <i type="int" name="NBLOCK">     1</i>
   <i type="int" name="KBLOCK">     1</i>
   <i type="int" name="NPACO">   256</i>
   <i name="APACO">     10.00000000</i>
  </separator>
  <separator name="symmetry" >
   <i type="int" name="ISYM">     2</i>
   <i name="SYMPREC">      0.00001000</i>
  </separator>
  <separator name="dos" >
   <i type="int" name="LORBIT">     0</i>
   <v name="RWIGS">     -1.00000000</v>
   <i type="int" name="NEDOS">   301</i>
   <i name="EMIN">     10.00000000</i>
   <i name="EMAX">    -10.00000000</i>
   <i name="EFERMI">      0.00000000</i>
  </separator>
  <separator name="writing" >
   <i type="int" name="NWRITE">     2</i>
   <i type="logical" name="LWAVE"> F  </i>
   <i type="logical" name="LDOWNSAMPLE"> F  </i>
   <i type="logical" name="LCHARG"> F  </i>
   <i type="logical" name="LPARD"> F  </i>
   <i type="logical" name="LVTOT"> F  </i>
   <i type="logical" name="LVHAR"> F  </i>
   <i type="logical" name="LELF"> F  </i>
   <i type="logical" name="LOPTICS"> F  </i>
   <v name="STM">      0.00000000      0.00000000      0.00000000      0.00000000      0.00000000      0.00000000      0.00000000</v>
  </separator>
  <separator name="performance" >
   <i type="int" name="NPAR">     2</i>
   <i type="int" name="NSIM">     4</i>
   <i type="int" name="NBLK">    -1</i>
   <i type="logical" name="LPLANE"> T  </i>
   <i type="logical" name="LSCALAPACK"> T  </i>
   <i type="logical" name="LSCAAWARE"> F  </i>
   <i type="logical" name="LSCALU"> F  </i>
   <i type="logical" name="LASYNC"> F  </i>
   <i type="logical" name="LORBITALREAL"> F  </i>
  </separator>
  <separator name="miscellaneous" >
   <i type="int" name="IDIOT">     3</i>
   <i type="int" name="PHON_NSTRUCT">    -1</i>
   <i type="logical" name="LMUSIC"> F  </i>
   <v name="POMASS">     12.01100000</v>
   <v name="DARWINR">      0.00000000</v>
   <v name="DARWINV">      1.00000000</v>
   <i type="logical" name="LCORR"> T  </i>
  </separator>
  <i type="logical" name="GGA_COMPAT"> T  </i>
  <i type="logical" name="LBERRY"> F  </i>
  <i type="int" name="ICORELEVEL">     0</i>
  <i type="logical" name="LDAU"> F  </i>
  <i type="int" name="I_CONSTRAINED_M">     0</i>
  <separator name="electronic exchange-correlation" >
   <i type="string" name="GGA    ">PE</i>
   <i type="string" name="XC_C">1</i>
   <i type="int" name="VOSKOWN">     0</i>
   <i type="logical" name="LHFCALC"> F  </i>
   <i type="string" name="PRECFOCK"></i>
   <i type="logical" name="LSYMGRAD"> F  </i>
   <i type="logical" name="LHFONE"> F  </i>
   <i type="logical" name="LRHFCALC"> F  </i>
   <i type="logical" name="LTHOMAS"> F  </i>
   <i type="logical" name="LMODELHF"> F  </i>
   <i type="logical" name="LFOCKACE"> F  </i>
   <i name="ENCUT4O">     -1.00000000</i>
   <i type="int" name="EXXOEP">     0</i>
   <i type="int" name="FOURORBIT">     0</i>
   <i name="AEXX">      0.00000000</i>
   <i name="HFALPHA">      0.00000000</i>
   <i name="MCALPHA">      0.00000000</i>
   <i name="ALDAX">      1.00000000</i>
   <i name="AGGAX">      1.00000000</i>
   <i name="AMGGAX">      1.00000000</i>
   <i name="ALDAC">      1.00000000</i>
   <i name="AGGAC">      1.00000000</i>
   <i name="AMGGAC">      1.00000000</i>
   <i type="int" name="NKREDX">     1</i>
   <i type="int" name="NKREDY">     1</i>
   <i type="int" name="NKREDZ">     1</i>
   <i type="logical" name="SHIFTRED"> F  </i>
   <i type="logical" name="ODDONLY"> F  </i>
   <i type="logical" name="EVENONLY"> F  </i>
   <i type="int" name="LMAXFOCK">     0</i>
   <i type="int" name="NMAXFOCKAE">     0</i>
   <i type="logical" name="LFOCKAEDFT"> F  </i>
   <i name="HFSCREEN">      0.00000000</i>
   <i name="HFSCREENC">      0.00000000</i>
   <i type="int" name="NBANDSGWLOW">     0</i>
  </separator>
  <separator name="vdW DFT" >
   <i type="logical" name="LUSE_VDW"> F  </i>
   <i type="int" name="IVDW_NL">    -1</i>
   <i type="logical" name="LSPIN_VDW"> F  </i>
   <i name="ZAB_VDW">     -0.84910000</i>
   <i name="GAMMA_VDW">      1.39626340</i>
   <i name="ALPHA_VDW">      0.00000000</i>
   <i name="PARAM1">      0.12340000</i>
   <i name="PARAM2">      1.00000000</i>
   <i name="BPARAM">      6.30000000</i>
   <i name="CPARAM">      0.00930000</i>
  </separator>
  <separator name="model GW" >
   <i type="int" name="MODEL_GW">     0</i>
   <i name="MODEL_EPS0">     49.63935326</i>
   <i name="MODEL_ALPHA">      1.00000000</i>
  </separator>
  <separator name="linear response parameters" >
   <i type="logical" name="LEPSILON"> F  </i>
   <i type="logical" name="LRPA"> F  </i>
   <i type="logical" name="LNABLA"> F  </i>
   <i type="logical" name="LVEL"> F  </i>
   <i name="CSHIFT">      0.10000000</i>
   <i name="OMEGAMAX">     -1.00000000</i>
   <i name="DEG_THRESHOLD">      0.00200000</i>
   <i name="RTIME">     -0.10000000</i>
   <i name="WPLASMAI">      0.00000000</i>
   <v name="DFIELD">      0.00000000      0.00000000      0.00000000</v>
   <v name="WPLASMA">      0.00000000      0.00000000      0.00000000      0.00000000      0.00000000      0.00000000      0.00000000      0.00000000      0.00000000</v>
  </separator>
  <separator name="orbital magnetization" >
   <i type="logical" name="NUCIND"> F  </i>
   <v name="MAGPOS">      0.00000000      0.00000000      0.00000000</v>
   <i type="logical" name="LNICSALL"> T  </i>
   <i type="logical" name="ORBITALMAG"> F  </i>
   <i type="logical" name="LMAGBLOCH"> F  </i>
   <i type="logical" name="LCHIMAG"> F  </i>
   <i type="logical" name="LGAUGE"> T  </i>
   <i type="int" name="MAGATOM">     0</i>
   <v name="MAGDIPOL">      0.00000000      0.00000000      0.00000000</v>
   <v name="AVECCONST">      0.00000000      0.00000000      0.00000000</v>
  </separator>
  <separator name="response functions" >
   <i type="logical" name="LALL_IN_ONE"> F  </i>
   <i type="int" name="IALL_IN_ONE">    -1</i>
   <i type="int" name="NBANDS_WAVE">    -1</i>
   <i type="logical" name="LFINITE_TEMPERATURE"> F  </i>
   <i type="logical" name="LADDER"> F  </i>
   <i type="logical" name="LRPAFORCE"> F  </i>
   <i type="logical" name="LFXC"> F  </i>
   <i type="logical" name="LHARTREE"> T  </i>
   <i type="int" name="IBSE">     2</i>
   <v type="int" name="KPOINT">    -1     0     0     0</v>
   <i type="logical" name="LTCTC"> F  </i>
   <i type="logical" name="LTCTE"> F  </i>
   <i type="logical" name="LTETE"> F  </i>
   <i type="logical" name="LTRIPLET"> F  </i>
   <i type="logical" name="LFXCEPS"> F  </i>
   <i type="logical" name="LFXHEG"> F  </i>
   <i type="int" name="NATURALO">     2</i>
   <i type="logical" name="LHOLEGF"> F  </i>
   <i type="logical" name="L2ORDER"> F  </i>
   <i type="logical" name="LDMP1"> F  </i>
   <i type="logical" name="LMP2LT"> F  </i>
   <i type="logical" name="LSMP2LT"> F  </i>
   <i type="logical" name="LGWLF"> F  </i>
   <i name="ENCUTGW">     -1.60000002</i>
   <i name="ENCUTGWSOFT">     -1.60000002</i>
   <i name="ENCUTLF">     -1.00000000</i>
   <i type="logical" name="ESF_SPLINES"> F  </i>
   <i name="ESF_CONV">      0.01000000</i>
   <i type="int" name="ESF_NINTER">    15</i>
   <i type="int" name="LMAXMP2">    -1</i>
   <i name="SCISSOR">      0.00000000</i>
   <i type="int" name="NOMEGA">     0</i>
   <i type="int" name="NOMEGAR">     0</i>
   <i type="int" name="NBANDSGW">    -1</i>
   <i type="int" name="NBANDSO">    -1</i>
   <i type="int" name="NBANDSV">    -1</i>
   <i type="int" name="NELMGW">     1</i>
   <i type="int" name="NELMHF">     1</i>
   <i type="int" name="DIM">     3</i>
   <i type="int" name="IESPILON">     4</i>
   <i type="int" name="ANTIRES">     0</i>
   <i name="OMEGAMAX">    -30.00000000</i>
   <i name="OMEGAMIN">    -30.00000000</i>
   <i name="OMEGATL">   -200.00000000</i>
   <i type="int" name="OMEGAGRID">     0</i>
   <i name="CSHIFT">     -0.10000000</i>
   <i type="logical" name="LSELFENERGY"> F  </i>
   <i type="logical" name="LSPECTRAL"> F  </i>
   <i type="logical" name="LSPECTRALGW"> F  </i>
   <i type="logical" name="LSINGLES"> F  </i>
   <i type="logical" name="LFERMIGW"> F  </i>
   <i type="logical" name="ODDONLYGW"> F  </i>
   <i type="logical" name="EVENONLYGW"> F  </i>
   <i type="int" name="NKREDLFX">     1</i>
   <i type="int" name="NKREDLFY">     1</i>
   <i type="int" name="NKREDLFZ">     1</i>
   <i type="int" name="MAXMEM">  2800</i>
   <i type="int" name="TELESCOPE">     0</i>
   <i type="int" name="NTAUPAR">    -1</i>
   <i type="int" name="NOMEGAPAR">    -1</i>
   <i name="DAMP_NEWTON">      0.80000001</i>
   <i name="LAMBDA">      1.00000000</i>
  </separator>
  <separator name="External order field" >
   <i name="OFIELD_KAPPA">      0.00000000</i>
   <v name="OFIELD_K">      0.00000000      0.00000000      0.00000000</v>
   <i name="OFIELD_Q6_NEAR">      0.00000000</i>
   <i name="OFIELD_Q6_FAR">      0.00000000</i>
   <i name="OFIELD_A">      0.00000000</i>
  </separator>
  <separator name="optional k-points parameters" >
   <i type="int" name="KPOINTS_OPT_MODE">     1</i>
   <i type="logical" name="LKPOINTS_OPT"> F  </i>
  </separator>
 </parameters>
 <atominfo>
  <atoms>      92 </atoms>
  <types>       1 </types>
  <array name="atoms" >
   <dimension dim="1">ion</dimension>
   <field type="string">element</field>
   <field type="int">atomtype</field>
   <set>
    <rc><c>C </c><c>   1</c></rc>
    <rc><c>C </c><c>   1</c></rc>
    <rc><c>C </c><c>   1</c></rc>
    <rc><c>C </c><c>   1</c></rc>
    <rc><c>C </c><c>   1</c></rc>
    <rc><c>C </c><c>   1</c></rc>
    <rc><c>C </c><c>   1</c></rc>
    <rc><c>C </c><c>   1</c></rc>
    <rc><c>C </c><c>   1</c></rc>
    <rc><c>C </c><c>   1</c></rc>
    <rc><c>C </c><c>   1</c></rc>
    <rc><c>C </c><c>   1</c></rc>
    <rc><c>C </c><c>   1</c></rc>
    <rc><c>C </c><c>   1</c></rc>
    <rc><c>C </c><c>   1</c></rc>
    <rc><c>C </c><c>   1</c></rc>
    <rc><c>C </c><c>   1</c></rc>
    <rc><c>C </c><c>   1</c></rc>
    <rc><c>C </c><c>   1</c></rc>
    <rc><c>C </c><c>   1</c></rc>
    <rc><c>C </c><c>   1</c></rc>
    <rc><c>C </c><c>   1</c></rc>
    <rc><c>C </c><c>   1</c></rc>
    <rc><c>C </c><c>   1</c></rc>
    <rc><c>C </c><c>   1</c></rc>
    <rc><c>C </c><c>   1</c></rc>
    <rc><c>C </c><c>   1</c></rc>
    <rc><c>C </c><c>   1</c></rc>
    <rc><c>C </c><c>   1</c></rc>
    <rc><c>C </c><c>   1</c></rc>
    <rc><c>C </c><c>   1</c></rc>
    <rc><c>C </c><c>   1</c></rc>
    <rc><c>C </c><c>   1</c></rc>
    <rc><c>C </c><c>   1</c></rc>
    <rc><c>C </c><c>   1</c></rc>
    <rc><c>C </c><c>   1</c></rc>
    <rc><c>C </c><c>   1</c></rc>
    <rc><c>C </c><c>   1</c></rc>
    <rc><c>C </c><c>   1</c></rc>
    <rc><c>C </c><c>   1</c></rc>
    <rc><c>C </c><c>   1</c></rc>
    <rc><c>C </c><c>   1</c></rc>
    <rc><c>C </c><c>   1</c></rc>
    <rc><c>C </c><c>   1</c></rc>
    <rc><c>C </c><c>   1</c></rc>
    <rc><c>C </c><c>   1</c></rc>
    <rc><c>C </c><c>   1</c></rc>
    <rc><c>C </c><c>   1</c></rc>
    <rc><c>C </c><c>   1</c></rc>
    <rc><c>C </c><c>   1</c></rc>
    <rc><c>C </c><c>   1</c></rc>
    <rc><c>C </c><c>   1</c></rc>
    <rc><c>C </c><c>   1</c></rc>
    <rc><c>C </c><c>   1</c></rc>
    <rc><c>C </c><c>   1</c></rc>
    <rc><c>C </c><c>   1</c></rc>
    <rc><c>C </c><c>   1</c></rc>
    <rc><c>C </c><c>   1</c></rc>
    <rc><c>C </c><c>   1</c></rc>
    <rc><c>C </c><c>   1</c></rc>
    <rc><c>C </c><c>   1</c></rc>
    <rc><c>C </c><c>   1</c></rc>
    <rc><c>C </c><c>   1</c></rc>
    <rc><c>C </c><c>   1</c></rc>
    <rc><c>C </c><c>   1</c></rc>
    <rc><c>C </c><c>   1</c></rc>
    <rc><c>C </c><c>   1</c></rc>
    <rc><c>C </c><c>   1</c></rc>
    <rc><c>C </c><c>   1</c></rc>
    <rc><c>C </c><c>   1</c></rc>
    <rc><c>C </c><c>   1</c></rc>
    <rc><c>C </c><c>   1</c></rc>
    <rc><c>C </c><c>   1</c></rc>
    <rc><c>C </c><c>   1</c></rc>
    <rc><c>C </c><c>   1</c></rc>
    <rc><c>C </c><c>   1</c></rc>
    <rc><c>C </c><c>   1</c></rc>
    <rc><c>C </c><c>   1</c></rc>
    <rc><c>C </c><c>   1</c></rc>
    <rc><c>C </c><c>   1</c></rc>
    <rc><c>C </c><c>   1</c></rc>
    <rc><c>C </c><c>   1</c></rc>
    <rc><c>C </c><c>   1</c></rc>
    <rc><c>C </c><c>   1</c></rc>
    <rc><c>C </c><c>   1</c></rc>
    <rc><c>C </c><c>   1</c></rc>
    <rc><c>C </c><c>   1</c></rc>
    <rc><c>C </c><c>   1</c></rc>
    <rc><c>C </c><c>   1</c></rc>
    <rc><c>C </c><c>   1</c></rc>
    <rc><c>C </c><c>   1</c></rc>
    <rc><c>C </c><c>   1</c></rc>
   </set>
  </array>
  <array name="atomtypes" >
   <dimension dim="1">type</dimension>
   <field type="int">atomspertype</field>
   <field type="string">element</field>
   <field>mass</field>
   <field>valence</field>
   <field type="string">pseudopotential</field>
   <set>
    <rc><c>  92</c><c>C </c><c>     12.01100000</c><c>      4.00000000</c><c>  PAW_PBE C 08Apr2002                   </c></rc>
   </set>
  </array>
 </atominfo>
 <structure name="initialpos" >
  <crystal>
   <varray name="basis" >
    <v>      28.05000000       0.00000000       0.00000000 </v>
    <v>       0.00000000       8.10000000       0.00000000 </v>
    <v>       0.00000000       0.00000000      33.50000000 </v>
   </varray>
   <i name="volume">   7611.36750000 </i>
   <varray name="rec_basis" >
    <v>       0.03565062       0.00000000       0.00000000 </v>
    <v>       0.00000000       0.12345679       0.00000000 </v>
    <v>       0.00000000       0.00000000       0.02985075 </v>
   </varray>
  </crystal>
  <varray name="positions" >
   <v>       0.02313558       0.13148765       0.52303284 </v>
   <v>       0.02344909       0.30179877       0.52394328 </v>
   <v>       0.06466061       0.04695457       0.51682687 </v>
   <v>       0.06768128       0.37667654       0.52454627 </v>
   <v>       0.10997005       0.12744938       0.51647164 </v>
   <v>       0.11015437       0.29338395       0.51986567 </v>
   <v>       0.15327308       0.03868494       0.50515224 </v>
   <v>       0.15223922       0.37503086       0.50958209 </v>
   <v>       0.19761034       0.12682469       0.50012239 </v>
   <v>       0.19675187       0.29833457       0.49852836 </v>
   <v>       0.23810624       0.04616988       0.48714030 </v>
   <v>       0.23552371       0.37668889       0.48141194 </v>
   <v>       0.28040535       0.12627901       0.47387761 </v>
   <v>       0.27742709       0.29102099       0.46698806 </v>
   <v>       0.32242317       0.03662370       0.46644179 </v>
   <v>       0.31953654       0.37046667       0.45369552 </v>
   <v>       0.36529055       0.11746704       0.45591642 </v>
   <v>       0.36416756       0.28980000       0.45434030 </v>
   <v>       0.40704813       0.04150370       0.44728657 </v>
   <v>       0.40733690       0.36517037       0.44783582 </v>
   <v>       0.45172906       0.12313852       0.44996418 </v>
   <v>       0.45388948       0.28944938       0.44457015 </v>
   <v>       0.49595009       0.04234852       0.44255522 </v>
   <v>       0.49621747       0.36692346       0.43476119 </v>
   <v>       0.53987166       0.12527407       0.44629552 </v>
   <v>       0.53987522       0.28996420       0.43877612 </v>
   <v>       0.58175401       0.03613247       0.44763582 </v>
   <v>       0.58474866       0.36936914       0.43571642 </v>
   <v>       0.62596791       0.11394654       0.45236119 </v>
   <v>       0.62903387       0.28735556       0.44381194 </v>
   <v>       0.66944385       0.03422864       0.46038209 </v>
   <v>       0.67346168       0.36834074       0.44574925 </v>
   <v>       0.71288770       0.12402716       0.46841194 </v>
   <v>       0.71483066       0.28640988       0.46189552 </v>
   <v>       0.75658467       0.04067519       0.47639701 </v>
   <v>       0.75835651       0.37694074       0.46650746 </v>
   <v>       0.80047415       0.12628148       0.48794627 </v>
   <v>       0.80051693       0.29730123       0.48563284 </v>
   <v>       0.84264884       0.04978444       0.49715224 </v>
   <v>       0.84513725       0.38266543       0.49113731 </v>
   <v>       0.88449911       0.13317654       0.51181194 </v>
   <v>       0.88527986       0.30860988       0.50941493 </v>
   <v>       0.92686275       0.04505247       0.51934030 </v>
   <v>       0.92955437       0.38612963       0.51297910 </v>
   <v>       0.96954011       0.12763827       0.52585075 </v>
   <v>       0.97086988       0.30103580       0.52295522 </v>
   <v>       0.02449487       0.63041728       0.51534627 </v>
   <v>       0.02116863       0.80185926       0.51602090 </v>
   <v>       0.06626881       0.54709877       0.52193134 </v>
   <v>       0.06489305       0.87855679       0.51848657 </v>
   <v>       0.10799287       0.62483086       0.50913134 </v>
   <v>       0.10798111       0.79257037       0.50768060 </v>
   <v>       0.15032906       0.54317284       0.50072239 </v>
   <v>       0.15157683       0.87150370       0.50253433 </v>
   <v>       0.19151123       0.62629877       0.48521194 </v>
   <v>       0.19388592       0.79262716       0.48906269 </v>
   <v>       0.23391194       0.54203210       0.47421791 </v>
   <v>       0.23769091       0.87262593       0.48403284 </v>
   <v>       0.27405348       0.61870494       0.45896716 </v>
   <v>       0.27583601       0.78398272       0.46553731 </v>
   <v>       0.31801533       0.53744691       0.44819403 </v>
   <v>       0.31823387       0.86738889       0.45716119 </v>
   <v>       0.36238859       0.61758272       0.44231343 </v>
   <v>       0.36324421       0.78476790       0.44559104 </v>
   <v>       0.40611052       0.53142840       0.43877015 </v>
   <v>       0.40838146       0.86967284       0.44311940 </v>
   <v>       0.45104100       0.61905802       0.43175821 </v>
   <v>       0.45130125       0.79014444       0.43488358 </v>
   <v>       0.49513369       0.53944198       0.43101194 </v>
   <v>       0.49637077       0.87152716       0.43465075 </v>
   <v>       0.54032799       0.62302716       0.42591343 </v>
   <v>       0.54064528       0.78634815       0.43179403 </v>
   <v>       0.58501248       0.54032963       0.42912537 </v>
   <v>       0.58443494       0.86742716       0.43958806 </v>
   <v>       0.63064884       0.61787160       0.43071642 </v>
   <v>       0.62935472       0.78634198       0.43845075 </v>
   <v>       0.67529055       0.53987037       0.43636119 </v>
   <v>       0.67114795       0.86927778       0.45684478 </v>
   <v>       0.71926560       0.62450370       0.44470746 </v>
   <v>       0.71573975       0.78778395       0.45656119 </v>
   <v>       0.76396791       0.53957160       0.45730746 </v>
   <v>       0.75543672       0.87793210       0.47115522 </v>
   <v>       0.80365775       0.62907778       0.47065672 </v>
   <v>       0.80215330       0.79580494       0.47495224 </v>
   <v>       0.84608200       0.54250123       0.48034030 </v>
   <v>       0.84371836       0.87747160       0.49012537 </v>
   <v>       0.89068806       0.62944938       0.48764478 </v>
   <v>       0.88652050       0.79611852       0.49289851 </v>
   <v>       0.93214973       0.54573457       0.50187164 </v>
   <v>       0.92818538       0.87504444       0.51030448 </v>
   <v>       0.97356506       0.62393333       0.51028657 </v>
   <v>       0.97047415       0.79720247       0.51378209 </v>
  </varray>
 </structure>
 <calculation>
  <scstep>
   <time name="dav">   11.08   11.09</time>
   <time name="total">   11.55   11.59</time>
   <energy>
    <i name="alphaZ">     91.34886789 </i>
    <i name="ewald"> 120209.00482259 </i>
    <i name="hartreedc">-129535.59452809 </i>
    <i name="XCdc">   1221.43296782 </i>
    <i name="pawpsdc">   9984.02826696 </i>
    <i name="pawaedc"> -10036.41360137 </i>
    <i name="eentropy">     -0.80658936 </i>
    <i name="bandstr">  -1770.90621801 </i>
    <i name="atom">  13537.65479391 </i>
    <i name="e_fr_energy">   3699.74878234 </i>
    <i name="e_wo_entrp">   3700.55537170 </i>
    <i name="e_0_energy">   3700.15207702 </i>
   </energy>
  </scstep>
  <scstep>
   <time name="dav">   13.16   13.16</time>
   <time name="total">   13.16   13.17</time>
   <energy>
    <i name="e_fr_energy">    184.54560166 </i>
    <i name="e_wo_entrp">    184.81204802 </i>
    <i name="e_0_energy">    184.67882484 </i>
   </energy>
  </scstep>
  <scstep>
   <time name="dav">   11.33   11.34</time>
   <time name="total">   11.33   11.34</time>
   <energy>
    <i name="e_fr_energy">   -833.35219722 </i>
    <i name="e_wo_entrp">   -833.30766159 </i>
    <i name="e_0_energy">   -833.32992941 </i>
   </energy>
  </scstep>
  <scstep>
   <time name="dav">   10.87   10.88</time>
   <time name="total">   10.87   10.88</time>
   <energy>
    <i name="e_fr_energy">   -895.55878620 </i>
    <i name="e_wo_entrp">   -895.49642069 </i>
    <i name="e_0_energy">   -895.52760344 </i>
   </energy>
  </scstep>
  <scstep>
   <time name="dav">   11.14   11.14</time>
   <time name="total">   12.63   12.64</time>
   <energy>
    <i name="e_fr_energy">   -897.12225710 </i>
    <i name="e_wo_entrp">   -897.05944669 </i>
    <i name="e_0_energy">   -897.09085190 </i>
   </energy>
  </scstep>
  <scstep>
   <time name="dav">   10.24   10.24</time>
   <time name="total">   12.04   12.05</time>
   <energy>
    <i name="e_fr_energy">   -847.56756185 </i>
    <i name="e_wo_entrp">   -847.50298137 </i>
    <i name="e_0_energy">   -847.53527161 </i>
   </energy>
  </scstep>
  <scstep>
   <time name="dav">   10.11   10.12</time>
   <time name="total">   11.91   11.92</time>
   <energy>
    <i name="e_fr_energy">   -829.15685276 </i>
    <i name="e_wo_entrp">   -829.08505863 </i>
    <i name="e_0_energy">   -829.12095570 </i>
   </energy>
  </scstep>
  <scstep>
   <time name="dav">   10.36   10.37</time>
   <time name="total">   12.17   12.18</time>
   <energy>
    <i name="e_fr_energy">   -828.87141717 </i>
    <i name="e_wo_entrp">   -828.79936906 </i>
    <i name="e_0_energy">   -828.83539311 </i>
   </energy>
  </scstep>
  <scstep>
   <time name="dav">   10.55   10.55</time>
   <time name="total">   12.36   12.36</time>
   <energy>
    <i name="e_fr_energy">   -828.75796349 </i>
    <i name="e_wo_entrp">   -828.68720732 </i>
    <i name="e_0_energy">   -828.72258541 </i>
   </energy>
  </scstep>
  <scstep>
   <time name="dav">   10.99   10.99</time>
   <time name="total">   12.80   12.81</time>
   <energy>
    <i name="e_fr_energy">   -828.72007531 </i>
    <i name="e_wo_entrp">   -828.64964083 </i>
    <i name="e_0_energy">   -828.68485807 </i>
   </energy>
  </scstep>
  <scstep>
   <time name="dav">   10.23   10.23</time>
   <time name="total">   12.06   12.07</time>
   <energy>
    <i name="e_fr_energy">   -828.69328863 </i>
    <i name="e_wo_entrp">   -828.62259496 </i>
    <i name="e_0_energy">   -828.65794179 </i>
   </energy>
  </scstep>
  <scstep>
   <time name="dav">   10.11   10.11</time>
   <time name="total">   11.94   11.95</time>
   <energy>
    <i name="e_fr_energy">   -828.68935939 </i>
    <i name="e_wo_entrp">   -828.61851300 </i>
    <i name="e_0_energy">   -828.65393620 </i>
   </energy>
  </scstep>
  <scstep>
   <time name="dav">   10.21   10.22</time>
   <time name="total">   12.05   12.06</time>
   <energy>
    <i name="e_fr_energy">   -828.70188416 </i>
    <i name="e_wo_entrp">   -828.63102328 </i>
    <i name="e_0_energy">   -828.66645372 </i>
   </energy>
  </scstep>
  <scstep>
   <time name="dav">   10.43   10.44</time>
   <time name="total">   12.28   12.29</time>
   <energy>
    <i name="e_fr_energy">   -828.71820103 </i>
    <i name="e_wo_entrp">   -828.64739836 </i>
    <i name="e_0_energy">   -828.68279969 </i>
   </energy>
  </scstep>
  <scstep>
   <time name="dav">   10.22   10.23</time>
   <time name="total">   12.07   12.08</time>
   <energy>
    <i name="e_fr_energy">   -828.73891577 </i>
    <i name="e_wo_entrp">   -828.66811794 </i>
    <i name="e_0_energy">   -828.70351685 </i>
   </energy>
  </scstep>
  <scstep>
   <time name="dav">   10.48   10.48</time>
   <time name="total">   12.36   12.36</time>
   <energy>
    <i name="e_fr_energy">   -828.74726807 </i>
    <i name="e_wo_entrp">   -828.67647933 </i>
    <i name="e_0_energy">   -828.71187370 </i>
   </energy>
  </scstep>
  <scstep>
   <time name="dav">   10.18   10.19</time>
   <time name="total">   12.06   12.06</time>
   <energy>
    <i name="e_fr_energy">   -828.75205612 </i>
    <i name="e_wo_entrp">   -828.68125605 </i>
    <i name="e_0_energy">   -828.71665608 </i>
   </energy>
  </scstep>
  <scstep>
   <time name="dav">   10.50   10.51</time>
   <time name="total">   12.39   12.40</time>
   <energy>
    <i name="e_fr_energy">   -828.75422877 </i>
    <i name="e_wo_entrp">   -828.68341344 </i>
    <i name="e_0_energy">   -828.71882110 </i>
   </energy>
  </scstep>
  <scstep>
   <time name="dav">   10.19   10.19</time>
   <time name="total">   12.08   12.09</time>
   <energy>
    <i name="e_fr_energy">   -828.75535346 </i>
    <i name="e_wo_entrp">   -828.68454392 </i>
    <i name="e_0_energy">   -828.71994869 </i>
   </energy>
  </scstep>
  <scstep>
   <time name="dav">    9.41    9.41</time>
   <time name="total">   11.31   11.32</time>
   <energy>
    <i name="e_fr_energy">   -828.75566525 </i>
    <i name="e_wo_entrp">   -828.68485656 </i>
    <i name="e_0_energy">   -828.72026091 </i>
   </energy>
  </scstep>
  <scstep>
   <time name="dav">    8.58    8.58</time>
   <time name="total">   10.51   10.52</time>
   <energy>
    <i name="e_fr_energy">   -828.75592096 </i>
    <i name="e_wo_entrp">   -828.68511337 </i>
    <i name="e_0_energy">   -828.72051716 </i>
   </energy>
  </scstep>
  <scstep>
   <time name="dav">    7.85    7.85</time>
   <time name="total">    9.78    9.79</time>
   <energy>
    <i name="e_fr_energy">   -828.75596504 </i>
    <i name="e_wo_entrp">   -828.68515758 </i>
    <i name="e_0_energy">   -828.72056131 </i>
   </energy>
  </scstep>
  <scstep>
   <time name="dav">    7.05    7.05</time>
   <time name="total">    8.99    9.00</time>
   <energy>
    <i name="e_fr_energy">   -828.75601167 </i>
    <i name="e_wo_entrp">   -828.68520374 </i>
    <i name="e_0_energy">   -828.72060771 </i>
   </energy>
  </scstep>
  <scstep>
   <time name="dav">    7.43    7.43</time>
   <time name="total">    9.39    9.40</time>
   <energy>
    <i name="e_fr_energy">   -828.75602467 </i>
    <i name="e_wo_entrp">   -828.68521642 </i>
    <i name="e_0_energy">   -828.72062054 </i>
   </energy>
  </scstep>
  <scstep>
   <time name="dav">    7.06    7.06</time>
   <time name="total">    9.03    9.04</time>
   <energy>
    <i name="e_fr_energy">   -828.75603101 </i>
    <i name="e_wo_entrp">   -828.68522290 </i>
    <i name="e_0_energy">   -828.72062695 </i>
   </energy>
  </scstep>
  <scstep>
   <time name="dav">    6.97    6.98</time>
   <time name="total">    8.98    8.98</time>
   <energy>
    <i name="e_fr_energy">   -828.75603474 </i>
    <i name="e_wo_entrp">   -828.68522660 </i>
    <i name="e_0_energy">   -828.72063067 </i>
   </energy>
  </scstep>
  <scstep>
   <time name="dav">    7.16    7.16</time>
   <time name="total">    9.17    9.17</time>
   <energy>
    <i name="e_fr_energy">   -828.75603607 </i>
    <i name="e_wo_entrp">   -828.68522792 </i>
    <i name="e_0_energy">   -828.72063199 </i>
   </energy>
  </scstep>
  <scstep>
   <time name="dav">    7.18    7.18</time>
   <time name="total">    9.20    9.21</time>
   <energy>
    <i name="e_fr_energy">   -828.75603809 </i>
    <i name="e_wo_entrp">   -828.68523001 </i>
    <i name="e_0_energy">   -828.72063405 </i>
   </energy>
  </scstep>
  <scstep>
   <time name="dav">    7.27    7.27</time>
   <time name="total">    7.63    7.63</time>
   <energy>
    <i name="alphaZ">     91.34886789 </i>
    <i name="ewald"> 120209.00482259 </i>
    <i name="hartreedc">-131295.58586873 </i>
    <i name="XCdc">   1278.67407060 </i>
    <i name="pawpsdc">  41053.02002291 </i>
    <i name="pawaedc"> -41117.07161270 </i>
    <i name="eentropy">     -0.07080811 </i>
    <i name="bandstr">  -4585.73032676 </i>
    <i name="atom">  13537.65479391 </i>
    <i name="e_fr_energy">   -828.75603840 </i>
    <i name="e_wo_entrp">   -828.68523029 </i>
    <i name="e_0_energy">   -828.72063435 </i>
   </energy>
  </scstep>
  <structure>
   <crystal>
    <varray name="basis" >
     <v>      28.05000000       0.00000000       0.00000000 </v>
     <v>       0.00000000       8.10000000       0.00000000 </v>
     <v>       0.00000000       0.00000000      33.50000000 </v>
    </varray>
    <i name="volume">   7611.36750000 </i>
    <varray name="rec_basis" >
     <v>       0.03565062       0.00000000       0.00000000 </v>
     <v>       0.00000000       0.12345679       0.00000000 </v>
     <v>       0.00000000       0.00000000       0.02985075 </v>
    </varray>
   </crystal>
   <varray name="positions" >
    <v>       0.02313558       0.13148765       0.52303284 </v>
    <v>       0.02344909       0.30179877       0.52394328 </v>
    <v>       0.06466061       0.04695457       0.51682687 </v>
    <v>       0.06768128       0.37667654       0.52454627 </v>
    <v>       0.10997005       0.12744938       0.51647164 </v>
    <v>       0.11015437       0.29338395       0.51986567 </v>
    <v>       0.15327308       0.03868494       0.50515224 </v>
    <v>       0.15223922       0.37503086       0.50958209 </v>
    <v>       0.19761034       0.12682469       0.50012239 </v>
    <v>       0.19675187       0.29833457       0.49852836 </v>
    <v>       0.23810624       0.04616988       0.48714030 </v>
    <v>       0.23552371       0.37668889       0.48141194 </v>
    <v>       0.28040535       0.12627901       0.47387761 </v>
    <v>       0.27742709       0.29102099       0.46698806 </v>
    <v>       0.32242317       0.03662370       0.46644179 </v>
    <v>       0.31953654       0.37046667       0.45369552 </v>
    <v>       0.36529055       0.11746704       0.45591642 </v>
    <v>       0.36416756       0.28980000       0.45434030 </v>
    <v>       0.40704813       0.04150370       0.44728657 </v>
    <v>       0.40733690       0.36517037       0.44783582 </v>
    <v>       0.45172906       0.12313852       0.44996418 </v>
    <v>       0.45388948       0.28944938       0.44457015 </v>
    <v>       0.49595009       0.04234852       0.44255522 </v>
    <v>       0.49621747       0.36692346       0.43476119 </v>
    <v>       0.53987166       0.12527407       0.44629552 </v>
    <v>       0.53987522       0.28996420       0.43877612 </v>
    <v>       0.58175401       0.03613247       0.44763582 </v>
    <v>       0.58474866       0.36936914       0.43571642 </v>
    <v>       0.62596791       0.11394654       0.45236119 </v>
    <v>       0.62903387       0.28735556       0.44381194 </v>
    <v>       0.66944385       0.03422864       0.46038209 </v>
    <v>       0.67346168       0.36834074       0.44574925 </v>
    <v>       0.71288770       0.12402716       0.46841194 </v>
    <v>       0.71483066       0.28640988       0.46189552 </v>
    <v>       0.75658467       0.04067519       0.47639701 </v>
    <v>       0.75835651       0.37694074       0.46650746 </v>
    <v>       0.80047415       0.12628148       0.48794627 </v>
    <v>       0.80051693       0.29730123       0.48563284 </v>
    <v>       0.84264884       0.04978444       0.49715224 </v>
    <v>       0.84513725       0.38266543       0.49113731 </v>
    <v>       0.88449911       0.13317654       0.51181194 </v>
    <v>       0.88527986       0.30860988       0.50941493 </v>
    <v>       0.92686275       0.04505247       0.51934030 </v>
    <v>       0.92955437       0.38612963       0.51297910 </v>
    <v>       0.96954011       0.12763827       0.52585075 </v>
    <v>       0.97086988       0.30103580       0.52295522 </v>
    <v>       0.02449487       0.63041728       0.51534627 </v>
    <v>       0.02116863       0.80185926       0.51602090 </v>
    <v>       0.06626881       0.54709877       0.52193134 </v>
    <v>       0.06489305       0.87855679       0.51848657 </v>
    <v>       0.10799287       0.62483086       0.50913134 </v>
    <v>       0.10798111       0.79257037       0.50768060 </v>
    <v>       0.15032906       0.54317284       0.50072239 </v>
    <v>       0.15157683       0.87150370       0.50253433 </v>
    <v>       0.19151123       0.62629877       0.48521194 </v>
    <v>       0.19388592       0.79262716       0.48906269 </v>
    <v>       0.23391194       0.54203210       0.47421791 </v>
    <v>       0.23769091       0.87262593       0.48403284 </v>
    <v>       0.27405348       0.61870494       0.45896716 </v>
    <v>       0.27583601       0.78398272       0.46553731 </v>
    <v>       0.31801533       0.53744691       0.44819403 </v>
    <v>       0.31823387       0.86738889       0.45716119 </v>
    <v>       0.36238859       0.61758272       0.44231343 </v>
    <v>       0.36324421       0.78476790       0.44559104 </v>
    <v>       0.40611052       0.53142840       0.43877015 </v>
    <v>       0.40838146       0.86967284       0.44311940 </v>
    <v>       0.45104100       0.61905802       0.43175821 </v>
    <v>       0.45130125       0.79014444       0.43488358 </v>
    <v>       0.49513369       0.53944198       0.43101194 </v>
    <v>       0.49637077       0.87152716       0.43465075 </v>
    <v>       0.54032799       0.62302716       0.42591343 </v>
    <v>       0.54064528       0.78634815       0.43179403 </v>
    <v>       0.58501248       0.54032963       0.42912537 </v>
    <v>       0.58443494       0.86742716       0.43958806 </v>
    <v>       0.63064884       0.61787160       0.43071642 </v>
    <v>       0.62935472       0.78634198       0.43845075 </v>
    <v>       0.67529055       0.53987037       0.43636119 </v>
    <v>       0.67114795       0.86927778       0.45684478 </v>
    <v>       0.71926560       0.62450370       0.44470746 </v>
    <v>       0.71573975       0.78778395       0.45656119 </v>
    <v>       0.76396791       0.53957160       0.45730746 </v>
    <v>       0.75543672       0.87793210       0.47115522 </v>
    <v>       0.80365775       0.62907778       0.47065672 </v>
    <v>       0.80215330       0.79580494       0.47495224 </v>
    <v>       0.84608200       0.54250123       0.48034030 </v>
    <v>       0.84371836       0.87747160       0.49012537 </v>
    <v>       0.89068806       0.62944938       0.48764478 </v>
    <v>       0.88652050       0.79611852       0.49289851 </v>
    <v>       0.93214973       0.54573457       0.50187164 </v>
    <v>       0.92818538       0.87504444       0.51030448 </v>
    <v>       0.97356506       0.62393333       0.51028657 </v>
    <v>       0.97047415       0.79720247       0.51378209 </v>
   </varray>
  </structure>
  <varray name="forces" >
   <v>      -0.12296485       0.11642370       0.10265552 </v>
   <v>       1.02873975      -1.35680282       0.41195638 </v>
   <v>       1.26533742       0.68876503       1.35777733 </v>
   <v>      -2.41111092       1.23186485       0.08046966 </v>
   <v>       0.33184480      -2.27276485      -1.01093166 </v>
   <v>       1.11733085       0.21734495       0.01997663 </v>
   <v>      -0.35408972       2.80558697       1.66016767 </v>
   <v>       2.24611034       1.32637771      -1.30724726 </v>
   <v>      -1.59174311      -0.50909527      -0.33010105 </v>
   <v>      -1.86369818      -0.99725682       0.95852719 </v>
   <v>       1.61030505      -1.82002542      -0.09951867 </v>
   <v>       1.28252123      -0.85827536      -1.37732220 </v>
   <v>      -0.75708983      -1.15144041       0.92169429 </v>
   <v>      -0.13352403       0.86435336       1.10303637 </v>
   <v>      -0.15161161      -0.91674611      -1.93446474 </v>
   <v>      -0.24025892      -0.29956574       0.55834226 </v>
   <v>      -2.34107370       1.31252312       1.04953371 </v>
   <v>      -0.61180508      -1.52112057      -0.15926281 </v>
   <v>       2.49340614      -1.95037157       1.07897621 </v>
   <v>       2.02939916       1.99655989      -1.47930776 </v>
   <v>       1.08131079      -1.33721955      -2.01756031 </v>
   <v>      -2.76679633       0.18373221       0.89339383 </v>
   <v>      -0.53510307      -1.74205260       0.88830871 </v>
   <v>      -0.36930253       2.29941795       0.64373628 </v>
   <v>      -1.20955221      -1.47510029      -0.72757496 </v>
   <v>       1.59280409       0.46071564       0.19410345 </v>
   <v>       1.93732436      -0.82658995       0.11917200 </v>
   <v>       0.39550038       0.71336070      -0.20685381 </v>
   <v>       0.83026967       2.74976484      -0.20766819 </v>
   <v>      -1.10528728      -1.09559389       0.55436415 </v>
   <v>       0.40431982       2.08555681       0.78392194 </v>
   <v>       0.37748288       0.56320683      -0.11460747 </v>
   <v>      -0.09845147      -2.16178332       0.32445634 </v>
   <v>      -0.38448655       3.65055012      -1.31702821 </v>
   <v>      -0.19005848       2.48903425       0.95622399 </v>
   <v>       2.28187883      -2.21404947       1.39600835 </v>
   <v>      -2.32042868       0.71517421      -0.24654140 </v>
   <v>      -0.86926788       0.75229292      -1.31141550 </v>
   <v>       1.08747035      -1.70063821       0.92022317 </v>
   <v>      -1.70648145      -1.90811859       0.48569545 </v>
   <v>      -0.93743661       0.67573108      -0.34071992 </v>
   <v>      -0.27890150      -2.65513693      -0.58894262 </v>
   <v>       0.36653413      -0.36367124      -0.27531597 </v>
   <v>       0.21477618      -1.80991217       0.14010374 </v>
   <v>      -0.36265610       1.39158060      -0.23676908 </v>
   <v>      -1.47762100      -0.91092326       0.64840142 </v>
   <v>       0.22911788       0.02371848       1.04500129 </v>
   <v>       3.46760355      -1.05449575       0.78425044 </v>
   <v>       0.06483920      -0.31629103      -1.40797437 </v>
   <v>      -0.06749118      -0.24838824      -1.95258574 </v>
   <v>       0.21767838       0.44681165       0.57284104 </v>
   <v>      -1.01296369       0.83551349       1.03140813 </v>
   <v>       0.98844964      -0.72062525      -0.04780749 </v>
   <v>       0.72769548       0.42827581      -1.17681026 </v>
   <v>       0.17319755      -1.77282000       0.49661867 </v>
   <v>      -0.81131876       0.75918937       0.78611244 </v>
   <v>      -1.36604577      -0.23491766       0.03481288 </v>
   <v>      -0.45125572       0.34529339      -1.20148697 </v>
   <v>       1.37256665      -0.22483884      -0.31095711 </v>
   <v>       0.18323574       2.27239008       0.15507101 </v>
   <v>      -0.50537915       0.52417636       0.43945837 </v>
   <v>       2.95252996       0.50123137       0.49281582 </v>
   <v>      -0.31118070      -0.66213009      -0.34411529 </v>
   <v>      -0.73081407       2.23258780       0.32607692 </v>
   <v>       1.19711719       1.26712691      -0.14176362 </v>
   <v>      -1.91987277       0.53891825      -0.24551145 </v>
   <v>      -1.36472568      -0.44577467       0.72843771 </v>
   <v>       0.74769026      -0.30223693      -0.30956485 </v>
   <v>       1.16945285      -0.81102737      -1.39042176 </v>
   <v>      -0.39405293       0.88102816       0.60666190 </v>
   <v>      -0.33980198      -2.55966693       0.82424900 </v>
   <v>      -0.37159781       2.66712974      -0.19724370 </v>
   <v>       0.41797075      -1.51268313      -0.57166501 </v>
   <v>      -0.38257463       0.04772318      -0.14825816 </v>
   <v>      -0.20557231       1.10687355       0.21211198 </v>
   <v>       0.50189475       1.39502115       1.68901104 </v>
   <v>       0.59216695      -1.65566195       0.66414618 </v>
   <v>      -1.10091203      -3.26723825      -2.75265191 </v>
   <v>       0.60548889      -0.70353017       1.06748785 </v>
   <v>      -0.22182929       0.92747398       0.27835550 </v>
   <v>      -3.36300658       1.38816060      -0.63936013 </v>
   <v>       3.07230732      -3.59529171      -0.53590590 </v>
   <v>       0.94526459      -1.47159523      -0.99771156 </v>
   <v>      -0.91430105       1.88550559       0.64003285 </v>
   <v>       1.77819546       2.56949530       0.25306783 </v>
   <v>      -1.50159049       1.05035590      -0.98550058 </v>
   <v>      -1.50797399      -1.24305941       0.33221577 </v>
   <v>       2.66889812       0.35668013       1.43456245 </v>
   <v>      -0.48903127       0.98803614      -0.78726288 </v>
   <v>      -1.13480156       1.45348746      -0.43458047 </v>
   <v>      -1.53079163       2.03259503      -0.44706439 </v>
   <v>      -0.85834123      -1.55818961      -0.83067593 </v>
  </varray>
  <varray name="stress" >
   <v>       1.19673280       0.15814595      -0.81687947 </v>
   <v>       0.15814595      50.09667590      -1.14124054 </v>
   <v>      -0.81687947      -1.14124055      -1.31466134 </v>
  </varray>
  <energy>
   <i name="e_fr_energy">   -828.75603840 </i>
   <i name="e_wo_entrp">   -828.68523029 </i>
   <i name="e_0_energy">   -828.72063435 </i>
  </energy>
  <time name="totalsc">  335.65  335.86</time>
  <eigenvalues>
   <array>
    <dimension dim="1">band</dimension>
    <dimension dim="2">kpoint</dimension>
    <dimension dim="3">spin</dimension>
    <field>eigene</field>
    <field>occ</field>
    <set>
     <set comment="spin 1">
      <set comment="kpoint 1">
       <r>  -23.2734    1.0000 </r>
       <r>  -23.0670    1.0000 </r>
       <r>  -22.9571    1.0000 </r>
       <r>  -22.6722    1.0000 </r>
       <r>  -22.6078    1.0000 </r>
       <r>  -22.4095    1.0000 </r>
       <r>  -22.0324    1.0000 </r>
       <r>  -21.9960    1.0000 </r>
       <r>  -21.5455    1.0000 </r>
       <r>  -21.4278    1.0000 </r>
       <r>  -21.3984    1.0000 </r>
       <r>  -21.3235    1.0000 </r>
       <r>  -21.2441    1.0000 </r>
       <r>  -21.1611    1.0000 </r>
       <r>  -21.1479    1.0000 </r>
       <r>  -21.0954    1.0000 </r>
       <r>  -21.0104    1.0000 </r>
       <r>  -20.9564    1.0000 </r>
       <r>  -20.7627    1.0000 </r>
       <r>  -20.5774    1.0000 </r>
       <r>  -20.4507    1.0000 </r>
       <r>  -20.3550    1.0000 </r>
       <r>  -20.1098    1.0000 </r>
       <r>  -20.0983    1.0000 </r>
       <r>  -19.9226    1.0000 </r>
       <r>  -19.7050    1.0000 </r>
       <r>  -19.5393    1.0000 </r>
       <r>  -19.4932    1.0000 </r>
       <r>  -19.1857    1.0000 </r>
       <r>  -18.8882    1.0000 </r>
       <r>  -18.7441    1.0000 </r>
       <r>  -18.6336    1.0000 </r>
       <r>  -18.5344    1.0000 </r>
       <r>  -18.4160    1.0000 </r>
       <r>  -18.1268    1.0000 </r>
       <r>  -17.5981    1.0000 </r>
       <r>  -17.4057    1.0000 </r>
       <r>  -17.2148    1.0000 </r>
       <r>  -17.0884    1.0000 </r>
       <r>  -16.9566    1.0000 </r>
       <r>  -16.9367    1.0000 </r>
       <r>  -16.6842    1.0000 </r>
       <r>  -16.6691    1.0000 </r>
       <r>  -16.6425    1.0000 </r>
       <r>  -16.6247    1.0000 </r>
       <r>  -16.5765    1.0000 </r>
       <r>  -16.5397    1.0000 </r>
       <r>  -16.4133    1.0000 </r>
       <r>  -16.3965    1.0000 </r>
       <r>  -16.3492    1.0000 </r>
       <r>  -16.2478    1.0000 </r>
       <r>  -16.1455    1.0000 </r>
       <r>  -16.1194    1.0000 </r>
       <r>  -16.0071    1.0000 </r>
       <r>  -15.9358    1.0000 </r>
       <r>  -15.6585    1.0000 </r>
       <r>  -15.4126    1.0000 </r>
       <r>  -15.3835    1.0000 </r>
       <r>  -15.2873    1.0000 </r>
       <r>  -15.2285    1.0000 </r>
       <r>  -15.1438    1.0000 </r>
       <r>  -14.9024    1.0000 </r>
       <r>  -14.3907    1.0000 </r>
       <r>  -14.2151    1.0000 </r>
       <r>  -14.1052    1.0000 </r>
       <r>  -14.0693    1.0000 </r>
       <r>  -13.8825    1.0000 </r>
       <r>  -13.7633    1.0000 </r>
       <r>  -13.6916    1.0000 </r>
       <r>  -13.5736    1.0000 </r>
       <r>  -13.4769    1.0000 </r>
       <r>  -13.3337    1.0000 </r>
       <r>  -13.2706    1.0000 </r>
       <r>  -13.2026    1.0000 </r>
       <r>  -13.0090    1.0000 </r>
       <r>  -12.8842    1.0000 </r>
       <r>  -12.6660    1.0000 </r>
       <r>  -12.4359    1.0000 </r>
       <r>  -12.1396    1.0000 </r>
       <r>  -12.1140    1.0000 </r>
       <r>  -12.0668    1.0000 </r>
       <r>  -11.9602    1.0000 </r>
       <r>  -11.8823    1.0000 </r>
       <r>  -11.7759    1.0000 </r>
       <r>  -11.6995    1.0000 </r>
       <r>  -11.4826    1.0000 </r>
       <r>  -11.3271    1.0000 </r>
       <r>  -11.2016    1.0000 </r>
       <r>  -11.1093    1.0000 </r>
       <r>  -11.0663    1.0000 </r>
       <r>  -11.0641    1.0000 </r>
       <r>  -10.8311    1.0000 </r>
       <r>  -10.7892    1.0000 </r>
       <r>  -10.7613    1.0000 </r>
       <r>  -10.7426    1.0000 </r>
       <r>  -10.6524    1.0000 </r>
       <r>  -10.5273    1.0000 </r>
       <r>  -10.5143    1.0000 </r>
       <r>  -10.4795    1.0000 </r>
       <r>  -10.4159    1.0000 </r>
       <r>  -10.3646    1.0000 </r>
       <r>  -10.3236    1.0000 </r>
       <r>  -10.3011    1.0000 </r>
       <r>  -10.2491    1.0000 </r>
       <r>  -10.1655    1.0000 </r>
       <r>  -10.0117    1.0000 </r>
       <r>   -9.9342    1.0000 </r>
       <r>   -9.8997    1.0000 </r>
       <r>   -9.7979    1.0000 </r>
       <r>   -9.7820    1.0000 </r>
       <r>   -9.7306    1.0000 </r>
       <r>   -9.7008    1.0000 </r>
       <r>   -9.6400    1.0000 </r>
       <r>   -9.6258    1.0000 </r>
       <r>   -9.5660    1.0000 </r>
       <r>   -9.5632    1.0000 </r>
       <r>   -9.5350    1.0000 </r>
       <r>   -9.5036    1.0000 </r>
       <r>   -9.4722    1.0000 </r>
       <r>   -9.4482    1.0000 </r>
       <r>   -9.4262    1.0000 </r>
       <r>   -9.3931    1.0000 </r>
       <r>   -9.3712    1.0000 </r>
       <r>   -9.3036    1.0000 </r>
       <r>   -9.2936    1.0000 </r>
       <r>   -9.2517    1.0000 </r>
       <r>   -9.2365    1.0000 </r>
       <r>   -9.0966    1.0000 </r>
       <r>   -9.0876    1.0000 </r>
       <r>   -9.0750    1.0000 </r>
       <r>   -9.0013    1.0000 </r>
       <r>   -8.9799    1.0000 </r>
       <r>   -8.9448    1.0000 </r>
       <r>   -8.9404    1.0000 </r>
       <r>   -8.8863    1.0000 </r>
       <r>   -8.8086    1.0000 </r>
       <r>   -8.7753    1.0000 </r>
       <r>   -8.7513    1.0000 </r>
       <r>   -8.7237    1.0000 </r>
       <r>   -8.6744    1.0000 </r>
       <r>   -8.6496    1.0000 </r>
       <r>   -8.6037    1.0000 </r>
       <r>   -8.5616    1.0000 </r>
       <r>   -8.5433    1.0000 </r>
       <r>   -8.4104    1.0000 </r>
       <r>   -8.3517    1.0000 </r>
       <r>   -8.0475    1.0000 </r>
       <r>   -7.9923    1.0000 </r>
       <r>   -7.8858    1.0000 </r>
       <r>   -7.8565    1.0000 </r>
       <r>   -7.7211    1.0000 </r>
       <r>   -7.6345    1.0000 </r>
       <r>   -7.5695    1.0000 </r>
       <r>   -7.4775    1.0000 </r>
       <r>   -7.3980    1.0000 </r>
       <r>   -7.3812    1.0000 </r>
       <r>   -7.3244    1.0000 </r>
       <r>   -7.1039    1.0000 </r>
       <r>   -7.0032    1.0000 </r>
       <r>   -6.9331    1.0000 </r>
       <r>   -6.7622    1.0000 </r>
       <r>   -6.7013    1.0000 </r>
       <r>   -6.6402    1.0000 </r>
       <r>   -6.5830    1.0000 </r>
       <r>   -6.3941    1.0000 </r>
       <r>   -6.2338    1.0000 </r>
       <r>   -6.1990    1.0000 </r>
       <r>   -6.1164    1.0000 </r>
       <r>   -6.0500    1.0000 </r>
       <r>   -6.0047    1.0000 </r>
       <r>   -5.8911    1.0000 </r>
       <r>   -5.8546    1.0000 </r>
       <r>   -5.8240    1.0000 </r>
       <r>   -5.0838    1.0000 </r>
       <r>   -4.9455    1.0000 </r>
       <r>   -4.8607    1.0000 </r>
       <r>   -4.6392    1.0000 </r>
       <r>   -4.5278    1.0000 </r>
       <r>   -4.4467    1.0000 </r>
       <r>   -4.4382    1.0000 </r>
       <r>   -4.3814    1.0000 </r>
       <r>   -3.7692    1.0000 </r>
       <r>   -3.6612    0.9999 </r>
       <r>   -3.1605    0.5487 </r>
       <r>   -3.0968    0.3716 </r>
       <r>   -2.7714    0.0043 </r>
       <r>   -2.6244    0.0001 </r>
       <r>   -2.4869    0.0000 </r>
       <r>   -2.2860    0.0000 </r>
       <r>   -2.0999    0.0000 </r>
       <r>   -1.8195    0.0000 </r>
       <r>   -1.6961    0.0000 </r>
       <r>   -1.5410    0.0000 </r>
       <r>   -1.4566    0.0000 </r>
       <r>   -1.4488    0.0000 </r>
       <r>   -1.4128    0.0000 </r>
       <r>   -1.3142    0.0000 </r>
       <r>   -1.0295    0.0000 </r>
       <r>   -0.7942    0.0000 </r>
       <r>   -0.6460    0.0000 </r>
       <r>   -0.5288    0.0000 </r>
       <r>   -0.4054    0.0000 </r>
       <r>   -0.1217    0.0000 </r>
       <r>    0.0233    0.0000 </r>
       <r>    0.1094    0.0000 </r>
       <r>    0.1457    0.0000 </r>
       <r>    0.2557    0.0000 </r>
       <r>    0.5981    0.0000 </r>
       <r>    0.6521    0.0000 </r>
       <r>    0.6877    0.0000 </r>
       <r>    0.7051    0.0000 </r>
       <r>    0.8175    0.0000 </r>
       <r>    0.8933    0.0000 </r>
       <r>    0.8980    0.0000 </r>
       <r>    0.9110    0.0000 </r>
       <r>    0.9789    0.0000 </r>
       <r>    1.0748    0.0000 </r>
       <r>    1.1495    0.0000 </r>
       <r>    1.1591    0.0000 </r>
       <r>    1.2163    0.0000 </r>
       <r>    1.3102    0.0000 </r>
       <r>    1.3288    0.0000 </r>
       <r>    1.3384    0.0000 </r>
       <r>    1.4053    0.0000 </r>
       <r>    1.4555    0.0000 </r>
       <r>    1.5469    0.0000 </r>
       <r>    1.5656    0.0000 </r>
       <r>    1.6330    0.0000 </r>
       <r>    1.7210    0.0000 </r>
       <r>    1.7289    0.0000 </r>
       <r>    1.7305    0.0000 </r>
       <r>    1.7668    0.0000 </r>
      </set>
      <set comment="kpoint 2">
       <r>  -23.1960    1.0000 </r>
       <r>  -22.9716    1.0000 </r>
       <r>  -22.8590    1.0000 </r>
       <r>  -22.6195    1.0000 </r>
       <r>  -22.5481    1.0000 </r>
       <r>  -22.5052    1.0000 </r>
       <r>  -22.1532    1.0000 </r>
       <r>  -22.0626    1.0000 </r>
       <r>  -21.9529    1.0000 </r>
       <r>  -21.8948    1.0000 </r>
       <r>  -21.7834    1.0000 </r>
       <r>  -21.6824    1.0000 </r>
       <r>  -21.2689    1.0000 </r>
       <r>  -21.1412    1.0000 </r>
       <r>  -21.0594    1.0000 </r>
       <r>  -20.9573    1.0000 </r>
       <r>  -20.6307    1.0000 </r>
       <r>  -20.4878    1.0000 </r>
       <r>  -20.4660    1.0000 </r>
       <r>  -20.3100    1.0000 </r>
       <r>  -20.1943    1.0000 </r>
       <r>  -20.1338    1.0000 </r>
       <r>  -20.0478    1.0000 </r>
       <r>  -19.9102    1.0000 </r>
       <r>  -19.8401    1.0000 </r>
       <r>  -19.5414    1.0000 </r>
       <r>  -19.4978    1.0000 </r>
       <r>  -19.1140    1.0000 </r>
       <r>  -19.0295    1.0000 </r>
       <r>  -18.8806    1.0000 </r>
       <r>  -18.6714    1.0000 </r>
       <r>  -18.5944    1.0000 </r>
       <r>  -18.5464    1.0000 </r>
       <r>  -18.2701    1.0000 </r>
       <r>  -18.1549    1.0000 </r>
       <r>  -18.1135    1.0000 </r>
       <r>  -18.0135    1.0000 </r>
       <r>  -17.9989    1.0000 </r>
       <r>  -17.8376    1.0000 </r>
       <r>  -17.7547    1.0000 </r>
       <r>  -17.5104    1.0000 </r>
       <r>  -17.3817    1.0000 </r>
       <r>  -17.3308    1.0000 </r>
       <r>  -17.1576    1.0000 </r>
       <r>  -16.9779    1.0000 </r>
       <r>  -16.6005    1.0000 </r>
       <r>  -16.4164    1.0000 </r>
       <r>  -16.1731    1.0000 </r>
       <r>  -16.0484    1.0000 </r>
       <r>  -15.9208    1.0000 </r>
       <r>  -15.8086    1.0000 </r>
       <r>  -15.6635    1.0000 </r>
       <r>  -15.5967    1.0000 </r>
       <r>  -15.3490    1.0000 </r>
       <r>  -15.2985    1.0000 </r>
       <r>  -15.2582    1.0000 </r>
       <r>  -15.1413    1.0000 </r>
       <r>  -15.0995    1.0000 </r>
       <r>  -15.0092    1.0000 </r>
       <r>  -14.9851    1.0000 </r>
       <r>  -14.9191    1.0000 </r>
       <r>  -14.7345    1.0000 </r>
       <r>  -14.5191    1.0000 </r>
       <r>  -14.4066    1.0000 </r>
       <r>  -14.3039    1.0000 </r>
       <r>  -14.1345    1.0000 </r>
       <r>  -13.9894    1.0000 </r>
       <r>  -13.8404    1.0000 </r>
       <r>  -13.3433    1.0000 </r>
       <r>  -13.2139    1.0000 </r>
       <r>  -13.1858    1.0000 </r>
       <r>  -13.1526    1.0000 </r>
       <r>  -12.8794    1.0000 </r>
       <r>  -12.8327    1.0000 </r>
       <r>  -12.7893    1.0000 </r>
       <r>  -12.7164    1.0000 </r>
       <r>  -12.6372    1.0000 </r>
       <r>  -12.5587    1.0000 </r>
       <r>  -12.3873    1.0000 </r>
       <r>  -12.3314    1.0000 </r>
       <r>  -12.1930    1.0000 </r>
       <r>  -12.1002    1.0000 </r>
       <r>  -12.0716    1.0000 </r>
       <r>  -11.9738    1.0000 </r>
       <r>  -11.7679    1.0000 </r>
       <r>  -11.6247    1.0000 </r>
       <r>  -11.4249    1.0000 </r>
       <r>  -11.3736    1.0000 </r>
       <r>  -11.3115    1.0000 </r>
       <r>  -11.1638    1.0000 </r>
       <r>  -11.0720    1.0000 </r>
       <r>  -11.0579    1.0000 </r>
       <r>  -10.9776    1.0000 </r>
       <r>  -10.9608    1.0000 </r>
       <r>  -10.8963    1.0000 </r>
       <r>  -10.8514    1.0000 </r>
       <r>  -10.8315    1.0000 </r>
       <r>  -10.7830    1.0000 </r>
       <r>  -10.7546    1.0000 </r>
       <r>  -10.6433    1.0000 </r>
       <r>  -10.5765    1.0000 </r>
       <r>  -10.4893    1.0000 </r>
       <r>  -10.4397    1.0000 </r>
       <r>  -10.3814    1.0000 </r>
       <r>  -10.3660    1.0000 </r>
       <r>  -10.3368    1.0000 </r>
       <r>  -10.2771    1.0000 </r>
       <r>  -10.1484    1.0000 </r>
       <r>  -10.0961    1.0000 </r>
       <r>  -10.0647    1.0000 </r>
       <r>   -9.9562    1.0000 </r>
       <r>   -9.9111    1.0000 </r>
       <r>   -9.8538    1.0000 </r>
       <r>   -9.7980    1.0000 </r>
       <r>   -9.7340    1.0000 </r>
       <r>   -9.6873    1.0000 </r>
       <r>   -9.6616    1.0000 </r>
       <r>   -9.6065    1.0000 </r>
       <r>   -9.5482    1.0000 </r>
       <r>   -9.5298    1.0000 </r>
       <r>   -9.5054    1.0000 </r>
       <r>   -9.4266    1.0000 </r>
       <r>   -9.4186    1.0000 </r>
       <r>   -9.3292    1.0000 </r>
       <r>   -9.2822    1.0000 </r>
       <r>   -9.2342    1.0000 </r>
       <r>   -9.0664    1.0000 </r>
       <r>   -8.9544    1.0000 </r>
       <r>   -8.9130    1.0000 </r>
       <r>   -8.8276    1.0000 </r>
       <r>   -8.7902    1.0000 </r>
       <r>   -8.7511    1.0000 </r>
       <r>   -8.6771    1.0000 </r>
       <r>   -8.6543    1.0000 </r>
       <r>   -8.5988    1.0000 </r>
       <r>   -8.5531    1.0000 </r>
       <r>   -8.5394    1.0000 </r>
       <r>   -8.4202    1.0000 </r>
       <r>   -8.3897    1.0000 </r>
       <r>   -8.2907    1.0000 </r>
       <r>   -8.2604    1.0000 </r>
       <r>   -8.1999    1.0000 </r>
       <r>   -8.1114    1.0000 </r>
       <r>   -8.0658    1.0000 </r>
       <r>   -7.9953    1.0000 </r>
       <r>   -7.9427    1.0000 </r>
       <r>   -7.9174    1.0000 </r>
       <r>   -7.7715    1.0000 </r>
       <r>   -7.7439    1.0000 </r>
       <r>   -7.7032    1.0000 </r>
       <r>   -7.6674    1.0000 </r>
       <r>   -7.5648    1.0000 </r>
       <r>   -7.5070    1.0000 </r>
       <r>   -7.3626    1.0000 </r>
       <r>   -7.3247    1.0000 </r>
       <r>   -7.3043    1.0000 </r>
       <r>   -7.2388    1.0000 </r>
       <r>   -7.0232    1.0000 </r>
       <r>   -6.9051    1.0000 </r>
       <r>   -6.8326    1.0000 </r>
       <r>   -6.7783    1.0000 </r>
       <r>   -6.6836    1.0000 </r>
       <r>   -6.6711    1.0000 </r>
       <r>   -6.5589    1.0000 </r>
       <r>   -6.4745    1.0000 </r>
       <r>   -6.3023    1.0000 </r>
       <r>   -6.2782    1.0000 </r>
       <r>   -6.1306    1.0000 </r>
       <r>   -6.0728    1.0000 </r>
       <r>   -5.9153    1.0000 </r>
       <r>   -5.8935    1.0000 </r>
       <r>   -5.7610    1.0000 </r>
       <r>   -5.7239    1.0000 </r>
       <r>   -5.6596    1.0000 </r>
       <r>   -5.5259    1.0000 </r>
       <r>   -5.4654    1.0000 </r>
       <r>   -5.1676    1.0000 </r>
       <r>   -5.1011    1.0000 </r>
       <r>   -4.7281    1.0000 </r>
       <r>   -4.6795    1.0000 </r>
       <r>   -4.5172    1.0000 </r>
       <r>   -4.4717    1.0000 </r>
       <r>   -4.3841    1.0000 </r>
       <r>   -3.5049    0.9947 </r>
       <r>   -2.9000    0.0428 </r>
       <r>   -2.5179    0.0000 </r>
       <r>   -2.1418    0.0000 </r>
       <r>   -2.0818    0.0000 </r>
       <r>   -1.6384    0.0000 </r>
       <r>   -1.5496    0.0000 </r>
       <r>   -1.5040    0.0000 </r>
       <r>   -1.4063    0.0000 </r>
       <r>   -1.3599    0.0000 </r>
       <r>   -1.2650    0.0000 </r>
       <r>   -1.1366    0.0000 </r>
       <r>   -1.0475    0.0000 </r>
       <r>   -0.9682    0.0000 </r>
       <r>   -0.9263    0.0000 </r>
       <r>   -0.7848    0.0000 </r>
       <r>   -0.5066    0.0000 </r>
       <r>   -0.2575    0.0000 </r>
       <r>   -0.1442    0.0000 </r>
       <r>   -0.0825    0.0000 </r>
       <r>    0.0258    0.0000 </r>
       <r>    0.0961    0.0000 </r>
       <r>    0.1846    0.0000 </r>
       <r>    0.2565    0.0000 </r>
       <r>    0.2797    0.0000 </r>
       <r>    0.3186    0.0000 </r>
       <r>    0.7757    0.0000 </r>
       <r>    0.8116    0.0000 </r>
       <r>    0.8376    0.0000 </r>
       <r>    0.9986    0.0000 </r>
       <r>    1.0394    0.0000 </r>
       <r>    1.0526    0.0000 </r>
       <r>    1.1033    0.0000 </r>
       <r>    1.1227    0.0000 </r>
       <r>    1.2225    0.0000 </r>
       <r>    1.2918    0.0000 </r>
       <r>    1.2997    0.0000 </r>
       <r>    1.3583    0.0000 </r>
       <r>    1.4078    0.0000 </r>
       <r>    1.4260    0.0000 </r>
       <r>    1.4476    0.0000 </r>
       <r>    1.4616    0.0000 </r>
       <r>    1.4677    0.0000 </r>
       <r>    1.5181    0.0000 </r>
       <r>    1.5476    0.0000 </r>
       <r>    1.5811    0.0000 </r>
       <r>    1.6082    0.0000 </r>
       <r>    1.6675    0.0000 </r>
       <r>    1.7138    0.0000 </r>
      </set>
      <set comment="kpoint 3">
       <r>  -23.0529    1.0000 </r>
       <r>  -22.8234    1.0000 </r>
       <r>  -22.7305    1.0000 </r>
       <r>  -22.6408    1.0000 </r>
       <r>  -22.5703    1.0000 </r>
       <r>  -22.5179    1.0000 </r>
       <r>  -22.2943    1.0000 </r>
       <r>  -22.2804    1.0000 </r>
       <r>  -22.2068    1.0000 </r>
       <r>  -22.1510    1.0000 </r>
       <r>  -21.6911    1.0000 </r>
       <r>  -21.6530    1.0000 </r>
       <r>  -21.5959    1.0000 </r>
       <r>  -21.5550    1.0000 </r>
       <r>  -20.9020    1.0000 </r>
       <r>  -20.7897    1.0000 </r>
       <r>  -20.6926    1.0000 </r>
       <r>  -20.6706    1.0000 </r>
       <r>  -19.9494    1.0000 </r>
       <r>  -19.8548    1.0000 </r>
       <r>  -19.6141    1.0000 </r>
       <r>  -19.5598    1.0000 </r>
       <r>  -19.5443    1.0000 </r>
       <r>  -19.4832    1.0000 </r>
       <r>  -19.4389    1.0000 </r>
       <r>  -19.4108    1.0000 </r>
       <r>  -19.3137    1.0000 </r>
       <r>  -19.2709    1.0000 </r>
       <r>  -19.0888    1.0000 </r>
       <r>  -18.9984    1.0000 </r>
       <r>  -18.9705    1.0000 </r>
       <r>  -18.9480    1.0000 </r>
       <r>  -18.6117    1.0000 </r>
       <r>  -18.5739    1.0000 </r>
       <r>  -18.5067    1.0000 </r>
       <r>  -18.4523    1.0000 </r>
       <r>  -18.3141    1.0000 </r>
       <r>  -18.2494    1.0000 </r>
       <r>  -18.1568    1.0000 </r>
       <r>  -18.1317    1.0000 </r>
       <r>  -17.7440    1.0000 </r>
       <r>  -17.7115    1.0000 </r>
       <r>  -17.6202    1.0000 </r>
       <r>  -17.5406    1.0000 </r>
       <r>  -16.9378    1.0000 </r>
       <r>  -16.8976    1.0000 </r>
       <r>  -16.2858    1.0000 </r>
       <r>  -16.2564    1.0000 </r>
       <r>  -16.0124    1.0000 </r>
       <r>  -15.9900    1.0000 </r>
       <r>  -15.9539    1.0000 </r>
       <r>  -15.8929    1.0000 </r>
       <r>  -15.3507    1.0000 </r>
       <r>  -15.2549    1.0000 </r>
       <r>  -15.0889    1.0000 </r>
       <r>  -15.0553    1.0000 </r>
       <r>  -14.8843    1.0000 </r>
       <r>  -14.7632    1.0000 </r>
       <r>  -14.6745    1.0000 </r>
       <r>  -14.6516    1.0000 </r>
       <r>  -14.0487    1.0000 </r>
       <r>  -13.9500    1.0000 </r>
       <r>  -13.8058    1.0000 </r>
       <r>  -13.7817    1.0000 </r>
       <r>  -13.7540    1.0000 </r>
       <r>  -13.7265    1.0000 </r>
       <r>  -13.6481    1.0000 </r>
       <r>  -13.6427    1.0000 </r>
       <r>  -13.5768    1.0000 </r>
       <r>  -13.5362    1.0000 </r>
       <r>  -13.4964    1.0000 </r>
       <r>  -13.4443    1.0000 </r>
       <r>  -13.3997    1.0000 </r>
       <r>  -13.3285    1.0000 </r>
       <r>  -13.2124    1.0000 </r>
       <r>  -13.1004    1.0000 </r>
       <r>  -12.3482    1.0000 </r>
       <r>  -12.3279    1.0000 </r>
       <r>  -12.2184    1.0000 </r>
       <r>  -12.1544    1.0000 </r>
       <r>  -12.1290    1.0000 </r>
       <r>  -12.0698    1.0000 </r>
       <r>  -11.9806    1.0000 </r>
       <r>  -11.9088    1.0000 </r>
       <r>  -11.8585    1.0000 </r>
       <r>  -11.8036    1.0000 </r>
       <r>  -11.7783    1.0000 </r>
       <r>  -11.7388    1.0000 </r>
       <r>  -11.6869    1.0000 </r>
       <r>  -11.6151    1.0000 </r>
       <r>  -11.3275    1.0000 </r>
       <r>  -11.3153    1.0000 </r>
       <r>  -11.1759    1.0000 </r>
       <r>  -11.1580    1.0000 </r>
       <r>  -11.0567    1.0000 </r>
       <r>  -10.8986    1.0000 </r>
       <r>  -10.8053    1.0000 </r>
       <r>  -10.7520    1.0000 </r>
       <r>  -10.6966    1.0000 </r>
       <r>  -10.6804    1.0000 </r>
       <r>  -10.5561    1.0000 </r>
       <r>  -10.5258    1.0000 </r>
       <r>  -10.4662    1.0000 </r>
       <r>  -10.4431    1.0000 </r>
       <r>  -10.4000    1.0000 </r>
       <r>  -10.3663    1.0000 </r>
       <r>  -10.3472    1.0000 </r>
       <r>  -10.3149    1.0000 </r>
       <r>  -10.2756    1.0000 </r>
       <r>  -10.2549    1.0000 </r>
       <r>  -10.2228    1.0000 </r>
       <r>  -10.1835    1.0000 </r>
       <r>  -10.0776    1.0000 </r>
       <r>  -10.0429    1.0000 </r>
       <r>  -10.0316    1.0000 </r>
[...]
       <r>   -22.7566    12.8944     5.8612 </r>
       <r>   -22.6598    15.0982     7.3227 </r>
       <r>   -22.5630    16.9436     8.9628 </r>
       <r>   -22.4662    16.0636    10.5178 </r>
       <r>   -22.3694    13.2043    11.7960 </r>
       <r>   -22.2726    11.5525    12.9143 </r>
       <r>   -22.1758    12.3332    14.1081 </r>
       <r>   -22.0790    13.9886    15.4622 </r>
       <r>   -21.9822    14.7345    16.8886 </r>
       <r>   -21.8854    14.2406    18.2671 </r>
       <r>   -21.7886    13.4760    19.5715 </r>
       <r>   -21.6918    13.1711    20.8465 </r>
       <r>   -21.5950    12.7149    22.0773 </r>
       <r>   -21.4982    11.6264    23.2028 </r>
       <r>   -21.4014    10.9805    24.2657 </r>
       <r>   -21.3046    11.9930    25.4266 </r>
       <r>   -21.2078    14.3130    26.8121 </r>
       <r>   -21.1110    16.3289    28.3928 </r>
       <r>   -21.0142    16.5331    29.9932 </r>
       <r>   -20.9174    14.7965    31.4255 </r>
       <r>   -20.8206    12.6668    32.6517 </r>
       <r>   -20.7238    11.9208    33.8056 </r>
       <r>   -20.6270    12.6959    35.0346 </r>
       <r>   -20.5302    13.7422    36.3648 </r>
       <r>   -20.4334    14.0050    37.7205 </r>
       <r>   -20.3366    13.5481    39.0320 </r>
       <r>   -20.2398    13.4744    40.3363 </r>
       <r>   -20.1430    14.3749    41.7278 </r>
       <r>   -20.0462    15.3581    43.2145 </r>
       <r>   -19.9494    15.4067    44.7059 </r>
       <r>   -19.8526    14.3061    46.0907 </r>
       <r>   -19.7558    12.8708    47.3366 </r>
       <r>   -19.6590    13.2102    48.6154 </r>
       <r>   -19.5622    15.8833    50.1529 </r>
       <r>   -19.4654    17.6210    51.8586 </r>
       <r>   -19.3686    15.8203    53.3900 </r>
       <r>   -19.2718    12.6914    54.6185 </r>
       <r>   -19.1750    11.6977    55.7509 </r>
       <r>   -19.0782    13.0777    57.0168 </r>
       <r>   -18.9814    14.4964    58.4201 </r>
       <r>   -18.8846    14.3175    59.8060 </r>
       <r>   -18.7878    13.6667    61.1290 </r>
       <r>   -18.6910    14.8012    62.5617 </r>
       <r>   -18.5942    17.2127    64.2279 </r>
       <r>   -18.4974    17.8364    65.9545 </r>
       <r>   -18.4006    16.0929    67.5123 </r>
       <r>   -18.3038    14.9762    68.9620 </r>
       <r>   -18.2070    16.1811    70.5284 </r>
       <r>   -18.1102    17.6638    72.2382 </r>
       <r>   -18.0134    16.9017    73.8743 </r>
       <r>   -17.9166    14.4215    75.2703 </r>
       <r>   -17.8198    12.6334    76.4933 </r>
       <r>   -17.7230    12.3109    77.6850 </r>
       <r>   -17.6262    12.4647    78.8916 </r>
       <r>   -17.5294    12.5651    80.1079 </r>
       <r>   -17.4326    12.6029    81.3278 </r>
       <r>   -17.3358    12.2471    82.5134 </r>
       <r>   -17.2390    11.4293    83.6197 </r>
       <r>   -17.1422    10.8968    84.6745 </r>
       <r>   -17.0454    11.1873    85.7575 </r>
       <r>   -16.9486    11.5097    86.8716 </r>
       <r>   -16.8518    10.9067    87.9274 </r>
       <r>   -16.7550    10.4965    88.9435 </r>
       <r>   -16.6582    11.8477    90.0903 </r>
       <r>   -16.5614    13.8193    91.4281 </r>
       <r>   -16.4646    14.6702    92.8481 </r>
       <r>   -16.3678    14.7723    94.2781 </r>
       <r>   -16.2710    15.1022    95.7400 </r>
       <r>   -16.1742    16.0342    97.2921 </r>
       <r>   -16.0774    17.4675    98.9830 </r>
       <r>   -15.9806    18.4000   100.7641 </r>
       <r>   -15.8838    17.4250   102.4509 </r>
       <r>   -15.7870    14.7640   103.8801 </r>
       <r>   -15.6902    12.2797   105.0687 </r>
       <r>   -15.5934    11.0283   106.1363 </r>
       <r>   -15.4966    11.4071   107.2405 </r>
       <r>   -15.3998    14.2929   108.6241 </r>
       <r>   -15.3030    18.8052   110.4444 </r>
       <r>   -15.2062    22.0793   112.5817 </r>
       <r>   -15.1094    22.8489   114.7935 </r>
       <r>   -15.0126    21.7244   116.8964 </r>
       <r>   -14.9158    19.1370   118.7489 </r>
       <r>   -14.8190    15.7537   120.2739 </r>
       <r>   -14.7222    12.8069   121.5136 </r>
       <r>   -14.6254    10.8908   122.5678 </r>
       <r>   -14.5286    10.0326   123.5390 </r>
       <r>   -14.4318    10.1655   124.5230 </r>
       <r>   -14.3350    10.7351   125.5622 </r>
       <r>   -14.2382    11.3666   126.6625 </r>
       <r>   -14.1414    12.3921   127.8620 </r>
       <r>   -14.0446    13.7754   129.1955 </r>
       <r>   -13.9478    15.0747   130.6547 </r>
       <r>   -13.8510    16.3419   132.2366 </r>
       <r>   -13.7542    17.4057   133.9215 </r>
       <r>   -13.6574    17.5987   135.6251 </r>
       <r>   -13.5606    17.1205   137.2824 </r>
       <r>   -13.4638    17.0785   138.9356 </r>
       <r>   -13.3670    18.1709   140.6945 </r>
       <r>   -13.2702    19.7151   142.6030 </r>
       <r>   -13.1734    19.6835   144.5083 </r>
       <r>   -13.0766    17.0686   146.1606 </r>
       <r>   -12.9798    14.1763   147.5329 </r>
       <r>   -12.8830    13.7940   148.8681 </r>
       <r>   -12.7862    15.1287   150.3326 </r>
       <r>   -12.6894    15.5714   151.8399 </r>
       <r>   -12.5926    14.5084   153.2443 </r>
       <r>   -12.4958    13.5358   154.5546 </r>
       <r>   -12.3990    14.2901   155.9379 </r>
       <r>   -12.3022    16.8605   157.5700 </r>
       <r>   -12.2053    20.4060   159.5453 </r>
       <r>   -12.1085    23.6091   161.8307 </r>
       <r>   -12.0117    24.6132   164.2133 </r>
       <r>   -11.9149    23.2876   166.4675 </r>
       <r>   -11.8181    21.4874   168.5475 </r>
       <r>   -11.7213    19.7630   170.4606 </r>
       <r>   -11.6245    17.3358   172.1387 </r>
       <r>   -11.5277    15.1797   173.6081 </r>
       <r>   -11.4309    15.4085   175.0997 </r>
       <r>   -11.3341    17.9257   176.8349 </r>
       <r>   -11.2373    21.0552   178.8730 </r>
       <r>   -11.1405    24.3013   181.2254 </r>
       <r>   -11.0437    27.5866   183.8958 </r>
       <r>   -10.9469    30.4865   186.8469 </r>
       <r>   -10.8501    32.9311   190.0347 </r>
       <r>   -10.7533    34.1272   193.3382 </r>
       <r>   -10.6565    33.7042   196.6008 </r>
       <r>   -10.5597    34.1662   199.9081 </r>
       <r>   -10.4629    37.4764   203.5359 </r>
       <r>   -10.3661    40.9266   207.4976 </r>
       <r>   -10.2693    40.4841   211.4165 </r>
       <r>   -10.1725    36.6287   214.9622 </r>
       <r>   -10.0757    33.3368   218.1892 </r>
       <r>    -9.9789    32.4868   221.3339 </r>
       <r>    -9.8821    33.1070   224.5387 </r>
       <r>    -9.7853    34.5232   227.8806 </r>
       <r>    -9.6885    36.8045   231.4433 </r>
       <r>    -9.5917    39.4450   235.2616 </r>
       <r>    -9.4949    41.4892   239.2778 </r>
       <r>    -9.3981    41.9793   243.3414 </r>
       <r>    -9.3013    39.7886   247.1929 </r>
       <r>    -9.2045    34.8198   250.5635 </r>
       <r>    -9.1077    30.1036   253.4776 </r>
       <r>    -9.0109    29.3384   256.3176 </r>
       <r>    -8.9141    32.1865   259.4332 </r>
       <r>    -8.8173    35.5803   262.8774 </r>
       <r>    -8.7205    37.4001   266.4978 </r>
       <r>    -8.6237    36.8828   270.0681 </r>
       <r>    -8.5269    34.3364   273.3919 </r>
       <r>    -8.4301    31.3713   276.4286 </r>
       <r>    -8.3333    29.5145   279.2856 </r>
       <r>    -8.2365    28.4579   282.0404 </r>
       <r>    -8.1397    27.2618   284.6793 </r>
       <r>    -8.0429    26.2689   287.2222 </r>
       <r>    -7.9461    26.2080   289.7591 </r>
       <r>    -7.8493    27.0365   292.3763 </r>
       <r>    -7.7525    28.4174   295.1271 </r>
       <r>    -7.6557    29.5462   297.9872 </r>
       <r>    -7.5589    29.6816   300.8604 </r>
       <r>    -7.4621    29.6577   303.7313 </r>
       <r>    -7.3653    30.0911   306.6441 </r>
       <r>    -7.2685    29.1823   309.4690 </r>
       <r>    -7.1717    25.8256   311.9689 </r>
       <r>    -7.0749    22.4270   314.1399 </r>
       <r>    -6.9781    21.5852   316.2294 </r>
       <r>    -6.8813    23.3520   318.4898 </r>
       <r>    -6.7845    26.2671   321.0325 </r>
       <r>    -6.6877    28.0094   323.7438 </r>
       <r>    -6.5909    26.6410   326.3227 </r>
       <r>    -6.4941    23.0851   328.5574 </r>
       <r>    -6.3973    20.5548   330.5471 </r>
       <r>    -6.3005    20.5607   332.5374 </r>
       <r>    -6.2037    21.4188   334.6107 </r>
       <r>    -6.1069    21.6063   336.7022 </r>
       <r>    -6.0101    22.0001   338.8319 </r>
       <r>    -5.9133    23.5084   341.1075 </r>
       <r>    -5.8165    24.8675   343.5147 </r>
       <r>    -5.7197    24.2470   345.8618 </r>
       <r>    -5.6229    21.3106   347.9247 </r>
       <r>    -5.5261    16.8619   349.5569 </r>
       <r>    -5.4293    12.3025   350.7478 </r>
       <r>    -5.3325     9.7297   351.6897 </r>
       <r>    -5.2357    10.4437   352.7006 </r>
       <r>    -5.1389    12.4970   353.9103 </r>
       <r>    -5.0421    12.4519   355.1157 </r>
       <r>    -4.9453    10.1319   356.0965 </r>
       <r>    -4.8485     8.4394   356.9134 </r>
       <r>    -4.7517     9.1272   357.7969 </r>
       <r>    -4.6549    11.4860   358.9088 </r>
       <r>    -4.5581    14.0930   360.2730 </r>
       <r>    -4.4613    15.4479   361.7683 </r>
       <r>    -4.3645    13.8940   363.1133 </r>
       <r>    -4.2677     9.7346   364.0556 </r>
       <r>    -4.1709     5.6912   364.6065 </r>
       <r>    -4.0741     3.5621   364.9513 </r>
       <r>    -3.9773     2.8896   365.2310 </r>
       <r>    -3.8805     2.8152   365.5036 </r>
       <r>    -3.7837     3.1166   365.8052 </r>
       <r>    -3.6869     3.6919   366.1626 </r>
       <r>    -3.5901     4.1819   366.5674 </r>
       <r>    -3.4933     4.1262   366.9669 </r>
       <r>    -3.3965     3.3731   367.2934 </r>
       <r>    -3.2997     2.6015   367.5452 </r>
       <r>    -3.2029     2.6777   367.8044 </r>
       <r>    -3.1061     3.4363   368.1371 </r>
       <r>    -3.0093     4.2007   368.5437 </r>
       <r>    -2.9125     4.8651   369.0146 </r>
       <r>    -2.8157     5.6242   369.5591 </r>
       <r>    -2.7189     6.6656   370.2043 </r>
       <r>    -2.6221     7.9394   370.9728 </r>
       <r>    -2.5253     8.5252   371.7981 </r>
       <r>    -2.4285     7.6164   372.5354 </r>
       <r>    -2.3317     6.2754   373.1428 </r>
       <r>    -2.2349     6.3132   373.7539 </r>
       <r>    -2.1381     7.4877   374.4787 </r>
       <r>    -2.0413     7.7185   375.2259 </r>
       <r>    -1.9445     6.5289   375.8579 </r>
       <r>    -1.8477     6.2980   376.4676 </r>
       <r>    -1.7509     9.1518   377.3535 </r>
       <r>    -1.6541    14.4380   378.7511 </r>
       <r>    -1.5573    19.5673   380.6452 </r>
       <r>    -1.4605    22.2279   382.7969 </r>
       <r>    -1.3637    21.8532   384.9123 </r>
       <r>    -1.2669    19.7419   386.8233 </r>
       <r>    -1.1701    18.0190   388.5675 </r>
       <r>    -1.0733    17.6777   390.2787 </r>
       <r>    -0.9765    17.5166   391.9744 </r>
       <r>    -0.8797    16.1179   393.5346 </r>
       <r>    -0.7829    13.9964   394.8895 </r>
       <r>    -0.6861    12.4726   396.0968 </r>
       <r>    -0.5893    12.0701   397.2652 </r>
       <r>    -0.4925    12.3417   398.4599 </r>
       <r>    -0.3957    12.6035   399.6799 </r>
       <r>    -0.2989    13.1875   400.9565 </r>
       <r>    -0.2021    14.7233   402.3817 </r>
       <r>    -0.1053    16.7530   404.0034 </r>
       <r>    -0.0085    18.6589   405.8096 </r>
       <r>     0.0883    20.5422   407.7981 </r>
       <r>     0.1851    22.2245   409.9494 </r>
       <r>     0.2819    22.4821   412.1257 </r>
       <r>     0.3787    20.3403   414.0947 </r>
       <r>     0.4755    17.3736   415.7765 </r>
       <r>     0.5723    17.1528   417.4369 </r>
       <r>     0.6691    21.1870   419.4878 </r>
       <r>     0.7659    26.9648   422.0980 </r>
       <r>     0.8627    31.1040   425.1089 </r>
       <r>     0.9595    33.2687   428.3293 </r>
       <r>     1.0563    35.3426   431.7505 </r>
       <r>     1.1531    38.4876   435.4761 </r>
       <r>     1.2499    43.0718   439.6455 </r>
       <r>     1.3467    48.4665   444.3371 </r>
       <r>     1.4435    52.0065   449.3714 </r>
       <r>     1.5403    50.2882   454.2393 </r>
       <r>     1.6371    42.1399   458.3185 </r>
       <r>     1.7339    29.9190   461.2146 </r>
       <r>     1.8307    17.4706   462.9058 </r>
       <r>     1.9275     7.9468   463.6751 </r>
       <r>     2.0243     2.6419   463.9308 </r>
       <r>     2.1211     0.6098   463.9898 </r>
       <r>     2.2179     0.0946   463.9990 </r>
       <r>     2.3147     0.0097   463.9999 </r>
       <r>     2.4115     0.0006   464.0000 </r>
       <r>     2.5084     0.0000   464.0000 </r>
       <r>     2.6052     0.0000   464.0000 </r>
       <r>     2.7020     0.0000   464.0000 </r>
       <r>     2.7988     0.0000   464.0000 </r>
       <r>     2.8956     0.0000   464.0000 </r>
       <r>     2.9924     0.0000   464.0000 </r>
       <r>     3.0892     0.0000   464.0000 </r>
       <r>     3.1860     0.0000   464.0000 </r>
       <r>     3.2828     0.0000   464.0000 </r>
       <r>     3.3796     0.0000   464.0000 </r>
       <r>     3.4764     0.0000   464.0000 </r>
       <r>     3.5732     0.0000   464.0000 </r>
       <r>     3.6700     0.0000   464.0000 </r>
       <r>     3.7668     0.0000   464.0000 </r>
      </set>
     </set>
    </array>
   </total>
  </dos>
 </calculation>
 <structure name="finalpos" >
  <crystal>
   <varray name="basis" >
    <v>      28.05000000       0.00000000       0.00000000 </v>
    <v>       0.00000000       8.10000000       0.00000000 </v>
    <v>       0.00000000       0.00000000      33.50000000 </v>
   </varray>
   <i name="volume">   7611.36750000 </i>
   <varray name="rec_basis" >
    <v>       0.03565062       0.00000000       0.00000000 </v>
    <v>       0.00000000       0.12345679       0.00000000 </v>
    <v>       0.00000000       0.00000000       0.02985075 </v>
   </varray>
  </crystal>
  <varray name="positions" >
   <v>       0.02313558       0.13148765       0.52303284 </v>
   <v>       0.02344909       0.30179877       0.52394328 </v>
   <v>       0.06466061       0.04695457       0.51682687 </v>
   <v>       0.06768128       0.37667654       0.52454627 </v>
   <v>       0.10997005       0.12744938       0.51647164 </v>
   <v>       0.11015437       0.29338395       0.51986567 </v>
   <v>       0.15327308       0.03868494       0.50515224 </v>
   <v>       0.15223922       0.37503086       0.50958209 </v>
   <v>       0.19761034       0.12682469       0.50012239 </v>
   <v>       0.19675187       0.29833457       0.49852836 </v>
   <v>       0.23810624       0.04616988       0.48714030 </v>
   <v>       0.23552371       0.37668889       0.48141194 </v>
   <v>       0.28040535       0.12627901       0.47387761 </v>
   <v>       0.27742709       0.29102099       0.46698806 </v>
   <v>       0.32242317       0.03662370       0.46644179 </v>
   <v>       0.31953654       0.37046667       0.45369552 </v>
   <v>       0.36529055       0.11746704       0.45591642 </v>
   <v>       0.36416756       0.28980000       0.45434030 </v>
   <v>       0.40704813       0.04150370       0.44728657 </v>
   <v>       0.40733690       0.36517037       0.44783582 </v>
   <v>       0.45172906       0.12313852       0.44996418 </v>
   <v>       0.45388948       0.28944938       0.44457015 </v>
   <v>       0.49595009       0.04234852       0.44255522 </v>
   <v>       0.49621747       0.36692346       0.43476119 </v>
   <v>       0.53987166       0.12527407       0.44629552 </v>
   <v>       0.53987522       0.28996420       0.43877612 </v>
   <v>       0.58175401       0.03613247       0.44763582 </v>
   <v>       0.58474866       0.36936914       0.43571642 </v>
   <v>       0.62596791       0.11394654       0.45236119 </v>
   <v>       0.62903387       0.28735556       0.44381194 </v>
   <v>       0.66944385       0.03422864       0.46038209 </v>
   <v>       0.67346168       0.36834074       0.44574925 </v>
   <v>       0.71288770       0.12402716       0.46841194 </v>
   <v>       0.71483066       0.28640988       0.46189552 </v>
   <v>       0.75658467       0.04067519       0.47639701 </v>
   <v>       0.75835651       0.37694074       0.46650746 </v>
   <v>       0.80047415       0.12628148       0.48794627 </v>
   <v>       0.80051693       0.29730123       0.48563284 </v>
   <v>       0.84264884       0.04978444       0.49715224 </v>
   <v>       0.84513725       0.38266543       0.49113731 </v>
   <v>       0.88449911       0.13317654       0.51181194 </v>
   <v>       0.88527986       0.30860988       0.50941493 </v>
   <v>       0.92686275       0.04505247       0.51934030 </v>
   <v>       0.92955437       0.38612963       0.51297910 </v>
   <v>       0.96954011       0.12763827       0.52585075 </v>
   <v>       0.97086988       0.30103580       0.52295522 </v>
   <v>       0.02449487       0.63041728       0.51534627 </v>
   <v>       0.02116863       0.80185926       0.51602090 </v>
   <v>       0.06626881       0.54709877       0.52193134 </v>
   <v>       0.06489305       0.87855679       0.51848657 </v>
   <v>       0.10799287       0.62483086       0.50913134 </v>
   <v>       0.10798111       0.79257037       0.50768060 </v>
   <v>       0.15032906       0.54317284       0.50072239 </v>
   <v>       0.15157683       0.87150370       0.50253433 </v>
   <v>       0.19151123       0.62629877       0.48521194 </v>
   <v>       0.19388592       0.79262716       0.48906269 </v>
   <v>       0.23391194       0.54203210       0.47421791 </v>
   <v>       0.23769091       0.87262593       0.48403284 </v>
   <v>       0.27405348       0.61870494       0.45896716 </v>
   <v>       0.27583601       0.78398272       0.46553731 </v>
   <v>       0.31801533       0.53744691       0.44819403 </v>
   <v>       0.31823387       0.86738889       0.45716119 </v>
   <v>       0.36238859       0.61758272       0.44231343 </v>
   <v>       0.36324421       0.78476790       0.44559104 </v>
   <v>       0.40611052       0.53142840       0.43877015 </v>
   <v>       0.40838146       0.86967284       0.44311940 </v>
   <v>       0.45104100       0.61905802       0.43175821 </v>
   <v>       0.45130125       0.79014444       0.43488358 </v>
   <v>       0.49513369       0.53944198       0.43101194 </v>
   <v>       0.49637077       0.87152716       0.43465075 </v>
   <v>       0.54032799       0.62302716       0.42591343 </v>
   <v>       0.54064528       0.78634815       0.43179403 </v>
   <v>       0.58501248       0.54032963       0.42912537 </v>
   <v>       0.58443494       0.86742716       0.43958806 </v>
   <v>       0.63064884       0.61787160       0.43071642 </v>
   <v>       0.62935472       0.78634198       0.43845075 </v>
   <v>       0.67529055       0.53987037       0.43636119 </v>
   <v>       0.67114795       0.86927778       0.45684478 </v>
   <v>       0.71926560       0.62450370       0.44470746 </v>
   <v>       0.71573975       0.78778395       0.45656119 </v>
   <v>       0.76396791       0.53957160       0.45730746 </v>
   <v>       0.75543672       0.87793210       0.47115522 </v>
   <v>       0.80365775       0.62907778       0.47065672 </v>
   <v>       0.80215330       0.79580494       0.47495224 </v>
   <v>       0.84608200       0.54250123       0.48034030 </v>
   <v>       0.84371836       0.87747160       0.49012537 </v>
   <v>       0.89068806       0.62944938       0.48764478 </v>
   <v>       0.88652050       0.79611852       0.49289851 </v>
   <v>       0.93214973       0.54573457       0.50187164 </v>
   <v>       0.92818538       0.87504444       0.51030448 </v>
   <v>       0.97356506       0.62393333       0.51028657 </v>
   <v>       0.97047415       0.79720247       0.51378209 </v>
  </varray>
 </structure>
</modeling>
