 vasp.6.5.0 16Dec24 (build Feb 19 2025 19:45:31) complex                         
 executed on              LinuxNV date 2025.10.25  20:17:25
 running    2 mpi-ranks, on    1 nodes
 distrk:  each k-point on    2 cores,    1 groups
 distr:  one band on NCORE=   1 cores,    2 groups
 Offloading initialized ...    2 GPUs detected


--------------------------------------------------------------------------------------------------------


 INCAR:
   ISTART = 0            (Not Read existing wavefunction
   ISPIN = 1            (Non-Spin polarised DFT, Default\=1)
   ICHARG = 2            (The initial guess charge density is generated by superposition of atomic charge density)
   LREAL = Auto         (Projection operators: automatic)
   ENCUT = 500          (Cut-off energy for plane wave basis set, in eV)
   LWAVE = .FALSE.       (Write WAVECAR or not)
   LCHARG = .FALSE.       (Write CHGCAR or not)
   PREC = Accurate   (Precision level)
   KGAMMA = .TRUE.
   ALGO = Normal
   NSW = 0           (Default: NSW \= 0)
   IBRION = -1           (Ions are not moved)
   ISMEAR = 0
   EDIFF = 1E-06        (SCF energy convergence
   NELM = 150          (Max electronic SCF steps)

 POTCAR:    PAW_PBE C 08Apr2002                   
 POTCAR:    PAW_PBE C 08Apr2002                   
   SHA256 =  253f7b50bb8d59471dbedb8285d89021f4a42ed1a2c5d38a03a736e69125dd95 C/POTCAR              
   COPYR  = (c) Copyright 08Apr2002 Georg Kresse                                                    
   COPYR  = This file is part of the software VASP. Any use, copying, and all other rights are regul
   COPYR  = If you do not have a valid VASP license, you may not use, copy or distribute this file. 
   VRHFIN =C: s2p2                                                                                  
   LEXCH  = PE                                                                                      
   EATOM  =   147.1560 eV,   10.8157 Ry                                                             
                                                                                                    
   TITEL  = PAW_PBE C 08Apr2002                                                                     
   LULTRA =        F    use ultrasoft PP ?                                                          
   IUNSCR =        1    unscreen: 0-lin 1-nonlin 2-no                                               
   RPACOR =    1.200    partial core radius                                                         
   POMASS =   12.011; ZVAL   =    4.000    mass and valenz                                          
   RCORE  =    1.500    outmost cutoff radius                                                       
   RWIGS  =    1.630; RWIGS  =    0.863    wigner-seitz radius (au A)                               
   ENMAX  =  400.000; ENMIN  =  300.000 eV                                                          
   ICORE  =        2    local potential                                                             
   LCOR   =        T    correct aug charges                                                         
   LPAW   =        T    paw PP                                                                      
   EAUG   =  644.873                                                                                
   DEXC   =    0.000                                                                                
   RMAX   =    1.529    core radius for proj-oper                                                   
   RAUG   =    1.300    factor for augmentation sphere                                              
   RDEP   =    1.501    radius for radial grids                                                     
   RDEPT  =    1.300    core radius for aug-charge                                                  
                                                                                                    
   Atomic configuration                                                                             
    4 entries                                                                                       
     n  l   j            E        occ.                                                              
     1  0  0.50      -273.3789   2.0000                                                             
     2  0  0.50       -13.7508   2.0000                                                             
     2  1  0.50        -5.2854   2.0000                                                             
     3  2  1.50        -5.4423   0.0000                                                             
   Description                                                                                      
     l       E           TYP  RCUT    TYP  RCUT                                                     
     0    -13.7508458     23  1.200                                                                 
     0     -8.2022199     23  1.200                                                                 
     1     -5.2854383     23  1.500                                                                 
     1     34.0145650     23  1.500                                                                 
     2     -5.4423304      7  1.500                                                                 
  local pseudopotential read in
  partial core-charges read in
  partial kinetic energy density read in
  atomic valenz-charges read in
  non local Contribution for L=            0  read in
    real space projection operators read in
  non local Contribution for L=            0  read in
    real space projection operators read in
  non local Contribution for L=            1  read in
    real space projection operators read in
  non local Contribution for L=            1  read in
    real space projection operators read in
    PAW grid and wavefunctions read in
 
   number of l-projection  operators is LMAX  =            4
   number of lm-projection operators is LMMAX =            8
 
 Optimization of the real space projectors (new method)

 maximal supplied QI-value         = 25.13
 optimisation between [QCUT,QGAM] = [ 11.31, 22.87] = [ 35.82,146.48] Ry 
 Optimized for a Real-space Cutoff    1.03 Angstroem

   l    n(q)    QCUT    max X(q) W(low)/X(q) W(high)/X(q)  e(spline) 
   0      7    11.310   115.676    0.20E-03    0.90E-03    0.20E-06
   0      7    11.310    87.132    0.20E-03    0.89E-03    0.19E-06
   1      6    11.310     4.429    0.16E-03    0.28E-03    0.12E-06
   1      6    11.310     2.733    0.12E-03    0.21E-03    0.99E-07
  PAW_PBE C 08Apr2002                   :
 energy of atom  1       EATOM= -147.1560
 kinetic energy error for atom=    0.0076 (will be added to EATOM!!)
 
 
 POSCAR:  C
  positions in cartesian coordinates
  No initial velocities read in


 exchange-correlation table for PE
   RHO(1)=    0.500       N(1)  =     2000
   RHO(2)=  100.500       N(2)  =     4000
 


--------------------------------------------------------------------------------------------------------


 ion  position               nearest neighbor table
   1  0.176  0.833  0.672-   2 1.38   3 1.40  45 1.48  46 2.04
   2  0.177  0.002  0.668-   1 1.38   4 1.40  46 1.48  45 1.98
   3  0.215  0.747  0.689-   5 1.38  50 1.38   1 1.40
   4  0.215  0.089  0.684-  49 1.36   2 1.40   6 1.41
   5  0.256  0.830  0.697-   3 1.38   6 1.41   7 1.43
   6  0.258  0.004  0.694-   8 1.37   5 1.41   4 1.41
   7  0.300  0.751  0.708-  54 1.38   9 1.41   5 1.43
   8  0.298  0.082  0.706-   6 1.37  53 1.38  10 1.41
   9  0.344  0.837  0.710-  10 1.37  11 1.39   7 1.41
  10  0.343  0.006  0.709-   9 1.37   8 1.41  12 1.42
  11  0.387  0.754  0.714-  58 1.36   9 1.39  13 1.43
  12  0.388  0.086  0.715-  57 1.39  14 1.41  10 1.42
  13  0.432  0.835  0.710-  14 1.35  15 1.41  11 1.43
  14  0.431  0.002  0.709-  13 1.35  16 1.41  12 1.41
  15  0.475  0.747  0.706-  62 1.36  13 1.41  17 1.45
  16  0.475  0.085  0.703-  61 1.38  14 1.41  18 1.45
  17  0.517  0.831  0.691-  18 1.36  19 1.42  15 1.45
  18  0.518  0.999  0.690-  17 1.36  20 1.42  16 1.45
  19  0.561  0.755  0.681-  66 1.40  21 1.41  17 1.42
  20  0.560  0.085  0.680-  65 1.36  22 1.41  18 1.42
  21  0.600  0.834  0.663-  22 1.36  19 1.41  23 1.42
  22  0.601  0.002  0.665-  21 1.36  20 1.41  24 1.44
  23  0.643  0.748  0.653-  70 1.36  21 1.42  25 1.45
  24  0.646  0.082  0.658-  69 1.37  26 1.44  22 1.44
  25  0.686  0.830  0.639-  26 1.39  27 1.41  23 1.45
  26  0.687  0.001  0.641-  28 1.38  25 1.39  24 1.44
  27  0.728  0.746  0.630-  29 1.39  74 1.40  25 1.41
  28  0.731  0.078  0.637-  73 1.38  26 1.38  30 1.41
  29  0.771  0.826  0.622-  30 1.39  27 1.39  31 1.47
  30  0.773  0.997  0.626-  29 1.39  28 1.41  32 1.45
  31  0.818  0.745  0.617-  78 1.37  33 1.43  29 1.47
  32  0.818  0.080  0.622-  77 1.36  34 1.42  30 1.45
  33  0.863  0.829  0.615-  34 1.37  35 1.43  31 1.43
  34  0.863  0.998  0.616-  33 1.37  32 1.42  36 1.44
  35  0.908  0.749  0.619-  82 1.36  33 1.43  37 1.47
  36  0.907  0.083  0.622-  81 1.35  38 1.44  34 1.44
  37  0.954  0.833  0.621-  38 1.37  39 1.43  35 1.47
  38  0.953  0.001  0.624-  37 1.37  36 1.44  40 1.44
  39  0.997  0.748  0.632-  86 1.37  37 1.43  41 1.46
  40  0.996  0.083  0.635-  85 1.37  42 1.42  38 1.44
  41  0.042  0.834  0.639-  42 1.40  43 1.42  39 1.46
  42  0.041  0.006  0.640-  41 1.40  44 1.41  40 1.42
  43  0.082  0.750  0.654-  90 1.35  45 1.42  41 1.42
  44  0.083  0.091  0.651-  89 1.38  46 1.41  42 1.41
  45  0.126  0.837  0.659-  46 1.35  43 1.42   1 1.48   2 1.98
  46  0.126  0.004  0.658-  45 1.35  44 1.41   2 1.48   1 2.04
  47  0.168  0.333  0.691-  48 1.37  49 1.41  91 1.46  92 2.02
  48  0.169  0.501  0.693-  50 1.36  47 1.37  92 1.48  91 2.01
  49  0.212  0.250  0.695-   4 1.36  47 1.41  51 1.43
  50  0.211  0.583  0.699-  48 1.36   3 1.38  52 1.41
  51  0.255  0.334  0.708-  52 1.39  53 1.39  49 1.43
  52  0.253  0.504  0.710-  51 1.39  54 1.39  50 1.41
  53  0.298  0.250  0.713-   8 1.38  51 1.39  55 1.44
  54  0.297  0.583  0.714-   7 1.38  52 1.39  56 1.41
  55  0.342  0.334  0.721-  56 1.38  57 1.43  53 1.44
  56  0.341  0.505  0.722-  55 1.38  54 1.41  58 1.44
  57  0.387  0.255  0.721-  12 1.39  59 1.40  55 1.43
  58  0.387  0.588  0.720-  11 1.36  60 1.42  56 1.44
  59  0.432  0.335  0.718-  60 1.36  57 1.40  61 1.44
  60  0.431  0.502  0.718-  59 1.36  58 1.42  62 1.44
  61  0.476  0.253  0.709-  16 1.38  63 1.41  59 1.44
  62  0.476  0.579  0.711-  15 1.36  64 1.41  60 1.44
  63  0.520  0.332  0.703-  64 1.38  61 1.41  65 1.44
  64  0.520  0.503  0.703-  63 1.38  62 1.41  66 1.42
  65  0.562  0.250  0.688-  20 1.36  67 1.42  63 1.44
  66  0.562  0.586  0.690-  19 1.40  64 1.42  68 1.44
  67  0.605  0.333  0.679-  68 1.38  69 1.41  65 1.42
  68  0.605  0.503  0.679-  67 1.38  66 1.44  70 1.44
  69  0.646  0.249  0.665-  24 1.37  67 1.41  71 1.42
  70  0.646  0.583  0.661-  23 1.36  72 1.43  68 1.44
  71  0.689  0.330  0.655-  72 1.37  69 1.42  73 1.42
  72  0.689  0.499  0.652-  71 1.37  74 1.39  70 1.43
  73  0.731  0.246  0.644-  28 1.38  75 1.40  71 1.42
  74  0.730  0.575  0.636-  72 1.39  27 1.40  76 1.41
  75  0.774  0.326  0.635-  76 1.38  73 1.40  77 1.41
  76  0.774  0.497  0.633-  75 1.38  74 1.41  78 1.43
  77  0.818  0.245  0.629-  32 1.36  79 1.40  75 1.41
  78  0.818  0.578  0.624-  31 1.37  80 1.39  76 1.43
  79  0.862  0.327  0.630-  80 1.39  77 1.40  81 1.43
  80  0.862  0.498  0.626-  79 1.39  78 1.39  82 1.43
  81  0.908  0.246  0.630-  36 1.35  83 1.42  79 1.43
  82  0.906  0.583  0.626-  35 1.36  80 1.43  84 1.45
  83  0.951  0.331  0.637-  84 1.37  85 1.38  81 1.42
  84  0.950  0.500  0.636-  83 1.37  86 1.41  82 1.45
  85  0.994  0.248  0.644-  40 1.37  83 1.38  87 1.42
  86  0.994  0.583  0.641-  39 1.37  84 1.41  88 1.43
  87  0.036  0.329  0.656-  89 1.39  88 1.40  85 1.42
  88  0.036  0.501  0.655-  87 1.40  86 1.43  90 1.44
  89  0.079  0.253  0.664-  44 1.38  91 1.39  87 1.39
  90  0.080  0.587  0.662-  43 1.35  92 1.38  88 1.44
  91  0.118  0.334  0.680-  92 1.38  89 1.39  47 1.46  48 2.01
  92  0.118  0.504  0.680-  91 1.38  90 1.38  48 1.48  47 2.02
 
  LATTYP: Found a simple orthorhombic cell.
 ALAT       =     8.1000000000
 B/A-ratio  =     3.4629629630
 C/A-ratio  =     4.1358024691
  
  Lattice vectors:
  
 A1 = (   0.0000000000,  -8.1000000000,   0.0000000000)
 A2 = (  28.0500000000,   0.0000000000,   0.0000000000)
 A3 = (   0.0000000000,   0.0000000000,  33.5000000000)


Analysis of symmetry for initial positions (statically):
=====================================================================
 Subroutine PRICEL returns:
 Original cell was already a primitive cell.
 

 Routine SETGRP: Setting up the symmetry group for a 
 simple orthorhombic supercell.


 Subroutine GETGRP returns: Found  1 space group operations
 (whereof  1 operations were pure point group operations)
 out of a pool of  8 trial point group operations.


The static configuration has the point symmetry C_1 .


Analysis of symmetry for dynamics (positions and initial velocities):
=====================================================================
 Subroutine PRICEL returns:
 Original cell was already a primitive cell.
 

 Routine SETGRP: Setting up the symmetry group for a 
 simple orthorhombic supercell.


 Subroutine GETGRP returns: Found  1 space group operations
 (whereof  1 operations were pure point group operations)
 out of a pool of  8 trial point group operations.


The dynamic configuration has the point symmetry C_1 .


 Subroutine INISYM returns: Found  1 space group operations
 (whereof  1 operations are pure point group operations),
 and found     1 'primitive' translations


----------------------------------------------------------------------------------------

                                     Primitive cell                                     

  volume of cell :    7611.3675

  direct lattice vectors                    reciprocal lattice vectors
    28.050000000  0.000000000  0.000000000     0.035650624  0.000000000  0.000000000
     0.000000000  8.100000000  0.000000000     0.000000000  0.123456790  0.000000000
     0.000000000  0.000000000 33.500000000     0.000000000  0.000000000  0.029850746

  length of vectors
    28.050000000  8.100000000 33.500000000     0.035650624  0.123456790  0.029850746

  position of ions in fractional coordinates (direct lattice)
     0.175906595  0.832661728  0.672358209
     0.176843850  0.002404370  0.668149254
     0.214509447  0.747420988  0.688835821
     0.215288770  0.088964321  0.684388060
     0.256324421  0.830412346  0.696567164
     0.257648128  0.003796741  0.693761194
     0.299858111  0.751335802  0.708238806
     0.298253832  0.082251852  0.705791045
     0.343709091  0.836666667  0.709671642
     0.343379323  0.005836691  0.709462687
     0.386959002  0.753750617  0.713641791
     0.387878788  0.085788395  0.714656716
     0.431875223  0.834838272  0.709850746
     0.431461676  0.001902037  0.708507463
     0.475101604  0.746744444  0.705791045
     0.474983957  0.085208889  0.702686567
     0.517376114  0.830575309  0.691134328
     0.517554367  0.998925926  0.689671642
     0.561294118  0.754908642  0.681014925
     0.560203209  0.085382222  0.679910448
     0.600488414  0.834164198  0.663044776
     0.600855615  0.002248296  0.665223881
     0.642980392  0.747649383  0.653492537
     0.645743316  0.082428519  0.657671642
     0.685500891  0.830139506  0.638716418
     0.687023173  0.001340630  0.641492537
     0.728203209  0.745930864  0.629731343
     0.730670232  0.078118765  0.637492537
     0.771244207  0.825848148  0.621880597
     0.772830660  0.996548148  0.625731343
     0.817604278  0.744802469  0.617074627
     0.818352941  0.080283457  0.621641791
     0.862573975  0.828651852  0.615432836
     0.862538324  0.998127160  0.616477612
     0.907793226  0.749124691  0.619343284
     0.907297683  0.082958025  0.621940299
     0.954046346  0.833102469  0.620805970
     0.952695187  0.001442914  0.624059701
     0.996623886  0.747983951  0.632179104
     0.996342246  0.083261728  0.634805970
     0.041571836  0.833530864  0.639194030
     0.041383957  0.006064062  0.639641791
     0.082416043  0.750193827  0.654268657
     0.083031016  0.091226296  0.651014925
     0.125881283  0.837201235  0.658716418
     0.125762210  0.003836395  0.657552239
     0.168106239  0.332702469  0.691492537
     0.168567914  0.501413580  0.692537313
     0.212236007  0.250493827  0.695253731
     0.210566845  0.582793827  0.698537313
     0.254754367  0.333581481  0.707522388
     0.253498752  0.504480247  0.709850746
     0.297686275  0.250233333  0.713373134
     0.297279857  0.583456790  0.714149254
     0.341755793  0.334385185  0.721462687
     0.341198574  0.505016049  0.721671642
     0.387286988  0.254951852  0.721134328
     0.386641711  0.587602469  0.719761194
     0.431500891  0.334993827  0.717940299
     0.430659537  0.502445679  0.718000000
     0.476067736  0.253080247  0.709492537
     0.476078431  0.579467901  0.710507463
     0.520263815  0.331992593  0.702805970
     0.520285205  0.502504938  0.703492537
     0.562260250  0.249745679  0.688149254
     0.561918004  0.585877778  0.689940299
     0.605319073  0.332771605  0.678805970
     0.605383244  0.502701235  0.678895522
     0.646117647  0.248585185  0.665373134
     0.645775401  0.582846914  0.660597015
     0.688866310  0.330404938  0.654776119
     0.689465241  0.498933333  0.652298507
     0.731258467  0.246046914  0.643641791
     0.729540107  0.575319753  0.636268657
     0.774292335  0.326111111  0.635373134
     0.774010695  0.496559259  0.632835821
     0.818181818  0.244735802  0.629462687
     0.817811052  0.577825926  0.623641791
     0.862167558  0.326659259  0.629611940
     0.861718360  0.497686420  0.626208955
     0.907625668  0.245659259  0.630238806
     0.906242424  0.583318519  0.625791045
     0.951176471  0.330624691  0.637343284
     0.950338681  0.499575309  0.636000000
     0.993639929  0.247556790  0.643701493
     0.994331551  0.582616049  0.640597015
     0.035949376  0.329195062  0.655641791
     0.036244207  0.501487654  0.654567164
     0.079216756  0.252671605  0.663611940
     0.080419608  0.587049383  0.662268657
     0.117937968  0.333814815  0.680179104
     0.117817469  0.504346914  0.680208955

  ion indices of the primitive-cell ions
   primitive index   ion index
                 1           1
                 2           2
                 3           3
                 4           4
                 5           5
                 6           6
                 7           7
                 8           8
                 9           9
                10          10
                11          11
                12          12
                13          13
                14          14
                15          15
                16          16
                17          17
                18          18
                19          19
                20          20
                21          21
                22          22
                23          23
                24          24
                25          25
                26          26
                27          27
                28          28
                29          29
                30          30
                31          31
                32          32
                33          33
                34          34
                35          35
                36          36
                37          37
                38          38
                39          39
                40          40
                41          41
                42          42
                43          43
                44          44
                45          45
                46          46
                47          47
                48          48
                49          49
                50          50
                51          51
                52          52
                53          53
                54          54
                55          55
                56          56
                57          57
                58          58
                59          59
                60          60
                61          61
                62          62
                63          63
                64          64
                65          65
                66          66
                67          67
                68          68
                69          69
                70          70
                71          71
                72          72
                73          73
                74          74
                75          75
                76          76
                77          77
                78          78
                79          79
                80          80
                81          81
                82          82
                83          83
                84          84
                85          85
                86          86
                87          87
                88          88
                89          89
                90          90
                91          91
                92          92

----------------------------------------------------------------------------------------

 
 
 KPOINTS: K-Spacing Value to Generate K-Mesh: 0.03

Automatic generation of k-mesh.
 Grid dimensions read from file:
 generate k-points for:    1    4    1

 Generating k-lattice:

  Cartesian coordinates                     Fractional coordinates (reciprocal lattice)
     0.035650624  0.000000000  0.000000000     1.000000000  0.000000000  0.000000000
     0.000000000  0.030864198  0.000000000     0.000000000  0.250000000  0.000000000
     0.000000000  0.000000000  0.029850746     0.000000000  0.000000000  1.000000000

  Length of vectors
     0.035650624  0.030864198  0.029850746

  Shift w.r.t. Gamma in fractional coordinates (k-lattice)
     0.000000000  0.000000000  0.000000000

 
 Subroutine IBZKPT returns following result:
 ===========================================
 
 Found      3 irreducible k-points:
 
 Following reciprocal coordinates:
            Coordinates               Weight
  0.000000  0.000000  0.000000      1.000000
  0.000000  0.250000  0.000000      2.000000
  0.000000  0.500000  0.000000      1.000000
 
 Following cartesian coordinates:
            Coordinates               Weight
  0.000000  0.000000  0.000000      1.000000
  0.000000  0.030864  0.000000      2.000000
  0.000000  0.061728  0.000000      1.000000
 


--------------------------------------------------------------------------------------------------------




 Dimension of arrays:
   k-points           NKPTS =      3   k-points in BZ     NKDIM =      3   number of bands    NBANDS=    232
   number of dos      NEDOS =    301   number of ions     NIONS =     92
   non local maximal  LDIM  =      4   non local SUM 2l+1 LMDIM =      8
   total plane-waves  NPLWV = ******
   max r-space proj   IRMAX =   1967   max aug-charges    IRDMAX=   5083
   dimension x,y,z NGX =   210 NGY =   60 NGZ =  250
   dimension x,y,z NGXF=   420 NGYF=  120 NGZF=  500
   support grid    NGXF=   420 NGYF=  120 NGZF=  500
   ions per type =              92
   NGX,Y,Z   is equivalent  to a cutoff of  12.45, 12.31, 12.41 a.u.
   NGXF,Y,Z  is equivalent  to a cutoff of  24.89, 24.63, 24.81 a.u.

 SYSTEM =  unknown system                          
 POSCAR =   C                                      

 Startparameter for this run:
   NWRITE =      2    write-flag & timer
   PREC   = accura    normal or accurate (medium, high low for compatibility)
   ISTART =      0    job   : 0-new  1-cont  2-samecut
   ICHARG =      2    charge: 1-file 2-atom 10-const
   ISPIN  =      1    spin polarized calculation?
   LNONCOLLINEAR =      F non collinear calculations
   LSORBIT =      F    spin-orbit coupling
   INIWAV =      1    electr: 0-lowe 1-rand  2-diag
   LASPH  =      F    aspherical Exc in radial PAW
 Electronic Relaxation 1
   ENCUT  =  500.0 eV  36.75 Ry    6.06 a.u.  51.14 14.77 61.08*2*pi/ulx,y,z
   ENINI  =  500.0     initial cutoff
   ENAUG  =  644.9 eV  augmentation charge cutoff
   NELM   =    150;   NELMIN=  2; NELMDL= -5     # of ELM steps 
   EDIFF  = 0.1E-05   stopping-criterion for ELM
   LREAL  =      T    real-space projection
   NLSPLINE    = F    spline interpolate recip. space projectors
   LCOMPAT=      F    compatible to vasp.4.4
   GGA_COMPAT  = T    GGA compatible to vasp.4.4-vasp.4.6
   LMAXPAW     = -100 max onsite density
   LMAXMIX     =    2 max onsite mixed and CHGCAR
   VOSKOWN=      0    Vosko Wilk Nusair interpolation
   ROPT   =   -0.00025
 Ionic relaxation
   EDIFFG = 0.1E-04   stopping-criterion for IOM
   NSW    =      0    number of steps for IOM
   NBLOCK =      1;   KBLOCK =      1    inner block; outer block 
   IBRION =     -1    ionic relax: 0-MD 1-quasi-New 2-CG
   NFREE  =      0    steps in history (QN), initial steepest desc. (CG)
   ISIF   =      2    stress and relaxation
   IWAVPR =     10    prediction:  0-non 1-charg 2-wave 3-comb
   ISYM   =      2    0-nonsym 1-usesym 2-fastsym
   LCORR  =      T    Harris-Foulkes like correction to forces

   POTIM  = 0.5000    time-step for ionic-motion
   TEIN   =    0.0    initial temperature
   TEBEG  =    0.0;   TEEND  =   0.0 temperature during run
   SMASS  =  -3.00    Nose mass-parameter (am)
   estimated Nose-frequenzy (Omega)   =  0.10E-29 period in steps = 0.13E+47 mass=  -0.180E-25a.u.
   SCALEE = 1.0000    scale energy and forces
   NPACO  =    256;   APACO  = 10.0  distance and # of slots for P.C.
   PSTRESS=    0.0 pullay stress

  Mass of Ions in am
   POMASS =  12.01
  Ionic Valenz
   ZVAL   =   4.00
  Atomic Wigner-Seitz radii
   RWIGS  =  -1.00
  virtual crystal weights 
   VCA    =   1.00
   NELECT =     368.0000    total number of electrons
   NUPDOWN=      -1.0000    fix difference up-down

 DOS related values:
   EMIN   =  10.00;   EMAX   =-10.00  energy-range for DOS
   EFERMI =   0.00;   METHOD = LEGACY      
   ISMEAR =     0;   SIGMA  =   0.20  broadening in eV -4-tet -1-fermi 0-gaus
   EFERMI_NEDOS =   21; number of points for ismear=-14 and -15

 Electronic relaxation 2 (details)
   IALGO  =     38    algorithm
   LDIAG  =      T    sub-space diagonalisation (order eigenvalues)
   LSUBROT=      F    optimize rotation matrix (better conditioning)
   TURBO    =      0    0=normal 1=particle mesh
   IRESTART =      0    0=no restart 2=restart with 2 vectors
   NREBOOT  =      0    no. of reboots
   NMIN     =      0    reboot dimension
   EREF     =   0.00    reference energy to select bands
   IMIX   =      4    mixing-type and parameters
     AMIX     =   0.40;   BMIX     =  1.00
     AMIX_MAG =   1.60;   BMIX_MAG =  1.00
     AMIN     =   0.10
     WC   =   100.;   INIMIX=   1;  MIXPRE=   1;  MAXMIX= -45

 Intra band minimization:
   WEIMIN = 0.0000     energy-eigenvalue tresh-hold
   EBREAK =  0.11E-08  absolut break condition
   DEPER  =   0.30     relativ break condition  

   TIME   =   0.40     timestep for ELM

  volume/ion in A,a.u.               =      82.73       558.30
  Fermi-wavevector in a.u.,A,eV,Ry     =   0.596398  1.127030  4.839472  0.355691
  Thomas-Fermi vector in A             =   1.646729
 
 Write flags
   LWAVE        =      F    write WAVECAR
   LDOWNSAMPLE  =      F    k-point downsampling of WAVECAR
   LCHARG       =      F    write CHGCAR
   LVTOT        =      F    write LOCPOT, total local potential
   LVHAR        =      F    write LOCPOT, Hartree potential only
   WRT_POTENTIAL= false  ! write potential to hdf5 file
   LELF         =      F    write electronic localiz. function (ELF)
   LORBIT       =      0    0 simple, 1 ext, 2 COOP (PROOUT), +10 PAW based schemes


 Python interface
   PLUGINS active      =      F    recompile with -DPLUGINS to activate
 
 Dipole corrections
   LMONO      =      F    monopole corrections only (constant potential shift)
   LDIPOL     =      F    correct potential (dipole corrections)
   IDIPOL     =      0    1-x, 2-y, 3-z, 4-all directions 
   EPSILON    =  1.0000000 bulk dielectric constant
   LVACPOTAV  =      F  vacuum potentials using an averaging scheme for the charge density
   VACPOTFLAT =  0.1000000 required flatness to determine vacuum potential
 
Coulomb truncation method
  LTRUNCATE          =      F  Coulomb kernel truncation to be used
  IDIMENSIONALITY    =      3  Dimensionality of cutoff (0 molecules / 2 surfaces)
  ISURFACE           =     -1  Direction of surface normal
  LCOARSEN           =      F  Coarsen the charge grid before padding, preferred

 
 Exchange correlation treatment:
   GGA     = PE    functional components
   XC_C    = 1    coefficients multiplying the functional components
   LIBXC   =     F    Libxc                    
   VOSKOWN =     0    Vosko Wilk Nusair interpolation
   LHFCALC =     F    Hartree Fock is set to
   LHFONE  =     F    Hartree Fock one center treatment
   AEXX    =    0.0000 exact exchange contribution

 Parameters of functionals:
   PE:
     No parameter
 
 Van der Waals corrections
   IVDW    =     0    specifies the selected vdW correction

 Linear response parameters
   LEPSILON=     F    determine dielectric tensor
   LRPA    =     F    only Hartree local field effects (RPA)
   LNABLA  =     F    use nabla operator in PAW spheres
   LVEL    =     F    velocity operator in full k-point grid
   CSHIFT  =0.1000    complex shift for real part using Kramers Kronig
   OMEGAMAX=  -1.0    maximum frequency
   DEG_THRESHOLD= 0.2000000E-02 threshold for treating states as degnerate
   RTIME   =   -0.100 relaxation time in fs
  (WPLASMAI=    0.000 imaginary part of plasma frequency in eV, 0.658/RTIME)
   DFIELD  = 0.0000000 0.0000000 0.0000000 field for delta impulse in time
 
  Optional k-point grid parameters
   LKPOINTS_OPT  =     F    use optional k-point grid
   KPOINTS_OPT_MODE=     1    mode for optional k-point grid
 
 Orbital magnetization related:
   ORBITALMAG=     F  switch on orbital magnetization
   LCHIMAG   =     F  perturbation theory with respect to B field
   DQ        =  0.001000  dq finite difference perturbation B field
   LLRAUG    =     F  two centre corrections for induced B field
   LBONE     =     F  B-component reconstruction in AE one-centre
   LVGVCALC  =     T  calculate vGv susceptibility
   LVGVAPPL  =     F  apply vGv susceptibility instead of pGv for G=0

 Random number generation:
   RANDOM_GENERATOR = DEFAULT
   PCG_SEED         = not used


--------------------------------------------------------------------------------------------------------


 Static calculation
 charge density and potential will be updated during run
 non-spin polarized calculation
 Variant of blocked Davidson
 Davidson routine will perform the subspace rotation
 perform sub-space diagonalisation
    after iterative eigenvector-optimisation
 modified Broyden-mixing scheme, WC =      100.0
 initial mixing is a Kerker type mixing with AMIX =  0.4000 and BMIX =      1.0000
 Hartree-type preconditioning will be used
 using additional bands            48
 real space projection scheme for non local part
 use partial core corrections
 calculate Harris-corrections to forces 
   (improved forces if not selfconsistent)
 use gradient corrections 
 use of overlap-Matrix (Vanderbilt PP)
 Gauss-broadening in eV      SIGMA  =   0.20


--------------------------------------------------------------------------------------------------------


  energy-cutoff  :      500.00
  volume of cell :     7611.37
      direct lattice vectors                 reciprocal lattice vectors
    28.050000000  0.000000000  0.000000000     0.035650624  0.000000000  0.000000000
     0.000000000  8.100000000  0.000000000     0.000000000  0.123456790  0.000000000
     0.000000000  0.000000000 33.500000000     0.000000000  0.000000000  0.029850746

  length of vectors
    28.050000000  8.100000000 33.500000000     0.035650624  0.123456790  0.029850746


 
 k-points in units of 2pi/SCALE and weight: K-Spacing Value to Generate K-Mesh: 0.03
   0.00000000  0.00000000  0.00000000       0.250
   0.00000000  0.03086420  0.00000000       0.500
   0.00000000  0.06172840  0.00000000       0.250
 
 k-points in reciprocal lattice and weights: K-Spacing Value to Generate K-Mesh: 0.03
   0.00000000  0.00000000  0.00000000       0.250
   0.00000000  0.25000000  0.00000000       0.500
   0.00000000  0.50000000  0.00000000       0.250
 
 position of ions in fractional coordinates (direct lattice) 
   0.17590660  0.83266173  0.67235821
   0.17684385  0.00240437  0.66814925
   0.21450945  0.74742099  0.68883582
   0.21528877  0.08896432  0.68438806
   0.25632442  0.83041235  0.69656716
   0.25764813  0.00379674  0.69376119
   0.29985811  0.75133580  0.70823881
   0.29825383  0.08225185  0.70579104
   0.34370909  0.83666667  0.70967164
   0.34337932  0.00583669  0.70946269
   0.38695900  0.75375062  0.71364179
   0.38787879  0.08578840  0.71465672
   0.43187522  0.83483827  0.70985075
   0.43146168  0.00190204  0.70850746
   0.47510160  0.74674444  0.70579104
   0.47498396  0.08520889  0.70268657
   0.51737611  0.83057531  0.69113433
   0.51755437  0.99892593  0.68967164
   0.56129412  0.75490864  0.68101493
   0.56020321  0.08538222  0.67991045
   0.60048841  0.83416420  0.66304478
   0.60085561  0.00224830  0.66522388
   0.64298039  0.74764938  0.65349254
   0.64574332  0.08242852  0.65767164
   0.68550089  0.83013951  0.63871642
   0.68702317  0.00134063  0.64149254
   0.72820321  0.74593086  0.62973134
   0.73067023  0.07811877  0.63749254
   0.77124421  0.82584815  0.62188060
   0.77283066  0.99654815  0.62573134
   0.81760428  0.74480247  0.61707463
   0.81835294  0.08028346  0.62164179
   0.86257398  0.82865185  0.61543284
   0.86253832  0.99812716  0.61647761
   0.90779323  0.74912469  0.61934328
   0.90729768  0.08295802  0.62194030
   0.95404635  0.83310247  0.62080597
   0.95269519  0.00144291  0.62405970
   0.99662389  0.74798395  0.63217910
   0.99634225  0.08326173  0.63480597
   0.04157184  0.83353086  0.63919403
   0.04138396  0.00606406  0.63964179
   0.08241604  0.75019383  0.65426866
   0.08303102  0.09122630  0.65101493
   0.12588128  0.83720123  0.65871642
   0.12576221  0.00383640  0.65755224
   0.16810624  0.33270247  0.69149254
   0.16856791  0.50141358  0.69253731
   0.21223601  0.25049383  0.69525373
   0.21056684  0.58279383  0.69853731
   0.25475437  0.33358148  0.70752239
   0.25349875  0.50448025  0.70985075
   0.29768627  0.25023333  0.71337313
   0.29727986  0.58345679  0.71414925
   0.34175579  0.33438519  0.72146269
   0.34119857  0.50501605  0.72167164
   0.38728699  0.25495185  0.72113433
   0.38664171  0.58760247  0.71976119
   0.43150089  0.33499383  0.71794030
   0.43065954  0.50244568  0.71800000
   0.47606774  0.25308025  0.70949254
   0.47607843  0.57946790  0.71050746
   0.52026381  0.33199259  0.70280597
   0.52028520  0.50250494  0.70349254
   0.56226025  0.24974568  0.68814925
   0.56191800  0.58587778  0.68994030
   0.60531907  0.33277160  0.67880597
   0.60538324  0.50270123  0.67889552
   0.64611765  0.24858519  0.66537313
   0.64577540  0.58284691  0.66059701
   0.68886631  0.33040494  0.65477612
   0.68946524  0.49893333  0.65229851
   0.73125847  0.24604691  0.64364179
   0.72954011  0.57531975  0.63626866
   0.77429234  0.32611111  0.63537313
   0.77401070  0.49655926  0.63283582
   0.81818182  0.24473580  0.62946269
   0.81781105  0.57782593  0.62364179
   0.86216756  0.32665926  0.62961194
   0.86171836  0.49768642  0.62620896
   0.90762567  0.24565926  0.63023881
   0.90624242  0.58331852  0.62579104
   0.95117647  0.33062469  0.63734328
   0.95033868  0.49957531  0.63600000
   0.99363993  0.24755679  0.64370149
   0.99433155  0.58261605  0.64059701
   0.03594938  0.32919506  0.65564179
   0.03624421  0.50148765  0.65456716
   0.07921676  0.25267160  0.66361194
   0.08041961  0.58704938  0.66226866
   0.11793797  0.33381481  0.68017910
   0.11781747  0.50434691  0.68020896
 
 position of ions in cartesian coordinates  (Angst):
   4.93418000  6.74456000 22.52400000
   4.96047000  0.01947540 22.38300000
   6.01699000  6.05411000 23.07600000
   6.03885000  0.72061100 22.92700000
   7.18990000  6.72634000 23.33500000
   7.22703000  0.03075360 23.24100000
   8.41102000  6.08582000 23.72600000
   8.36602000  0.66624000 23.64400000
   9.64104000  6.77700000 23.77400000
   9.63179000  0.04727720 23.76700000
  10.85420000  6.10538000 23.90700000
  10.88000000  0.69488600 23.94100000
  12.11410000  6.76219000 23.78000000
  12.10250000  0.01540650 23.73500000
  13.32660000  6.04863000 23.64400000
  13.32330000  0.69019200 23.54000000
  14.51240000  6.72766000 23.15300000
  14.51740000  8.09130000 23.10400000
  15.74430000  6.11476000 22.81400000
  15.71370000  0.69159600 22.77700000
  16.84370000  6.75673000 22.21200000
  16.85400000  0.01821120 22.28500000
  18.03560000  6.05596000 21.89200000
  18.11310000  0.66767100 22.03200000
  19.22830000  6.72413000 21.39700000
  19.27100000  0.01085910 21.49000000
  20.42610000  6.04204000 21.09600000
  20.49530000  0.63276200 21.35600000
  21.63340000  6.68937000 20.83300000
  21.67790000  8.07204000 20.96200000
  22.93380000  6.03290000 20.67200000
  22.95480000  0.65029600 20.82500000
  24.19520000  6.71208000 20.61700000
  24.19420000  8.08483000 20.65200000
  25.46360000  6.06791000 20.74800000
  25.44970000  0.67196000 20.83500000
  26.76100000  6.74813000 20.79700000
  26.72310000  0.01168760 20.90600000
  27.95530000  6.05867000 21.17800000
  27.94740000  0.67442000 21.26600000
   1.16609000  6.75160000 21.41300000
   1.16082000  0.04911890 21.42800000
   2.31177000  6.07657000 21.91800000
   2.32902000  0.73893300 21.80900000
   3.53097000  6.78133000 22.06700000
   3.52763000  0.03107480 22.02800000
   4.71538000  2.69489000 23.16500000
   4.72833000  4.06145000 23.20000000
   5.95322000  2.02900000 23.29100000
   5.90640000  4.72063000 23.40100000
   7.14586000  2.70201000 23.70200000
   7.11064000  4.08629000 23.78000000
   8.35010000  2.02689000 23.89800000
   8.33870000  4.72600000 23.92400000
   9.58625000  2.70852000 24.16900000
   9.57062000  4.09063000 24.17600000
  10.86340000  2.06511000 24.15800000
  10.84530000  4.75958000 24.11200000
  12.10360000  2.71345000 24.05100000
  12.08000000  4.06981000 24.05300000
  13.35370000  2.04995000 23.76800000
  13.35400000  4.69369000 23.80200000
  14.59340000  2.68914000 23.54400000
  14.59400000  4.07029000 23.56700000
  15.77140000  2.02294000 23.05300000
  15.76180000  4.74561000 23.11300000
  16.97920000  2.69545000 22.74000000
  16.98100000  4.07188000 22.74300000
  18.12360000  2.01354000 22.29000000
  18.11400000  4.72106000 22.13000000
  19.32270000  2.67628000 21.93500000
  19.33950000  4.04136000 21.85200000
  20.51180000  1.99298000 21.56200000
  20.46360000  4.66009000 21.31500000
  21.71890000  2.64150000 21.28500000
  21.71100000  4.02213000 21.20000000
  22.95000000  1.98236000 21.08700000
  22.93960000  4.68039000 20.89200000
  24.18380000  2.64594000 21.09200000
  24.17120000  4.03126000 20.97800000
  25.45890000  1.98984000 21.11300000
  25.42010000  4.72488000 20.96400000
  26.68050000  2.67806000 21.35100000
  26.65700000  4.04656000 21.30600000
  27.87160000  2.00521000 21.56400000
  27.89100000  4.71919000 21.46000000
   1.00838000  2.66648000 21.96400000
   1.01665000  4.06205000 21.92800000
   2.22203000  2.04664000 22.23100000
   2.25577000  4.75510000 22.18600000
   3.30816000  2.70390000 22.78600000
   3.30478000  4.08521000 22.78700000
 


--------------------------------------------------------------------------------------------------------


 k-point     1 :   0.0000 0.0000 0.0000  plane waves:  193173
 k-point     2 :   0.0000 0.2500 0.0000  plane waves:  193166
 k-point     3 :   0.0000 0.5000 0.0000  plane waves:  193226

 maximum and minimum number of plane-waves per node :    193226   193166

 maximum number of plane-waves:    193226
 maximum index in each direction: 
   IXMAX=   51   IYMAX=   14   IZMAX=   61
   IXMIN=  -51   IYMIN=  -15   IZMIN=  -61


 serial   3D FFT for wavefunctions
 parallel 3D FFT for charge:
    minimum data exchange during FFTs selected (reduces bandwidth)


 total amount of memory used by VASP MPI-rank0  2294519. kBytes
=======================================================================

   base                                    :      30000. kBytes
   nonlr-proj                              :      15085. kBytes
   fftplans                                :     436558. kBytes
   grid                                    :     732614. kBytes
   one-center                              :        282. kBytes
   wavefun                                 :    1079980. kBytes
 
     INWAV:  cpu time      0.0000: real time      0.0000
 Broyden mixing: mesh for mixing (old mesh)
   NGX =103   NGY = 29   NGZ =123
  (NGX  =420   NGY  =120   NGZ  =500)
  gives a total of 367401 points

 initial charge density was supplied:
 charge density of overlapping atoms calculated
 number of electron     368.0000000 magnetization 
 keeping initial charge density in first step


--------------------------------------------------------------------------------------------------------


 Maximum index for non-local projection operator          1871
 Maximum index for augmentation-charges          2389 (set IRDMAX)


--------------------------------------------------------------------------------------------------------


 First call to EWALD:  gamma=   0.090
 Maximum number of real-space cells   2x   6x   2
 Maximum number of reciprocal cells   4x   1x   4

    FEWALD:  cpu time      0.1592: real time      0.1592


--------------------------------------- Ionic step        1  -------------------------------------------




--------------------------------------- Iteration      1(   1)  ---------------------------------------


    POTLOK:  cpu time      0.4229: real time      0.4500
    SETDIJ:  cpu time      0.0396: real time      0.0396
     EDDAV:  cpu time     11.0370: real time     11.0448
       DOS:  cpu time      0.0008: real time      0.0008
    --------------------------------------------
      LOOP:  cpu time     11.5003: real time     11.5352

 eigenvalue-minimisations  :  1704
 total energy-change (2. order) : 0.3705018E+04  (-0.1189094E+05)
 number of electron     368.0000000 magnetization 
 augmentation part      368.0000000 magnetization 

 Free energy of the ion-electron system (eV)
  ---------------------------------------------------
  alpha Z        PSCENC =        91.34886789
  Ewald energy   TEWEN  =    119525.40775055
  -Hartree energ DENC   =   -128854.52632486
  -exchange      EXHF   =         0.00000000
  -V(xc)+E(xc)   XCENC  =      1221.21608215
  PAW double counting   =      9984.02826696   -10036.41360137
  entropy T*S    EENTRO =        -0.81709663
  eigenvalues    EBANDS =     -1762.88091876
  atomic energy  EATOM  =     13537.65479391
  Solvation  Ediel_sol  =         0.00000000
  ---------------------------------------------------
  free energy    TOTEN  =      3705.01781984 eV

  energy without entropy =     3705.83491647  energy(sigma->0) =     3705.42636815


--------------------------------------------------------------------------------------------------------




--------------------------------------- Iteration      1(   2)  ---------------------------------------


     EDDAV:  cpu time     13.1083: real time     13.1130
       DOS:  cpu time      0.0007: real time      0.0007
    --------------------------------------------
      LOOP:  cpu time     13.1090: real time     13.1137

 eigenvalue-minimisations  :  2136
 total energy-change (2. order) :-0.3520663E+04  (-0.3258580E+04)
 number of electron     368.0000000 magnetization 
 augmentation part      368.0000000 magnetization 

 Free energy of the ion-electron system (eV)
  ---------------------------------------------------
  alpha Z        PSCENC =        91.34886789
  Ewald energy   TEWEN  =    119525.40775055
  -Hartree energ DENC   =   -128854.52632486
  -exchange      EXHF   =         0.00000000
  -V(xc)+E(xc)   XCENC  =      1221.21608215
  PAW double counting   =      9984.02826696   -10036.41360137
  entropy T*S    EENTRO =        -0.17119808
  eigenvalues    EBANDS =     -5284.18975836
  atomic energy  EATOM  =     13537.65479391
  Solvation  Ediel_sol  =         0.00000000
  ---------------------------------------------------
  free energy    TOTEN  =       184.35487879 eV

  energy without entropy =      184.52607687  energy(sigma->0) =      184.44047783


--------------------------------------------------------------------------------------------------------




--------------------------------------- Iteration      1(   3)  ---------------------------------------


     EDDAV:  cpu time     11.2630: real time     11.2670
       DOS:  cpu time      0.0007: real time      0.0007
    --------------------------------------------
      LOOP:  cpu time     11.2637: real time     11.2677

 eigenvalue-minimisations  :  1784
 total energy-change (2. order) :-0.1020784E+04  (-0.9969231E+03)
 number of electron     368.0000000 magnetization 
 augmentation part      368.0000000 magnetization 

 Free energy of the ion-electron system (eV)
  ---------------------------------------------------
  alpha Z        PSCENC =        91.34886789
  Ewald energy   TEWEN  =    119525.40775055
  -Hartree energ DENC   =   -128854.52632486
  -exchange      EXHF   =         0.00000000
  -V(xc)+E(xc)   XCENC  =      1221.21608215
  PAW double counting   =      9984.02826696   -10036.41360137
  entropy T*S    EENTRO =        -0.04638932
  eigenvalues    EBANDS =     -6305.09898271
  atomic energy  EATOM  =     13537.65479391
  Solvation  Ediel_sol  =         0.00000000
  ---------------------------------------------------
  free energy    TOTEN  =      -836.42953680 eV

  energy without entropy =     -836.38314748  energy(sigma->0) =     -836.40634214


--------------------------------------------------------------------------------------------------------




--------------------------------------- Iteration      1(   4)  ---------------------------------------


     EDDAV:  cpu time     10.9468: real time     10.9507
       DOS:  cpu time      0.0007: real time      0.0007
    --------------------------------------------
      LOOP:  cpu time     10.9475: real time     10.9514

 eigenvalue-minimisations  :  1712
 total energy-change (2. order) :-0.6213253E+02  (-0.6110237E+02)
 number of electron     368.0000000 magnetization 
 augmentation part      368.0000000 magnetization 

 Free energy of the ion-electron system (eV)
  ---------------------------------------------------
  alpha Z        PSCENC =        91.34886789
  Ewald energy   TEWEN  =    119525.40775055
  -Hartree energ DENC   =   -128854.52632486
  -exchange      EXHF   =         0.00000000
  -V(xc)+E(xc)   XCENC  =      1221.21608215
  PAW double counting   =      9984.02826696   -10036.41360137
  entropy T*S    EENTRO =        -0.05312323
  eigenvalues    EBANDS =     -6367.22478336
  atomic energy  EATOM  =     13537.65479391
  Solvation  Ediel_sol  =         0.00000000
  ---------------------------------------------------
  free energy    TOTEN  =      -898.56207136 eV

  energy without entropy =     -898.50894813  energy(sigma->0) =     -898.53550975


--------------------------------------------------------------------------------------------------------




--------------------------------------- Iteration      1(   5)  ---------------------------------------


     EDDAV:  cpu time     11.1434: real time     11.1473
       DOS:  cpu time      0.0007: real time      0.0007
    CHARGE:  cpu time      1.2080: real time      1.2111
    MIXING:  cpu time      0.2738: real time      0.2742
    --------------------------------------------
      LOOP:  cpu time     12.6259: real time     12.6332

 eigenvalue-minimisations  :  1752
 total energy-change (2. order) :-0.1519902E+01  (-0.1497035E+01)
 number of electron     368.0000003 magnetization 
 augmentation part       10.1548139 magnetization 

 Broyden mixing:
  rms(total) = 0.45416E+01    rms(broyden)= 0.45410E+01
  rms(prec ) = 0.46584E+01
  weight for this iteration     100.00

 Free energy of the ion-electron system (eV)
  ---------------------------------------------------
  alpha Z        PSCENC =        91.34886789
  Ewald energy   TEWEN  =    119525.40775055
  -Hartree energ DENC   =   -128854.52632486
  -exchange      EXHF   =         0.00000000
  -V(xc)+E(xc)   XCENC  =      1221.21608215
  PAW double counting   =      9984.02826696   -10036.41360137
  entropy T*S    EENTRO =        -0.05298975
  eigenvalues    EBANDS =     -6368.74481930
  atomic energy  EATOM  =     13537.65479391
  Solvation  Ediel_sol  =         0.00000000
  ---------------------------------------------------
  free energy    TOTEN  =      -900.08197382 eV

  energy without entropy =     -900.02898407  energy(sigma->0) =     -900.05547894


--------------------------------------------------------------------------------------------------------




--------------------------------------- Iteration      1(   6)  ---------------------------------------


    POTLOK:  cpu time      0.3204: real time      0.3205
    SETDIJ:  cpu time      0.0402: real time      0.0402
     EDDAV:  cpu time     10.3099: real time     10.3167
       DOS:  cpu time      0.0007: real time      0.0007
    CHARGE:  cpu time      1.1634: real time      1.1639
    MIXING:  cpu time      0.2757: real time      0.2770
    --------------------------------------------
      LOOP:  cpu time     12.1104: real time     12.1191

 eigenvalue-minimisations  :  1584
 total energy-change (2. order) : 0.4930017E+02  (-0.4686450E+01)
 number of electron     368.0000002 magnetization 
 augmentation part        9.7331719 magnetization 

 Broyden mixing:
  rms(total) = 0.26685E+01    rms(broyden)= 0.26685E+01
  rms(prec ) = 0.27266E+01
  weight for this iteration     100.00

 eigenvalues of (default mixing * dielectric matrix)
  average eigenvalue GAMMA=   2.1884
  2.1884

 Free energy of the ion-electron system (eV)
  ---------------------------------------------------
  alpha Z        PSCENC =        91.34886789
  Ewald energy   TEWEN  =    119525.40775055
  -Hartree energ DENC   =   -129424.01476066
  -exchange      EXHF   =         0.00000000
  -V(xc)+E(xc)   XCENC  =      1244.54141067
  PAW double counting   =     18933.87089538   -18993.85704932
  entropy T*S    EENTRO =        -0.05556782
  eigenvalues    EBANDS =     -5765.67814202
  atomic energy  EATOM  =     13537.65479391
  Solvation  Ediel_sol  =         0.00000000
  ---------------------------------------------------
  free energy    TOTEN  =      -850.78180141 eV

  energy without entropy =     -850.72623360  energy(sigma->0) =     -850.75401751


--------------------------------------------------------------------------------------------------------




--------------------------------------- Iteration      1(   7)  ---------------------------------------


    POTLOK:  cpu time      0.3198: real time      0.3198
    SETDIJ:  cpu time      0.0402: real time      0.0402
     EDDAV:  cpu time     10.1822: real time     10.1883
       DOS:  cpu time      0.0008: real time      0.0008
    CHARGE:  cpu time      1.1567: real time      1.1588
    MIXING:  cpu time      0.2789: real time      0.2802
    --------------------------------------------
      LOOP:  cpu time     11.9785: real time     11.9880

 eigenvalue-minimisations  :  1560
 total energy-change (2. order) : 0.1841122E+02  (-0.6553464E+01)
 number of electron     368.0000002 magnetization 
 augmentation part        9.1764838 magnetization 

 Broyden mixing:
  rms(total) = 0.72951E+00    rms(broyden)= 0.72924E+00
  rms(prec ) = 0.73924E+00
  weight for this iteration     100.00

 eigenvalues of (default mixing * dielectric matrix)
  average eigenvalue GAMMA=   2.2375
  2.2375  2.2375

 Free energy of the ion-electron system (eV)
  ---------------------------------------------------
  alpha Z        PSCENC =        91.34886789
  Ewald energy   TEWEN  =    119525.40775055
  -Hartree energ DENC   =   -130190.26557130
  -exchange      EXHF   =         0.00000000
  -V(xc)+E(xc)   XCENC  =      1275.74482984
  PAW double counting   =     36598.89406947   -36665.79444359
  entropy T*S    EENTRO =        -0.06447918
  eigenvalues    EBANDS =     -5005.29639664
  atomic energy  EATOM  =     13537.65479391
  Solvation  Ediel_sol  =         0.00000000
  ---------------------------------------------------
  free energy    TOTEN  =      -832.37057906 eV

  energy without entropy =     -832.30609988  energy(sigma->0) =     -832.33833947


--------------------------------------------------------------------------------------------------------




--------------------------------------- Iteration      1(   8)  ---------------------------------------


    POTLOK:  cpu time      0.3202: real time      0.3203
    SETDIJ:  cpu time      0.0400: real time      0.0400
     EDDAV:  cpu time     10.5137: real time     10.5174
       DOS:  cpu time      0.0008: real time      0.0008
    CHARGE:  cpu time      1.1575: real time      1.1584
    MIXING:  cpu time      0.2820: real time      0.2824
    --------------------------------------------
      LOOP:  cpu time     12.3142: real time     12.3192

 eigenvalue-minimisations  :  1624
 total energy-change (2. order) : 0.2954038E+00  (-0.2427801E+00)
 number of electron     368.0000002 magnetization 
 augmentation part        9.1662391 magnetization 

 Broyden mixing:
  rms(total) = 0.95039E-01    rms(broyden)= 0.95007E-01
  rms(prec ) = 0.11780E+00
  weight for this iteration     100.00

 eigenvalues of (default mixing * dielectric matrix)
  average eigenvalue GAMMA=   1.8676
  1.2605  2.4472  1.8950

 Free energy of the ion-electron system (eV)
  ---------------------------------------------------
  alpha Z        PSCENC =        91.34886789
  Ewald energy   TEWEN  =    119525.40775055
  -Hartree energ DENC   =   -130283.22207874
  -exchange      EXHF   =         0.00000000
  -V(xc)+E(xc)   XCENC  =      1275.34762620
  PAW double counting   =     40917.68997451   -40981.76834578
  entropy T*S    EENTRO =        -0.06210154
  eigenvalues    EBANDS =     -4914.47166227
  atomic energy  EATOM  =     13537.65479391
  Solvation  Ediel_sol  =         0.00000000
  ---------------------------------------------------
  free energy    TOTEN  =      -832.07517526 eV

  energy without entropy =     -832.01307372  energy(sigma->0) =     -832.04412449


--------------------------------------------------------------------------------------------------------




--------------------------------------- Iteration      1(   9)  ---------------------------------------


    POTLOK:  cpu time      0.3198: real time      0.3199
    SETDIJ:  cpu time      0.0403: real time      0.0403
     EDDAV:  cpu time     10.4661: real time     10.4726
       DOS:  cpu time      0.0008: real time      0.0008
    CHARGE:  cpu time      1.1585: real time      1.1589
    MIXING:  cpu time      0.2865: real time      0.2865
    --------------------------------------------
      LOOP:  cpu time     12.2719: real time     12.2789

 eigenvalue-minimisations  :  1616
 total energy-change (2. order) : 0.1042491E+00  (-0.2759111E-01)
 number of electron     368.0000002 magnetization 
 augmentation part        9.1395652 magnetization 

 Broyden mixing:
  rms(total) = 0.56497E-01    rms(broyden)= 0.56487E-01
  rms(prec ) = 0.77876E-01
  weight for this iteration     100.00

 eigenvalues of (default mixing * dielectric matrix)
  average eigenvalue GAMMA=   1.7285
  2.2305  2.2305  1.2264  1.2264

 Free energy of the ion-electron system (eV)
  ---------------------------------------------------
  alpha Z        PSCENC =        91.34886789
  Ewald energy   TEWEN  =    119525.40775055
  -Hartree energ DENC   =   -130351.74045801
  -exchange      EXHF   =         0.00000000
  -V(xc)+E(xc)   XCENC  =      1276.86733344
  PAW double counting   =     41329.68313545   -41393.97105276
  entropy T*S    EENTRO =        -0.06203872
  eigenvalues    EBANDS =     -4847.15925793
  atomic energy  EATOM  =     13537.65479391
  Solvation  Ediel_sol  =         0.00000000
  ---------------------------------------------------
  free energy    TOTEN  =      -831.97092619 eV

  energy without entropy =     -831.90888747  energy(sigma->0) =     -831.93990683


--------------------------------------------------------------------------------------------------------




--------------------------------------- Iteration      1(  10)  ---------------------------------------


    POTLOK:  cpu time      0.3202: real time      0.3203
    SETDIJ:  cpu time      0.0402: real time      0.0402
     EDDAV:  cpu time     10.9344: real time     10.9384
       DOS:  cpu time      0.0008: real time      0.0008
    CHARGE:  cpu time      1.1561: real time      1.1594
    MIXING:  cpu time      0.2925: real time      0.2925
    --------------------------------------------
      LOOP:  cpu time     12.7442: real time     12.7515

 eigenvalue-minimisations  :  1712
 total energy-change (2. order) : 0.4049311E-01  (-0.4715112E-02)
 number of electron     368.0000002 magnetization 
 augmentation part        9.1307293 magnetization 

 Broyden mixing:
  rms(total) = 0.34416E-01    rms(broyden)= 0.34414E-01
  rms(prec ) = 0.53331E-01
  weight for this iteration     100.00

 eigenvalues of (default mixing * dielectric matrix)
  average eigenvalue GAMMA=   1.7788
  2.5698  2.5698  1.6849  1.2424  0.8269

 Free energy of the ion-electron system (eV)
  ---------------------------------------------------
  alpha Z        PSCENC =        91.34886789
  Ewald energy   TEWEN  =    119525.40775055
  -Hartree energ DENC   =   -130406.42637720
  -exchange      EXHF   =         0.00000000
  -V(xc)+E(xc)   XCENC  =      1277.18909518
  PAW double counting   =     41046.64252658   -41110.76414462
  entropy T*S    EENTRO =        -0.06178215
  eigenvalues    EBANDS =     -4792.92116322
  atomic energy  EATOM  =     13537.65479391
  Solvation  Ediel_sol  =         0.00000000
  ---------------------------------------------------
  free energy    TOTEN  =      -831.93043308 eV

  energy without entropy =     -831.86865094  energy(sigma->0) =     -831.89954201


--------------------------------------------------------------------------------------------------------




--------------------------------------- Iteration      1(  11)  ---------------------------------------


    POTLOK:  cpu time      0.3199: real time      0.3200
    SETDIJ:  cpu time      0.0402: real time      0.0402
     EDDAV:  cpu time     10.0062: real time     10.0096
       DOS:  cpu time      0.0008: real time      0.0007
    CHARGE:  cpu time      1.1677: real time      1.1697
    MIXING:  cpu time      0.3002: real time      0.3002
    --------------------------------------------
      LOOP:  cpu time     11.8351: real time     11.8405

 eigenvalue-minimisations  :  1528
 total energy-change (2. order) : 0.2726495E-01  (-0.2551527E-02)
 number of electron     368.0000002 magnetization 
 augmentation part        9.1246724 magnetization 

 Broyden mixing:
  rms(total) = 0.23810E-01    rms(broyden)= 0.23808E-01
  rms(prec ) = 0.36053E-01
  weight for this iteration     100.00

 eigenvalues of (default mixing * dielectric matrix)
  average eigenvalue GAMMA=   1.8117
  3.1058  2.4562  1.9610  0.9126  1.2173  1.2173

 Free energy of the ion-electron system (eV)
  ---------------------------------------------------
  alpha Z        PSCENC =        91.34886789
  Ewald energy   TEWEN  =    119525.40775055
  -Hartree energ DENC   =   -130474.36730866
  -exchange      EXHF   =         0.00000000
  -V(xc)+E(xc)   XCENC  =      1277.83399452
  PAW double counting   =     41008.60798509   -41072.63841270
  entropy T*S    EENTRO =        -0.06201848
  eigenvalues    EBANDS =     -4725.68882024
  atomic energy  EATOM  =     13537.65479391
  Solvation  Ediel_sol  =         0.00000000
  ---------------------------------------------------
  free energy    TOTEN  =      -831.90316813 eV

  energy without entropy =     -831.84114965  energy(sigma->0) =     -831.87215889


--------------------------------------------------------------------------------------------------------




--------------------------------------- Iteration      1(  12)  ---------------------------------------


    POTLOK:  cpu time      0.3202: real time      0.3201
    SETDIJ:  cpu time      0.0404: real time      0.0404
     EDDAV:  cpu time      9.9667: real time      9.9701
       DOS:  cpu time      0.0008: real time      0.0008
    CHARGE:  cpu time      1.1561: real time      1.1565
    MIXING:  cpu time      0.3048: real time      0.3065
    --------------------------------------------
      LOOP:  cpu time     11.7889: real time     11.7944

 eigenvalue-minimisations  :  1520
 total energy-change (2. order) : 0.6277363E-03  (-0.1957213E-02)
 number of electron     368.0000002 magnetization 
 augmentation part        9.1176435 magnetization 

 Broyden mixing:
  rms(total) = 0.14512E-01    rms(broyden)= 0.14508E-01
  rms(prec ) = 0.22216E-01
  weight for this iteration     100.00

 eigenvalues of (default mixing * dielectric matrix)
  average eigenvalue GAMMA=   2.1123
  5.0957  2.4440  2.0849  1.9640  0.9620  1.1177  1.1177

 Free energy of the ion-electron system (eV)
  ---------------------------------------------------
  alpha Z        PSCENC =        91.34886789
  Ewald energy   TEWEN  =    119525.40775055
  -Hartree energ DENC   =   -130531.93655796
  -exchange      EXHF   =         0.00000000
  -V(xc)+E(xc)   XCENC  =      1278.38769324
  PAW double counting   =     41085.56745232   -41149.60088003
  entropy T*S    EENTRO =        -0.06222372
  eigenvalues    EBANDS =     -4668.66943660
  atomic energy  EATOM  =     13537.65479391
  Solvation  Ediel_sol  =         0.00000000
  ---------------------------------------------------
  free energy    TOTEN  =      -831.90254040 eV

  energy without entropy =     -831.84031668  energy(sigma->0) =     -831.87142854


--------------------------------------------------------------------------------------------------------




--------------------------------------- Iteration      1(  13)  ---------------------------------------


    POTLOK:  cpu time      0.3192: real time      0.3192
    SETDIJ:  cpu time      0.0401: real time      0.0401
     EDDAV:  cpu time      9.9225: real time      9.9259
       DOS:  cpu time      0.0007: real time      0.0007
    CHARGE:  cpu time      1.1594: real time      1.1597
    MIXING:  cpu time      0.3165: real time      0.3171
    --------------------------------------------
      LOOP:  cpu time     11.7584: real time     11.7627

 eigenvalue-minimisations  :  1512
 total energy-change (2. order) :-0.1196250E-01  (-0.8261692E-03)
 number of electron     368.0000002 magnetization 
 augmentation part        9.1154569 magnetization 

 Broyden mixing:
  rms(total) = 0.87897E-02    rms(broyden)= 0.87881E-02
  rms(prec ) = 0.11931E-01
  weight for this iteration     100.00

 eigenvalues of (default mixing * dielectric matrix)
  average eigenvalue GAMMA=   2.1080
  5.4016  2.5071  2.5071  1.8936  1.3062  1.3062  0.8887  1.0533

 Free energy of the ion-electron system (eV)
  ---------------------------------------------------
  alpha Z        PSCENC =        91.34886789
  Ewald energy   TEWEN  =    119525.40775055
  -Hartree energ DENC   =   -130581.65251283
  -exchange      EXHF   =         0.00000000
  -V(xc)+E(xc)   XCENC  =      1278.56453860
  PAW double counting   =     41025.24956045   -41089.27619171
  entropy T*S    EENTRO =        -0.06212189
  eigenvalues    EBANDS =     -4619.14918785
  atomic energy  EATOM  =     13537.65479391
  Solvation  Ediel_sol  =         0.00000000
  ---------------------------------------------------
  free energy    TOTEN  =      -831.91450290 eV

  energy without entropy =     -831.85238100  energy(sigma->0) =     -831.88344195


--------------------------------------------------------------------------------------------------------




--------------------------------------- Iteration      1(  14)  ---------------------------------------


    POTLOK:  cpu time      0.3196: real time      0.3196
    SETDIJ:  cpu time      0.0403: real time      0.0402
     EDDAV:  cpu time     10.1251: real time     10.1286
       DOS:  cpu time      0.0008: real time      0.0008
    CHARGE:  cpu time      1.1586: real time      1.1587
    MIXING:  cpu time      0.3224: real time      0.3225
    --------------------------------------------
      LOOP:  cpu time     11.9668: real time     11.9705

 eigenvalue-minimisations  :  1552
 total energy-change (2. order) :-0.1959666E-01  (-0.1327616E-03)
 number of electron     368.0000002 magnetization 
 augmentation part        9.1145459 magnetization 

 Broyden mixing:
  rms(total) = 0.51824E-02    rms(broyden)= 0.51820E-02
  rms(prec ) = 0.73053E-02
  weight for this iteration     100.00

 eigenvalues of (default mixing * dielectric matrix)
  average eigenvalue GAMMA=   2.2735
  6.7503  3.1674  2.4657  1.8483  1.8483  1.2456  1.2456  0.9452  0.9452

 Free energy of the ion-electron system (eV)
  ---------------------------------------------------
  alpha Z        PSCENC =        91.34886789
  Ewald energy   TEWEN  =    119525.40775055
  -Hartree energ DENC   =   -130594.96914906
  -exchange      EXHF   =         0.00000000
  -V(xc)+E(xc)   XCENC  =      1278.57564149
  PAW double counting   =     41048.93172350   -41112.96633685
  entropy T*S    EENTRO =        -0.06211791
  eigenvalues    EBANDS =     -4605.85527306
  atomic energy  EATOM  =     13537.65479391
  Solvation  Ediel_sol  =         0.00000000
  ---------------------------------------------------
  free energy    TOTEN  =      -831.93409955 eV

  energy without entropy =     -831.87198164  energy(sigma->0) =     -831.90304059


--------------------------------------------------------------------------------------------------------




--------------------------------------- Iteration      1(  15)  ---------------------------------------


    POTLOK:  cpu time      0.3199: real time      0.3199
    SETDIJ:  cpu time      0.0401: real time      0.0401
     EDDAV:  cpu time     10.1711: real time     10.1745
       DOS:  cpu time      0.0008: real time      0.0008
    CHARGE:  cpu time      1.1572: real time      1.1589
    MIXING:  cpu time      0.3305: real time      0.3318
    --------------------------------------------
      LOOP:  cpu time     12.0196: real time     12.0261

 eigenvalue-minimisations  :  1560
 total energy-change (2. order) :-0.1945553E-01  (-0.1630227E-03)
 number of electron     368.0000002 magnetization 
 augmentation part        9.1143195 magnetization 

 Broyden mixing:
  rms(total) = 0.32497E-02    rms(broyden)= 0.32494E-02
  rms(prec ) = 0.41115E-02
  weight for this iteration     100.00

 eigenvalues of (default mixing * dielectric matrix)
  average eigenvalue GAMMA=   2.2709
  7.0688  3.6170  2.2839  2.2839  1.7483  1.3630  1.3630  1.0830  0.9493  0.9493

 Free energy of the ion-electron system (eV)
  ---------------------------------------------------
  alpha Z        PSCENC =        91.34886789
  Ewald energy   TEWEN  =    119525.40775055
  -Hartree energ DENC   =   -130605.60381874
  -exchange      EXHF   =         0.00000000
  -V(xc)+E(xc)   XCENC  =      1278.54600231
  PAW double counting   =     41033.46557489   -41097.50415952
  entropy T*S    EENTRO =        -0.06215183
  eigenvalues    EBANDS =     -4595.20641453
  atomic energy  EATOM  =     13537.65479391
  Solvation  Ediel_sol  =         0.00000000
  ---------------------------------------------------
  free energy    TOTEN  =      -831.95355508 eV

  energy without entropy =     -831.89140325  energy(sigma->0) =     -831.92247917


--------------------------------------------------------------------------------------------------------




--------------------------------------- Iteration      1(  16)  ---------------------------------------


    POTLOK:  cpu time      0.3197: real time      0.3196
    SETDIJ:  cpu time      0.0402: real time      0.0402
     EDDAV:  cpu time     10.3294: real time     10.3333
       DOS:  cpu time      0.0008: real time      0.0008
    CHARGE:  cpu time      1.1649: real time      1.1721
    MIXING:  cpu time      0.3406: real time      0.3406
    --------------------------------------------
      LOOP:  cpu time     12.1956: real time     12.2066

 eigenvalue-minimisations  :  1592
 total energy-change (2. order) :-0.7513507E-02  (-0.4382454E-04)
 number of electron     368.0000002 magnetization 
 augmentation part        9.1142446 magnetization 

 Broyden mixing:
  rms(total) = 0.19810E-02    rms(broyden)= 0.19810E-02
  rms(prec ) = 0.24873E-02
  weight for this iteration     100.00

 eigenvalues of (default mixing * dielectric matrix)
  average eigenvalue GAMMA=   2.3498
  7.9402  4.1290  2.3952  2.3952  1.8491  1.5419  1.5419  1.0833  1.0833  0.9773
  0.9108

 Free energy of the ion-electron system (eV)
  ---------------------------------------------------
  alpha Z        PSCENC =        91.34886789
  Ewald energy   TEWEN  =    119525.40775055
  -Hartree energ DENC   =   -130608.40090242
  -exchange      EXHF   =         0.00000000
  -V(xc)+E(xc)   XCENC  =      1278.53298992
  PAW double counting   =     41037.37572445   -41101.40963586
  entropy T*S    EENTRO =        -0.06211938
  eigenvalues    EBANDS =     -4592.40853763
  atomic energy  EATOM  =     13537.65479391
  Solvation  Ediel_sol  =         0.00000000
  ---------------------------------------------------
  free energy    TOTEN  =      -831.96106859 eV

  energy without entropy =     -831.89894921  energy(sigma->0) =     -831.93000890


--------------------------------------------------------------------------------------------------------




--------------------------------------- Iteration      1(  17)  ---------------------------------------


    POTLOK:  cpu time      0.3198: real time      0.3198
    SETDIJ:  cpu time      0.0402: real time      0.0402
     EDDAV:  cpu time     10.0660: real time     10.0726
       DOS:  cpu time      0.0008: real time      0.0008
    CHARGE:  cpu time      1.1564: real time      1.1584
    MIXING:  cpu time      0.3485: real time      0.3499
    --------------------------------------------
      LOOP:  cpu time     11.9316: real time     11.9417

 eigenvalue-minimisations  :  1544
 total energy-change (2. order) :-0.4168330E-02  (-0.2304586E-04)
 number of electron     368.0000002 magnetization 
 augmentation part        9.1141632 magnetization 

 Broyden mixing:
  rms(total) = 0.10386E-02    rms(broyden)= 0.10385E-02
  rms(prec ) = 0.13410E-02
  weight for this iteration     100.00

 eigenvalues of (default mixing * dielectric matrix)
  average eigenvalue GAMMA=   2.3982
  8.3290  4.8261  2.5735  2.4787  2.0497  1.3741  1.3741  1.4031  1.4031  0.9800
  0.9935  0.9935

 Free energy of the ion-electron system (eV)
  ---------------------------------------------------
  alpha Z        PSCENC =        91.34886789
  Ewald energy   TEWEN  =    119525.40775055
  -Hartree energ DENC   =   -130610.41001734
  -exchange      EXHF   =         0.00000000
  -V(xc)+E(xc)   XCENC  =      1278.53251808
  PAW double counting   =     41038.58724574   -41102.61943879
  entropy T*S    EENTRO =        -0.06212798
  eigenvalues    EBANDS =     -4590.40482897
  atomic energy  EATOM  =     13537.65479391
  Solvation  Ediel_sol  =         0.00000000
  ---------------------------------------------------
  free energy    TOTEN  =      -831.96523692 eV

  energy without entropy =     -831.90310893  energy(sigma->0) =     -831.93417293


--------------------------------------------------------------------------------------------------------




--------------------------------------- Iteration      1(  18)  ---------------------------------------


    POTLOK:  cpu time      0.3196: real time      0.3197
    SETDIJ:  cpu time      0.0400: real time      0.0401
     EDDAV:  cpu time     10.2428: real time     10.2491
       DOS:  cpu time      0.0008: real time      0.0008
    CHARGE:  cpu time      1.1572: real time      1.1582
    MIXING:  cpu time      0.3588: real time      0.3601
    --------------------------------------------
      LOOP:  cpu time     12.1193: real time     12.1278

 eigenvalue-minimisations  :  1576
 total energy-change (2. order) :-0.2071406E-02  (-0.9363194E-05)
 number of electron     368.0000002 magnetization 
 augmentation part        9.1140883 magnetization 

 Broyden mixing:
  rms(total) = 0.57856E-03    rms(broyden)= 0.57851E-03
  rms(prec ) = 0.73692E-03
  weight for this iteration     100.00

 eigenvalues of (default mixing * dielectric matrix)
  average eigenvalue GAMMA=   2.4180
  8.8433  5.1412  2.9242  2.4983  1.9167  1.9167  1.5066  1.5066  1.1730  1.1730
  0.9326  0.9326  0.9687

 Free energy of the ion-electron system (eV)
  ---------------------------------------------------
  alpha Z        PSCENC =        91.34886789
  Ewald energy   TEWEN  =    119525.40775055
  -Hartree energ DENC   =   -130611.21688013
  -exchange      EXHF   =         0.00000000
  -V(xc)+E(xc)   XCENC  =      1278.53356646
  PAW double counting   =     41038.48390234   -41102.51567573
  entropy T*S    EENTRO =        -0.06214369
  eigenvalues    EBANDS =     -4589.60148993
  atomic energy  EATOM  =     13537.65479391
  Solvation  Ediel_sol  =         0.00000000
  ---------------------------------------------------
  free energy    TOTEN  =      -831.96730832 eV

  energy without entropy =     -831.90516464  energy(sigma->0) =     -831.93623648


--------------------------------------------------------------------------------------------------------




--------------------------------------- Iteration      1(  19)  ---------------------------------------


    POTLOK:  cpu time      0.3193: real time      0.3193
    SETDIJ:  cpu time      0.0402: real time      0.0402
     EDDAV:  cpu time      9.3944: real time      9.3979
       DOS:  cpu time      0.0008: real time      0.0008
    CHARGE:  cpu time      1.1566: real time      1.1571
    MIXING:  cpu time      0.3725: real time      0.3726
    --------------------------------------------
      LOOP:  cpu time     11.2839: real time     11.2878

 eigenvalue-minimisations  :  1400
 total energy-change (2. order) :-0.8174605E-03  (-0.2283004E-05)
 number of electron     368.0000002 magnetization 
 augmentation part        9.1141100 magnetization 

 Broyden mixing:
  rms(total) = 0.38714E-03    rms(broyden)= 0.38712E-03
  rms(prec ) = 0.46507E-03
  weight for this iteration     100.00

 eigenvalues of (default mixing * dielectric matrix)
  average eigenvalue GAMMA=   2.4498
  8.9891  5.5790  3.2514  2.4396  2.4396  1.7608  1.4252  1.4252  1.4747  1.4747
  0.9484  0.9769  0.9769  1.1360

 Free energy of the ion-electron system (eV)
  ---------------------------------------------------
  alpha Z        PSCENC =        91.34886789
  Ewald energy   TEWEN  =    119525.40775055
  -Hartree energ DENC   =   -130611.49866799
  -exchange      EXHF   =         0.00000000
  -V(xc)+E(xc)   XCENC  =      1278.53083607
  PAW double counting   =     41036.52762806   -41100.55842452
  entropy T*S    EENTRO =        -0.06213604
  eigenvalues    EBANDS =     -4589.31877373
  atomic energy  EATOM  =     13537.65479391
  Solvation  Ediel_sol  =         0.00000000
  ---------------------------------------------------
  free energy    TOTEN  =      -831.96812578 eV

  energy without entropy =     -831.90598975  energy(sigma->0) =     -831.93705777


--------------------------------------------------------------------------------------------------------




--------------------------------------- Iteration      1(  20)  ---------------------------------------


    POTLOK:  cpu time      0.3196: real time      0.3197
    SETDIJ:  cpu time      0.0399: real time      0.0400
     EDDAV:  cpu time      8.9072: real time      8.9103
       DOS:  cpu time      0.0007: real time      0.0007
    CHARGE:  cpu time      1.1563: real time      1.1580
    MIXING:  cpu time      0.3868: real time      0.3867
    --------------------------------------------
      LOOP:  cpu time     10.8104: real time     10.8154

 eigenvalue-minimisations  :  1304
 total energy-change (2. order) :-0.4093800E-03  (-0.6920169E-06)
 number of electron     368.0000002 magnetization 
 augmentation part        9.1140852 magnetization 

 Broyden mixing:
  rms(total) = 0.17126E-03    rms(broyden)= 0.17125E-03
  rms(prec ) = 0.21428E-03
  weight for this iteration     100.00

 eigenvalues of (default mixing * dielectric matrix)
  average eigenvalue GAMMA=   2.4685
  9.1854  5.9770  3.7609  2.5418  2.5418  1.9968  1.5396  1.5396  1.4046  1.4046
  0.9647  0.9647  1.1051  1.1051  0.9962

 Free energy of the ion-electron system (eV)
  ---------------------------------------------------
  alpha Z        PSCENC =        91.34886789
  Ewald energy   TEWEN  =    119525.40775055
  -Hartree energ DENC   =   -130611.65984749
  -exchange      EXHF   =         0.00000000
  -V(xc)+E(xc)   XCENC  =      1278.53092728
  PAW double counting   =     41036.20425847   -41100.23593749
  entropy T*S    EENTRO =        -0.06213642
  eigenvalues    EBANDS =     -4589.15721186
  atomic energy  EATOM  =     13537.65479391
  Solvation  Ediel_sol  =         0.00000000
  ---------------------------------------------------
  free energy    TOTEN  =      -831.96853516 eV

  energy without entropy =     -831.90639875  energy(sigma->0) =     -831.93746695


--------------------------------------------------------------------------------------------------------




--------------------------------------- Iteration      1(  21)  ---------------------------------------


    POTLOK:  cpu time      0.3197: real time      0.3197
    SETDIJ:  cpu time      0.0402: real time      0.0402
     EDDAV:  cpu time      8.1655: real time      8.1682
       DOS:  cpu time      0.0007: real time      0.0007
    CHARGE:  cpu time      1.1657: real time      1.1690
    MIXING:  cpu time      0.3978: real time      0.3981
    --------------------------------------------
      LOOP:  cpu time     10.0896: real time     10.0960

 eigenvalue-minimisations  :  1152
 total energy-change (2. order) :-0.1491740E-03  (-0.1653234E-06)
 number of electron     368.0000002 magnetization 
 augmentation part        9.1140951 magnetization 

 Broyden mixing:
  rms(total) = 0.10158E-03    rms(broyden)= 0.10157E-03
  rms(prec ) = 0.12411E-03
  weight for this iteration     100.00

 eigenvalues of (default mixing * dielectric matrix)
  average eigenvalue GAMMA=   2.4502
  9.2157  6.2335  3.9181  2.6094  2.6094  1.8376  1.8376  1.4812  1.4812  1.4073
  1.4073  0.9530  0.9530  0.9726  1.1434  1.1434

 Free energy of the ion-electron system (eV)
  ---------------------------------------------------
  alpha Z        PSCENC =        91.34886789
  Ewald energy   TEWEN  =    119525.40775055
  -Hartree energ DENC   =   -130611.72842697
  -exchange      EXHF   =         0.00000000
  -V(xc)+E(xc)   XCENC  =      1278.52985086
  PAW double counting   =     41036.05483162   -41100.08636276
  entropy T*S    EENTRO =        -0.06213607
  eigenvalues    EBANDS =     -4589.08785335
  atomic energy  EATOM  =     13537.65479391
  Solvation  Ediel_sol  =         0.00000000
  ---------------------------------------------------
  free energy    TOTEN  =      -831.96868434 eV

  energy without entropy =     -831.90654827  energy(sigma->0) =     -831.93761630


[...]
   0.698E+01 -.155E+02 -.377E+01   -.763E+01 0.164E+02 0.369E+01   -.546E+00 0.862E+00 0.526E+00   -.622E-05 -.350E-05 0.246E-05
   -.377E+01 -.231E+01 -.986E+01   0.363E+01 0.170E+01 0.102E+02   -.130E+01 -.115E+01 0.883E-01   -.837E-05 -.988E-06 0.347E-05
   0.797E+01 0.652E+01 0.129E+02   -.827E+01 -.727E+01 -.129E+02   -.987E-01 -.598E+00 0.138E+00   -.722E-05 -.146E-05 0.275E-05
   0.252E+02 0.157E+02 0.994E+02   -.251E+02 -.163E+02 -.100E+03   -.678E-01 -.519E+00 0.158E+01   -.871E-05 -.187E-06 0.281E-05
   0.144E+02 -.161E+02 0.671E+02   -.138E+02 0.172E+02 -.676E+02   0.489E+00 -.107E+00 0.364E-01   -.757E-05 -.166E-06 0.217E-05
   0.185E+02 -.112E+02 0.876E+02   -.178E+02 0.122E+02 -.878E+02   0.215E+00 0.442E+00 -.796E+00   -.108E-04 0.634E-06 0.281E-05
   0.488E+01 0.164E+02 0.362E+02   -.506E+01 -.172E+02 -.360E+02   -.932E+00 0.189E+00 -.508E+00   -.107E-04 -.581E-06 0.365E-05
   0.404E+02 0.113E+02 0.148E+03   -.412E+02 -.115E+02 -.148E+03   -.157E+00 0.145E-01 0.358E+00   -.108E-04 -.193E-05 0.104E-05
   0.370E+02 -.966E+01 0.123E+03   -.380E+02 0.933E+01 -.124E+03   -.571E+00 -.621E+00 0.147E+01   -.127E-04 0.112E-05 0.171E-05
   0.293E+02 -.856E+00 0.166E+03   -.298E+02 0.235E+00 -.166E+03   0.428E-01 -.220E+00 0.194E+00   -.176E-05 0.247E-05 -.184E-05
   0.220E+01 0.934E+01 0.731E+02   -.138E+01 -.935E+01 -.729E+02   -.296E+00 0.434E+00 -.704E+00   -.445E-06 -.197E-05 0.720E-06
   0.883E+01 0.110E+02 0.184E+03   -.759E+01 -.108E+02 -.185E+03   0.894E+00 0.524E+00 -.539E-01   0.693E-05 -.228E-05 -.221E-05
   0.482E+01 -.955E+01 0.139E+03   -.399E+01 0.945E+01 -.139E+03   0.825E-01 0.387E-01 0.925E-02   0.813E-05 0.109E-05 -.151E-05
   0.122E+02 -.161E+02 0.200E+03   -.128E+02 0.169E+02 -.200E+03   -.293E+00 0.147E+00 0.679E+00   0.490E-05 -.869E-06 -.353E-06
   0.104E+02 0.170E+02 0.157E+03   -.109E+02 -.183E+02 -.157E+03   -.521E+00 -.468E+00 0.626E+00   0.692E-05 0.218E-05 0.168E-06
   -.203E+01 0.135E+02 0.193E+03   0.202E+01 -.140E+02 -.193E+03   -.754E-01 0.205E+00 -.124E+00   0.706E-05 -.183E-05 0.126E-05
   -.639E+01 -.124E+02 0.193E+03   0.660E+01 0.129E+02 -.193E+03   0.136E+00 0.481E+00 0.709E+00   0.756E-05 0.365E-05 0.131E-05
   -.209E+02 -.151E+02 0.166E+03   0.216E+02 0.161E+02 -.166E+03   -.304E+00 -.231E+00 -.456E+00   0.139E-04 -.250E-06 0.231E-05
   -.919E+01 0.183E+02 0.151E+03   0.912E+01 -.197E+02 -.151E+03   0.523E+00 -.584E+00 0.242E+00   0.113E-04 0.687E-06 0.246E-05
   -.249E+02 0.188E+02 0.205E+03   0.248E+02 -.196E+02 -.206E+03   -.951E+00 -.673E+00 0.144E+01   0.120E-04 -.135E-06 0.357E-05
   -.198E+02 -.134E+02 0.156E+03   0.199E+02 0.141E+02 -.156E+03   0.440E+00 -.926E-01 -.177E+00   0.970E-05 -.290E-05 0.201E-05
   -.284E+02 -.972E+01 0.133E+03   0.288E+02 0.108E+02 -.133E+03   0.312E+00 0.514E+00 -.450E+00   0.229E-05 -.396E-05 0.139E-05
   -.174E+02 0.166E+02 0.109E+03   0.169E+02 -.174E+02 -.109E+03   -.252E+00 0.181E+00 0.113E+00   0.350E-05 -.826E-07 0.997E-06
   -.266E+02 0.147E+02 0.138E+03   0.262E+02 -.149E+02 -.139E+03   -.516E+00 -.957E-01 0.785E+00   -.510E-05 0.159E-05 -.111E-05
   -.286E+02 -.611E+01 0.131E+03   0.285E+02 0.562E+01 -.131E+03   -.478E+00 -.546E+00 -.178E+00   -.365E-05 -.401E-05 -.123E-05
   -.244E+02 -.319E+01 0.464E+02   0.246E+02 0.471E+01 -.460E+02   0.937E+00 0.654E+00 -.136E+01   -.609E-05 0.354E-05 -.313E-05
   -.428E+02 -.632E+01 0.102E+03   0.434E+02 0.651E+01 -.103E+03   0.537E+00 -.125E+01 0.102E+01   -.298E-05 -.572E-05 -.186E-05
   -.262E+02 0.749E+02 0.920E+02   0.232E+02 -.777E+02 -.938E+02   0.614E+00 0.728E+00 0.164E+01   -.133E-04 0.607E-05 -.384E-05
   -.296E+02 -.733E+02 0.101E+03   0.269E+02 0.759E+02 -.102E+03   0.143E+01 -.119E+01 0.188E+00   -.117E-04 -.301E-05 -.345E-05
   0.357E+02 0.768E+02 -.119E+03   -.327E+02 -.791E+02 0.121E+03   -.692E+00 0.143E+01 -.961E+00   -.161E-04 -.609E-05 -.285E-05
   0.457E+02 -.689E+02 -.125E+03   -.440E+02 0.703E+02 0.126E+03   -.121E+01 -.114E+01 -.825E+00   -.167E-04 0.136E-05 -.287E-05
   0.370E+02 -.111E+01 -.824E+02   -.371E+02 0.190E+01 0.826E+02   -.860E+00 0.461E+00 -.211E+00   0.220E-05 -.263E-05 0.113E-05
   0.421E+02 -.751E+01 -.117E+03   -.418E+02 0.778E+01 0.117E+03   0.160E+00 0.322E+00 -.107E+00   0.493E-05 0.411E-05 0.217E-05
   0.320E+02 0.106E+02 -.131E+03   -.325E+02 -.103E+02 0.132E+03   -.737E+00 -.963E-01 0.260E+00   0.736E-05 -.318E-05 0.224E-05
   0.373E+02 -.989E+01 -.168E+03   -.379E+02 0.928E+01 0.169E+03   0.229E+00 -.721E+00 -.795E+00   0.933E-05 0.284E-05 0.331E-05
   0.129E+02 -.519E+01 -.153E+03   -.121E+02 0.523E+01 0.153E+03   0.200E+00 0.329E+00 -.197E+00   0.109E-04 0.160E-05 0.210E-05
   0.194E+02 0.651E+01 -.150E+03   -.188E+02 -.634E+01 0.150E+03   0.535E+00 0.724E+00 0.648E+00   0.108E-04 0.157E-05 0.139E-05
   0.127E+02 0.162E+02 -.199E+03   -.129E+02 -.165E+02 0.199E+03   0.221E+00 -.213E+00 -.100E+00   0.793E-05 0.656E-06 -.476E-06
   0.715E+01 -.122E+02 -.204E+03   -.678E+01 0.122E+02 0.204E+03   0.361E+00 -.453E+00 -.742E+00   0.695E-05 -.922E-06 -.810E-06
   0.187E+01 -.609E+01 -.198E+03   -.230E+01 0.584E+01 0.198E+03   0.199E-02 -.775E+00 -.795E+00   0.371E-05 -.306E-07 -.209E-05
   -.607E-03 0.125E+02 -.176E+03   -.587E+00 -.131E+02 0.176E+03   0.922E-02 -.478E+00 -.123E+00   0.336E-05 -.893E-06 -.152E-05
   -.220E+02 0.177E+02 -.170E+03   0.224E+02 -.184E+02 0.170E+03   0.130E+00 -.158E+00 0.162E+00   0.214E-05 -.113E-05 -.185E-05
   -.151E+02 -.171E+02 -.170E+03   0.155E+02 0.178E+02 0.170E+03   0.974E+00 0.150E+00 -.178E+00   0.286E-05 -.691E-07 -.198E-05
   -.170E+02 -.901E+01 -.142E+03   0.167E+02 0.909E+01 0.142E+03   -.853E-01 -.333E+00 -.251E+00   0.451E-06 -.285E-05 -.105E-05
   -.188E+02 0.134E+02 -.148E+03   0.181E+02 -.139E+02 0.149E+03   -.157E+00 0.105E+01 0.783E-01   0.181E-05 0.367E-05 -.147E-05
   -.338E+02 0.150E+02 -.142E+03   0.343E+02 -.153E+02 0.143E+03   0.456E-02 0.198E+00 -.492E+00   -.536E-05 0.215E-05 0.155E-05
   -.355E+02 -.129E+02 -.149E+03   0.359E+02 0.128E+02 0.149E+03   -.123E-02 -.630E-01 -.331E+00   -.353E-05 -.729E-07 0.656E-06
   -.125E+02 -.124E+02 -.812E+02   0.122E+02 0.134E+02 0.815E+02   -.175E+00 0.134E+00 0.256E-01   -.620E-05 0.139E-05 0.283E-05
   -.249E+02 0.498E+01 -.102E+03   0.254E+02 -.462E+01 0.101E+03   0.878E+00 -.149E+00 -.431E+00   -.573E-05 -.696E-06 0.257E-05
   -.173E+02 0.763E+01 -.772E+02   0.169E+02 -.763E+01 0.775E+02   -.198E-01 -.301E+00 0.987E-01   -.788E-05 0.287E-05 0.365E-05
   -.227E+02 -.189E+02 -.852E+02   0.226E+02 0.197E+02 0.857E+02   -.133E+00 -.324E+00 -.815E+00   -.893E-05 0.174E-06 0.434E-05
   -.831E+01 -.607E+01 -.407E+02   0.850E+01 0.618E+01 0.407E+02   0.817E+00 0.137E+00 -.499E+00   -.113E-04 -.299E-06 0.490E-05
   0.664E+01 0.137E+02 0.144E+02   -.698E+01 -.146E+02 -.145E+02   -.300E-01 0.252E-01 0.102E+01   -.137E-04 -.514E-06 0.533E-05
   -.475E+01 0.111E+02 -.166E+02   0.471E+01 -.118E+02 0.168E+02   0.704E+00 -.302E-01 0.805E-01   -.908E-05 -.376E-05 0.475E-05
   0.153E+01 -.161E+02 -.398E+01   -.191E+01 0.165E+02 0.484E+01   -.946E+00 -.165E+00 -.109E+01   -.100E-04 0.194E-05 0.504E-05
   0.306E+01 -.593E+01 0.132E+02   -.355E+01 0.621E+01 -.129E+02   0.305E+00 -.383E-01 -.357E+00   -.164E-05 0.337E-05 0.304E-05
   0.159E+02 0.459E+01 0.107E+03   -.157E+02 -.412E+01 -.108E+03   0.513E+00 0.820E+00 0.996E+00   -.636E-07 -.106E-05 -.689E-06
   -.475E+00 0.750E+01 0.493E+02   0.434E+00 -.712E+01 -.492E+02   0.358E+00 0.533E+00 0.436E+00   0.838E-05 -.161E-05 0.284E-06
   -.683E+00 -.145E+02 0.658E+02   0.109E+01 0.146E+02 -.652E+02   -.154E+00 -.362E+00 -.108E+01   0.819E-05 0.176E-05 0.133E-06
   0.157E+01 -.822E+01 0.628E+02   -.160E+01 0.856E+01 -.625E+02   0.208E+00 0.149E+00 -.443E+00   0.840E-05 -.707E-06 0.887E-06
   0.963E+01 0.925E+01 0.131E+03   -.102E+02 -.939E+01 -.131E+03   -.166E+00 -.124E-01 0.484E+00   0.648E-05 0.302E-06 0.412E-07
   -.951E+01 0.654E+01 0.490E+02   0.103E+02 -.633E+01 -.488E+02   0.198E+00 0.675E+00 -.251E+00   0.728E-05 -.233E-05 0.205E-05
   -.106E+02 -.833E+01 0.906E+02   0.112E+02 0.810E+01 -.902E+02   0.369E+00 -.909E-01 -.755E-01   0.766E-05 0.419E-06 0.160E-05
   -.513E+01 -.145E+02 0.545E+02   0.486E+01 0.157E+02 -.541E+02   -.875E+00 0.455E+00 -.413E+00   0.107E-04 0.405E-06 0.228E-05
   -.128E+02 0.139E+02 0.105E+03   0.132E+02 -.149E+02 -.106E+03   0.489E+00 -.731E+00 0.701E+00   0.124E-04 -.792E-06 0.260E-05
   0.200E+01 0.558E+01 0.281E+02   -.265E+01 -.559E+01 -.281E+02   -.841E+00 -.159E+00 0.165E+00   0.957E-05 0.185E-05 0.161E-05
   0.305E+01 -.189E+02 0.349E+02   -.391E+01 0.198E+02 -.346E+02   0.263E+00 0.144E-01 -.720E+00   0.131E-04 0.705E-06 0.204E-05
   -.534E+01 -.430E+01 0.685E+01   0.582E+01 0.433E+01 -.664E+01   0.595E+00 0.358E+00 -.250E+00   0.157E-05 -.596E-06 -.908E-06
   -.112E+02 0.505E+01 0.469E+02   0.113E+02 -.564E+01 -.469E+02   0.924E-01 0.112E+00 0.358E+00   0.235E-05 0.353E-05 -.582E-06
   0.935E+01 0.666E+01 -.355E+02   -.101E+02 -.579E+01 0.357E+02   0.242E-01 0.108E+01 -.466E-01   -.384E-05 0.266E-05 -.191E-05
   0.120E+01 -.172E+02 -.236E+02   -.119E+01 0.171E+02 0.241E+02   0.490E-01 -.186E-01 -.596E+00   -.621E-05 0.140E-05 -.308E-05
   -.114E+02 0.830E+01 -.399E+02   0.120E+02 -.877E+01 0.400E+02   0.281E+00 -.353E+00 -.650E-01   -.252E-05 0.362E-05 -.700E-07
   -.896E+01 -.306E+00 -.788E+01   0.852E+01 -.792E+00 0.722E+01   -.590E+00 -.653E+00 0.149E+01   -.578E-05 -.251E-05 -.118E-05
   0.206E+02 0.713E+02 -.119E+03   -.235E+02 -.729E+02 0.119E+03   0.126E+01 0.144E+01 -.672E+00   -.128E-04 0.177E-05 -.327E-05
   0.198E+02 -.724E+02 -.121E+03   -.223E+02 0.740E+02 0.121E+03   0.181E+01 -.155E+01 -.914E+00   -.149E-04 -.421E-05 -.436E-05
 -----------------------------------------------------------------------------------------------
   -.252E+00 -.166E+00 0.865E+00   0.462E-13 -.284E-13 -.583E-12   0.145E+00 0.136E+00 -.782E+00   0.141E-04 0.137E-06 0.425E-04
 
 
 POSITION                                       TOTAL-FORCE (eV/Angst)
 -----------------------------------------------------------------------------------
      4.93418      6.74456     22.52400         1.194611     -0.062268     -0.269249
      4.96047      0.01948     22.38300         1.592313      0.700330      1.220647
      6.01699      6.05411     23.07600        -1.958224      0.536507     -0.426336
      6.03885      0.72061     22.92700        -0.488097     -1.241656     -0.549046
      7.18990      6.72634     23.33500         2.103785      1.485934     -0.030058
      7.22703      0.03075     23.24100        -1.269693     -1.964249     -0.279001
      8.41102      6.08582     23.72600        -1.121314      0.746801     -0.595058
      8.36602      0.66624     23.64400         2.262027      1.403579      0.597248
      9.64104      6.77700     23.77400        -0.632356     -0.670110      0.076792
      9.63179      0.04728     23.76700         0.025965     -0.203950      0.195406
     10.85420      6.10538     23.90700         1.049622      0.473868      0.185952
     10.88000      0.69489     23.94100        -0.839258      0.317381     -0.263172
     12.11410      6.76219     23.78000        -0.582435     -1.644065     -0.275981
     12.10250      0.01541     23.73500         0.211109      1.222242      0.101735
     13.32660      6.04863     23.64400         0.947492      1.634331     -0.884945
     13.32330      0.69019     23.54000         0.731016     -0.526389     -0.156312
     14.51240      6.72766     23.15300        -0.194643     -0.205277      0.293806
     14.51740      8.09130     23.10400        -1.202863      1.710570      0.439870
     15.74430      6.11476     22.81400        -1.447479     -1.763246      0.392025
     15.71370      0.69160     22.77700        -0.397419     -1.352954      0.141900
     16.84370      6.75673     22.21200         0.021937     -1.131152      0.687600
     16.85400      0.01821     22.28500         1.153810      0.989026     -0.436287
     18.03560      6.05596     21.89200         0.878333      1.434911     -0.960982
     18.11310      0.66767     22.03200        -1.108497     -0.632546     -0.332218
     19.22830      6.72413     21.39700        -0.966722     -0.205633      0.321477
     19.27100      0.01086     21.49000        -1.631949     -0.954779      1.026375
     20.42610      6.04204     21.09600        -0.512877     -0.840573      0.328458
     20.49530      0.63276     21.35600         0.527819      0.423450     -0.448100
     21.63340      6.68937     20.83300         2.140885      0.770536     -0.539441
     21.67790      8.07204     20.96200         0.921057     -0.063581     -0.490138
     22.93380      6.03290     20.67200        -0.856381      0.874898      0.445483
     22.95480      0.65030     20.82500        -1.042224     -1.736603      0.490440
     24.19520      6.71208     20.61700        -0.085659     -0.252261     -0.305748
     24.19420      8.08483     20.65200         0.345679      0.950155      0.299175
     25.46360      6.06791     20.74800         0.452252      0.770638     -0.457840
     25.44970      0.67196     20.83500         0.451230     -1.993020      0.005469
     26.76100      6.74813     20.79700        -1.090715     -1.520845      0.677562
     26.72310      0.01169     20.90600         0.458635      0.547041     -0.244160
     27.95530      6.05867     21.17800         0.678284      1.646070     -0.251866
     27.94740      0.67442     21.26600        -0.701087     -0.660294     -0.176222
      1.16609      6.75160     21.41300        -0.898126     -0.328248      0.077224
      1.16082      0.04912     21.42800        -0.565027     -1.041744     -0.445584
      2.31177      6.07657     21.91800         1.106952      2.178478     -1.000047
      2.32902      0.73893     21.80900         1.140686     -1.056637      0.704357
      3.53097      6.78133     22.06700        -2.389105     -2.101287     -0.152292
      3.52763      0.03107     22.02800        -1.255554      1.387610     -1.105686
      4.71538      2.69489     23.16500         2.330152     -0.873734      0.672684
      4.72833      4.06145     23.20000         0.432971      0.301215      0.566405
      5.95322      2.02900     23.29100        -1.024143      1.249499     -0.059604
      5.90640      4.72063     23.40100         0.448000      0.595393      0.091951
      7.14586      2.70201     23.70200        -1.166030      0.262443      0.357612
      7.11064      4.08629     23.78000        -0.432201     -1.324511     -0.171741
      8.35010      2.02689     23.89800         1.015913      0.367375     -0.069688
      8.33870      4.72600     23.92400         1.103608      0.895498      0.527745
      9.58625      2.70852     24.16900         0.037397     -0.465903      0.020592
      9.57062      4.09063     24.17600         0.731341     -0.458191     -0.274536
     10.86340      2.06511     24.15800        -0.425947     -1.031683     -0.643410
     10.84530      4.75958     24.11200        -0.576846     -1.067735      0.022729
     12.10360      2.71345     24.05100         0.559150     -0.781953      0.355237
     12.08000      4.06981     24.05300         1.357267      0.831708      0.103378
     13.35370      2.04995     23.76800        -0.351504     -0.249981     -0.197171
     13.35400      4.69369     23.80200        -0.920516      0.548333      0.199571
     14.59340      2.68914     23.54400         0.553702     -0.024891     -0.361113
     14.59400      4.07029     23.56700         0.419623     -0.240520     -0.064273
     15.77140      2.02294     23.05300        -0.423327      1.142787      0.388153
     15.76180      4.74561     23.11300         1.440275      0.211601     -0.850486
     16.97920      2.69545     22.74000        -0.405117     -0.294531      0.436530
     16.98100      4.07188     22.74300        -0.244944      0.495972     -0.275405
     18.12360      2.01354     22.29000         1.010485      0.250942     -0.433806
     18.11400      4.72106     22.13000        -0.366703     -0.895046      0.942871
     19.32270      2.67628     21.93500         0.663606     -0.645244      0.285358
     19.33950      4.04136     21.85200        -1.323859      0.241431     -0.236497
     20.51180      1.99298     21.56200        -0.184595      0.242852     -0.050773
     20.46360      4.66009     21.31500         0.710606      1.296237      0.184441
     21.71890      2.64150     21.28500         0.317849      0.905969      0.520880
     21.71100      4.02213     21.20000         0.254491     -0.281840     -0.528053
     22.95000      1.98236     21.08700         0.179430      0.491489     -0.158919
     22.93960      4.68039     20.89200        -0.693794     -0.147192      0.142619
     24.18380      2.64594     21.09200         0.965795      0.888369      0.034460
     24.17120      4.03126     20.97800         0.984230     -0.321113      0.296879
     25.45890      1.98984     21.11300        -1.152414      1.641912     -0.057723
     25.42010      4.72488     20.96400         0.909564     -1.692110      0.570787
     26.68050      2.67806     21.35100        -1.485430     -0.165444      0.161625
     26.65700      4.04656     21.30600        -0.590658      0.971943     -0.434729
     27.87160      2.00521     21.56400         1.072498      0.379962     -0.044953
     27.89100      4.71919     21.46000         0.229973     -0.479531      0.314161
      1.00838      2.66648     21.96400        -0.697705      1.944177      0.114575
      1.01665      4.06205     21.92800         0.064100     -0.128861     -0.062209
      2.22203      2.04664     22.23100         0.883787     -0.818853      0.006104
      2.25577      4.75510     22.18600        -1.031447     -1.749671      0.822822
      3.30816      2.70390     22.78600        -1.644037     -0.183174     -0.501734
      3.30478      4.08521     22.78700        -0.692390      0.113617     -0.296578
 -----------------------------------------------------------------------------------
    total drift:                               -0.107377     -0.030077      0.082492


--------------------------------------------------------------------------------------------------------



  FREE ENERGIE OF THE ION-ELECTRON SYSTEM (eV)
  ---------------------------------------------------
  free  energy   TOTEN  =      -831.96878634 eV

  energy  without entropy=     -831.90664996  energy(sigma->0) =     -831.93771815
 


--------------------------------------------------------------------------------------------------------


    POTLOK:  cpu time      0.4540: real time      0.4540


--------------------------------------------------------------------------------------------------------


     LOOP+:  cpu time    330.1471: real time    330.3536
    4ORBIT:  cpu time      0.0000: real time      0.0000

 total amount of memory used by VASP MPI-rank0  2294519. kBytes
=======================================================================

   base                                    :      30000. kBytes
   nonlr-proj                              :      15085. kBytes
   fftplans                                :     436558. kBytes
   grid                                    :     732614. kBytes
   one-center                              :        282. kBytes
   wavefun                                 :    1079980. kBytes
 
  
  
 General timing and accounting informations for this job:
 ========================================================
  
                  Total CPU time used (sec):      363.503
                            User time (sec):      355.083
                          System time (sec):        8.420
                         Elapsed time (sec):      363.792
  
                   Maximum memory used (kb):     3733556.
                   Average memory used (kb):          N/A
  
                          Minor page faults:      3178481
                          Major page faults:         6703
                 Voluntary context switches:        10209
