unknown system                          
            1
    28.050000    0.000000    0.000000
     0.000000    8.100000    0.000000
     0.000000    0.000000   33.500000
   C 
    92
Direct configuration=     1
   0.17590660  0.83266173  0.67235821
   0.17684385  0.00240437  0.66814925
   0.21450945  0.74742099  0.68883582
   0.21528877  0.08896432  0.68438806
   0.25632442  0.83041235  0.69656716
   0.25764813  0.00379674  0.69376119
   0.29985811  0.75133580  0.70823881
   0.29825383  0.08225185  0.70579104
   0.34370909  0.83666667  0.70967164
   0.34337932  0.00583669  0.70946269
   0.38695900  0.75375062  0.71364179
   0.38787879  0.08578840  0.71465672
   0.43187522  0.83483827  0.70985075
   0.43146168  0.00190204  0.70850746
   0.47510160  0.74674444  0.70579104
   0.47498396  0.08520889  0.70268657
   0.51737611  0.83057531  0.69113433
   0.51755437  0.99892593  0.68967164
   0.56129412  0.75490864  0.68101493
   0.56020321  0.08538222  0.67991045
   0.60048841  0.83416420  0.66304478
   0.60085561  0.00224830  0.66522388
   0.64298039  0.74764938  0.65349254
   0.64574332  0.08242852  0.65767164
   0.68550089  0.83013951  0.63871642
   0.68702317  0.00134063  0.64149254
   0.72820321  0.74593086  0.62973134
   0.73067023  0.07811877  0.63749254
   0.77124421  0.82584815  0.62188060
   0.77283066  0.99654815  0.62573134
   0.81760428  0.74480247  0.61707463
   0.81835294  0.08028346  0.62164179
   0.86257398  0.82865185  0.61543284
   0.86253832  0.99812716  0.61647761
   0.90779323  0.74912469  0.61934328
   0.90729768  0.08295802  0.62194030
   0.95404635  0.83310247  0.62080597
   0.95269519  0.00144291  0.62405970
   0.99662389  0.74798395  0.63217910
   0.99634225  0.08326173  0.63480597
   0.04157184  0.83353086  0.63919403
   0.04138396  0.00606406  0.63964179
   0.08241604  0.75019383  0.65426866
   0.08303102  0.09122630  0.65101493
   0.12588128  0.83720123  0.65871642
   0.12576221  0.00383640  0.65755224
   0.16810624  0.33270247  0.69149254
   0.16856791  0.50141358  0.69253731
   0.21223601  0.25049383  0.69525373
   0.21056684  0.58279383  0.69853731
   0.25475437  0.33358148  0.70752239
   0.25349875  0.50448025  0.70985075
   0.29768627  0.25023333  0.71337313
   0.29727986  0.58345679  0.71414925
   0.34175579  0.33438519  0.72146269
   0.34119857  0.50501605  0.72167164
   0.38728699  0.25495185  0.72113433
   0.38664171  0.58760247  0.71976119
   0.43150089  0.33499383  0.71794030
   0.43065954  0.50244568  0.71800000
   0.47606774  0.25308025  0.70949254
   0.47607843  0.57946790  0.71050746
   0.52026381  0.33199259  0.70280597
   0.52028520  0.50250494  0.70349254
   0.56226025  0.24974568  0.68814925
   0.56191800  0.58587778  0.68994030
   0.60531907  0.33277160  0.67880597
   0.60538324  0.50270123  0.67889552
   0.64611765  0.24858519  0.66537313
   0.64577540  0.58284691  0.66059701
   0.68886631  0.33040494  0.65477612
   0.68946524  0.49893333  0.65229851
   0.73125847  0.24604691  0.64364179
   0.72954011  0.57531975  0.63626866
   0.77429234  0.32611111  0.63537313
   0.77401070  0.49655926  0.63283582
   0.81818182  0.24473580  0.62946269
   0.81781105  0.57782593  0.62364179
   0.86216756  0.32665926  0.62961194
   0.86171836  0.49768642  0.62620896
   0.90762567  0.24565926  0.63023881
   0.90624242  0.58331852  0.62579104
   0.95117647  0.33062469  0.63734328
   0.95033868  0.49957531  0.63600000
   0.99363993  0.24755679  0.64370149
   0.99433155  0.58261605  0.64059701
   0.03594938  0.32919506  0.65564179
   0.03624421  0.50148765  0.65456716
   0.07921676  0.25267160  0.66361194
   0.08041961  0.58704938  0.66226866
   0.11793797  0.33381481  0.68017910
   0.11781747  0.50434691  0.68020896
