 vasp.6.5.0 16Dec24 (build Feb 19 2025 19:45:31) complex                         
 executed on              LinuxNV date 2025.10.25  17:12:12
 running    2 mpi-ranks, on    1 nodes
 distrk:  each k-point on    2 cores,    1 groups
 distr:  one band on NCORE=   1 cores,    2 groups
 Offloading initialized ...    2 GPUs detected


--------------------------------------------------------------------------------------------------------


 INCAR:
   ISTART = 0            (Not Read existing wavefunction
   ISPIN = 1            (Non-Spin polarised DFT, Default\=1)
   ICHARG = 2            (The initial guess charge density is generated by superposition of atomic charge density)
   LREAL = Auto         (Projection operators: automatic)
   ENCUT = 500          (Cut-off energy for plane wave basis set, in eV)
   LWAVE = .FALSE.       (Write WAVECAR or not)
   LCHARG = .FALSE.       (Write CHGCAR or not)
   PREC = Accurate   (Precision level)
   KGAMMA = .TRUE.
   ALGO = Normal
   NSW = 0           (Default: NSW \= 0)
   IBRION = -1           (Ions are not moved)
   ISMEAR = 0
   EDIFF = 1E-06        (SCF energy convergence
   NELM = 150          (Max electronic SCF steps)

 POTCAR:    PAW_PBE C 08Apr2002                   
 POTCAR:    PAW_PBE C 08Apr2002                   
   SHA256 =  253f7b50bb8d59471dbedb8285d89021f4a42ed1a2c5d38a03a736e69125dd95 C/POTCAR              
   COPYR  = (c) Copyright 08Apr2002 Georg Kresse                                                    
   COPYR  = This file is part of the software VASP. Any use, copying, and all other rights are regul
   COPYR  = If you do not have a valid VASP license, you may not use, copy or distribute this file. 
   VRHFIN =C: s2p2                                                                                  
   LEXCH  = PE                                                                                      
   EATOM  =   147.1560 eV,   10.8157 Ry                                                             
                                                                                                    
   TITEL  = PAW_PBE C 08Apr2002                                                                     
   LULTRA =        F    use ultrasoft PP ?                                                          
   IUNSCR =        1    unscreen: 0-lin 1-nonlin 2-no                                               
   RPACOR =    1.200    partial core radius                                                         
   POMASS =   12.011; ZVAL   =    4.000    mass and valenz                                          
   RCORE  =    1.500    outmost cutoff radius                                                       
   RWIGS  =    1.630; RWIGS  =    0.863    wigner-seitz radius (au A)                               
   ENMAX  =  400.000; ENMIN  =  300.000 eV                                                          
   ICORE  =        2    local potential                                                             
   LCOR   =        T    correct aug charges                                                         
   LPAW   =        T    paw PP                                                                      
   EAUG   =  644.873                                                                                
   DEXC   =    0.000                                                                                
   RMAX   =    1.529    core radius for proj-oper                                                   
   RAUG   =    1.300    factor for augmentation sphere                                              
   RDEP   =    1.501    radius for radial grids                                                     
   RDEPT  =    1.300    core radius for aug-charge                                                  
                                                                                                    
   Atomic configuration                                                                             
    4 entries                                                                                       
     n  l   j            E        occ.                                                              
     1  0  0.50      -273.3789   2.0000                                                             
     2  0  0.50       -13.7508   2.0000                                                             
     2  1  0.50        -5.2854   2.0000                                                             
     3  2  1.50        -5.4423   0.0000                                                             
   Description                                                                                      
     l       E           TYP  RCUT    TYP  RCUT                                                     
     0    -13.7508458     23  1.200                                                                 
     0     -8.2022199     23  1.200                                                                 
     1     -5.2854383     23  1.500                                                                 
     1     34.0145650     23  1.500                                                                 
     2     -5.4423304      7  1.500                                                                 
  local pseudopotential read in
  partial core-charges read in
  partial kinetic energy density read in
  atomic valenz-charges read in
  non local Contribution for L=            0  read in
    real space projection operators read in
  non local Contribution for L=            0  read in
    real space projection operators read in
  non local Contribution for L=            1  read in
    real space projection operators read in
  non local Contribution for L=            1  read in
    real space projection operators read in
    PAW grid and wavefunctions read in
 
   number of l-projection  operators is LMAX  =            4
   number of lm-projection operators is LMMAX =            8
 
 Optimization of the real space projectors (new method)

 maximal supplied QI-value         = 25.13
 optimisation between [QCUT,QGAM] = [ 11.31, 22.87] = [ 35.82,146.48] Ry 
 Optimized for a Real-space Cutoff    1.03 Angstroem

   l    n(q)    QCUT    max X(q) W(low)/X(q) W(high)/X(q)  e(spline) 
   0      7    11.310   115.676    0.20E-03    0.90E-03    0.20E-06
   0      7    11.310    87.132    0.20E-03    0.89E-03    0.19E-06
   1      6    11.310     4.429    0.16E-03    0.28E-03    0.12E-06
   1      6    11.310     2.733    0.12E-03    0.21E-03    0.99E-07
  PAW_PBE C 08Apr2002                   :
 energy of atom  1       EATOM= -147.1560
 kinetic energy error for atom=    0.0076 (will be added to EATOM!!)
 
 
 POSCAR:  C
  positions in cartesian coordinates
  No initial velocities read in


 exchange-correlation table for PE
   RHO(1)=    0.500       N(1)  =     2000
   RHO(2)=  100.500       N(2)  =     4000
 


--------------------------------------------------------------------------------------------------------


 ion  position               nearest neighbor table
   1  0.009  0.099  0.454-   3 1.37  45 1.42   2 1.45
   2  0.008  0.278  0.452-  46 1.39   4 1.41   1 1.45  45 1.91
   3  0.050  0.018  0.465-  50 1.36   1 1.37   5 1.46
   4  0.052  0.360  0.455-  49 1.34   2 1.41   6 1.45
   5  0.094  0.104  0.474-   7 1.39   6 1.39   3 1.46
   6  0.094  0.275  0.470-   5 1.39   8 1.43   4 1.45
   7  0.136  0.021  0.486-   5 1.39  54 1.43   9 1.45
   8  0.139  0.350  0.476-  53 1.38   6 1.43  10 1.46
   9  0.181  0.099  0.495-  10 1.38  11 1.39   7 1.45
  10  0.182  0.268  0.491-   9 1.38  12 1.42   8 1.46
  11  0.221  0.016  0.509-   9 1.39  58 1.40  13 1.42
  12  0.226  0.347  0.499-  57 1.37  10 1.42  14 1.45
  13  0.263  0.095  0.522-  14 1.36  11 1.42  15 1.42
  14  0.266  0.261  0.517-  13 1.36  16 1.43  12 1.45
  15  0.307  0.017  0.533-  62 1.34  13 1.42  17 1.44
  16  0.308  0.344  0.530-  61 1.42  14 1.43  18 1.44
  17  0.350  0.098  0.544-  18 1.37  19 1.40  15 1.44
  18  0.352  0.267  0.544-  17 1.37  16 1.44  20 1.47
  19  0.395  0.020  0.547-  66 1.34  17 1.40  21 1.46
  20  0.398  0.354  0.549-  65 1.38  22 1.41  18 1.47
  21  0.441  0.102  0.551-  23 1.38  22 1.38  19 1.46
  22  0.442  0.272  0.551-  21 1.38  24 1.40  20 1.41
  23  0.485  0.030  0.550-  70 1.37  21 1.38  25 1.40
  24  0.485  0.357  0.547-  69 1.37  22 1.40  26 1.47
  25  0.530  0.109  0.547-  26 1.36  23 1.40  27 1.42
  26  0.532  0.276  0.544-  25 1.36  24 1.47  28 1.47
  27  0.573  0.031  0.538-  74 1.38  25 1.42  29 1.44
  28  0.576  0.361  0.533-  73 1.36  30 1.43  26 1.47
  29  0.619  0.106  0.529-  30 1.35  27 1.44  31 1.47
  30  0.619  0.272  0.525-  29 1.35  28 1.43  32 1.47
  31  0.662  0.025  0.513-  33 1.36  78 1.37  29 1.47
  32  0.660  0.362  0.508-  34 1.36  77 1.38  30 1.47
  33  0.702  0.112  0.504-  31 1.36  34 1.38  35 1.49
  34  0.702  0.281  0.501-  32 1.36  33 1.38  36 1.44
  35  0.744  0.028  0.487-  82 1.36  37 1.42  33 1.49
  36  0.744  0.364  0.487-  81 1.35  34 1.44  38 1.45
  37  0.788  0.110  0.479-  38 1.34  39 1.41  35 1.42
  38  0.787  0.275  0.477-  37 1.34  40 1.45  36 1.45
  39  0.828  0.026  0.463-  86 1.38  37 1.41  41 1.46
  40  0.830  0.365  0.464-  85 1.35  42 1.39  38 1.45
  41  0.873  0.113  0.458-  42 1.40  43 1.45  39 1.46
  42  0.872  0.286  0.456-  40 1.39  41 1.40  44 1.42
  43  0.916  0.028  0.446-  90 1.33  45 1.40  41 1.45
  44  0.916  0.364  0.445-  46 1.39  89 1.40  42 1.42
  45  0.960  0.113  0.446-  46 1.39  43 1.40   1 1.42   2 1.91
  46  0.960  0.283  0.442-  45 1.39   2 1.39  44 1.39
  47  0.012  0.610  0.438-  48 1.39  49 1.43  91 1.49  92 2.07
  48  0.014  0.781  0.443-  50 1.37  47 1.39  92 1.56  91 2.06
  49  0.054  0.525  0.451-   4 1.34  47 1.43  51 1.45
  50  0.054  0.852  0.459-   3 1.36  48 1.37  52 1.41
  51  0.100  0.599  0.460-  52 1.35  49 1.45  53 1.45
  52  0.097  0.765  0.465-  51 1.35  54 1.39  50 1.41
  53  0.144  0.520  0.472-  55 1.38   8 1.38  51 1.45
  54  0.136  0.846  0.480-  52 1.39   7 1.43  56 1.43
  55  0.183  0.600  0.487-  53 1.38  56 1.39  57 1.44
  56  0.181  0.772  0.489-  55 1.39  58 1.41  54 1.43
  57  0.225  0.516  0.501-  12 1.37  59 1.41  55 1.44
  58  0.223  0.844  0.505-  60 1.39  11 1.40  56 1.41
  59  0.266  0.599  0.515-  60 1.37  61 1.40  57 1.41
  60  0.264  0.766  0.519-  59 1.37  58 1.39  62 1.47
  61  0.307  0.519  0.528-  59 1.40  16 1.42  63 1.49
  62  0.309  0.851  0.530-  15 1.34  64 1.40  60 1.47
  63  0.353  0.605  0.537-  64 1.34  65 1.42  61 1.49
  64  0.351  0.769  0.540-  63 1.34  62 1.40  66 1.42
  65  0.397  0.523  0.546-  20 1.38  63 1.42  67 1.45
  66  0.395  0.854  0.548-  19 1.34  68 1.41  64 1.42
  67  0.442  0.610  0.548-  68 1.38  69 1.41  65 1.45
  68  0.440  0.779  0.548-  67 1.38  70 1.40  66 1.41
  69  0.486  0.526  0.546-  24 1.37  71 1.38  67 1.41
  70  0.484  0.862  0.550-  23 1.37  68 1.40  72 1.47
  71  0.529  0.609  0.542-  72 1.36  69 1.38  73 1.45
  72  0.529  0.777  0.539-  71 1.36  74 1.42  70 1.47
  73  0.574  0.529  0.532-  28 1.36  75 1.39  71 1.45
  74  0.572  0.862  0.532-  27 1.38  76 1.42  72 1.42
  75  0.613  0.612  0.515-  76 1.36  73 1.39  77 1.46
  76  0.612  0.779  0.516-  75 1.36  74 1.42  78 1.49
  77  0.656  0.530  0.502-  32 1.38  79 1.43  75 1.46
  78  0.658  0.861  0.503-  31 1.37  80 1.43  76 1.49
  79  0.699  0.610  0.490-  80 1.36  81 1.43  77 1.43
  80  0.700  0.778  0.491-  79 1.36  78 1.43  82 1.43
  81  0.742  0.527  0.479-  36 1.35  83 1.41  79 1.43
  82  0.743  0.863  0.480-  35 1.36  84 1.39  80 1.43
  83  0.783  0.606  0.464-  84 1.37  85 1.39  81 1.41
  84  0.781  0.775  0.464-  83 1.37  82 1.39  86 1.49
  85  0.827  0.529  0.457-  40 1.35  83 1.39  87 1.41
  86  0.827  0.858  0.456-  39 1.38  88 1.38  84 1.49
  87  0.869  0.616  0.446-  88 1.35  85 1.41  89 1.45
  88  0.870  0.783  0.447-  87 1.35  86 1.38  90 1.42
  89  0.915  0.536  0.440-  91 1.40  44 1.40  87 1.45
  90  0.915  0.864  0.443-  43 1.33  92 1.41  88 1.42
  91  0.959  0.614  0.437-  92 1.39  89 1.40  47 1.49  48 2.06
  92  0.959  0.786  0.436-  91 1.39  90 1.41  48 1.56  47 2.07
 
  LATTYP: Found a simple orthorhombic cell.
 ALAT       =     8.1000000000
 B/A-ratio  =     3.4629629630
 C/A-ratio  =     4.1358024691
  
  Lattice vectors:
  
 A1 = (   0.0000000000,  -8.1000000000,   0.0000000000)
 A2 = (  28.0500000000,   0.0000000000,   0.0000000000)
 A3 = (   0.0000000000,   0.0000000000,  33.5000000000)


Analysis of symmetry for initial positions (statically):
=====================================================================
 Subroutine PRICEL returns:
 Original cell was already a primitive cell.
 

 Routine SETGRP: Setting up the symmetry group for a 
 simple orthorhombic supercell.


 Subroutine GETGRP returns: Found  1 space group operations
 (whereof  1 operations were pure point group operations)
 out of a pool of  8 trial point group operations.


The static configuration has the point symmetry C_1 .


Analysis of symmetry for dynamics (positions and initial velocities):
=====================================================================
 Subroutine PRICEL returns:
 Original cell was already a primitive cell.
 

 Routine SETGRP: Setting up the symmetry group for a 
 simple orthorhombic supercell.


 Subroutine GETGRP returns: Found  1 space group operations
 (whereof  1 operations were pure point group operations)
 out of a pool of  8 trial point group operations.


The dynamic configuration has the point symmetry C_1 .


 Subroutine INISYM returns: Found  1 space group operations
 (whereof  1 operations are pure point group operations),
 and found     1 'primitive' translations


----------------------------------------------------------------------------------------

                                     Primitive cell                                     

  volume of cell :    7611.3675

  direct lattice vectors                    reciprocal lattice vectors
    28.050000000  0.000000000  0.000000000     0.035650624  0.000000000  0.000000000
     0.000000000  8.100000000  0.000000000     0.000000000  0.123456790  0.000000000
     0.000000000  0.000000000 33.500000000     0.000000000  0.000000000  0.029850746

  length of vectors
    28.050000000  8.100000000 33.500000000     0.035650624  0.123456790  0.029850746

  position of ions in fractional coordinates (direct lattice)
     0.009394545  0.099309136  0.454355224
     0.007626702  0.278106173  0.452116418
     0.050071301  0.018195556  0.465438806
     0.051664171  0.360450617  0.454967164
     0.094482709  0.104105185  0.474441791
     0.093807843  0.275054321  0.469564179
     0.135813904  0.020912099  0.485829851
     0.139272371  0.350332099  0.475859701
     0.181031373  0.098531481  0.495086567
     0.181688414  0.268264198  0.491253731
     0.221110517  0.015699630  0.508883582
     0.225821747  0.346591358  0.499286567
     0.263489483  0.094879506  0.521844776
     0.266187166  0.261412346  0.517000000
     0.306734403  0.016636543  0.533089552
     0.308358645  0.344113580  0.530128358
     0.350284135  0.097728642  0.544179104
     0.351664528  0.267306173  0.544029851
     0.394538324  0.019926543  0.547480597
     0.397586453  0.353516049  0.548779104
     0.440641711  0.101911605  0.550850746
     0.441893048  0.272397531  0.551089552
     0.485208556  0.030185926  0.549537313
     0.485265597  0.356979012  0.547059701
     0.529686275  0.108953951  0.547435821
     0.531764706  0.275764198  0.543713433
     0.573493761  0.031368519  0.537928358
     0.575942959  0.360858025  0.532602985
     0.618926916  0.105899259  0.529137313
     0.618859180  0.272056790  0.524516418
     0.661704100  0.025121728  0.512776119
     0.660156863  0.362225926  0.508226866
     0.701871658  0.111519136  0.504053731
     0.701853832  0.281435802  0.501429851
     0.744463458  0.028462099  0.486555224
     0.744103387  0.363912346  0.487023881
     0.788231729  0.110008395  0.478567164
     0.787297683  0.274823457  0.476516418
     0.828146168  0.025586049  0.462955224
     0.829504456  0.365417284  0.464119403
     0.873226381  0.113140741  0.457677612
     0.872249554  0.285703704  0.455600000
     0.916438503  0.027579877  0.446331343
     0.915928699  0.364439506  0.445158209
     0.959796791  0.112591235  0.446423881
     0.959504456  0.282951852  0.442364179
     0.012256114  0.609941975  0.437811940
     0.014097469  0.780530864  0.442997015
     0.053817112  0.525013580  0.451280597
     0.053783244  0.852104938  0.459394030
     0.099669519  0.599233333  0.460011940
     0.096889127  0.765141975  0.464558209
     0.143893405  0.519609877  0.471555224
     0.136321569  0.845756790  0.480334328
     0.183029947  0.599846914  0.487414925
     0.181438146  0.771644444  0.489349254
     0.225121925  0.515675309  0.500844776
     0.223013547  0.843511111  0.505486567
     0.266183601  0.598996296  0.514513433
     0.264405348  0.766471605  0.519008955
     0.307408913  0.518798765  0.528247761
     0.308884135  0.851224691  0.530379104
     0.353393939  0.604837037  0.536635821
     0.351176471  0.769172840  0.540405970
     0.396795009  0.523274074  0.546095522
     0.394723708  0.854020988  0.547916418
     0.442032086  0.609687654  0.547829851
     0.440199643  0.779413580  0.548444776
     0.486217469  0.526270370  0.546364179
     0.484263815  0.861530864  0.549671642
     0.529005348  0.608864198  0.541725373
     0.528848485  0.776637037  0.539394030
     0.573675579  0.528770370  0.531722388
     0.572242424  0.862170370  0.532361194
     0.612655971  0.611576543  0.515468657
     0.612356506  0.779182716  0.516232836
     0.656192513  0.529693827  0.501650746
     0.657593583  0.861267901  0.503486567
     0.699404635  0.610149383  0.489802985
     0.699971480  0.777806173  0.491417910
     0.742235294  0.527107407  0.478662687
     0.742855615  0.862591358  0.480301493
     0.783286988  0.605641975  0.463695522
     0.780709447  0.774781481  0.463946269
     0.827069519  0.529490123  0.457107463
     0.827133690  0.857701235  0.456095522
     0.868816399  0.616262963  0.446388060
     0.870117647  0.782685185  0.446886567
     0.914524064  0.536222222  0.440310448
     0.914855615  0.863717284  0.443262687
     0.958980392  0.613733333  0.437331343
     0.958962567  0.785820988  0.436089552

  ion indices of the primitive-cell ions
   primitive index   ion index
                 1           1
                 2           2
                 3           3
                 4           4
                 5           5
                 6           6
                 7           7
                 8           8
                 9           9
                10          10
                11          11
                12          12
                13          13
                14          14
                15          15
                16          16
                17          17
                18          18
                19          19
                20          20
                21          21
                22          22
                23          23
                24          24
                25          25
                26          26
                27          27
                28          28
                29          29
                30          30
                31          31
                32          32
                33          33
                34          34
                35          35
                36          36
                37          37
                38          38
                39          39
                40          40
                41          41
                42          42
                43          43
                44          44
                45          45
                46          46
                47          47
                48          48
                49          49
                50          50
                51          51
                52          52
                53          53
                54          54
                55          55
                56          56
                57          57
                58          58
                59          59
                60          60
                61          61
                62          62
                63          63
                64          64
                65          65
                66          66
                67          67
                68          68
                69          69
                70          70
                71          71
                72          72
                73          73
                74          74
                75          75
                76          76
                77          77
                78          78
                79          79
                80          80
                81          81
                82          82
                83          83
                84          84
                85          85
                86          86
                87          87
                88          88
                89          89
                90          90
                91          91
                92          92

----------------------------------------------------------------------------------------

 
 
 KPOINTS: K-Spacing Value to Generate K-Mesh: 0.03

Automatic generation of k-mesh.
 Grid dimensions read from file:
 generate k-points for:    1    4    1

 Generating k-lattice:

  Cartesian coordinates                     Fractional coordinates (reciprocal lattice)
     0.035650624  0.000000000  0.000000000     1.000000000  0.000000000  0.000000000
     0.000000000  0.030864198  0.000000000     0.000000000  0.250000000  0.000000000
     0.000000000  0.000000000  0.029850746     0.000000000  0.000000000  1.000000000

  Length of vectors
     0.035650624  0.030864198  0.029850746

  Shift w.r.t. Gamma in fractional coordinates (k-lattice)
     0.000000000  0.000000000  0.000000000

 
 Subroutine IBZKPT returns following result:
 ===========================================
 
 Found      3 irreducible k-points:
 
 Following reciprocal coordinates:
            Coordinates               Weight
  0.000000  0.000000  0.000000      1.000000
  0.000000  0.250000  0.000000      2.000000
  0.000000  0.500000  0.000000      1.000000
 
 Following cartesian coordinates:
            Coordinates               Weight
  0.000000  0.000000  0.000000      1.000000
  0.000000  0.030864  0.000000      2.000000
  0.000000  0.061728  0.000000      1.000000
 


--------------------------------------------------------------------------------------------------------




 Dimension of arrays:
   k-points           NKPTS =      3   k-points in BZ     NKDIM =      3   number of bands    NBANDS=    232
   number of dos      NEDOS =    301   number of ions     NIONS =     92
   non local maximal  LDIM  =      4   non local SUM 2l+1 LMDIM =      8
   total plane-waves  NPLWV = ******
   max r-space proj   IRMAX =   1967   max aug-charges    IRDMAX=   5083
   dimension x,y,z NGX =   210 NGY =   60 NGZ =  250
   dimension x,y,z NGXF=   420 NGYF=  120 NGZF=  500
   support grid    NGXF=   420 NGYF=  120 NGZF=  500
   ions per type =              92
   NGX,Y,Z   is equivalent  to a cutoff of  12.45, 12.31, 12.41 a.u.
   NGXF,Y,Z  is equivalent  to a cutoff of  24.89, 24.63, 24.81 a.u.

 SYSTEM =  unknown system                          
 POSCAR =   C                                      

 Startparameter for this run:
   NWRITE =      2    write-flag & timer
   PREC   = accura    normal or accurate (medium, high low for compatibility)
   ISTART =      0    job   : 0-new  1-cont  2-samecut
   ICHARG =      2    charge: 1-file 2-atom 10-const
   ISPIN  =      1    spin polarized calculation?
   LNONCOLLINEAR =      F non collinear calculations
   LSORBIT =      F    spin-orbit coupling
   INIWAV =      1    electr: 0-lowe 1-rand  2-diag
   LASPH  =      F    aspherical Exc in radial PAW
 Electronic Relaxation 1
   ENCUT  =  500.0 eV  36.75 Ry    6.06 a.u.  51.14 14.77 61.08*2*pi/ulx,y,z
   ENINI  =  500.0     initial cutoff
   ENAUG  =  644.9 eV  augmentation charge cutoff
   NELM   =    150;   NELMIN=  2; NELMDL= -5     # of ELM steps 
   EDIFF  = 0.1E-05   stopping-criterion for ELM
   LREAL  =      T    real-space projection
   NLSPLINE    = F    spline interpolate recip. space projectors
   LCOMPAT=      F    compatible to vasp.4.4
   GGA_COMPAT  = T    GGA compatible to vasp.4.4-vasp.4.6
   LMAXPAW     = -100 max onsite density
   LMAXMIX     =    2 max onsite mixed and CHGCAR
   VOSKOWN=      0    Vosko Wilk Nusair interpolation
   ROPT   =   -0.00025
 Ionic relaxation
   EDIFFG = 0.1E-04   stopping-criterion for IOM
   NSW    =      0    number of steps for IOM
   NBLOCK =      1;   KBLOCK =      1    inner block; outer block 
   IBRION =     -1    ionic relax: 0-MD 1-quasi-New 2-CG
   NFREE  =      0    steps in history (QN), initial steepest desc. (CG)
   ISIF   =      2    stress and relaxation
   IWAVPR =     10    prediction:  0-non 1-charg 2-wave 3-comb
   ISYM   =      2    0-nonsym 1-usesym 2-fastsym
   LCORR  =      T    Harris-Foulkes like correction to forces

   POTIM  = 0.5000    time-step for ionic-motion
   TEIN   =    0.0    initial temperature
   TEBEG  =    0.0;   TEEND  =   0.0 temperature during run
   SMASS  =  -3.00    Nose mass-parameter (am)
   estimated Nose-frequenzy (Omega)   =  0.10E-29 period in steps = 0.13E+47 mass=  -0.180E-25a.u.
   SCALEE = 1.0000    scale energy and forces
   NPACO  =    256;   APACO  = 10.0  distance and # of slots for P.C.
   PSTRESS=    0.0 pullay stress

  Mass of Ions in am
   POMASS =  12.01
  Ionic Valenz
   ZVAL   =   4.00
  Atomic Wigner-Seitz radii
   RWIGS  =  -1.00
  virtual crystal weights 
   VCA    =   1.00
   NELECT =     368.0000    total number of electrons
   NUPDOWN=      -1.0000    fix difference up-down

 DOS related values:
   EMIN   =  10.00;   EMAX   =-10.00  energy-range for DOS
   EFERMI =   0.00;   METHOD = LEGACY      
   ISMEAR =     0;   SIGMA  =   0.20  broadening in eV -4-tet -1-fermi 0-gaus
   EFERMI_NEDOS =   21; number of points for ismear=-14 and -15

 Electronic relaxation 2 (details)
   IALGO  =     38    algorithm
   LDIAG  =      T    sub-space diagonalisation (order eigenvalues)
   LSUBROT=      F    optimize rotation matrix (better conditioning)
   TURBO    =      0    0=normal 1=particle mesh
   IRESTART =      0    0=no restart 2=restart with 2 vectors
   NREBOOT  =      0    no. of reboots
   NMIN     =      0    reboot dimension
   EREF     =   0.00    reference energy to select bands
   IMIX   =      4    mixing-type and parameters
     AMIX     =   0.40;   BMIX     =  1.00
     AMIX_MAG =   1.60;   BMIX_MAG =  1.00
     AMIN     =   0.10
     WC   =   100.;   INIMIX=   1;  MIXPRE=   1;  MAXMIX= -45

 Intra band minimization:
   WEIMIN = 0.0000     energy-eigenvalue tresh-hold
   EBREAK =  0.11E-08  absolut break condition
   DEPER  =   0.30     relativ break condition  

   TIME   =   0.40     timestep for ELM

  volume/ion in A,a.u.               =      82.73       558.30
  Fermi-wavevector in a.u.,A,eV,Ry     =   0.596398  1.127030  4.839472  0.355691
  Thomas-Fermi vector in A             =   1.646729
 
 Write flags
   LWAVE        =      F    write WAVECAR
   LDOWNSAMPLE  =      F    k-point downsampling of WAVECAR
   LCHARG       =      F    write CHGCAR
   LVTOT        =      F    write LOCPOT, total local potential
   LVHAR        =      F    write LOCPOT, Hartree potential only
   WRT_POTENTIAL= false  ! write potential to hdf5 file
   LELF         =      F    write electronic localiz. function (ELF)
   LORBIT       =      0    0 simple, 1 ext, 2 COOP (PROOUT), +10 PAW based schemes


 Python interface
   PLUGINS active      =      F    recompile with -DPLUGINS to activate
 
 Dipole corrections
   LMONO      =      F    monopole corrections only (constant potential shift)
   LDIPOL     =      F    correct potential (dipole corrections)
   IDIPOL     =      0    1-x, 2-y, 3-z, 4-all directions 
   EPSILON    =  1.0000000 bulk dielectric constant
   LVACPOTAV  =      F  vacuum potentials using an averaging scheme for the charge density
   VACPOTFLAT =  0.1000000 required flatness to determine vacuum potential
 
Coulomb truncation method
  LTRUNCATE          =      F  Coulomb kernel truncation to be used
  IDIMENSIONALITY    =      3  Dimensionality of cutoff (0 molecules / 2 surfaces)
  ISURFACE           =     -1  Direction of surface normal
  LCOARSEN           =      F  Coarsen the charge grid before padding, preferred

 
 Exchange correlation treatment:
   GGA     = PE    functional components
   XC_C    = 1    coefficients multiplying the functional components
   LIBXC   =     F    Libxc                    
   VOSKOWN =     0    Vosko Wilk Nusair interpolation
   LHFCALC =     F    Hartree Fock is set to
   LHFONE  =     F    Hartree Fock one center treatment
   AEXX    =    0.0000 exact exchange contribution

 Parameters of functionals:
   PE:
     No parameter
 
 Van der Waals corrections
   IVDW    =     0    specifies the selected vdW correction

 Linear response parameters
   LEPSILON=     F    determine dielectric tensor
   LRPA    =     F    only Hartree local field effects (RPA)
   LNABLA  =     F    use nabla operator in PAW spheres
   LVEL    =     F    velocity operator in full k-point grid
   CSHIFT  =0.1000    complex shift for real part using Kramers Kronig
   OMEGAMAX=  -1.0    maximum frequency
   DEG_THRESHOLD= 0.2000000E-02 threshold for treating states as degnerate
   RTIME   =   -0.100 relaxation time in fs
  (WPLASMAI=    0.000 imaginary part of plasma frequency in eV, 0.658/RTIME)
   DFIELD  = 0.0000000 0.0000000 0.0000000 field for delta impulse in time
 
  Optional k-point grid parameters
   LKPOINTS_OPT  =     F    use optional k-point grid
   KPOINTS_OPT_MODE=     1    mode for optional k-point grid
 
 Orbital magnetization related:
   ORBITALMAG=     F  switch on orbital magnetization
   LCHIMAG   =     F  perturbation theory with respect to B field
   DQ        =  0.001000  dq finite difference perturbation B field
   LLRAUG    =     F  two centre corrections for induced B field
   LBONE     =     F  B-component reconstruction in AE one-centre
   LVGVCALC  =     T  calculate vGv susceptibility
   LVGVAPPL  =     F  apply vGv susceptibility instead of pGv for G=0

 Random number generation:
   RANDOM_GENERATOR = DEFAULT
   PCG_SEED         = not used


--------------------------------------------------------------------------------------------------------


 Static calculation
 charge density and potential will be updated during run
 non-spin polarized calculation
 Variant of blocked Davidson
 Davidson routine will perform the subspace rotation
 perform sub-space diagonalisation
    after iterative eigenvector-optimisation
 modified Broyden-mixing scheme, WC =      100.0
 initial mixing is a Kerker type mixing with AMIX =  0.4000 and BMIX =      1.0000
 Hartree-type preconditioning will be used
 using additional bands            48
 real space projection scheme for non local part
 use partial core corrections
 calculate Harris-corrections to forces 
   (improved forces if not selfconsistent)
 use gradient corrections 
 use of overlap-Matrix (Vanderbilt PP)
 Gauss-broadening in eV      SIGMA  =   0.20


--------------------------------------------------------------------------------------------------------


  energy-cutoff  :      500.00
  volume of cell :     7611.37
      direct lattice vectors                 reciprocal lattice vectors
    28.050000000  0.000000000  0.000000000     0.035650624  0.000000000  0.000000000
     0.000000000  8.100000000  0.000000000     0.000000000  0.123456790  0.000000000
     0.000000000  0.000000000 33.500000000     0.000000000  0.000000000  0.029850746

  length of vectors
    28.050000000  8.100000000 33.500000000     0.035650624  0.123456790  0.029850746


 
 k-points in units of 2pi/SCALE and weight: K-Spacing Value to Generate K-Mesh: 0.03
   0.00000000  0.00000000  0.00000000       0.250
   0.00000000  0.03086420  0.00000000       0.500
   0.00000000  0.06172840  0.00000000       0.250
 
 k-points in reciprocal lattice and weights: K-Spacing Value to Generate K-Mesh: 0.03
   0.00000000  0.00000000  0.00000000       0.250
   0.00000000  0.25000000  0.00000000       0.500
   0.00000000  0.50000000  0.00000000       0.250
 
 position of ions in fractional coordinates (direct lattice) 
   0.00939455  0.09930914  0.45435522
   0.00762670  0.27810617  0.45211642
   0.05007130  0.01819556  0.46543881
   0.05166417  0.36045062  0.45496716
   0.09448271  0.10410519  0.47444179
   0.09380784  0.27505432  0.46956418
   0.13581390  0.02091210  0.48582985
   0.13927237  0.35033210  0.47585970
   0.18103137  0.09853148  0.49508657
   0.18168841  0.26826420  0.49125373
   0.22111052  0.01569963  0.50888358
   0.22582175  0.34659136  0.49928657
   0.26348948  0.09487951  0.52184478
   0.26618717  0.26141235  0.51700000
   0.30673440  0.01663654  0.53308955
   0.30835865  0.34411358  0.53012836
   0.35028414  0.09772864  0.54417910
   0.35166453  0.26730617  0.54402985
   0.39453832  0.01992654  0.54748060
   0.39758645  0.35351605  0.54877910
   0.44064171  0.10191160  0.55085075
   0.44189305  0.27239753  0.55108955
   0.48520856  0.03018593  0.54953731
   0.48526560  0.35697901  0.54705970
   0.52968627  0.10895395  0.54743582
   0.53176471  0.27576420  0.54371343
   0.57349376  0.03136852  0.53792836
   0.57594296  0.36085802  0.53260299
   0.61892692  0.10589926  0.52913731
   0.61885918  0.27205679  0.52451642
   0.66170410  0.02512173  0.51277612
   0.66015686  0.36222593  0.50822687
   0.70187166  0.11151914  0.50405373
   0.70185383  0.28143580  0.50142985
   0.74446346  0.02846210  0.48655522
   0.74410339  0.36391235  0.48702388
   0.78823173  0.11000840  0.47856716
   0.78729768  0.27482346  0.47651642
   0.82814617  0.02558605  0.46295522
   0.82950446  0.36541728  0.46411940
   0.87322638  0.11314074  0.45767761
   0.87224955  0.28570370  0.45560000
   0.91643850  0.02757988  0.44633134
   0.91592870  0.36443951  0.44515821
   0.95979679  0.11259123  0.44642388
   0.95950446  0.28295185  0.44236418
   0.01225611  0.60994198  0.43781194
   0.01409747  0.78053086  0.44299701
   0.05381711  0.52501358  0.45128060
   0.05378324  0.85210494  0.45939403
   0.09966952  0.59923333  0.46001194
   0.09688913  0.76514198  0.46455821
   0.14389340  0.51960988  0.47155522
   0.13632157  0.84575679  0.48033433
   0.18302995  0.59984691  0.48741493
   0.18143815  0.77164444  0.48934925
   0.22512193  0.51567531  0.50084478
   0.22301355  0.84351111  0.50548657
   0.26618360  0.59899630  0.51451343
   0.26440535  0.76647160  0.51900896
   0.30740891  0.51879877  0.52824776
   0.30888414  0.85122469  0.53037910
   0.35339394  0.60483704  0.53663582
   0.35117647  0.76917284  0.54040597
   0.39679501  0.52327407  0.54609552
   0.39472371  0.85402099  0.54791642
   0.44203209  0.60968765  0.54782985
   0.44019964  0.77941358  0.54844478
   0.48621747  0.52627037  0.54636418
   0.48426381  0.86153086  0.54967164
   0.52900535  0.60886420  0.54172537
   0.52884848  0.77663704  0.53939403
   0.57367558  0.52877037  0.53172239
   0.57224242  0.86217037  0.53236119
   0.61265597  0.61157654  0.51546866
   0.61235651  0.77918272  0.51623284
   0.65619251  0.52969383  0.50165075
   0.65759358  0.86126790  0.50348657
   0.69940463  0.61014938  0.48980299
   0.69997148  0.77780617  0.49141791
   0.74223529  0.52710741  0.47866269
   0.74285561  0.86259136  0.48030149
   0.78328699  0.60564198  0.46369552
   0.78070945  0.77478148  0.46394627
   0.82706952  0.52949012  0.45710746
   0.82713369  0.85770123  0.45609552
   0.86881640  0.61626296  0.44638806
   0.87011765  0.78268519  0.44688657
   0.91452406  0.53622222  0.44031045
   0.91485561  0.86371728  0.44326269
   0.95898039  0.61373333  0.43733134
   0.95896257  0.78582099  0.43608955
 
 position of ions in cartesian coordinates  (Angst):
   0.26351700  0.80440400 15.22090000
   0.21392900  2.25266000 15.14590000
   1.40450000  0.14738400 15.59220000
   1.44918000  2.91965000 15.24140000
   2.65024000  0.84325200 15.89380000
   2.63131000  2.22794000 15.73040000
   3.80958000  0.16938800 16.27530000
   3.90659000  2.83769000 15.94130000
   5.07793000  0.79810500 16.58540000
   5.09636000  2.17294000 16.45700000
   6.20215000  0.12716700 17.04760000
   6.33430000  2.80739000 16.72610000
   7.39088000  0.76852400 17.48180000
   7.46655000  2.11744000 17.31950000
   8.60390000  0.13475600 17.85850000
   8.64946000  2.78732000 17.75930000
   9.82547000  0.79160200 18.23000000
   9.86419000  2.16518000 18.22500000
  11.06680000  0.16140500 18.34060000
  11.15230000  2.86348000 18.38410000
  12.36000000  0.82548400 18.45350000
  12.39510000  2.20642000 18.46150000
  13.61010000  0.24450600 18.40950000
  13.61170000  2.89153000 18.32650000
  14.85770000  0.88252700 18.33910000
  14.91600000  2.23369000 18.21440000
  16.08650000  0.25408500 18.02060000
  16.15520000  2.92295000 17.84220000
  17.36090000  0.85778400 17.72610000
  17.35900000  2.20366000 17.57130000
  18.56080000  0.20348600 17.17800000
  18.51740000  2.93403000 17.02560000
  19.68750000  0.90330500 16.88580000
  19.68700000  2.27963000 16.79790000
  20.88220000  0.23054300 16.29960000
  20.87210000  2.94769000 16.31530000
  22.10990000  0.89106800 16.03200000
  22.08370000  2.22607000 15.96330000
  23.22950000  0.20724700 15.50900000
  23.26760000  2.95988000 15.54800000
  24.49400000  0.91644000 15.33220000
  24.46660000  2.31420000 15.26260000
  25.70610000  0.22339700 14.95210000
  25.69180000  2.95196000 14.91280000
  26.92230000  0.91198900 14.95520000
  26.91410000  2.29191000 14.81920000
   0.34378400  4.94053000 14.66670000
   0.39543400  6.32230000 14.84040000
   1.50957000  4.25261000 15.11790000
   1.50862000  6.90205000 15.38970000
   2.79573000  4.85379000 15.41040000
   2.71774000  6.19765000 15.56270000
   4.03621000  4.20884000 15.79710000
   3.82382000  6.85063000 16.09120000
   5.13399000  4.85876000 16.32840000
   5.08934000  6.25032000 16.39320000
   6.31467000  4.17697000 16.77830000
   6.25553000  6.83244000 16.93380000
   7.46645000  4.85187000 17.23620000
   7.41657000  6.20842000 17.38680000
   8.62282000  4.20227000 17.69630000
   8.66420000  6.89492000 17.76770000
   9.91270000  4.89918000 17.97730000
   9.85050000  6.23030000 18.10360000
  11.13010000  4.23852000 18.29420000
  11.07200000  6.91757000 18.35520000
  12.39900000  4.93847000 18.35230000
  12.34760000  6.31325000 18.37290000
  13.63840000  4.26279000 18.30320000
  13.58360000  6.97840000 18.41400000
  14.83860000  4.93180000 18.14780000
  14.83420000  6.29076000 18.06970000
  16.09160000  4.28304000 17.81270000
  16.05140000  6.98358000 17.83410000
  17.18500000  4.95377000 17.26820000
  17.17660000  6.31138000 17.29380000
  18.40620000  4.29052000 16.80530000
  18.44550000  6.97627000 16.86680000
  19.61830000  4.94221000 16.40840000
  19.63420000  6.30023000 16.46250000
  20.81970000  4.26957000 16.03520000
  20.83710000  6.98699000 16.09010000
  21.97120000  4.90570000 15.53380000
  21.89890000  6.27573000 15.54220000
  23.19930000  4.28887000 15.31310000
  23.20110000  6.94738000 15.27920000
  24.37030000  4.99173000 14.95400000
  24.40680000  6.33975000 14.97070000
  25.65240000  4.34340000 14.75040000
  25.66170000  6.99611000 14.84930000
  26.89940000  4.97124000 14.65060000
  26.89890000  6.36515000 14.60900000
 


--------------------------------------------------------------------------------------------------------


 k-point     1 :   0.0000 0.0000 0.0000  plane waves:  193173
 k-point     2 :   0.0000 0.2500 0.0000  plane waves:  193166
 k-point     3 :   0.0000 0.5000 0.0000  plane waves:  193226

 maximum and minimum number of plane-waves per node :    193226   193166

 maximum number of plane-waves:    193226
 maximum index in each direction: 
   IXMAX=   51   IYMAX=   14   IZMAX=   61
   IXMIN=  -51   IYMIN=  -15   IZMIN=  -61


 serial   3D FFT for wavefunctions
 parallel 3D FFT for charge:
    minimum data exchange during FFTs selected (reduces bandwidth)


 total amount of memory used by VASP MPI-rank0  2294515. kBytes
=======================================================================

   base                                    :      30000. kBytes
   nonlr-proj                              :      15081. kBytes
   fftplans                                :     436558. kBytes
   grid                                    :     732614. kBytes
   one-center                              :        282. kBytes
   wavefun                                 :    1079980. kBytes
 
     INWAV:  cpu time      0.0000: real time      0.0000
 Broyden mixing: mesh for mixing (old mesh)
   NGX =103   NGY = 29   NGZ =123
  (NGX  =420   NGY  =120   NGZ  =500)
  gives a total of 367401 points

 initial charge density was supplied:
 charge density of overlapping atoms calculated
 number of electron     368.0000000 magnetization 
 keeping initial charge density in first step


--------------------------------------------------------------------------------------------------------


 Maximum index for non-local projection operator          1873
 Maximum index for augmentation-charges          2387 (set IRDMAX)


--------------------------------------------------------------------------------------------------------


 First call to EWALD:  gamma=   0.090
 Maximum number of real-space cells   2x   6x   2
 Maximum number of reciprocal cells   4x   1x   4

    FEWALD:  cpu time      0.1585: real time      0.1585


--------------------------------------- Ionic step        1  -------------------------------------------




--------------------------------------- Iteration      1(   1)  ---------------------------------------


    POTLOK:  cpu time      0.4238: real time      0.4499
    SETDIJ:  cpu time      0.0396: real time      0.0396
     EDDAV:  cpu time     11.0697: real time     11.0746
       DOS:  cpu time      0.0008: real time      0.0008
    --------------------------------------------
      LOOP:  cpu time     11.5339: real time     11.5649

 eigenvalue-minimisations  :  1712
 total energy-change (2. order) : 0.3689509E+04  (-0.1188731E+05)
 number of electron     368.0000000 magnetization 
 augmentation part      368.0000000 magnetization 

 Free energy of the ion-electron system (eV)
  ---------------------------------------------------
  alpha Z        PSCENC =        91.34886789
  Ewald energy   TEWEN  =    118623.38064689
  -Hartree energ DENC   =   -127970.72651736
  -exchange      EXHF   =         0.00000000
  -V(xc)+E(xc)   XCENC  =      1220.00689701
  PAW double counting   =      9984.02826696   -10036.41360137
  entropy T*S    EENTRO =        -0.91481285
  eigenvalues    EBANDS =     -1758.85523391
  atomic energy  EATOM  =     13537.65479391
  Solvation  Ediel_sol  =         0.00000000
  ---------------------------------------------------
  free energy    TOTEN  =      3689.50930717 eV

  energy without entropy =     3690.42412002  energy(sigma->0) =     3689.96671360


--------------------------------------------------------------------------------------------------------




--------------------------------------- Iteration      1(   2)  ---------------------------------------


     EDDAV:  cpu time     13.1303: real time     13.1351
       DOS:  cpu time      0.0007: real time      0.0007
    --------------------------------------------
      LOOP:  cpu time     13.1310: real time     13.1358

 eigenvalue-minimisations  :  2144
 total energy-change (2. order) :-0.3505419E+04  (-0.3250073E+04)
 number of electron     368.0000000 magnetization 
 augmentation part      368.0000000 magnetization 

 Free energy of the ion-electron system (eV)
  ---------------------------------------------------
  alpha Z        PSCENC =        91.34886789
  Ewald energy   TEWEN  =    118623.38064689
  -Hartree energ DENC   =   -127970.72651736
  -exchange      EXHF   =         0.00000000
  -V(xc)+E(xc)   XCENC  =      1220.00689701
  PAW double counting   =      9984.02826696   -10036.41360137
  entropy T*S    EENTRO =        -0.20457770
  eigenvalues    EBANDS =     -5264.98479423
  atomic energy  EATOM  =     13537.65479391
  Solvation  Ediel_sol  =         0.00000000
  ---------------------------------------------------
  free energy    TOTEN  =       184.08998200 eV

  energy without entropy =      184.29455970  energy(sigma->0) =      184.19227085


--------------------------------------------------------------------------------------------------------




--------------------------------------- Iteration      1(   3)  ---------------------------------------


     EDDAV:  cpu time     11.3568: real time     11.3608
       DOS:  cpu time      0.0006: real time      0.0006
    --------------------------------------------
      LOOP:  cpu time     11.3575: real time     11.3615

 eigenvalue-minimisations  :  1800
 total energy-change (2. order) :-0.1015773E+04  (-0.9944849E+03)
 number of electron     368.0000000 magnetization 
 augmentation part      368.0000000 magnetization 

 Free energy of the ion-electron system (eV)
  ---------------------------------------------------
  alpha Z        PSCENC =        91.34886789
  Ewald energy   TEWEN  =    118623.38064689
  -Hartree energ DENC   =   -127970.72651736
  -exchange      EXHF   =         0.00000000
  -V(xc)+E(xc)   XCENC  =      1220.00689701
  PAW double counting   =      9984.02826696   -10036.41360137
  entropy T*S    EENTRO =        -0.05893636
  eigenvalues    EBANDS =     -6280.90389721
  atomic energy  EATOM  =     13537.65479391
  Solvation  Ediel_sol  =         0.00000000
  ---------------------------------------------------
  free energy    TOTEN  =      -831.68347963 eV

  energy without entropy =     -831.62454328  energy(sigma->0) =     -831.65401146


--------------------------------------------------------------------------------------------------------




--------------------------------------- Iteration      1(   4)  ---------------------------------------


     EDDAV:  cpu time     10.9049: real time     10.9088
       DOS:  cpu time      0.0007: real time      0.0007
    --------------------------------------------
      LOOP:  cpu time     10.9055: real time     10.9095

 eigenvalue-minimisations  :  1712
 total energy-change (2. order) :-0.6249692E+02  (-0.6137840E+02)
 number of electron     368.0000000 magnetization 
 augmentation part      368.0000000 magnetization 

 Free energy of the ion-electron system (eV)
  ---------------------------------------------------
  alpha Z        PSCENC =        91.34886789
  Ewald energy   TEWEN  =    118623.38064689
  -Hartree energ DENC   =   -127970.72651736
  -exchange      EXHF   =         0.00000000
  -V(xc)+E(xc)   XCENC  =      1220.00689701
  PAW double counting   =      9984.02826696   -10036.41360137
  entropy T*S    EENTRO =        -0.07395923
  eigenvalues    EBANDS =     -6343.38579375
  atomic energy  EATOM  =     13537.65479391
  Solvation  Ediel_sol  =         0.00000000
  ---------------------------------------------------
  free energy    TOTEN  =      -894.18039905 eV

  energy without entropy =     -894.10643982  energy(sigma->0) =     -894.14341944


--------------------------------------------------------------------------------------------------------




--------------------------------------- Iteration      1(   5)  ---------------------------------------


     EDDAV:  cpu time     11.1632: real time     11.1687
       DOS:  cpu time      0.0006: real time      0.0006
    CHARGE:  cpu time      1.2092: real time      1.2103
    MIXING:  cpu time      0.2760: real time      0.2760
    --------------------------------------------
      LOOP:  cpu time     12.6491: real time     12.6556

 eigenvalue-minimisations  :  1768
 total energy-change (2. order) :-0.1591786E+01  (-0.1571122E+01)
 number of electron     368.0000001 magnetization 
 augmentation part       10.0937108 magnetization 

 Broyden mixing:
  rms(total) = 0.45210E+01    rms(broyden)= 0.45204E+01
  rms(prec ) = 0.46373E+01
  weight for this iteration     100.00

 Free energy of the ion-electron system (eV)
  ---------------------------------------------------
  alpha Z        PSCENC =        91.34886789
  Ewald energy   TEWEN  =    118623.38064689
  -Hartree energ DENC   =   -127970.72651736
  -exchange      EXHF   =         0.00000000
  -V(xc)+E(xc)   XCENC  =      1220.00689701
  PAW double counting   =      9984.02826696   -10036.41360137
  entropy T*S    EENTRO =        -0.07529443
  eigenvalues    EBANDS =     -6344.97624410
  atomic energy  EATOM  =     13537.65479391
  Solvation  Ediel_sol  =         0.00000000
  ---------------------------------------------------
  free energy    TOTEN  =      -895.77218460 eV

  energy without entropy =     -895.69689017  energy(sigma->0) =     -895.73453739


--------------------------------------------------------------------------------------------------------




--------------------------------------- Iteration      1(   6)  ---------------------------------------


    POTLOK:  cpu time      0.3216: real time      0.3216
    SETDIJ:  cpu time      0.0405: real time      0.0406
     EDDAV:  cpu time     10.2639: real time     10.2676
       DOS:  cpu time      0.0007: real time      0.0007
    CHARGE:  cpu time      1.1598: real time      1.1616
    MIXING:  cpu time      0.2760: real time      0.2762
    --------------------------------------------
      LOOP:  cpu time     12.0625: real time     12.0682

 eigenvalue-minimisations  :  1584
 total energy-change (2. order) : 0.4882199E+02  (-0.4680242E+01)
 number of electron     368.0000001 magnetization 
 augmentation part        9.6764033 magnetization 

 Broyden mixing:
  rms(total) = 0.26546E+01    rms(broyden)= 0.26546E+01
  rms(prec ) = 0.27122E+01
  weight for this iteration     100.00

 eigenvalues of (default mixing * dielectric matrix)
  average eigenvalue GAMMA=   2.1805
  2.1805

 Free energy of the ion-electron system (eV)
  ---------------------------------------------------
  alpha Z        PSCENC =        91.34886789
  Ewald energy   TEWEN  =    118623.38064689
  -Hartree energ DENC   =   -128535.07725655
  -exchange      EXHF   =         0.00000000
  -V(xc)+E(xc)   XCENC  =      1243.16707404
  PAW double counting   =     18848.16281168   -18908.07230948
  entropy T*S    EENTRO =        -0.08162585
  eigenvalues    EBANDS =     -5747.43320117
  atomic energy  EATOM  =     13537.65479391
  Solvation  Ediel_sol  =         0.00000000
  ---------------------------------------------------
  free energy    TOTEN  =      -846.95019865 eV

  energy without entropy =     -846.86857280  energy(sigma->0) =     -846.90938572


--------------------------------------------------------------------------------------------------------




--------------------------------------- Iteration      1(   7)  ---------------------------------------


    POTLOK:  cpu time      0.3214: real time      0.3214
    SETDIJ:  cpu time      0.0403: real time      0.0402
     EDDAV:  cpu time     10.1726: real time     10.1800
       DOS:  cpu time      0.0007: real time      0.0007
    CHARGE:  cpu time      1.1533: real time      1.1540
    MIXING:  cpu time      0.2794: real time      0.2812
    --------------------------------------------
      LOOP:  cpu time     11.9677: real time     11.9776

 eigenvalue-minimisations  :  1568
 total energy-change (2. order) : 0.1816935E+02  (-0.6419028E+01)
 number of electron     368.0000001 magnetization 
 augmentation part        9.1293388 magnetization 

 Broyden mixing:
  rms(total) = 0.72516E+00    rms(broyden)= 0.72489E+00
  rms(prec ) = 0.73489E+00
  weight for this iteration     100.00

 eigenvalues of (default mixing * dielectric matrix)
  average eigenvalue GAMMA=   2.1612
  2.1612  2.1612

 Free energy of the ion-electron system (eV)
  ---------------------------------------------------
  alpha Z        PSCENC =        91.34886789
  Ewald energy   TEWEN  =    118623.38064689
  -Hartree energ DENC   =   -129290.18670836
  -exchange      EXHF   =         0.00000000
  -V(xc)+E(xc)   XCENC  =      1273.96490813
  PAW double counting   =     36222.89012385   -36289.61263110
  entropy T*S    EENTRO =        -0.08850954
  eigenvalues    EBANDS =     -4998.13234159
  atomic energy  EATOM  =     13537.65479391
  Solvation  Ediel_sol  =         0.00000000
  ---------------------------------------------------
  free energy    TOTEN  =      -828.78084993 eV

  energy without entropy =     -828.69234038  energy(sigma->0) =     -828.73659516


--------------------------------------------------------------------------------------------------------




--------------------------------------- Iteration      1(   8)  ---------------------------------------


    POTLOK:  cpu time      0.3214: real time      0.3215
    SETDIJ:  cpu time      0.0404: real time      0.0404
     EDDAV:  cpu time     10.4620: real time     10.4655
       DOS:  cpu time      0.0008: real time      0.0008
    CHARGE:  cpu time      1.1535: real time      1.1559
    MIXING:  cpu time      0.2822: real time      0.2829
    --------------------------------------------
      LOOP:  cpu time     12.2604: real time     12.2669

 eigenvalue-minimisations  :  1624
 total energy-change (2. order) : 0.2769821E+00  (-0.2389589E+00)
 number of electron     368.0000001 magnetization 
 augmentation part        9.1093771 magnetization 

 Broyden mixing:
  rms(total) = 0.10776E+00    rms(broyden)= 0.10772E+00
  rms(prec ) = 0.12880E+00
  weight for this iteration     100.00

 eigenvalues of (default mixing * dielectric matrix)
  average eigenvalue GAMMA=   1.8319
  1.1120  2.4049  1.9787

 Free energy of the ion-electron system (eV)
  ---------------------------------------------------
  alpha Z        PSCENC =        91.34886789
  Ewald energy   TEWEN  =    118623.38064689
  -Hartree energ DENC   =   -129382.33106036
  -exchange      EXHF   =         0.00000000
  -V(xc)+E(xc)   XCENC  =      1273.85320747
  PAW double counting   =     40304.63414450   -40368.83749092
  entropy T*S    EENTRO =        -0.08831529
  eigenvalues    EBANDS =     -4908.11866190
  atomic energy  EATOM  =     13537.65479391
  Solvation  Ediel_sol  =         0.00000000
  ---------------------------------------------------
  free energy    TOTEN  =      -828.50386782 eV

  energy without entropy =     -828.41555253  energy(sigma->0) =     -828.45971017


--------------------------------------------------------------------------------------------------------




--------------------------------------- Iteration      1(   9)  ---------------------------------------


    POTLOK:  cpu time      0.3202: real time      0.3202
    SETDIJ:  cpu time      0.0402: real time      0.0402
     EDDAV:  cpu time     10.5793: real time     10.5830
       DOS:  cpu time      0.0007: real time      0.0007
    CHARGE:  cpu time      1.1557: real time      1.1563
    MIXING:  cpu time      0.2863: real time      0.2863
    --------------------------------------------
      LOOP:  cpu time     12.3825: real time     12.3867

 eigenvalue-minimisations  :  1648
 total energy-change (2. order) : 0.1057168E+00  (-0.2311980E-01)
 number of electron     368.0000001 magnetization 
 augmentation part        9.0894500 magnetization 

 Broyden mixing:
  rms(total) = 0.57530E-01    rms(broyden)= 0.57522E-01
  rms(prec ) = 0.79274E-01
  weight for this iteration     100.00

 eigenvalues of (default mixing * dielectric matrix)
  average eigenvalue GAMMA=   1.6567
  2.1896  2.1896  0.9449  1.3027

 Free energy of the ion-electron system (eV)
  ---------------------------------------------------
  alpha Z        PSCENC =        91.34886789
  Ewald energy   TEWEN  =    118623.38064689
  -Hartree energ DENC   =   -129448.87677946
  -exchange      EXHF   =         0.00000000
  -V(xc)+E(xc)   XCENC  =      1275.10590114
  PAW double counting   =     40928.77545876   -40992.92331315
  entropy T*S    EENTRO =        -0.08644467
  eigenvalues    EBANDS =     -4842.77728237
  atomic energy  EATOM  =     13537.65479391
  Solvation  Ediel_sol  =         0.00000000
  ---------------------------------------------------
  free energy    TOTEN  =      -828.39815106 eV

  energy without entropy =     -828.31170640  energy(sigma->0) =     -828.35492873


--------------------------------------------------------------------------------------------------------




--------------------------------------- Iteration      1(  10)  ---------------------------------------


    POTLOK:  cpu time      0.3215: real time      0.3215
    SETDIJ:  cpu time      0.0403: real time      0.0403
     EDDAV:  cpu time     10.9713: real time     10.9751
       DOS:  cpu time      0.0008: real time      0.0008
    CHARGE:  cpu time      1.1551: real time      1.1555
    MIXING:  cpu time      0.2950: real time      0.2948
    --------------------------------------------
      LOOP:  cpu time     12.7839: real time     12.7880

 eigenvalue-minimisations  :  1728
 total energy-change (2. order) : 0.3695955E-01  (-0.4577312E-02)
 number of electron     368.0000001 magnetization 
 augmentation part        9.0791150 magnetization 

 Broyden mixing:
  rms(total) = 0.39104E-01    rms(broyden)= 0.39101E-01
  rms(prec ) = 0.58981E-01
  weight for this iteration     100.00

 eigenvalues of (default mixing * dielectric matrix)
  average eigenvalue GAMMA=   1.6669
  2.3787  2.3787  1.5652  1.1649  0.8471

 Free energy of the ion-electron system (eV)
  ---------------------------------------------------
  alpha Z        PSCENC =        91.34886789
  Ewald energy   TEWEN  =    118623.38064689
  -Hartree energ DENC   =   -129493.10402627
  -exchange      EXHF   =         0.00000000
  -V(xc)+E(xc)   XCENC  =      1275.48625430
  PAW double counting   =     40776.23206339   -40840.29254450
  entropy T*S    EENTRO =        -0.08707859
  eigenvalues    EBANDS =     -4798.98016853
  atomic energy  EATOM  =     13537.65479391
  Solvation  Ediel_sol  =         0.00000000
  ---------------------------------------------------
  free energy    TOTEN  =      -828.36119151 eV

  energy without entropy =     -828.27411292  energy(sigma->0) =     -828.31765222


--------------------------------------------------------------------------------------------------------




--------------------------------------- Iteration      1(  11)  ---------------------------------------


    POTLOK:  cpu time      0.3202: real time      0.3203
    SETDIJ:  cpu time      0.0402: real time      0.0402
     EDDAV:  cpu time     10.2043: real time     10.2079
       DOS:  cpu time      0.0007: real time      0.0007
    CHARGE:  cpu time      1.1674: real time      1.1677
    MIXING:  cpu time      0.3002: real time      0.3007
    --------------------------------------------
      LOOP:  cpu time     12.0330: real time     12.0375

 eigenvalue-minimisations  :  1576
 total energy-change (2. order) : 0.3216979E-01  (-0.2011252E-02)
 number of electron     368.0000001 magnetization 
 augmentation part        9.0749765 magnetization 

 Broyden mixing:
  rms(total) = 0.24402E-01    rms(broyden)= 0.24400E-01
  rms(prec ) = 0.39534E-01
  weight for this iteration     100.00

 eigenvalues of (default mixing * dielectric matrix)
  average eigenvalue GAMMA=   1.7464
  2.8894  2.6079  1.8940  0.9665  1.0602  1.0602

 Free energy of the ion-electron system (eV)
  ---------------------------------------------------
  alpha Z        PSCENC =        91.34886789
  Ewald energy   TEWEN  =    118623.38064689
  -Hartree energ DENC   =   -129555.05079993
  -exchange      EXHF   =         0.00000000
  -V(xc)+E(xc)   XCENC  =      1276.00351165
  PAW double counting   =     40683.00090306   -40746.94228096
  entropy T*S    EENTRO =        -0.08736710
  eigenvalues    EBANDS =     -4737.63729713
  atomic energy  EATOM  =     13537.65479391
  Solvation  Ediel_sol  =         0.00000000
  ---------------------------------------------------
  free energy    TOTEN  =      -828.32902172 eV

  energy without entropy =     -828.24165462  energy(sigma->0) =     -828.28533817


--------------------------------------------------------------------------------------------------------




--------------------------------------- Iteration      1(  12)  ---------------------------------------


    POTLOK:  cpu time      0.3201: real time      0.3201
    SETDIJ:  cpu time      0.0403: real time      0.0403
     EDDAV:  cpu time     10.0802: real time     10.0835
       DOS:  cpu time      0.0008: real time      0.0008
    CHARGE:  cpu time      1.1535: real time      1.1577
    MIXING:  cpu time      0.3068: real time      0.3079
    --------------------------------------------
      LOOP:  cpu time     11.9016: real time     11.9102

 eigenvalue-minimisations  :  1552
 total energy-change (2. order) : 0.6931631E-02  (-0.2504265E-02)
 number of electron     368.0000001 magnetization 
 augmentation part        9.0680101 magnetization 

 Broyden mixing:
  rms(total) = 0.15644E-01    rms(broyden)= 0.15641E-01
  rms(prec ) = 0.24155E-01
  weight for this iteration     100.00

 eigenvalues of (default mixing * dielectric matrix)
  average eigenvalue GAMMA=   1.9858
  4.4975  2.2704  2.2704  1.8479  1.0613  0.9764  0.9764

 Free energy of the ion-electron system (eV)
  ---------------------------------------------------
  alpha Z        PSCENC =        91.34886789
  Ewald energy   TEWEN  =    118623.38064689
  -Hartree energ DENC   =   -129623.67599665
  -exchange      EXHF   =         0.00000000
  -V(xc)+E(xc)   XCENC  =      1276.65410411
  PAW double counting   =     40701.71245188   -40765.61926006
  entropy T*S    EENTRO =        -0.08703017
  eigenvalues    EBANDS =     -4669.69066788
  atomic energy  EATOM  =     13537.65479391
  Solvation  Ediel_sol  =         0.00000000
  ---------------------------------------------------
  free energy    TOTEN  =      -828.32209009 eV

  energy without entropy =     -828.23505992  energy(sigma->0) =     -828.27857501


--------------------------------------------------------------------------------------------------------




--------------------------------------- Iteration      1(  13)  ---------------------------------------


    POTLOK:  cpu time      0.3225: real time      0.3225
    SETDIJ:  cpu time      0.0401: real time      0.0401
     EDDAV:  cpu time      9.9067: real time      9.9133
       DOS:  cpu time      0.0008: real time      0.0008
    CHARGE:  cpu time      1.1547: real time      1.1546
    MIXING:  cpu time      0.3173: real time      0.3175
    --------------------------------------------
      LOOP:  cpu time     11.7420: real time     11.7488

 eigenvalue-minimisations  :  1520
 total energy-change (2. order) :-0.1139412E-01  (-0.9769791E-03)
 number of electron     368.0000001 magnetization 
 augmentation part        9.0643657 magnetization 

 Broyden mixing:
  rms(total) = 0.86539E-02    rms(broyden)= 0.86513E-02
  rms(prec ) = 0.12657E-01
  weight for this iteration     100.00

 eigenvalues of (default mixing * dielectric matrix)
  average eigenvalue GAMMA=   2.0173
  5.2854  2.5094  2.1040  2.1040  1.1459  1.1459  0.9218  0.9218

 Free energy of the ion-electron system (eV)
  ---------------------------------------------------
  alpha Z        PSCENC =        91.34886789
  Ewald energy   TEWEN  =    118623.38064689
  -Hartree energ DENC   =   -129676.39409046
  -exchange      EXHF   =         0.00000000
  -V(xc)+E(xc)   XCENC  =      1276.92828641
  PAW double counting   =     40688.00875691   -40751.91805576
  entropy T*S    EENTRO =        -0.08730495
  eigenvalues    EBANDS =     -4617.25538505
  atomic energy  EATOM  =     13537.65479391
  Solvation  Ediel_sol  =         0.00000000
  ---------------------------------------------------
  free energy    TOTEN  =      -828.33348421 eV

  energy without entropy =     -828.24617927  energy(sigma->0) =     -828.28983174


--------------------------------------------------------------------------------------------------------




--------------------------------------- Iteration      1(  14)  ---------------------------------------


    POTLOK:  cpu time      0.3196: real time      0.3196
    SETDIJ:  cpu time      0.0405: real time      0.0405
     EDDAV:  cpu time     10.2801: real time     10.2839
       DOS:  cpu time      0.0008: real time      0.0008
    CHARGE:  cpu time      1.1564: real time      1.1563
    MIXING:  cpu time      0.3229: real time      0.3229
    --------------------------------------------
      LOOP:  cpu time     12.1202: real time     12.1240

 eigenvalue-minimisations  :  1592
 total energy-change (2. order) :-0.1443342E-01  (-0.1012895E-03)
 number of electron     368.0000001 magnetization 
 augmentation part        9.0639315 magnetization 

 Broyden mixing:
  rms(total) = 0.58769E-02    rms(broyden)= 0.58765E-02
  rms(prec ) = 0.84432E-02
  weight for this iteration     100.00

 eigenvalues of (default mixing * dielectric matrix)
  average eigenvalue GAMMA=   2.1020
  6.0906  2.5908  2.5908  1.9208  1.5451  1.2780  1.0813  0.9103  0.9103

 Free energy of the ion-electron system (eV)
  ---------------------------------------------------
  alpha Z        PSCENC =        91.34886789
  Ewald energy   TEWEN  =    118623.38064689
  -Hartree energ DENC   =   -129691.37505487
  -exchange      EXHF   =         0.00000000
  -V(xc)+E(xc)   XCENC  =      1276.91550513
  PAW double counting   =     40653.81507494   -40717.72707653
  entropy T*S    EENTRO =        -0.08709614
  eigenvalues    EBANDS =     -4602.27357886
  atomic energy  EATOM  =     13537.65479391
  Solvation  Ediel_sol  =         0.00000000
  ---------------------------------------------------
  free energy    TOTEN  =      -828.34791763 eV

  energy without entropy =     -828.26082149  energy(sigma->0) =     -828.30436956


--------------------------------------------------------------------------------------------------------




--------------------------------------- Iteration      1(  15)  ---------------------------------------


    POTLOK:  cpu time      0.3224: real time      0.3224
    SETDIJ:  cpu time      0.0405: real time      0.0405
     EDDAV:  cpu time     10.2810: real time     10.2869
       DOS:  cpu time      0.0008: real time      0.0008
    CHARGE:  cpu time      1.1537: real time      1.1569
    MIXING:  cpu time      0.3306: real time      0.3315
    --------------------------------------------
      LOOP:  cpu time     12.1290: real time     12.1389

 eigenvalue-minimisations  :  1592
 total energy-change (2. order) :-0.1897608E-01  (-0.1378298E-03)
 number of electron     368.0000001 magnetization 
 augmentation part        9.0632833 magnetization 

 Broyden mixing:
  rms(total) = 0.32686E-02    rms(broyden)= 0.32683E-02
  rms(prec ) = 0.47549E-02
  weight for this iteration     100.00

 eigenvalues of (default mixing * dielectric matrix)
  average eigenvalue GAMMA=   2.1898
  7.0482  3.3671  2.3304  1.9250  1.9250  1.2385  1.2385  0.9116  0.9116  1.0018

 Free energy of the ion-electron system (eV)
  ---------------------------------------------------
  alpha Z        PSCENC =        91.34886789
  Ewald energy   TEWEN  =    118623.38064689
  -Hartree energ DENC   =   -129703.12000453
  -exchange      EXHF   =         0.00000000
  -V(xc)+E(xc)   XCENC  =      1276.92195841
  PAW double counting   =     40673.37544797   -40737.29095261
  entropy T*S    EENTRO =        -0.08713533
  eigenvalues    EBANDS =     -4590.55051631
  atomic energy  EATOM  =     13537.65479391
  Solvation  Ediel_sol  =         0.00000000
  ---------------------------------------------------
  free energy    TOTEN  =      -828.36689371 eV

  energy without entropy =     -828.27975838  energy(sigma->0) =     -828.32332605


--------------------------------------------------------------------------------------------------------




--------------------------------------- Iteration      1(  16)  ---------------------------------------


    POTLOK:  cpu time      0.3218: real time      0.3218
    SETDIJ:  cpu time      0.0402: real time      0.0402
     EDDAV:  cpu time     10.3229: real time     10.3266
       DOS:  cpu time      0.0007: real time      0.0007
    CHARGE:  cpu time      1.1652: real time      1.1671
    MIXING:  cpu time      0.3409: real time      0.3410
    --------------------------------------------
      LOOP:  cpu time     12.1918: real time     12.1974

 eigenvalue-minimisations  :  1600
 total energy-change (2. order) :-0.1144765E-01  (-0.6755434E-04)
 number of electron     368.0000001 magnetization 
 augmentation part        9.0631183 magnetization 

 Broyden mixing:
  rms(total) = 0.22468E-02    rms(broyden)= 0.22467E-02
  rms(prec ) = 0.29369E-02
  weight for this iteration     100.00

 eigenvalues of (default mixing * dielectric matrix)
  average eigenvalue GAMMA=   2.2422
  7.6201  3.7582  2.3937  2.3937  1.7992  1.4320  1.4320  1.0848  0.9249  0.9249
  0.9004

 Free energy of the ion-electron system (eV)
  ---------------------------------------------------
  alpha Z        PSCENC =        91.34886789
  Ewald energy   TEWEN  =    118623.38064689
  -Hartree energ DENC   =   -129708.63370293
  -exchange      EXHF   =         0.00000000
  -V(xc)+E(xc)   XCENC  =      1276.90124666
  PAW double counting   =     40664.61374550   -40728.53141292
  entropy T*S    EENTRO =        -0.08715100
  eigenvalues    EBANDS =     -4585.02537536
  atomic energy  EATOM  =     13537.65479391
  Solvation  Ediel_sol  =         0.00000000
  ---------------------------------------------------
  free energy    TOTEN  =      -828.37834136 eV

  energy without entropy =     -828.29119036  energy(sigma->0) =     -828.33476586


--------------------------------------------------------------------------------------------------------




--------------------------------------- Iteration      1(  17)  ---------------------------------------


    POTLOK:  cpu time      0.3223: real time      0.3223
    SETDIJ:  cpu time      0.0401: real time      0.0401
     EDDAV:  cpu time     10.1592: real time     10.1627
       DOS:  cpu time      0.0008: real time      0.0008
    CHARGE:  cpu time      1.1556: real time      1.1574
    MIXING:  cpu time      0.3519: real time      0.3519
    --------------------------------------------
      LOOP:  cpu time     12.0298: real time     12.0351

 eigenvalue-minimisations  :  1568
 total energy-change (2. order) :-0.5971923E-02  (-0.3547459E-04)
 number of electron     368.0000001 magnetization 
 augmentation part        9.0631550 magnetization 

 Broyden mixing:
  rms(total) = 0.11650E-02    rms(broyden)= 0.11649E-02
  rms(prec ) = 0.15731E-02
  weight for this iteration     100.00

 eigenvalues of (default mixing * dielectric matrix)
  average eigenvalue GAMMA=   2.3199
  8.3666  4.5323  2.5775  2.1681  2.1681  1.4249  1.4249  1.2051  1.2051  0.9161
  0.9161  0.9333

 Free energy of the ion-electron system (eV)
  ---------------------------------------------------
  alpha Z        PSCENC =        91.34886789
  Ewald energy   TEWEN  =    118623.38064689
  -Hartree energ DENC   =   -129710.77245418
  -exchange      EXHF   =         0.00000000
  -V(xc)+E(xc)   XCENC  =      1276.89038543
  PAW double counting   =     40664.57133930   -40728.48311889
  entropy T*S    EENTRO =        -0.08715115
  eigenvalues    EBANDS =     -4582.88762248
  atomic energy  EATOM  =     13537.65479391
  Solvation  Ediel_sol  =         0.00000000
  ---------------------------------------------------
  free energy    TOTEN  =      -828.38431328 eV

  energy without entropy =     -828.29716213  energy(sigma->0) =     -828.34073770


--------------------------------------------------------------------------------------------------------




--------------------------------------- Iteration      1(  18)  ---------------------------------------


    POTLOK:  cpu time      0.3223: real time      0.3222
    SETDIJ:  cpu time      0.0401: real time      0.0401
     EDDAV:  cpu time     10.3137: real time     10.3173
       DOS:  cpu time      0.0008: real time      0.0008
    CHARGE:  cpu time      1.1532: real time      1.1560
    MIXING:  cpu time      0.3600: real time      0.3601
    --------------------------------------------
      LOOP:  cpu time     12.1900: real time     12.1965

 eigenvalue-minimisations  :  1600
 total energy-change (2. order) :-0.2794036E-02  (-0.1500678E-04)
 number of electron     368.0000001 magnetization 
 augmentation part        9.0629895 magnetization 

 Broyden mixing:
  rms(total) = 0.70894E-03    rms(broyden)= 0.70888E-03
  rms(prec ) = 0.90825E-03
  weight for this iteration     100.00

 eigenvalues of (default mixing * dielectric matrix)
  average eigenvalue GAMMA=   2.3446
  8.7550  4.8823  2.7544  2.5352  1.8802  1.8802  1.4242  1.4242  0.9133  0.9133
  1.0272  1.0450  1.0450

 Free energy of the ion-electron system (eV)
  ---------------------------------------------------
  alpha Z        PSCENC =        91.34886789
  Ewald energy   TEWEN  =    118623.38064689
  -Hartree energ DENC   =   -129712.17343703
  -exchange      EXHF   =         0.00000000
  -V(xc)+E(xc)   XCENC  =      1276.89504634
  PAW double counting   =     40670.61532352   -40734.52752159
  entropy T*S    EENTRO =        -0.08716690
  eigenvalues    EBANDS =     -4581.49366034
  atomic energy  EATOM  =     13537.65479391
  Solvation  Ediel_sol  =         0.00000000
  ---------------------------------------------------
  free energy    TOTEN  =      -828.38710732 eV

  energy without entropy =     -828.29994041  energy(sigma->0) =     -828.34352386


--------------------------------------------------------------------------------------------------------




--------------------------------------- Iteration      1(  19)  ---------------------------------------


    POTLOK:  cpu time      0.3209: real time      0.3209
    SETDIJ:  cpu time      0.0402: real time      0.0402
     EDDAV:  cpu time      9.1409: real time      9.1443
       DOS:  cpu time      0.0008: real time      0.0008
    CHARGE:  cpu time      1.1548: real time      1.1562
    MIXING:  cpu time      0.3717: real time      0.3727
    --------------------------------------------
      LOOP:  cpu time     11.0293: real time     11.0350

 eigenvalue-minimisations  :  1360
 total energy-change (2. order) :-0.1172590E-02  (-0.3750334E-05)
 number of electron     368.0000001 magnetization 
 augmentation part        9.0630220 magnetization 

 Broyden mixing:
  rms(total) = 0.37635E-03    rms(broyden)= 0.37634E-03
  rms(prec ) = 0.48646E-03
  weight for this iteration     100.00

 eigenvalues of (default mixing * dielectric matrix)
  average eigenvalue GAMMA=   2.3741
  8.9236  5.4987  3.0873  2.3060  2.3014  2.0672  1.4399  1.4399  1.2109  1.2109
  0.9153  0.9153  0.9607  0.9607

 Free energy of the ion-electron system (eV)
  ---------------------------------------------------
  alpha Z        PSCENC =        91.34886789
  Ewald energy   TEWEN  =    118623.38064689
  -Hartree energ DENC   =   -129712.48516045
  -exchange      EXHF   =         0.00000000
  -V(xc)+E(xc)   XCENC  =      1276.89101503
  PAW double counting   =     40666.80702129   -40730.71802218
  entropy T*S    EENTRO =        -0.08715660
  eigenvalues    EBANDS =     -4581.18028568
  atomic energy  EATOM  =     13537.65479391
  Solvation  Ediel_sol  =         0.00000000
  ---------------------------------------------------
  free energy    TOTEN  =      -828.38827990 eV

  energy without entropy =     -828.30112330  energy(sigma->0) =     -828.34470160


--------------------------------------------------------------------------------------------------------




--------------------------------------- Iteration      1(  20)  ---------------------------------------


    POTLOK:  cpu time      0.3220: real time      0.3218
    SETDIJ:  cpu time      0.0403: real time      0.0403
     EDDAV:  cpu time      9.0608: real time      9.0639
       DOS:  cpu time      0.0008: real time      0.0008
    CHARGE:  cpu time      1.1533: real time      1.1541
    MIXING:  cpu time      0.3843: real time      0.3849
    --------------------------------------------
      LOOP:  cpu time     10.9614: real time     10.9657

 eigenvalue-minimisations  :  1344
 total energy-change (2. order) :-0.4872895E-03  (-0.1019634E-05)
 number of electron     368.0000001 magnetization 
 augmentation part        9.0630067 magnetization 

 Broyden mixing:
  rms(total) = 0.21523E-03    rms(broyden)= 0.21521E-03
  rms(prec ) = 0.27470E-03
  weight for this iteration     100.00

 eigenvalues of (default mixing * dielectric matrix)
  average eigenvalue GAMMA=   2.4219
  9.1931  5.8748  3.7425  2.6012  2.2593  2.0281  1.4886  1.4886  1.3609  1.3609
  0.9168  0.9168  1.0136  1.0413  1.0413

 Free energy of the ion-electron system (eV)
  ---------------------------------------------------
  alpha Z        PSCENC =        91.34886789
  Ewald energy   TEWEN  =    118623.38064689
  -Hartree energ DENC   =   -129712.69195760
  -exchange      EXHF   =         0.00000000
  -V(xc)+E(xc)   XCENC  =      1276.89052076
  PAW double counting   =     40667.21187040   -40731.12313915
  entropy T*S    EENTRO =        -0.08715831
  eigenvalues    EBANDS =     -4580.97321199
  atomic energy  EATOM  =     13537.65479391
  Solvation  Ediel_sol  =         0.00000000
  ---------------------------------------------------
  free energy    TOTEN  =      -828.38876719 eV

  energy without entropy =     -828.30160888  energy(sigma->0) =     -828.34518804


--------------------------------------------------------------------------------------------------------




--------------------------------------- Iteration      1(  21)  ---------------------------------------


    POTLOK:  cpu time      0.3218: real time      0.3218
    SETDIJ:  cpu time      0.0402: real time      0.0402
     EDDAV:  cpu time      8.7760: real time      8.7825
       DOS:  cpu time      0.0008: real time      0.0008
    CHARGE:  cpu time      1.1651: real time      1.1658
    MIXING:  cpu time      0.3965: real time      0.3966
    --------------------------------------------
      LOOP:  cpu time     10.7004: real time     10.7077

 eigenvalue-minimisations  :  1288
 total energy-change (2. order) :-0.2400172E-03  (-0.3628866E-06)
 number of electron     368.0000001 magnetization 
 augmentation part        9.0629961 magnetization 

 Broyden mixing:
  rms(total) = 0.11050E-03    rms(broyden)= 0.11049E-03
  rms(prec ) = 0.13793E-03
  weight for this iteration     100.00

 eigenvalues of (default mixing * dielectric matrix)
  average eigenvalue GAMMA=   2.4011
  9.1639  6.1732  3.8630  2.5333  2.5333  1.9510  1.9510  1.4848  1.4848  1.2323
  1.2323  0.9166  0.9166  1.0188  0.9813  0.9813

 Free energy of the ion-electron system (eV)
  ---------------------------------------------------
  alpha Z        PSCENC =        91.34886789
  Ewald energy   TEWEN  =    118623.38064689
  -Hartree energ DENC   =   -129712.82715557
  -exchange      EXHF   =         0.00000000
  -V(xc)+E(xc)   XCENC  =      1276.89054289
  PAW double counting   =     40666.33993920   -40730.25167107
  entropy T*S    EENTRO =        -0.08715822
  eigenvalues    EBANDS =     -4580.83781314
  atomic energy  EATOM  =     13537.65479391
  Solvation  Ediel_sol  =         0.00000000
  ---------------------------------------------------
  free energy    TOTEN  =      -828.38900721 eV

  energy without entropy =     -828.30184899  energy(sigma->0) =     -828.34542810


[...]
   0.218E+02 -.271E+02 -.166E+03   -.215E+02 0.279E+02 0.167E+03   -.398E+00 0.302E+00 -.884E+00   -.858E-05 0.181E-05 -.367E-05
   0.338E+01 -.244E+02 -.133E+03   -.263E+01 0.252E+02 0.133E+03   0.694E+00 0.253E+00 0.118E+01   -.685E-05 0.481E-05 -.362E-05
   0.270E+02 0.106E+02 -.159E+03   -.278E+02 -.110E+02 0.159E+03   -.117E+01 0.856E-03 0.432E-01   -.641E-05 0.547E-06 -.355E-05
   0.186E+02 0.909E+01 -.156E+03   -.200E+02 -.887E+01 0.156E+03   -.351E-01 0.110E+01 -.278E+00   0.102E-05 0.317E-05 -.335E-05
   0.340E+01 -.110E+02 -.166E+03   -.374E+01 0.107E+02 0.167E+03   -.627E+00 0.466E+00 -.620E+00   -.245E-06 0.246E-05 -.371E-05
   -.165E+02 -.118E+02 -.149E+03   0.166E+02 0.112E+02 0.148E+03   -.249E-01 -.985E+00 0.110E+01   0.965E-05 0.366E-05 -.353E-05
   -.130E+02 0.120E+02 -.122E+03   0.145E+02 -.126E+02 0.122E+03   0.775E+00 0.927E-01 0.652E+00   0.444E-05 -.219E-06 -.362E-05
   -.256E+02 0.131E+02 -.188E+03   0.262E+02 -.129E+02 0.189E+03   0.967E+00 0.230E+00 -.154E+01   0.118E-04 -.103E-06 -.392E-05
   -.240E+02 -.251E+02 -.135E+03   0.241E+02 0.267E+02 0.135E+03   -.111E+01 0.418E+00 -.427E-01   0.954E-05 -.311E-05 -.358E-05
   -.338E+02 -.110E+02 -.144E+03   0.340E+02 0.109E+02 0.144E+03   0.850E+00 -.130E+01 0.198E+00   0.776E-05 0.147E-06 -.315E-05
   -.134E+02 0.148E+02 -.867E+02   0.131E+02 -.161E+02 0.865E+02   -.123E+01 -.910E+00 0.132E+01   0.106E-04 0.141E-06 -.344E-05
   -.398E+02 0.252E+02 -.156E+03   0.405E+02 -.265E+02 0.157E+03   -.615E+00 0.805E+00 -.137E+01   0.822E-05 0.399E-06 -.364E-05
   -.256E+02 -.187E+02 -.893E+02   0.263E+02 0.201E+02 0.889E+02   -.500E+00 0.160E+01 -.294E-01   0.813E-05 -.661E-06 -.293E-05
   -.643E+01 -.175E+01 -.813E+02   0.452E+01 0.127E+01 0.819E+02   -.141E+01 0.394E+00 0.593E+00   0.521E-05 -.208E-06 -.239E-05
   0.131E+02 0.470E+01 -.240E+02   -.151E+02 -.453E+01 0.246E+02   -.967E+00 -.518E+00 0.729E+00   0.646E-05 -.110E-05 -.166E-05
   -.428E+02 0.111E+02 -.849E+02   0.454E+02 -.112E+02 0.848E+02   0.112E+01 -.352E+00 -.171E+01   -.293E-05 0.150E-06 -.689E-06
   -.297E+02 -.717E+01 -.526E+02   0.315E+02 0.750E+01 0.524E+02   0.692E+00 -.355E+00 -.220E+00   -.234E-05 0.418E-06 -.373E-06
   0.756E+01 -.176E+02 -.102E+01   -.865E+01 0.192E+02 0.121E+01   0.208E+00 -.325E+00 0.128E+01   -.256E-05 -.170E-05 -.237E-06
   -.982E+01 0.176E+02 -.194E+02   0.102E+02 -.192E+02 0.197E+02   -.204E-01 -.111E+01 -.658E+00   -.508E-05 0.559E-06 0.600E-06
   -.147E+02 0.170E+02 -.333E+02   0.148E+02 -.187E+02 0.342E+02   -.990E+00 -.180E+00 -.180E+01   -.312E-05 -.101E-05 -.295E-06
   -.141E+01 -.181E+02 0.112E+02   0.111E+01 0.204E+02 -.114E+02   0.486E+00 0.157E+01 0.948E+00   -.280E-05 -.124E-05 -.514E-06
   0.241E+01 -.109E+02 0.719E+02   -.165E+01 0.112E+02 -.725E+02   0.102E+01 0.655E+00 0.119E+01   -.489E-05 0.573E-06 0.168E-05
   0.673E+01 0.143E+02 0.360E+02   -.778E+01 -.157E+02 -.353E+02   0.678E-02 -.640E+00 -.712E+00   -.357E-05 -.130E-05 0.666E-06
   -.234E+01 0.112E+02 0.368E+02   0.231E+01 -.116E+02 -.362E+02   -.646E+00 -.247E+00 -.181E+01   0.341E-05 -.262E-05 -.350E-06
   -.282E+01 -.558E+01 0.769E+02   0.342E+01 0.489E+01 -.770E+02   0.705E+00 -.110E+01 0.305E+00   -.169E-05 -.199E-06 0.114E-05
   -.483E+00 -.130E+02 0.142E+03   -.133E+00 0.151E+02 -.142E+03   -.259E+00 0.110E+01 0.194E+01   -.216E-05 -.325E-05 0.283E-05
   -.481E+01 0.356E+00 0.144E+03   0.436E+01 0.976E+00 -.144E+03   0.227E+00 -.195E+00 -.509E+00   -.658E-05 -.467E-05 0.427E-05
   -.389E+01 0.597E+02 0.135E+03   -.504E+00 -.613E+02 -.135E+03   0.707E+00 0.641E+00 -.363E+00   -.612E-06 0.514E-06 0.523E-05
   -.596E+01 -.650E+02 0.202E+03   0.186E+01 0.667E+02 -.204E+03   0.609E+00 -.261E+01 0.232E+01   0.459E-05 -.965E-05 0.762E-05
   -.161E+02 0.652E+02 0.257E+03   0.191E+02 -.662E+02 -.259E+03   -.953E+00 0.130E+01 0.286E+01   0.576E-05 0.130E-05 0.522E-05
   0.539E+00 -.613E+02 0.195E+03   0.895E+00 0.614E+02 -.196E+03   -.270E+01 -.154E+01 0.351E+00   0.307E-05 -.181E-05 0.440E-05
   -.828E+01 -.111E+02 0.141E+03   0.806E+01 0.126E+02 -.141E+03   0.560E+00 -.232E-01 -.197E+01   0.295E-05 -.309E-05 0.311E-05
   -.579E+00 0.402E+01 0.594E+02   0.876E+00 -.453E+01 -.585E+02   -.112E+01 -.207E+00 -.160E+01   0.544E-05 0.136E-05 0.291E-05
   -.297E+02 0.254E+02 0.152E+03   0.299E+02 -.266E+02 -.153E+03   -.958E+00 0.921E+00 0.135E+00   0.220E-05 -.793E-06 0.239E-05
   -.131E+02 -.140E+02 0.103E+03   0.130E+02 0.139E+02 -.103E+03   0.241E+00 0.122E+01 0.116E+01   0.109E-05 0.197E-05 0.151E-05
   -.262E+02 -.524E+01 0.139E+03   0.258E+02 0.476E+01 -.140E+03   -.224E+01 -.239E+00 0.504E+00   0.317E-05 -.228E-05 0.231E-05
   -.330E+01 0.503E+00 0.156E+02   0.387E+01 0.773E+00 -.148E+02   0.186E+01 0.130E+01 0.558E-01   0.118E-05 -.220E-06 -.146E-06
   -.162E+02 0.735E+01 0.424E+02   0.171E+02 -.664E+01 -.418E+02   0.310E+00 -.340E+00 -.102E+01   -.231E-05 -.207E-05 -.338E-06
   -.598E+01 -.173E+02 0.454E+02   0.544E+01 0.172E+02 -.461E+02   -.293E-01 -.151E+01 0.104E+01   -.140E-05 -.134E-05 -.223E-06
   -.877E+00 -.949E+01 0.145E+02   0.434E+00 0.980E+01 -.143E+02   0.205E+00 0.329E+00 -.915E+00   -.522E-05 -.251E-05 -.140E-05
   0.849E+01 0.852E+01 -.185E+02   -.873E+01 -.746E+01 0.184E+02   -.788E+00 0.143E+01 0.522E+00   -.674E-05 0.145E-05 -.226E-05
   -.642E+00 0.137E+02 -.117E+02   0.887E+00 -.140E+02 0.111E+02   -.606E-01 -.285E+00 0.137E+01   -.801E-05 -.347E-05 -.216E-05
   0.116E+02 -.135E+02 -.837E+02   -.104E+02 0.141E+02 0.847E+02   0.522E+00 0.751E-02 -.159E+01   -.776E-05 -.172E-05 -.301E-05
   0.457E+01 -.439E+01 -.817E+02   -.334E+01 0.364E+01 0.825E+02   0.132E+01 -.403E+00 -.960E+00   -.689E-05 -.248E-05 -.205E-05
   0.247E+02 0.213E+02 -.718E+02   -.258E+02 -.224E+02 0.711E+02   -.135E+01 -.692E+00 0.840E+00   -.634E-05 -.341E-06 -.235E-05
   0.171E+02 0.307E+02 -.600E+02   -.181E+02 -.328E+02 0.591E+02   -.106E+01 -.806E+00 0.159E+01   -.766E-05 -.308E-05 -.296E-05
   0.225E+02 -.827E+01 -.131E+03   -.224E+02 0.908E+01 0.132E+03   0.688E+00 0.584E+00 -.113E+01   -.949E-05 -.249E-05 -.348E-05
   0.146E+02 -.786E+01 -.134E+03   -.141E+02 0.815E+01 0.135E+03   0.230E+00 0.341E-01 -.810E+00   -.783E-05 -.265E-05 -.372E-05
   0.166E+02 0.202E+02 -.159E+03   -.168E+02 -.212E+02 0.160E+03   0.575E+00 -.690E-01 -.945E+00   -.760E-05 -.317E-05 -.344E-05
   0.679E+01 0.146E+02 -.130E+03   -.734E+01 -.151E+02 0.130E+03   -.813E+00 -.456E+00 -.596E-01   -.817E-07 -.447E-05 -.364E-05
   0.334E+01 -.704E+01 -.131E+03   -.346E+01 0.702E+01 0.130E+03   0.202E+00 -.873E+00 0.995E+00   0.843E-06 -.473E-06 -.352E-05
   -.537E+01 -.465E+01 -.128E+03   0.449E+01 0.443E+01 0.128E+03   -.581E+00 0.104E+00 0.130E+00   0.708E-05 -.139E-05 -.363E-05
   -.207E+02 0.180E+02 -.174E+03   0.221E+02 -.187E+02 0.174E+03   0.366E+00 -.502E+00 -.209E+01   0.818E-05 -.322E-06 -.347E-05
   -.268E+02 0.143E+02 -.133E+03   0.281E+02 -.147E+02 0.133E+03   0.812E+00 -.257E-01 -.137E+01   0.104E-04 -.925E-06 -.375E-05
   -.541E+01 -.167E+02 -.802E+02   0.437E+01 0.178E+02 0.797E+02   -.628E-01 0.383E+00 0.197E+01   0.123E-04 -.296E-06 -.449E-05
   -.136E+02 -.108E+02 -.996E+02   0.127E+02 0.113E+02 0.100E+03   -.335E+00 -.417E+00 -.101E+01   0.115E-04 0.155E-05 -.376E-05
   -.202E+02 0.752E+01 -.866E+02   0.203E+02 -.732E+01 0.872E+02   -.253E+00 -.602E+00 -.983E+00   0.106E-04 0.779E-06 -.350E-05
   -.659E+01 0.153E+02 0.121E+02   0.750E+01 -.158E+02 -.128E+02   0.881E+00 -.124E+00 0.427E-01   0.712E-05 0.991E-06 -.841E-06
   -.664E+01 -.232E+02 0.724E+01   0.771E+01 0.245E+02 -.777E+01   0.107E+01 0.393E+00 -.127E+00   0.764E-05 -.197E-05 -.136E-05
   0.275E+02 -.140E+02 0.581E+02   -.282E+02 0.146E+02 -.583E+02   0.390E+00 -.402E+00 0.107E+01   0.532E-05 -.449E-06 0.354E-07
   0.268E+02 0.146E+02 0.437E+02   -.278E+02 -.158E+02 -.441E+02   0.930E-01 -.135E+00 0.178E+01   0.625E-05 0.161E-05 -.570E-06
   0.196E+02 0.144E+02 0.556E+02   -.199E+02 -.150E+02 -.558E+02   -.441E+00 0.170E-01 -.223E+00   0.115E-05 0.107E-05 0.135E-05
   0.119E+02 -.156E+02 0.332E+02   -.119E+02 0.166E+02 -.332E+02   -.716E+00 0.356E+00 -.611E+00   0.109E-05 0.714E-07 0.961E-06
   0.219E+02 -.948E+01 0.791E+02   -.222E+02 0.989E+01 -.795E+02   -.446E+00 -.227E+00 0.696E+00   -.388E-05 0.857E-06 0.192E-05
   0.150E+02 0.445E+01 0.544E+02   -.158E+02 -.472E+01 -.537E+02   -.930E+00 -.767E+00 -.432E+00   -.482E-05 0.179E-06 0.254E-05
   0.305E+02 0.123E+02 0.145E+03   -.308E+02 -.123E+02 -.145E+03   -.885E+00 0.951E+00 0.830E+00   -.415E-05 -.231E-05 0.263E-05
   0.264E+02 -.193E+02 0.153E+03   -.249E+02 0.199E+02 -.154E+03   0.226E+01 0.820E+00 0.448E+00   -.489E-05 0.152E-05 0.346E-05
   0.112E+02 -.757E+01 0.122E+03   -.110E+02 0.819E+01 -.122E+03   -.244E+00 0.300E+00 -.188E+00   -.375E-05 0.160E-06 0.208E-05
   0.332E+02 0.664E+01 0.134E+03   -.353E+02 -.682E+01 -.133E+03   -.453E+00 0.127E+01 0.125E+00   -.622E-08 0.279E-06 0.136E-05
   0.961E+01 0.210E+02 0.168E+03   -.871E+01 -.220E+02 -.169E+03   0.125E+01 -.861E+00 -.140E+00   -.238E-05 0.338E-05 0.283E-05
   0.547E+01 -.182E+02 0.161E+03   -.502E+01 0.187E+02 -.161E+03   -.233E+00 -.328E+00 0.112E+00   0.328E-05 0.349E-05 0.235E-05
   0.787E-01 -.192E+01 0.192E+03   -.113E+01 0.106E+01 -.193E+03   0.975E+00 -.432E+00 0.124E+01   -.817E-05 0.101E-05 0.432E-05
   -.603E+01 0.138E+02 0.152E+03   0.642E+01 -.153E+02 -.151E+03   0.627E+00 -.324E+00 -.138E+01   -.693E-05 0.535E-05 0.457E-05
   -.177E+02 0.635E+02 0.197E+03   0.155E+02 -.635E+02 -.197E+03   0.119E+01 0.151E+01 -.533E+00   0.364E-05 0.428E-05 0.544E-05
   -.268E+02 -.654E+02 0.235E+03   0.255E+02 0.657E+02 -.237E+03   0.103E+01 -.168E+01 0.281E+01   -.260E-05 0.364E-05 0.604E-05
 -----------------------------------------------------------------------------------------------
   0.131E+00 -.120E+00 -.438E+01   0.377E-12 -.256E-12 0.398E-12   -.130E+00 0.108E+00 0.435E+01   -.205E-05 -.162E-05 -.304E-04
 
 
 POSITION                                       TOTAL-FORCE (eV/Angst)
 -----------------------------------------------------------------------------------
      0.26352      0.80440     15.22090         1.502346      3.055231      0.779846
      0.21393      2.25266     15.14590         6.267800     -0.974510      0.365344
      1.40450      0.14738     15.59220         1.338867      1.384882      0.110914
      1.44918      2.91965     15.24140        -0.561616     -3.040567      1.320820
      2.65024      0.84325     15.89380        -1.933465      0.841590      0.022502
      2.63131      2.22794     15.73040         0.895111     -0.533511     -0.308574
      3.80958      0.16939     16.27530         1.119214     -1.598084     -0.502109
      3.90659      2.83769     15.94130         1.045362     -0.267996      0.589906
      5.07793      0.79810     16.58540        -2.316273      0.203513      0.096602
      5.09636      2.17294     16.45700        -0.598627     -0.217166     -0.967943
      6.20215      0.12717     17.04760         1.339033     -1.113268      0.108502
      6.33430      2.80739     16.72610         0.081594     -0.311136      1.376536
      7.39088      0.76852     17.48180         0.149332     -0.021968     -0.340541
      7.46655      2.11744     17.31950        -0.287858      1.548226     -0.063974
      8.60390      0.13476     17.85850         0.424980      1.005320      0.516618
      8.64946      2.78732     17.75930         0.282300      1.856038      0.054285
      9.82547      0.79160     18.23000        -0.375737      1.110101     -0.607076
      9.86419      2.16518     18.22500        -0.015632      1.032823     -0.616216
     11.06680      0.16141     18.34060         1.446629      1.072631      0.916264
     11.15230      2.86348     18.38410        -1.960496     -0.304826     -0.215952
     12.36000      0.82548     18.45350        -1.455935      1.320529     -0.101212
     12.39510      2.20642     18.46150        -0.970505      0.118551     -0.245437
     13.61010      0.24451     18.40950         0.029589     -1.549451      0.651771
     13.61170      2.89153     18.32650         2.242632     -0.531752      0.235303
     14.85770      0.88253     18.33910         1.577037      0.404578     -0.847550
     14.91600      2.23369     18.21440        -1.015889      2.042848     -0.031996
     16.08650      0.25409     18.02060         1.052728     -1.427140      0.017471
     16.15520      2.92295     17.84220        -1.511025     -2.149238      1.098639
     17.36090      0.85778     17.72610         0.077979     -0.492496     -0.909166
     17.35900      2.20366     17.57130         0.253633      2.934750     -0.370504
     18.56080      0.20349     17.17800        -3.320942     -0.085830      1.209891
     18.51740      2.93403     17.02560        -2.989769     -0.350792      1.250375
     19.68750      0.90330     16.88580         3.726293     -0.530408     -1.855210
     19.68700      2.27963     16.79790         2.463630     -0.031630     -0.419027
     20.88220      0.23054     16.29960        -0.878940      1.291763      1.464095
     20.87210      2.94769     16.31530         0.409696     -2.690430     -0.342009
     22.10990      0.89107     16.03200        -0.868288     -1.852148     -0.879256
     22.08370      2.22607     15.96330         0.185535      3.898834      0.678529
     23.22950      0.20725     15.50900         1.775008      0.982914      0.524690
     23.26760      2.95988     15.54800        -1.048317     -1.971732      0.033333
     24.49400      0.91644     15.33220        -0.677140     -0.604654     -1.139957
     24.46660      2.31420     15.26260         1.303229     -1.786005      0.238250
     25.70610      0.22340     14.95210        -0.875596      3.178265      1.532870
     25.69180      2.95196     14.91280        -0.227840      1.137696     -0.211261
     26.92230      0.91199     14.95520        -3.681408     -0.972337     -0.848017
     26.91410      2.29191     14.81920        -3.491715     -0.957382      0.423573
      0.34378      4.94053     14.66670         1.999071      0.325376      1.474398
      0.39543      6.32230     14.84040        -1.264094     -1.511812     -0.864769
      1.50957      4.25261     15.11790         0.340360      1.470982     -1.484363
      1.50862      6.90205     15.38970        -0.818233     -0.709877     -0.732618
      2.79573      4.85379     15.41040        -0.670390     -0.289426     -0.344901
      2.71774      6.19765     15.56270         0.133572      1.099180      0.601107
      4.03621      4.20884     15.79710        -2.713210     -0.718438     -0.244309
      3.82382      6.85063     16.09120         2.427768      2.573676      0.871123
      5.13399      4.85876     16.32840         1.207173      0.373698     -0.394249
      5.08934      6.25032     16.39320        -0.563872     -1.677730      0.348784
      6.31467      4.17697     16.77830        -0.237935      0.629970     -0.779412
      6.25553      6.83244     16.93380        -1.036522      2.494085      0.466882
      7.46645      4.85187     17.23620         0.184999     -0.615481      0.773595
      7.41657      6.20842     17.38680         1.803810      0.575032     -0.656628
      8.62282      4.20227     17.69630         2.545749     -1.154570     -0.232446
      8.66420      6.89492     17.76770        -2.411554     -1.838863      0.169256
      9.91270      4.89918     17.97730        -2.086317     -2.906127      0.627849
      9.85050      6.23030     18.10360         0.819505      1.392929     -0.501599
     11.13010      4.23852     18.29420         0.769716      0.324083     -0.555283
     11.07200      6.91757     18.35520         0.327182     -1.002535     -0.489403
     12.39900      4.93847     18.35230        -1.364594     -0.878441     -0.142707
     12.34760      6.31325     18.37290         0.082838     -0.895981      0.513341
     13.63840      4.26279     18.30320        -1.459061     -0.112623      0.290045
     13.58360      6.97840     18.41400         1.759870     -1.182590     -1.571199
     14.83860      4.93180     18.14780         2.089612     -0.455428     -1.242663
     14.83420      6.29076     18.06970        -1.102620      1.504144      1.472374
     16.09160      4.28304     17.81270        -1.210653      0.087068     -0.401995
     16.05140      6.98358     17.83410        -0.140459     -0.392346     -0.436027
     17.18500      4.95377     17.26820         1.797481     -0.637032     -0.628267
     17.17660      6.31138     17.29380         2.137111      1.721500     -0.649494
     18.40620      4.29052     16.80530        -0.244041      0.210900      0.864896
     18.44550      6.97627     16.86680        -0.931014     -1.317402      1.446461
     19.61830      4.94221     16.40840        -0.752779     -0.591313     -0.438608
     19.63420      6.30023     16.46250        -0.749354      1.279578     -0.662656
     20.81970      4.26957     16.03520        -0.736077      0.176685      0.363035
     20.83710      6.98699     16.09010        -1.689701     -1.032632      0.203400
     21.97120      4.90570     15.53380        -1.232357      0.946982      0.460337
     21.89890      6.27573     15.54220         3.715838      1.394419     -0.616010
     23.19930      4.28887     15.31310        -0.019029      0.918497     -0.405332
     23.20110      6.94738     15.27920        -2.557576      1.081635      0.715341
     24.37030      4.99173     14.95400         2.150649     -1.885966     -0.524979
     24.40680      6.33975     14.97070         0.222420      0.133543     -0.365445
     25.65240      4.34340     14.75040        -0.072929     -1.301244      0.735595
     25.66170      6.99611     14.84930         1.020018     -1.778270     -0.741446
     26.89940      4.97124     14.65060        -1.061249      1.543784     -1.206320
     26.89890      6.36515     14.60900        -0.335669     -1.426248      1.121366
 -----------------------------------------------------------------------------------
    total drift:                                0.001266     -0.012007     -0.036321


--------------------------------------------------------------------------------------------------------



  FREE ENERGIE OF THE ION-ELECTRON SYSTEM (eV)
  ---------------------------------------------------
  free  energy   TOTEN  =      -828.38913096 eV

  energy  without entropy=     -828.30197183  energy(sigma->0) =     -828.34555139
 


--------------------------------------------------------------------------------------------------------


    POTLOK:  cpu time      0.4538: real time      0.4537


--------------------------------------------------------------------------------------------------------


     LOOP+:  cpu time    332.9351: real time    333.1374
    4ORBIT:  cpu time      0.0000: real time      0.0000

 total amount of memory used by VASP MPI-rank0  2294515. kBytes
=======================================================================

   base                                    :      30000. kBytes
   nonlr-proj                              :      15081. kBytes
   fftplans                                :     436558. kBytes
   grid                                    :     732614. kBytes
   one-center                              :        282. kBytes
   wavefun                                 :    1079980. kBytes
 
  
  
 General timing and accounting informations for this job:
 ========================================================
  
                  Total CPU time used (sec):      366.192
                            User time (sec):      357.611
                          System time (sec):        8.581
                         Elapsed time (sec):      366.431
  
                   Maximum memory used (kb):     3734200.
                   Average memory used (kb):          N/A
  
                          Minor page faults:      3179153
                          Major page faults:         6771
                 Voluntary context switches:        10402
