unknown system                          
            1
    28.050000    0.000000    0.000000
     0.000000    8.100000    0.000000
     0.000000    0.000000   33.500000
   C 
    92
Direct configuration=     1
   0.41496257  0.42391235  0.86892537
   0.41634581  0.59800494  0.87567164
   0.45750802  0.34383210  0.86113433
   0.45894118  0.68037407  0.87244776
   0.50260606  0.42423951  0.86277612
   0.50332620  0.58762716  0.87211940
   0.54826738  0.34195062  0.86325373
   0.54592870  0.67142099  0.87710448
   0.59145811  0.42657407  0.86967164
   0.58943316  0.59509136  0.87844776
   0.63596078  0.34835062  0.87826866
   0.63267023  0.68178272  0.89032836
   0.67880927  0.43514938  0.88859701
   0.67730125  0.60125679  0.89626866
   0.72154724  0.35343457  0.89934328
   0.71968271  0.68626049  0.90991045
   0.76290909  0.43840864  0.91477612
   0.76164349  0.60366049  0.92107463
   0.80504100  0.35423704  0.92423881
   0.80275936  0.68525062  0.93567164
   0.84746881  0.44054321  0.93456716
   0.84592513  0.60296543  0.94546269
   0.89233868  0.35690864  0.94104478
   0.88983957  0.68735556  0.95522388
   0.93563280  0.43516914  0.95086567
   0.93534403  0.60429012  0.95653731
   0.97835294  0.35642963  0.94901493
   0.97896613  0.68567654  0.96391045
   0.02291098  0.43596296  0.95056716
   0.02416545  0.60029259  0.95973134
   0.06662531  0.35021358  0.94564179
   0.06937897  0.68183951  0.96020896
   0.11083351  0.43089630  0.94402985
   0.11342496  0.59843951  0.95253731
   0.15432870  0.34645802  0.93423881
   0.15763565  0.67622222  0.94782090
   0.19707843  0.42461481  0.92328358
   0.19937219  0.58965556  0.93307463
   0.23812406  0.34129259  0.90808955
   0.24133690  0.67287407  0.92510448
   0.28200784  0.42279877  0.90089552
   0.28408663  0.58911358  0.91137313
   0.32260463  0.34147531  0.88698507
   0.32748449  0.67054444  0.90238806
   0.36331194  0.42764198  0.87770149
   0.36673084  0.59087407  0.88552239
   0.41547237  0.92665556  0.87659701
   0.41377540  0.09807309  0.86907463
   0.45879857  0.84720247  0.87214925
   0.45712656  0.17359383  0.86235821
   0.50411052  0.92934691  0.87301493
   0.50306595  0.09046963  0.86271642
   0.54558645  0.84313210  0.87913433
   0.54790374  0.17318395  0.86394030
   0.58971836  0.93009506  0.88480597
   0.59170053  0.09126852  0.87459701
   0.63243137  0.84981111  0.89229851
   0.63548663  0.17722469  0.87877612
   0.67603922  0.93583827  0.90191045
   0.67868093  0.10170037  0.89367164
   0.71739394  0.85211111  0.91307463
   0.71967914  0.18448272  0.90429851
   0.76024242  0.93625679  0.92232836
   0.76058111  0.10676519  0.92023881
   0.80130125  0.85442469  0.93779104
   0.80493048  0.18633827  0.92770149
   0.84468093  0.93649877  0.94722388
   0.84668449  0.10476000  0.93976119
   0.88870588  0.85848025  0.95674627
   0.89140820  0.18624568  0.94519403
   0.93445633  0.93937037  0.95979104
   0.93489483  0.10636568  0.95235821
   0.97926203  0.85239877  0.96367164
   0.97817825  0.18427407  0.95050746
   0.02458446  0.93621728  0.95949254
   0.02345572  0.10295914  0.95208955
   0.06852799  0.85557778  0.95949254
   0.06778253  0.18347901  0.94755224
   0.11389340  0.93199753  0.95217910
   0.11195437  0.09787778  0.94477612
   0.15794474  0.84780247  0.94794030
   0.15345419  0.17610000  0.93244776
   0.19890624  0.92849877  0.93385075
   0.19568164  0.09145481  0.92241791
   0.24165989  0.84588025  0.92271642
   0.23600998  0.17137284  0.90722388
   0.28210410  0.92501235  0.90564179
   0.27925062  0.08822704  0.89611940
   0.32565348  0.84166543  0.89892537
   0.32033405  0.17147531  0.88149254
   0.36518004  0.92815679  0.88474627
   0.36230303  0.09421321  0.87543284
