  2.1932163e+00   1.2564839e-02
  3.3775446e+00   2.7998900e-03
 -2.7951378e-02   7.2200005e-03
 -7.2872758e-01   2.5522923e-02
  1.2946466e+00   1.4923167e-02
  2.3862538e-01   6.9561540e-03
 -1.6100917e+00   1.6252026e-02
  7.1902287e-01   1.7913964e-02
 -7.6528585e-01   1.0843783e-02
  3.6217663e-01   9.3100211e-03
 -6.4677973e-03   1.2474208e-03
 -1.4439083e+00   3.1730256e-03
 -1.1681478e+00   2.9981036e-03
  1.6553670e-01   2.1240581e-03
  1.8104922e+00   5.0001056e-04
 -6.4573556e-01   1.1895014e-03
 -1.3055992e+00   1.0946075e-03
 -1.9145494e+00   7.7734352e-03
  9.7577786e-01   5.7735946e-04
  1.7788202e+00   3.4012143e-03
 -7.9339224e-01   6.4494945e-03
  7.6374100e-03   1.0032536e-02
  9.7723478e-01   4.7508017e-03
  2.4444730e+00   5.9842924e-03
 -5.5628794e-01   2.6447556e-03
 -7.2486979e-01   9.3214372e-03
 -1.1729449e+00   2.1226555e-05
  5.4630367e-03   3.3280393e-03
  6.6022223e-01   1.9656274e-02
  1.1974075e+00   7.9511981e-03
 -5.0860792e-01   3.7100536e-03
  2.4978261e-01   1.2809666e-02
  1.7213124e-01   3.0788485e-04
  3.8061258e-01   5.6575254e-02
 -1.8789877e+00   1.6654106e-02
  1.4970180e+00   4.0734542e-04
  1.1537287e+00   6.4432819e-04
  3.0618026e+00   7.7534904e-04
 -1.1926759e+00   3.5660930e-03
  1.0443915e+00   1.8512456e-04
  1.4041458e+00   4.8922128e-03
  1.8906871e+00   2.7366644e-03
 -3.0244708e+00   7.5604592e-04
  1.4930162e+00   5.9434893e-03
 -1.2116386e+00   6.4538966e-04
  2.1733384e+00   4.3772532e-05
  9.4866765e-01   1.0589423e-04
 -1.0066817e+00   4.9678986e-03
  4.3811262e-01   3.6769840e-03
 -8.7421578e-01   5.6291370e-05
  2.0688355e+00   1.1710281e-04
 -2.7895906e+00   4.2644795e-05
 -1.7495511e+00   1.4795653e-04
 -1.8912162e+00   1.8752130e-03
 -3.8409126e-01   5.2022189e-04
  4.1710895e-01   2.4572600e-04
 -1.9711419e+00   2.7698725e-03
  1.6810622e+00   1.1130389e-03
  4.5065036e-01   1.4824731e-03
 -7.4019754e-01   8.2059321e-04
  9.2085296e-01   4.4436741e-04
  2.8904295e-02   3.3386823e-04
  3.2543344e+00   8.1172402e-05
  3.0432555e-01   1.9093353e-02
 -1.2261410e+00   2.0214631e-03
  3.4610081e-01   3.2570164e-04
 -6.8553960e-01   2.5020601e-04
  1.7023970e+00   2.1947322e-03
 -4.9136128e-02   1.9437231e-02
 -8.6736614e-01   1.5409383e-02
 -1.3635311e-01   5.5324836e-03
 -1.1871845e+00   1.1349453e-03
  3.2720900e-01   7.2735333e-04
 -1.1319926e+00   6.6608139e-03
  1.2654599e+00   5.1103402e-03
 -1.4475548e+00   1.0257824e-04
  2.7786510e+00   3.0602005e-03
  3.7959903e-01   8.2020415e-03
  6.6781080e-01   2.4464231e-02
  1.2331266e+00   1.4332329e-02
 -4.4777194e-01   2.9634528e-03
  5.5830133e-01   2.5158408e-03
  3.7754396e-01   5.5122012e-03
  1.6179227e+00   1.3362344e-02
  7.5788748e-01   4.4206437e-03
  1.1442750e+00   2.7467287e-03
 -2.6780641e-01   1.4413315e-03
 -1.4480356e+00   3.9651315e-03
  4.9693827e-02   2.8866390e-04
  2.4128015e+00   4.8444602e-03
 -1.0928450e-02   4.1243811e-03
  2.2700529e+00   7.5479401e-03
  3.7171254e-01   9.3727149e-03
  1.0848159e-01   1.0585992e-02
  8.8424313e-01   2.7900969e-03
 -1.3476628e-01   7.1366201e-04
 -3.5070860e+00   1.6442672e-03
  7.5952381e-01   8.2045635e-03
  9.4833761e-01   4.2892363e-02
 -7.5430918e-01   1.6080415e-02
 -1.3521003e+00   2.0772018e-02
 -5.3133810e-01   4.6815515e-02
  7.6431453e-01   1.6977996e-02
 -1.4058636e+00   3.1114893e-02
  6.9867897e-01   2.2385197e-02
 -2.1310310e+00   1.1595900e-04
 -1.0617976e+00   9.6261370e-05
 -1.6765275e+00   6.6209701e-05
  2.6011530e-01   5.3810868e-03
  4.0477621e-03   8.9398643e-05
 -2.2195742e+00   1.8279487e-04
  2.3079622e-01   2.3849311e-04
  3.0283217e+00   8.6562337e-05
  3.8949311e-01   5.3550664e-04
  4.1703960e-01   1.2587637e-03
 -2.8668121e-01   6.6510506e-04
  2.5999930e+00   3.7565693e-04
  7.7945787e-01   1.2424090e-03
  3.2862416e-01   1.8333789e-03
 -2.2654594e-01   1.7275075e-04
 -2.7405697e-01   2.4116818e-05
  2.3047504e+00   2.7953353e-04
  2.3970907e+00   8.9630092e-05
  7.7687845e-02   7.8226789e-04
 -3.2326749e-01   3.4997708e-04
 -2.9455835e-01   1.0944998e-03
  1.2217643e+00   8.7649352e-04
  1.1174048e+00   2.7838614e-04
 -7.4689633e-01   1.2359170e-02
  3.2613805e-01   2.6979830e-04
  1.3469521e+00   7.4203411e-04
 -8.1640273e-01   3.2411858e-03
 -2.3031111e+00   8.6488910e-03
 -1.4563282e+00   7.3107821e-04
  5.6927848e-01   1.4417486e-02
  1.0618259e+00   3.6931050e-03
  3.5372046e-01   2.7209761e-02
 -2.5277823e-01   1.7896667e-02
  1.2298528e+00   1.2903725e-03
  3.0933270e-01   2.8683222e-03
 -1.0959934e+00   8.1348903e-03
 -1.7135069e-01   4.0455531e-02
  2.0292079e-01   4.2672069e-03
 -1.0954689e+00   4.3713808e-02
  4.4352412e-01   4.3288278e-03
  2.6167074e-01   8.0472656e-04
 -4.4991744e-01   4.3717746e-02
  2.2966130e-01   1.2325953e-02
 -1.7212815e+00   1.4774525e-02
  1.0068176e+00   3.8730882e-02
 -2.2282211e-01   1.7292980e-03
 -1.4915787e+00   1.5748024e-03
 -9.1855681e-01   7.9265488e-03
 -1.2064415e-01   4.0357024e-03
  1.1770998e+00   1.4066482e-03
 -1.8102922e-01   3.0071210e-04
  6.8841559e-01   1.2213802e-03
  2.6452965e-01   2.8598432e-03
  1.2046402e+00   3.7103940e-02
  2.4776693e-01   2.8218668e-02
  1.6473687e-01   1.2761176e-02
  4.3268758e-01   1.0186598e-03
  6.3513243e-01   9.1272751e-03
 -3.9907905e-01   2.8956893e-03
  1.5842514e+00   3.5782527e-02
  1.0087695e+00   1.4398312e-03
  4.2272142e-01   1.4971405e-03
 -3.2189855e-01   1.5591268e-02
  2.9395315e-01   1.3900417e-02
 -5.2642137e-01   1.0146556e-02
  8.6082321e-01   1.9820688e-02
 -2.2818743e-01   5.6963626e-02
 -6.9261605e-01   9.1948109e-03
  6.6607267e-01   8.7218881e-02
 -3.2090721e-01   6.1366327e-02
 -1.7869883e+00   9.4111665e-04
 -2.5154281e+00   1.4735040e-03
  7.2301865e-01   1.9362113e-03
  1.0121080e-01   2.0095049e-03
  1.8264462e+00   2.7867861e-03
 -2.3602307e-01   5.3417211e-04
  1.6775636e-01   3.9706151e-03
  2.1510036e+00   1.0928736e-04
 -3.6648074e-01   1.0645770e-03
  3.5288608e+00   7.6516601e-04
 -2.0633934e+00   1.5241401e-04
 -4.9185854e-01   2.5855766e-03
  2.6639004e+00   3.3723668e-03
 -1.2391517e+00   5.4181428e-03
  1.5779965e+00   8.2608277e-04
 -5.9763736e-01   1.2276181e-03
  1.7832159e+00   5.1767943e-06
  2.9425755e+00   2.8444297e-04
  6.2084788e-01   3.2801463e-03
  3.0387771e+00   1.0727881e-03
  4.4755313e-01   4.1155712e-04
 -8.1365705e-01   1.7696558e-03
 -5.3147739e-01   4.5431601e-03
  2.4484479e-01   2.8680380e-02
  1.6616518e+00   1.9623407e-03
 -3.7557583e+00   1.1419915e-02
  3.5713819e-01   4.9960059e-03
  7.1388465e-01   1.0247189e-02
  1.1848027e-01   4.8278053e-03
  6.5034413e-01   1.6138973e-03
 -6.5827888e-01   4.7792215e-02
 -2.2331807e-01   3.3772324e-04
  9.3225294e-01   8.1253698e-04
  5.2766049e-01   7.5696789e-02
 -1.3857203e+00   1.1309769e-03
 -1.1412861e+00   2.1352200e-03
 -3.8977987e-01   1.5797823e-04
  1.0255110e+00   4.4884093e-04
  1.3769206e+00   2.7975568e-04
  2.3589814e+00   4.6918024e-03
 -3.7767842e+00   6.7126374e-03
 -5.5131644e-01   1.1382101e-02
  9.9431366e-01   1.1194419e-02
  2.1724632e-01   1.7263465e-02
  1.5796357e+00   3.1044078e-04
 -1.1683009e+00   1.7123543e-02
 -1.7084993e+00   2.4180561e-03
  2.4014637e+00   4.5669392e-02
  9.3501592e-01   1.0937591e-03
  1.6257715e+00   3.3075318e-03
 -5.2603823e-01   1.3652769e-03
 -1.5277656e+00   3.2786841e-03
 -1.0321664e+00   4.7164038e-03
  2.5872953e+00   3.4072335e-04
 -1.6438329e+00   2.2317739e-03
 -1.6275921e+00   1.2444659e-02
 -2.6587768e+00   5.2061002e-04
 -1.3009342e+00   3.5228536e-03
  1.9225345e+00   9.0686762e-04
  8.0842984e-01   4.6922280e-03
 -7.6157552e-01   2.3291824e-02
  8.0578864e-01   3.0494691e-03
  3.0943784e-01   2.5297457e-03
 -4.7671235e-01   3.0585472e-02
  3.5794821e-01   1.4223227e-02
 -5.1925373e-01   5.4086335e-02
  3.9360377e-01   2.2380252e-03
  5.3610486e-01   1.7586654e-02
  2.7442059e-01   9.4974466e-02
 -8.8334370e-01   5.9174811e-03
 -4.8703041e+00   1.2920033e-04
 -4.7286442e-01   3.6999848e-04
 -5.9661227e-01   3.0109475e-03
 -3.5375312e-01   5.6776409e-03
  2.5235245e+00   2.9233124e-03
 -3.6001115e+00   4.0639825e-03
 -2.7463329e+00   1.7832326e-04
  1.2750651e+00   2.6819888e-03
  1.3806629e-01   3.7485410e-02
 -2.2230475e-01   3.3783950e-03
 -6.1286025e-02   7.0057472e-04
 -1.8366598e+00   5.8366789e-04
  1.3178042e+00   5.9538595e-03
  3.3082470e-02   7.3516248e-03
  1.0832862e+00   2.2971889e-04
  3.6259177e-01   2.6767359e-03
 -2.0997005e+00   5.5084325e-04
 -1.0669935e+00   5.9871387e-04
  2.3594890e+00   5.6177884e-04
  1.1189487e+00   1.2949372e-03
  1.0518277e+00   2.1013283e-04
  6.2687033e-01   4.4188768e-04
 -1.3630672e+00   2.8156873e-04
 -8.8997149e-01   5.2826671e-04
  1.6692244e+00   1.8780674e-04
 -8.2233423e-01   9.8213681e-04
 -1.8529192e+00   3.9941464e-03
 -1.7159441e+00   1.2653289e-02
 -5.7145196e-01   5.8170790e-03
 -3.8372493e-01   2.3904553e-02
 -3.7054528e-05   1.3749411e-02
 -6.4193183e-01   1.3073981e-02
  9.3537849e-01   2.8461136e-02
 -5.2235436e-01   1.3509765e-02
 -8.6908185e-01   1.5659731e-02
 -5.4548484e-01   3.0992914e-03
  1.6564964e-01   9.8008325e-04
 -6.3417107e-01   1.6990298e-02
  2.5713537e+00   1.1941307e-04
  2.6774010e-01   3.8809937e-03
 -1.9027925e+00   1.2512283e-02
  4.5688328e-01   1.2991277e-03
 -3.3580965e-01   1.2041453e-02
 -6.2626475e-01   1.0731929e-02
  2.1665568e+00   3.5961729e-02
  5.9139574e-01   1.9734092e-03
  1.6335603e+00   7.9404358e-03
  1.0491430e+00   6.2462506e-03
  3.9197750e-02   2.1486940e-02
 -4.0508455e-01   6.0489606e-03
 -3.7125418e-01   2.4400854e-03
 -3.3703655e-01   7.3571973e-03
 -3.4979984e-01   5.3036236e-03
 -1.0729855e+00   5.3711100e-03
 -1.2403615e+00   8.3205532e-03
  1.8909262e+00   4.5384578e-03
  3.0384341e-01   7.1864277e-03
  1.0658830e+00   3.7810500e-03
 -7.9868175e-02   3.9746147e-04
  1.9429461e+00   1.6270371e-02
  1.4472218e+00   1.2066208e-02
  1.5003467e+00   1.2450099e-03
 -1.3408610e+00   2.5346598e-02
  9.1772902e-01   1.5505326e-03
  1.2240889e+00   3.1947657e-03
 -5.1024020e-01   1.9944457e-02
 -8.6814678e-01   1.1639139e-02
 -7.3375598e-02   7.8166306e-02
 -8.5680979e-01   1.7174885e-02
  2.4922960e-01   8.4447175e-02
  3.5966520e+00   2.0924392e-04
 -3.2936040e-01   5.3219072e-04
 -8.1368965e-01   4.0896107e-03
 -2.6419044e-01   6.8358737e-03
 -1.8303586e+00   8.9384373e-03
 -9.1783977e-01   4.8130103e-03
  3.5114741e-01   6.9468906e-03
  6.5713692e-01   1.8632272e-02
  3.1801332e-02   4.2589568e-02
 -8.7864137e-01   1.0759246e-02
  3.1728303e-01   1.0848004e-02
 -1.5961981e+00   4.8699079e-04
 -3.9184824e-01   9.6749666e-04
  1.1903508e+00   6.2669703e-04
 -1.7884550e+00   4.8723435e-03
 -1.8537387e+00   4.5837072e-04
 -1.3991551e+00   1.6936300e-03
  7.4301222e-03   4.8163654e-03
 -2.0530493e+00   2.8266921e-03
  4.5907474e-01   2.2958468e-03
  6.7201668e-01   2.5181652e-03
 -9.2909104e-01   2.4218571e-03
 -9.0979889e-02   1.9781355e-02
 -3.7732577e-01   3.9033048e-04
 -2.6267443e+00   2.0830154e-03
  2.7193518e+00   4.1433260e-02
  4.5063984e-01   4.2196998e-04
 -1.9388504e-01   8.3462019e-03
 -8.5125309e-01   1.1195647e-04
 -1.9639429e-02   7.3939459e-03
 -6.7138290e-01   1.5238818e-03
  5.6974739e-01   1.0242538e-03
 -1.0149536e+00   5.7596252e-03
  2.5637168e-01   1.0504453e-02
 -1.5230362e+00   4.3665539e-02
  1.4526807e+00   4.5046268e-04
  1.9982705e+00   1.6289174e-03
  7.4636060e-01   5.5697246e-04
 -8.1147218e-01   2.8252632e-03
 -1.3610202e-01   5.6600687e-03
  1.6253941e+00   4.0490814e-03
  6.3697022e-01   6.7756888e-03
  4.0253568e+00   8.7901456e-03
  2.4910958e-02   5.6655905e-03
 -1.9869216e-01   1.1245105e-02
 -4.2837361e-01   1.4683233e-03
  1.2755689e-01   1.1498504e-03
  8.6640751e-01   6.3980324e-03
  1.0966035e+00   7.8672897e-03
  1.0391906e+00   1.0109922e-03
  8.5253257e-01   5.7465371e-05
  8.1490582e-01   6.2181065e-03
 -2.9346862e-01   1.6262552e-03
 -5.4140025e-01   3.6807319e-03
 -5.8092451e-01   4.7785831e-03
  3.2803824e+00   3.0046033e-03
 -1.5626413e-01   5.5680843e-04
 -8.0139244e-01   2.0293368e-02
  1.3400566e-02   9.0070238e-04
  6.0769737e-01   2.9722468e-03
  1.3640356e+00   2.9396027e-04
  4.0193945e-01   1.2340804e-03
  2.7543378e-01   1.3963703e-02
  3.0758178e+00   2.6936547e-04
 -2.5686163e-01   3.7669864e-02
  6.5591121e-01   5.9561051e-02
 -1.3061963e+00   7.5707503e-04
 -4.3811324e-01   6.1594170e-02
 -1.0783257e-01   8.4041677e-02
  6.3373893e-01   3.2157999e-02
  1.6962835e+00   7.9811811e-03
 -3.3853912e-01   6.5777067e-04
 -2.4848768e-02   3.1183880e-02
  1.5995796e-01   1.9865086e-02
  1.8282554e+00   1.0072405e-02
 -1.2299727e+00   1.7085185e-02
  1.9421419e-02   6.0739419e-03
  1.0368896e+00   3.4477874e-03
  1.0043583e+00   1.5632028e-03
  1.9116292e+00   1.4376321e-02
  4.9586818e-01   4.1673513e-04
  2.6452610e-01   8.5920090e-04
 -8.4260947e-01   1.6687123e-02
  4.3765011e-01   1.0276177e-04
  1.1109631e+00   3.5543963e-03
 -1.4233346e+00   9.7299126e-05
  3.8773749e-02   3.7967972e-03
  6.1533874e-01   1.6493691e-02
  4.6083737e-02   1.9202299e-02
 -1.1499760e+00   8.4956111e-03
 -2.5110819e+00   1.1168966e-02
 -8.6385590e-01   4.0943567e-02
  1.3735158e+00   5.0260790e-04
 -5.6183952e-01   6.1139282e-02
  4.0872741e-01   1.9458050e-02
  4.7898969e-01   1.9518856e-02
  3.1953616e+00   2.4854686e-04
 -7.5071847e-01   6.4670942e-03
 -8.2594347e-01   6.5273397e-02
  3.4493116e-01   8.2926750e-02
  9.8395473e-01   8.6618708e-03
 -1.4777174e+00   4.8198868e-02
  8.0269963e-02   1.1117667e-02
 -3.5470191e-01   3.2549798e-02
  3.3467209e-01   7.2267100e-02
  5.3064442e-01   2.0842808e-03
 -1.6358127e-01   5.1232781e-03
  4.9106351e-01   8.8971341e-03
 -1.9990218e-01   4.3309718e-02
 -2.3449223e+00   2.6519047e-02
 -1.7821564e-01   1.7424967e-03
 -4.3457699e-01   3.1111803e-02
 -2.1451266e+00   4.3772880e-02
 -1.4447798e+00   2.0799378e-03
  1.6526626e-01   1.7144193e-03
 -1.6376967e+00   8.2521988e-03
 -2.5418371e-01   1.2262019e-04
 -9.1893113e-01   2.1590602e-02
 -1.9155608e-01   4.6663903e-02
  5.5200106e-01   3.5018651e-03
 -6.5002906e-01   1.1619636e-02
 -1.5481968e+00   2.1638253e-03
  4.3800488e+00   9.9192020e-03
 -3.9481831e-01   2.2879073e-03
 -1.2468480e+00   6.3463547e-03
  1.4475172e+00   3.8418695e-03
 -1.2951972e+00   3.4241439e-04
 -3.1155747e-01   1.0102103e-03
 -1.8402673e+00   5.5936206e-02
  6.4241022e-01   2.5639581e-02
  8.0813736e-01   7.9632539e-04
  6.9223183e-01   3.0488543e-02
 -1.9755825e-01   3.8330499e-03
  2.3249136e-02   2.3728117e-02
 -2.5402352e-02   7.6272716e-03
  3.5860699e-01   8.0848671e-03
 -4.0933099e-01   8.9795224e-02
 -8.4506547e-01   5.2943781e-02
 -1.2394325e+00   6.6212952e-02
 -3.0730124e+00   3.9937985e-03
 -2.5197816e-01   1.4716936e-03
 -8.9348340e-01   1.7003362e-03
  7.1369177e-01   8.6498372e-03
 -2.4370867e-01   2.7604535e-02
  1.9661196e+00   2.1476715e-03
 -2.0288596e+00   8.6867427e-03
  6.9860291e-01   1.2079424e-02
 -1.4375226e-02   9.2733774e-04
 -4.2506647e-01   2.1308362e-03
  1.4470187e+00   1.8084379e-02
  9.8432124e-01   3.4432867e-04
  9.4194722e-01   1.6663197e-04
 -1.5481825e+00   9.4643300e-03
  5.8807200e-01   1.0493491e-02
 -1.3659078e+00   6.3737752e-03
 -1.0950185e+00   1.2159711e-03
 -1.8971974e+00   6.2223565e-04
 -7.9514709e+00   2.3863796e-02
  1.8088031e+00   1.4920231e-02
 -1.3606288e+00   5.8661844e-03
  7.4163103e-01   3.2936789e-03
  9.5799917e-01   3.9244743e-04
  4.4291595e-01   1.0509287e-02
 -1.6681625e-01   1.4144503e-02
  4.9746183e-01   1.6071959e-03
 -1.7826467e+00   2.4682354e-02
 -2.9158816e+00   2.5637562e-03
  1.1910115e+00   2.5104603e-03
 -3.0535036e-01   5.0665639e-02
  6.4741379e-01   1.2555078e-03
 -4.5236182e-01   1.5315342e-02
 -1.4454252e+00   2.3795877e-02
  4.8752582e-01   1.9273629e-02
 -1.0137748e+00   3.5618579e-03
 -3.0641600e-01   1.4021158e-03
  1.2262193e+00   2.2907605e-02
 -6.4090532e-01   1.7199229e-02
  5.4374903e-01   2.3231065e-02
  3.8338974e-01   2.3737326e-02
 -9.2744339e-01   9.2013910e-02
 -8.8116431e-01   1.4913879e-02
  9.1196686e-02   2.3025015e-02
 -1.0513958e+00   4.8996793e-04
  5.9919924e-01   4.7563371e-04
 -4.6470192e-01   1.6127538e-03
 -1.1257452e+00   6.8664425e-03
 -1.3049862e+00   3.5926074e-04
 -5.1571882e-01   1.2563649e-03
  7.0633656e-01   1.6149018e-03
  1.3174660e+00   1.3511589e-02
 -1.4285136e+00   5.3032737e-02
 -2.0956483e-02   1.6624868e-02
  7.4477726e-01   1.6861174e-02
  1.3441370e+00   2.7647287e-02
  1.1934718e-01   8.4681163e-04
  8.8551480e-01   1.0561949e-02
 -9.8255247e-01   1.0122748e-03
  5.3022623e-02   1.4544229e-02
 -1.1630955e+00   1.8343348e-02
  8.4558028e-01   2.5920819e-02
 -7.9172337e-01   2.4337914e-02
 -9.1996372e-01   8.0062012e-04
 -9.1136384e-01   3.2219227e-02
 -9.8165244e-01   3.5074785e-02
 -1.1760567e+00   1.8985434e-02
 -6.1001831e-01   5.9355475e-02
  1.0924851e+00   4.4905632e-03
 -9.5171355e-02   7.5087021e-03
  1.0164136e+00   5.2226692e-02
 -1.0633425e+00   2.4419969e-03
  1.1737505e+00   6.1165500e-03
 -8.8364296e-02   1.2136982e-03
 -1.6180644e+00   2.4817851e-03
  5.8517879e-01   6.8155152e-04
  2.5000679e-01   3.6261531e-03
  1.1668577e-01   2.5291131e-03
 -1.5523704e+00   4.1719135e-03
 -1.2883176e+00   1.8346651e-03
  1.8410343e+00   4.3438412e-03
  3.3502156e-01   4.8473556e-04
  2.2306449e+00   1.6820527e-03
  3.0456836e+00   2.6912219e-03
 -3.4065115e+00   5.6136592e-04
  1.3813207e+00   1.4236553e-02
 -5.2355105e-01   5.8037969e-03
 -2.6195812e+00   1.4775388e-03
  1.6283840e+00   1.1645576e-04
  2.2820827e-01   9.8396302e-04
  1.7455850e+00   2.0391440e-03
 -5.6394595e-01   1.4667279e-03
 -2.9231679e+00   1.6399471e-03
  1.8028105e+00   9.9366263e-04
 -9.8261505e-01   5.8291527e-04
 -5.7342106e-01   2.5093534e-03
 -7.1875674e-01   1.1087995e-03
  7.1621048e-01   1.0364447e-03
 -2.2633886e+00   2.2832807e-03
  1.4206780e+00   1.4727941e-03
 -3.9721492e-01   9.2613474e-03
 -7.8061086e-01   1.6732223e-03
 -1.0327020e+00   2.0984609e-02
 -7.8651983e-01   1.7727656e-02
 -6.5300351e-01   6.6634407e-04
 -7.2768897e-01   4.2346749e-03
 -4.0588540e-01   7.3733754e-03
 -3.3620271e-01   2.9334775e-03
  1.8734001e+00   2.4299313e-04
 -2.6362531e+00   3.3437849e-03
 -1.7998357e+00   7.9122866e-03
  2.0264635e+00   6.9301701e-03
 -2.1751139e-01   4.5825783e-02
 -6.8884850e-01   7.8963805e-03
 -1.4222070e+00   6.5620765e-03
  1.6812682e-01   1.3420690e-03
  9.6212810e-01   1.7810120e-03
  7.5437731e-01   1.3501993e-02
  1.8978984e+00   5.3327153e-03
 -7.6384676e-01   1.1720647e-03
  4.1946867e-01   7.4691009e-03
  6.1763537e-01   1.1457691e-02
  3.4641746e-02   4.5672371e-03
  2.2202770e-01   1.3096610e-03
 -8.9652193e-01   1.2817516e-03
 -8.1403923e-01   3.1813350e-02
  6.1081553e-01   2.5811531e-03
  1.7679678e-01   4.8734914e-03
  1.3792928e+00   1.0289429e-03
  7.4330252e-01   2.6385292e-02
  4.2834139e-01   8.7085105e-02
 -4.8369262e-01   1.5888976e-02
 -6.8598223e-01   8.3297782e-04
  6.3816011e-01   9.4607370e-03
 -3.7844604e-01   9.4851609e-03
 -8.1910682e-01   1.0000000e-01
 -3.3843267e-01   4.3969557e-02
 -5.2207756e-01   2.8281860e-02
  8.9842528e-01   2.2668939e-02
 -1.0065221e+00   1.5371846e-03
  6.9392455e-01   5.2199338e-02
 -3.8250530e-01   4.8096221e-02
 -3.2280791e-01   1.1930841e-03
  1.2244365e+00   2.8822396e-03
 -2.2913041e+00   8.4109989e-04
  1.0534283e+00   1.8354019e-03
 -2.2423110e+00   2.4050898e-04
 -1.7172347e+00   1.2128129e-02
  6.8622476e-01   5.0132060e-03
  7.0582765e-01   2.0467462e-03
 -2.4761815e-01   2.8618008e-03
  9.6220469e-01   4.2362409e-03
 -3.6307244e+00   2.9166860e-03
  2.9818432e+00   1.7339006e-04
  1.0319815e+00   3.4923764e-04
 -2.1806285e+00   1.8651102e-02
  2.2259977e+00   3.4084381e-03
 -1.9819632e+00   6.5333856e-04
 -1.6659954e+00   3.6672030e-03
 -7.5260162e-01   7.1563115e-03
 -3.9117566e-01   6.8202778e-03
 -2.4713814e+00   8.0780417e-04
 -2.6174538e+00   3.1869704e-04
 -7.2024781e-01   4.0870532e-03
 -3.6433306e-01   1.4164190e-02
 -4.3195987e-01   1.2891154e-02
 -1.6623766e+00   1.2536627e-02
 -2.5707684e+00   1.0520499e-02
  5.9120923e-01   8.2568796e-03
 -2.0381844e-01   2.4716510e-02
 -4.4797698e-01   4.5027614e-02
  1.4473960e+00   1.1444162e-03
 -3.8879845e-01   1.2716577e-02
  3.3265117e-01   7.8027463e-03
 -7.5050789e-01   2.2671882e-02
  8.2842749e-01   4.3756731e-02
  4.6871707e-02   1.3309728e-02
 -3.7413776e-01   1.7790468e-02
  4.7356564e-01   2.5355621e-04
  7.1282536e-01   5.8735698e-03
 -5.2332872e-01   1.4588442e-02
 -9.7758937e-01   1.4952106e-02
 -3.3864444e-01   4.7593759e-03
 -1.1688561e-01   4.0905904e-03
  1.4313521e+00   3.5070264e-04
 -1.0932572e+00   7.8496907e-04
 -9.4677782e-01   1.0590416e-03
 -2.0073920e-01   6.5597089e-04
  1.5966657e-01   8.5628880e-03
 -8.4224649e-02   3.3114646e-03
  1.9696139e-02   3.8113192e-02
 -3.4687382e-01   1.5293298e-03
  4.6105766e-01   2.8749005e-04
 -9.9365318e-01   4.8672934e-03
  7.6042455e-01   9.4408188e-03
 -7.2293586e-01   1.7043620e-02
 -4.4465730e-01   9.2046103e-03
  2.4382178e-01   1.4325716e-02
 -7.4694622e-01   1.6401904e-02
 -1.9316335e+00   1.8117059e-02
 -8.5877234e-01   3.4413324e-03
 -1.1254784e+00   6.7225713e-03
  2.4006030e-01   1.4344196e-02
  3.1603095e-01   1.2923133e-02
 -3.7864974e-01   4.8997649e-04
  6.8133616e-01   5.9272602e-02
  6.8565589e-01   2.2005277e-02
  6.2960809e-01   1.6176287e-02
  5.5538547e-01   6.8685897e-03
  8.0710638e-01   1.0174409e-03
 -6.6559458e-01   2.8419545e-02
 -6.2082475e-01   8.8097535e-02
 -1.2144905e+00   2.6647178e-02
  6.3170588e-01   4.6027647e-03
  8.4200822e-02   1.0977213e-03
 -1.2222387e+00   3.4083924e-03
 -5.1426440e-01   3.6092841e-03
 -4.9058527e-01   8.1294554e-04
 -4.7322786e-01   8.2304766e-03
 -3.8707826e-01   2.9274588e-03
 -2.1437262e-01   4.4677418e-02
 -1.9624686e-01   3.3990620e-04
  4.3246737e-01   3.8322026e-03
 -2.0456494e-01   8.1784499e-04
 -1.3169521e+00   4.2865775e-03
  5.1590234e-01   8.0909217e-03
 -9.1995054e-01   1.1885814e-02
 -4.1180244e-01   8.7554101e-03
  4.4897214e-01   5.1843002e-03
  4.5342681e-01   5.9534870e-03
  5.1159054e-01   1.8082194e-02
  1.8820459e+00   5.2567595e-03
 -6.0751432e-01   5.7294816e-03
 -9.5508575e-01   1.2833687e-03
  1.3323531e+00   3.4822763e-03
  7.4412613e-03   3.5791704e-03
 -1.2270191e+00   1.1577085e-02
 -1.0729094e+00   6.5185390e-03
 -2.0432733e-01   1.1840506e-03
  3.4348741e-02   1.1537081e-03
  1.5580535e+00   9.2130192e-03
 -2.9694125e-01   2.3480415e-02
 -6.9707149e-01   1.0885748e-02
  2.2374054e-03   1.6471988e-02
  1.8073919e+00   1.8873967e-02
 -8.1488943e-01   3.0279079e-02
  3.3537689e-01   1.2908719e-04
 -9.4663841e-01   2.3393007e-02
 -1.5576762e+00   9.7609647e-03
  7.5409991e-01   6.8746745e-03
  5.1211929e-01   1.7659249e-02
  9.8384583e-01   7.2098292e-02
 -4.7898349e-01   5.7405066e-03
 -8.0161387e-01   2.6126830e-03
  1.2222702e-01   2.1250473e-02
 -6.7381978e-01   1.3828691e-02
 -6.2613595e-01   1.2356907e-03
 -3.6264786e-01   2.8369371e-03
  1.5824718e+00   3.0949240e-04
  1.8687760e+00   2.6150229e-03
  6.7710990e-01   1.7318707e-03
 -1.5099926e+00   4.2303773e-03
  2.6464671e-02   5.2382005e-04
 -5.6439710e-01   2.1009907e-04
  1.1107762e+00   1.5839033e-02
  8.5496497e-01   9.3502058e-06
 -6.3605434e-01   1.4870720e-02
 -3.0014086e-01   2.8909633e-02
  1.7431895e+00   4.8959203e-04
 -2.9346794e-01   2.5732549e-02
  5.4659420e-01   2.4372251e-03
 -1.1501513e+00   7.2942390e-03
  1.8622385e-01   1.1477341e-02
 -8.5080481e-01   3.8708249e-06
  3.5160482e-02   9.0670049e-02
  4.1380683e-01   3.2435454e-02
 -7.3761421e-01   4.4332854e-02
  6.5636945e-01   4.4443314e-03
  2.6443267e-01   1.1463963e-03
  5.2780402e-01   2.1401192e-03
 -1.0768632e+00   1.1376210e-03
 -2.4594972e-01   9.5428561e-04
  3.3430281e+00   1.7915264e-03
  8.7330127e-01   9.5233455e-04
 -8.9710760e-01   9.4449183e-04
 -1.2191606e+00   1.4865566e-03
  1.7503902e-01   1.8630939e-03
 -2.1155717e+00   5.3024474e-03
  2.6167028e-02   2.7304436e-03
  1.6026957e+00   1.1102054e-02
 -1.0023756e+00   1.4557354e-02
  3.5636625e-01   5.3197392e-03
 -3.0033982e+00   8.1288291e-04
 -1.8415843e-01   3.2529770e-04
 -4.6429837e-01   5.8758147e-03
 -6.4878196e-01   2.7045787e-03
 -1.7431222e+00   8.9635677e-04
 -2.4717587e-01   8.0039934e-04
 -9.3326503e-01   5.1252561e-04
 -2.9062574e+00   7.8923826e-05
 -4.3547776e-01   4.6172542e-03
 -5.3933334e-01   1.3734792e-04
  1.1293497e+00   2.2561816e-03
 -5.4915625e-01   1.6979730e-03
 -4.0486258e-01   6.2112752e-03
 -7.8425521e-01   1.3125198e-03
 -2.7603631e+00   9.2601212e-04
 -2.8546646e-01   2.4692162e-03
  9.0272331e-01   4.2138584e-03
  2.0240111e+00   1.9019026e-02
 -5.1983827e-01   1.4698149e-02
  8.0545440e-02   4.8032496e-03
 -1.0013880e+00   6.0083619e-03
 -1.7445383e+00   3.3258945e-02
 -1.3148336e+00   2.2883790e-02
 -3.6573052e-01   8.9786254e-02
 -8.2286423e-01   4.2861547e-02
  1.2293737e+00   3.0616303e-03
  3.8590857e-01   1.7049436e-03
  1.6596435e+00   5.3141159e-03
 -1.0692837e+00   2.6841538e-03
 -1.8970393e+00   7.4550803e-03
  1.3614558e+00   1.0524914e-02
  5.7888824e-02   2.8885473e-04
 -7.0651877e-01   9.3334951e-03
 -3.8643721e-01   3.8456477e-04
  1.0596852e+00   4.6723839e-03
 -2.8373027e-01   1.1154177e-03
  1.6033140e-01   5.1606912e-04
 -1.6991609e-01   1.8042619e-03
 -1.3383554e+00   1.9438591e-02
  2.2262426e-02   7.3949905e-04
  1.3744667e+00   8.4254035e-04
 -1.0291790e+00   1.4010610e-03
  8.7904751e-01   2.1072424e-03
 -4.9812063e-03   4.1849304e-02
 -2.6883678e+00   1.8451292e-03
 -3.7928018e-01   3.5028134e-03
 -1.0855794e+00   3.7985691e-03
 -1.2349731e+00   3.4280100e-03
 -9.0564632e-01   1.8161431e-02
  1.1903234e+00   6.5381881e-03
 -2.0543921e-01   1.5043316e-03
  9.4772846e-01   2.3578950e-03
 -4.2663449e-01   7.0465817e-03
 -8.4975702e-01   4.7514353e-02
  3.5155764e-01   7.3418784e-04
 -1.3633060e-01   1.5242812e-02
  1.0407375e+00   7.8363106e-02
  2.0931426e-01   3.8865231e-02
 -1.1699120e+00   5.5460569e-02
  1.6921283e+00   6.4592160e-02
  1.0673821e+00   1.4100365e-03
  2.2493100e-01   1.8955960e-05
 -3.6846738e+00   1.0806132e-03
 -1.8677486e+00   1.3478659e-04
  6.3237838e-02   1.5831249e-03
 -1.6371362e+00   3.3815184e-03
  9.9826229e-01   6.1979855e-04
  3.4877884e-01   3.8183515e-04
 -1.2003890e-01   2.9366836e-03
 -2.2036490e+00   8.0002192e-04
 -2.1655159e+00   5.3713180e-04
  5.6298143e-01   1.0475693e-03
 -1.0238973e+00   8.0673152e-04
 -3.8703775e-01   2.2499694e-04
 -8.3232057e-01   1.7559859e-03
 -1.3194867e+00   3.1104681e-04
 -5.5093572e-02   1.4706012e-03
  6.8266875e-01   5.0032064e-03
 -1.0111077e+00   3.0139766e-03
  3.6313710e-01   3.8732489e-04
 -1.1352988e+00   2.1192147e-03
 -4.9689552e-01   1.5159076e-03
  1.7669657e+00   1.7527267e-03
  2.8862629e+00   7.7184022e-04
 -5.9980363e-02   4.2800168e-03
 -2.6218297e+00   3.7258273e-04
  1.7619829e+00   4.2144154e-04
  3.1655872e-01   4.5884273e-04
  6.5536779e-01   9.9908058e-03
 -3.5476023e-01   2.4556462e-03
 -3.7549627e-01   6.0643401e-02
  1.0286894e+00   1.1517491e-02
  4.5968467e-01   5.2892361e-03
  9.5910758e-02   7.4853420e-02
  4.9093956e-01   2.8712118e-02
  3.3555701e-01   4.7132107e-03
 -8.8459241e-01   8.5692300e-04
  1.9013779e+00   2.1280113e-03
  6.7492390e-01   1.1604346e-02
  7.1732897e-01   5.9364471e-03
  1.0353491e+00   1.3783710e-02
 -6.5819573e+00   2.9229123e-02
  4.7673118e-01   6.9664028e-03
  2.3331188e-01   4.3641832e-03
 -3.4659095e+00   2.8541379e-02
 -2.7543133e-01   1.0196380e-03
  2.7511854e+00   9.1018976e-04
  7.5240815e-01   2.5262393e-03
 -1.1034498e+00   3.6779942e-03
 -3.1785233e+00   1.1419834e-02
  1.6172371e+00   5.1152852e-04
 -1.4023532e+00   4.8813038e-04
  1.4746281e+00   1.1422366e-03
 -1.1948492e-01   4.2738691e-03
  1.1172966e+00   7.9354458e-04
 -1.6848026e-02   2.0350593e-03
  6.6784143e-01   2.2583080e-03
 -5.1818228e-01   6.0948869e-03
 -7.0621973e-01   1.2482173e-03
  1.1380693e-01   1.7375235e-03
  2.0010824e+00   1.1328687e-04
 -4.6248287e-01   4.3322723e-03
  5.2131426e-01   8.3447462e-03
  7.8024691e-01   2.3036192e-03
  2.1881459e+00   1.6520610e-02
  5.5655599e-01   3.9345596e-02
  1.4582061e+00   9.1446908e-03
  4.4674313e-01   1.6470497e-02
  3.8630638e-01   2.1484238e-03
  3.9577389e-01   2.7502642e-03
  2.6359339e+00   3.1957321e-03
 -1.6101544e-01   1.2756070e-03
  3.0047216e+00   2.7994867e-04
  9.9814135e-01   7.0437212e-03
 -3.1342430e+00   4.8060654e-04
 -1.4846051e+00   8.7899063e-04
  2.5031321e+00   4.8111416e-03
 -1.9810640e+00   1.0066221e-02
 -1.4090842e-01   2.3945112e-02
  6.8851203e-01   2.8283198e-03
 -2.3685811e+00   7.2160974e-04
 -1.7181163e+00   7.2855817e-04
 -1.5433931e+00   1.9008172e-03
  1.3024855e+00   3.6252323e-03
 -1.6227728e+00   3.5998134e-03
 -2.1589732e-01   4.5297437e-04
  1.0960610e+00   1.2809620e-03
 -6.2963426e-01   6.5534818e-04
 -5.2612680e-01   4.1721910e-03
 -2.7823380e-01   1.4641219e-03
  9.2306858e-01   3.4578229e-04
  9.4184124e-01   7.7926909e-04
 -1.1692363e+00   6.0931677e-03
  1.8891807e-01   4.7521233e-03
 -2.7198455e+00   6.7040045e-03
  4.2526132e-01   4.3281950e-03
  1.8208225e+00   6.5547614e-03
 -3.2050979e-01   1.0225200e-02
  5.4860845e-02   4.6253251e-03
 -2.9875913e-01   2.0169318e-03
 -3.3887151e-01   3.5414353e-04
  5.1120913e-01   8.6401179e-03
 -4.2142123e-01   1.0141716e-02
  2.0247458e-01   4.8790770e-03
 -1.7710719e+00   8.7455468e-04
 -2.2896063e+00   3.1728488e-03
  1.7293303e+00   2.5574260e-03
  2.6071727e-01   2.6092338e-03
 -2.0304043e+00   1.6476701e-03
  1.0280172e+00   5.1313580e-04
 -4.4728577e-01   9.2461882e-03
  1.1407437e+00   4.2234271e-04
  1.9353753e+00   4.4602272e-04
 -2.4477448e+00   1.7454100e-03
  6.4169472e-01   9.2240358e-03
 -1.4459304e+00   8.5444073e-04
  1.7097096e+00   4.0971756e-04
  3.3521857e-02   7.7982506e-05
  1.4274241e+00   3.5850145e-04
 -2.4228944e-01   2.8285843e-03
 -9.1445136e-01   1.0663036e-03
  1.6757046e+00   1.4295975e-03
  1.6774284e+00   1.2275528e-03
 -2.8260863e-01   7.7889790e-04
 -1.0500507e+00   1.7769102e-03
 -2.1402782e-02   1.2765626e-02
  5.3687370e-01   1.0891607e-03
  4.5215544e-01   1.8906560e-03
 -1.0243853e-01   6.4929016e-04
  1.0459588e+00   1.3277838e-02
 -7.8065151e-01   1.7781603e-03
 -8.6392874e-01   1.8280194e-03