 vasp.6.5.0 16Dec24 (build Feb 19 2025 19:45:31) complex                         
 executed on              LinuxNV date 2025.10.25  17:30:44
 running    2 mpi-ranks, on    1 nodes
 distrk:  each k-point on    2 cores,    1 groups
 distr:  one band on NCORE=   1 cores,    2 groups
 Offloading initialized ...    2 GPUs detected


--------------------------------------------------------------------------------------------------------


 INCAR:
   ISTART = 0            (Not Read existing wavefunction
   ISPIN = 1            (Non-Spin polarised DFT, Default\=1)
   ICHARG = 2            (The initial guess charge density is generated by superposition of atomic charge density)
   LREAL = Auto         (Projection operators: automatic)
   ENCUT = 500          (Cut-off energy for plane wave basis set, in eV)
   LWAVE = .FALSE.       (Write WAVECAR or not)
   LCHARG = .FALSE.       (Write CHGCAR or not)
   PREC = Accurate   (Precision level)
   KGAMMA = .TRUE.
   ALGO = Normal
   NSW = 0           (Default: NSW \= 0)
   IBRION = -1           (Ions are not moved)
   ISMEAR = 0
   EDIFF = 1E-06        (SCF energy convergence
   NELM = 150          (Max electronic SCF steps)

 POTCAR:    PAW_PBE C 08Apr2002                   
 POTCAR:    PAW_PBE C 08Apr2002                   
   SHA256 =  253f7b50bb8d59471dbedb8285d89021f4a42ed1a2c5d38a03a736e69125dd95 C/POTCAR              
   COPYR  = (c) Copyright 08Apr2002 Georg Kresse                                                    
   COPYR  = This file is part of the software VASP. Any use, copying, and all other rights are regul
   COPYR  = If you do not have a valid VASP license, you may not use, copy or distribute this file. 
   VRHFIN =C: s2p2                                                                                  
   LEXCH  = PE                                                                                      
   EATOM  =   147.1560 eV,   10.8157 Ry                                                             
                                                                                                    
   TITEL  = PAW_PBE C 08Apr2002                                                                     
   LULTRA =        F    use ultrasoft PP ?                                                          
   IUNSCR =        1    unscreen: 0-lin 1-nonlin 2-no                                               
   RPACOR =    1.200    partial core radius                                                         
   POMASS =   12.011; ZVAL   =    4.000    mass and valenz                                          
   RCORE  =    1.500    outmost cutoff radius                                                       
   RWIGS  =    1.630; RWIGS  =    0.863    wigner-seitz radius (au A)                               
   ENMAX  =  400.000; ENMIN  =  300.000 eV                                                          
   ICORE  =        2    local potential                                                             
   LCOR   =        T    correct aug charges                                                         
   LPAW   =        T    paw PP                                                                      
   EAUG   =  644.873                                                                                
   DEXC   =    0.000                                                                                
   RMAX   =    1.529    core radius for proj-oper                                                   
   RAUG   =    1.300    factor for augmentation sphere                                              
   RDEP   =    1.501    radius for radial grids                                                     
   RDEPT  =    1.300    core radius for aug-charge                                                  
                                                                                                    
   Atomic configuration                                                                             
    4 entries                                                                                       
     n  l   j            E        occ.                                                              
     1  0  0.50      -273.3789   2.0000                                                             
     2  0  0.50       -13.7508   2.0000                                                             
     2  1  0.50        -5.2854   2.0000                                                             
     3  2  1.50        -5.4423   0.0000                                                             
   Description                                                                                      
     l       E           TYP  RCUT    TYP  RCUT                                                     
     0    -13.7508458     23  1.200                                                                 
     0     -8.2022199     23  1.200                                                                 
     1     -5.2854383     23  1.500                                                                 
     1     34.0145650     23  1.500                                                                 
     2     -5.4423304      7  1.500                                                                 
  local pseudopotential read in
  partial core-charges read in
  partial kinetic energy density read in
  atomic valenz-charges read in
  non local Contribution for L=            0  read in
    real space projection operators read in
  non local Contribution for L=            0  read in
    real space projection operators read in
  non local Contribution for L=            1  read in
    real space projection operators read in
  non local Contribution for L=            1  read in
    real space projection operators read in
    PAW grid and wavefunctions read in
 
   number of l-projection  operators is LMAX  =            4
   number of lm-projection operators is LMMAX =            8
 
 Optimization of the real space projectors (new method)

 maximal supplied QI-value         = 25.13
 optimisation between [QCUT,QGAM] = [ 11.31, 22.87] = [ 35.82,146.48] Ry 
 Optimized for a Real-space Cutoff    1.03 Angstroem

   l    n(q)    QCUT    max X(q) W(low)/X(q) W(high)/X(q)  e(spline) 
   0      7    11.310   115.676    0.20E-03    0.90E-03    0.20E-06
   0      7    11.310    87.132    0.20E-03    0.89E-03    0.19E-06
   1      6    11.310     4.429    0.16E-03    0.28E-03    0.12E-06
   1      6    11.310     2.733    0.12E-03    0.21E-03    0.99E-07
  PAW_PBE C 08Apr2002                   :
 energy of atom  1       EATOM= -147.1560
 kinetic energy error for atom=    0.0076 (will be added to EATOM!!)
 
 
 POSCAR:  C
  positions in cartesian coordinates
  No initial velocities read in


 exchange-correlation table for PE
   RHO(1)=    0.500       N(1)  =     2000
   RHO(2)=  100.500       N(2)  =     4000
 


--------------------------------------------------------------------------------------------------------


 ion  position               nearest neighbor table
   1  0.007  0.112  0.495-   2 1.39   3 1.42  45 1.46  46 2.01
   2  0.010  0.283  0.493-   4 1.39   1 1.39  46 1.46  45 1.99
   3  0.052  0.035  0.501-  50 1.40   1 1.42   5 1.45
   4  0.053  0.366  0.498-  49 1.34   2 1.39   6 1.45
   5  0.094  0.118  0.516-   6 1.38   3 1.45   7 1.46
   6  0.094  0.287  0.515-   5 1.38   8 1.42   4 1.45
   7  0.138  0.030  0.526-  54 1.38   9 1.44   5 1.46
   8  0.139  0.368  0.521-  53 1.37   6 1.42  10 1.46
   9  0.182  0.115  0.535-  10 1.38   7 1.44  11 1.44
  10  0.183  0.284  0.530-   9 1.38  12 1.41   8 1.46
  11  0.226  0.028  0.542-  58 1.38   9 1.44  13 1.44
  12  0.228  0.361  0.530-  14 1.38  57 1.41  10 1.41
  13  0.271  0.111  0.544-  15 1.40  14 1.41  11 1.44
  14  0.271  0.282  0.535-  16 1.38  12 1.38  13 1.41
  15  0.316  0.034  0.542-  62 1.39  13 1.40  17 1.43
  16  0.314  0.359  0.528-  61 1.37  14 1.38  18 1.44
  17  0.361  0.114  0.535-  18 1.36  19 1.41  15 1.43
  18  0.360  0.280  0.528-  17 1.36  20 1.44  16 1.44
  19  0.404  0.032  0.532-  66 1.35  17 1.41  21 1.45
  20  0.405  0.363  0.523-  65 1.36  22 1.42  18 1.44
  21  0.450  0.109  0.523-  22 1.33  23 1.41  19 1.45
  22  0.449  0.273  0.522-  21 1.33  20 1.42  24 1.44
  23  0.490  0.022  0.510-  70 1.35  21 1.41  25 1.45
  24  0.493  0.348  0.510-  26 1.39  69 1.41  22 1.44
  25  0.533  0.102  0.496-  26 1.32  27 1.42  23 1.45
  26  0.534  0.264  0.498-  25 1.32  24 1.39  28 1.50
  27  0.576  0.020  0.484-  74 1.36  25 1.42  29 1.52
  28  0.578  0.351  0.483-  73 1.38  30 1.39  26 1.50
  29  0.622  0.107  0.473-  30 1.38  31 1.38  27 1.52
  30  0.619  0.277  0.470-  29 1.38  28 1.39  32 1.44
  31  0.659  0.031  0.453-  78 1.38  29 1.38  33 1.44
  32  0.659  0.362  0.451-  77 1.37  34 1.38  30 1.44
  33  0.702  0.111  0.440-  35 1.35  34 1.39  31 1.44
  34  0.700  0.282  0.441-  32 1.38  33 1.39  36 1.43
  35  0.745  0.033  0.437-  33 1.35  82 1.36  37 1.46
  36  0.745  0.363  0.437-  81 1.38  38 1.39  34 1.43
  37  0.791  0.116  0.440-  38 1.35  39 1.41  35 1.46
  38  0.789  0.283  0.439-  37 1.35  36 1.39  40 1.47
  39  0.835  0.035  0.445-  86 1.38  41 1.40  37 1.41
  40  0.835  0.364  0.442-  85 1.37  42 1.40  38 1.47
  41  0.879  0.115  0.449-  43 1.37  42 1.39  39 1.40
  42  0.879  0.287  0.452-  41 1.39  40 1.40  44 1.42
  43  0.922  0.039  0.458-  41 1.37  90 1.38  45 1.41
  44  0.922  0.369  0.459-  89 1.37  42 1.42  46 1.42
  45  0.961  0.121  0.475-  46 1.35  43 1.41   1 1.46   2 1.99
  46  0.964  0.287  0.473-  45 1.35  44 1.42   2 1.46   1 2.01
  47  0.016  0.619  0.475-  48 1.35  49 1.41  91 1.47  92 2.01
  48  0.015  0.786  0.475-  47 1.35  50 1.42  92 1.44  91 1.98
  49  0.055  0.526  0.488-   4 1.34  51 1.39  47 1.41
  50  0.054  0.866  0.493-   3 1.40  48 1.42  52 1.43
  51  0.097  0.611  0.497-  52 1.37  49 1.39  53 1.44
  52  0.098  0.779  0.498-  51 1.37  50 1.43  54 1.46
  53  0.139  0.534  0.512-   8 1.37  55 1.40  51 1.44
  54  0.139  0.866  0.515-   7 1.38  56 1.43  52 1.46
  55  0.184  0.610  0.518-  56 1.37  53 1.40  57 1.41
  56  0.183  0.779  0.522-  55 1.37  58 1.40  54 1.43
  57  0.228  0.534  0.527-  12 1.41  59 1.41  55 1.41
  58  0.224  0.861  0.533-  11 1.38  56 1.40  60 1.44
  59  0.272  0.614  0.527-  60 1.40  57 1.41  61 1.43
  60  0.271  0.785  0.532-  62 1.39  59 1.40  58 1.44
  61  0.317  0.528  0.526-  16 1.37  59 1.43  63 1.44
  62  0.314  0.863  0.540-  15 1.39  60 1.39  64 1.45
  63  0.362  0.612  0.529-  64 1.37  65 1.40  61 1.44
  64  0.359  0.779  0.536-  63 1.37  66 1.45  62 1.45
  65  0.405  0.530  0.523-  20 1.36  63 1.40  67 1.41
  66  0.405  0.865  0.532-  19 1.35  64 1.45  68 1.48
  67  0.449  0.610  0.517-  68 1.38  65 1.41  69 1.42
  68  0.450  0.779  0.523-  67 1.38  70 1.42  66 1.48
  69  0.491  0.522  0.506-  71 1.38  24 1.41  67 1.42
  70  0.493  0.856  0.511-  23 1.35  68 1.42  72 1.45
  71  0.531  0.603  0.494-  72 1.35  69 1.38  73 1.44
  72  0.534  0.769  0.495-  71 1.35  74 1.42  70 1.45
  73  0.574  0.520  0.481-  28 1.38  71 1.44  75 1.47
  74  0.576  0.852  0.482-  27 1.36  76 1.41  72 1.42
  75  0.617  0.604  0.466-  76 1.37  77 1.37  73 1.47
  76  0.616  0.773  0.466-  75 1.37  74 1.41  78 1.43
  77  0.658  0.532  0.452-  32 1.37  75 1.37  79 1.43
  78  0.659  0.861  0.455-  31 1.38  80 1.42  76 1.43
  79  0.703  0.614  0.448-  80 1.36  81 1.41  77 1.43
  80  0.703  0.781  0.448-  79 1.36  78 1.42  82 1.45
  81  0.747  0.533  0.441-  36 1.38  83 1.41  79 1.41
  82  0.748  0.870  0.445-  35 1.36  84 1.41  80 1.45
  83  0.791  0.615  0.440-  84 1.39  81 1.41  85 1.42
  84  0.792  0.787  0.445-  86 1.39  83 1.39  82 1.41
  85  0.836  0.533  0.441-  40 1.37  83 1.42  87 1.46
  86  0.836  0.866  0.442-  39 1.38  88 1.39  84 1.39
  87  0.881  0.614  0.447-  88 1.38  89 1.38  85 1.46
  88  0.880  0.785  0.445-  87 1.38  86 1.39  90 1.42
  89  0.925  0.534  0.451-  44 1.37  87 1.38  91 1.40
  90  0.923  0.870  0.453-  43 1.38  92 1.41  88 1.42
  91  0.967  0.619  0.458-  92 1.38  89 1.40  47 1.47  48 1.98
  92  0.967  0.789  0.459-  91 1.38  90 1.41  48 1.44  47 2.01
 
  LATTYP: Found a simple orthorhombic cell.
 ALAT       =     8.1000000000
 B/A-ratio  =     3.4629629630
 C/A-ratio  =     4.1358024691
  
  Lattice vectors:
  
 A1 = (   0.0000000000,  -8.1000000000,   0.0000000000)
 A2 = (  28.0500000000,   0.0000000000,   0.0000000000)
 A3 = (   0.0000000000,   0.0000000000,  33.5000000000)


Analysis of symmetry for initial positions (statically):
=====================================================================
 Subroutine PRICEL returns:
 Original cell was already a primitive cell.
 

 Routine SETGRP: Setting up the symmetry group for a 
 simple orthorhombic supercell.


 Subroutine GETGRP returns: Found  1 space group operations
 (whereof  1 operations were pure point group operations)
 out of a pool of  8 trial point group operations.


The static configuration has the point symmetry C_1 .


Analysis of symmetry for dynamics (positions and initial velocities):
=====================================================================
 Subroutine PRICEL returns:
 Original cell was already a primitive cell.
 

 Routine SETGRP: Setting up the symmetry group for a 
 simple orthorhombic supercell.


 Subroutine GETGRP returns: Found  1 space group operations
 (whereof  1 operations were pure point group operations)
 out of a pool of  8 trial point group operations.


The dynamic configuration has the point symmetry C_1 .


 Subroutine INISYM returns: Found  1 space group operations
 (whereof  1 operations are pure point group operations),
 and found     1 'primitive' translations


----------------------------------------------------------------------------------------

                                     Primitive cell                                     

  volume of cell :    7611.3675

  direct lattice vectors                    reciprocal lattice vectors
    28.050000000  0.000000000  0.000000000     0.035650624  0.000000000  0.000000000
     0.000000000  8.100000000  0.000000000     0.000000000  0.123456790  0.000000000
     0.000000000  0.000000000 33.500000000     0.000000000  0.000000000  0.029850746

  length of vectors
    28.050000000  8.100000000 33.500000000     0.035650624  0.123456790  0.029850746

  position of ions in fractional coordinates (direct lattice)
     0.007294367  0.111668148  0.494662687
     0.009863636  0.282596296  0.492910448
     0.052153654  0.035458395  0.500740299
     0.052514795  0.366091358  0.498101493
     0.094496970  0.117621111  0.515602985
     0.094459180  0.287353086  0.514641791
     0.138337611  0.030453210  0.525901493
     0.138693048  0.367960494  0.520561194
     0.182190018  0.114583333  0.534829851
     0.183296970  0.283571605  0.530182090
     0.226195009  0.027589012  0.541543284
     0.228139750  0.361312346  0.529677612
     0.271363636  0.111473951  0.543755224
     0.271264884  0.281506173  0.535388060
     0.316052406  0.033866543  0.541579104
     0.314334759  0.358907407  0.528280597
     0.360534759  0.114478395  0.535008955
     0.360484848  0.279802469  0.528140299
     0.404424242  0.031546914  0.532053731
     0.405390374  0.362556790  0.523173134
     0.449664884  0.109146543  0.522907463
     0.448852050  0.273385185  0.521898507
     0.490349376  0.021838889  0.509958209
     0.492998217  0.347804938  0.509582090
     0.533465241  0.102095556  0.495805970
     0.533836007  0.264461728  0.497874627
     0.575992870  0.020183951  0.483829851
     0.577565062  0.351228395  0.482719403
     0.621942959  0.107385926  0.472817910
     0.619440285  0.277224691  0.469776119
     0.659422460  0.030761852  0.453367164
     0.658770053  0.362429630  0.451095522
     0.702381462  0.110928519  0.439770149
     0.700253119  0.282356790  0.440713433
     0.744887701  0.032981235  0.436602985
     0.745262032  0.362833333  0.437265672
     0.791065954  0.115660864  0.439782090
     0.788891266  0.282525926  0.439182090
     0.834980392  0.035126420  0.445268657
     0.835404635  0.364200000  0.442137313
     0.879133690  0.115178519  0.449429851
     0.878527629  0.286854321  0.451671642
     0.921557932  0.038817901  0.458259701
     0.922395722  0.368770370  0.458608955
     0.960830660  0.120703457  0.475179104
     0.963622103  0.286593827  0.473092537
     0.015824599  0.619140741  0.474525373
     0.014513119  0.785872840  0.475152239
     0.054939037  0.525839506  0.488280597
     0.054136185  0.866116049  0.493146269
     0.096620677  0.610796296  0.497456716
     0.098367914  0.779328395  0.497570149
     0.139318004  0.533988889  0.512265672
     0.139054189  0.866219753  0.515128358
     0.183704100  0.610340741  0.518002985
     0.182709447  0.778612346  0.521597015
     0.227793583  0.534365432  0.526582090
     0.224119786  0.861133333  0.533256716
     0.272386453  0.613534568  0.527459701
     0.270605348  0.785109877  0.531519403
     0.316804635  0.527914815  0.526253731
     0.313889840  0.863027160  0.539537313
     0.361729055  0.612462963  0.529447761
     0.359458111  0.778790123  0.535919403
     0.404930481  0.530474074  0.523223881
     0.404627451  0.864743210  0.532295522
     0.448901961  0.610014815  0.517137313
     0.449679144  0.778795062  0.522877612
     0.490620321  0.521508642  0.506140299
     0.492884135  0.856017284  0.511370149
     0.531229947  0.603143210  0.493755224
     0.534114082  0.769360494  0.495426866
     0.573850267  0.520454321  0.480880597
     0.575860963  0.852272840  0.481943284
     0.616983957  0.604243210  0.466032836
     0.616253119  0.773002469  0.465880597
     0.658017825  0.531627160  0.452313433
     0.658670232  0.860601235  0.455041791
     0.702887701  0.613840741  0.447656716
     0.703294118  0.781383951  0.448382090
     0.746613191  0.533027160  0.440597015
     0.747946524  0.869646914  0.445191045
     0.790852050  0.615395062  0.440420896
     0.792178253  0.786620988  0.444695522
     0.835604278  0.533282716  0.440576119
     0.836178253  0.865682716  0.441752239
     0.881429590  0.614375309  0.446522388
     0.879707665  0.784616049  0.445256716
     0.924659537  0.534422222  0.451134328
     0.923033868  0.870091358  0.452955224
     0.967333333  0.618712346  0.457731343
     0.966827094  0.788530864  0.459289552

  ion indices of the primitive-cell ions
   primitive index   ion index
                 1           1
                 2           2
                 3           3
                 4           4
                 5           5
                 6           6
                 7           7
                 8           8
                 9           9
                10          10
                11          11
                12          12
                13          13
                14          14
                15          15
                16          16
                17          17
                18          18
                19          19
                20          20
                21          21
                22          22
                23          23
                24          24
                25          25
                26          26
                27          27
                28          28
                29          29
                30          30
                31          31
                32          32
                33          33
                34          34
                35          35
                36          36
                37          37
                38          38
                39          39
                40          40
                41          41
                42          42
                43          43
                44          44
                45          45
                46          46
                47          47
                48          48
                49          49
                50          50
                51          51
                52          52
                53          53
                54          54
                55          55
                56          56
                57          57
                58          58
                59          59
                60          60
                61          61
                62          62
                63          63
                64          64
                65          65
                66          66
                67          67
                68          68
                69          69
                70          70
                71          71
                72          72
                73          73
                74          74
                75          75
                76          76
                77          77
                78          78
                79          79
                80          80
                81          81
                82          82
                83          83
                84          84
                85          85
                86          86
                87          87
                88          88
                89          89
                90          90
                91          91
                92          92

----------------------------------------------------------------------------------------

 
 
 KPOINTS: K-Spacing Value to Generate K-Mesh: 0.03

Automatic generation of k-mesh.
 Grid dimensions read from file:
 generate k-points for:    1    4    1

 Generating k-lattice:

  Cartesian coordinates                     Fractional coordinates (reciprocal lattice)
     0.035650624  0.000000000  0.000000000     1.000000000  0.000000000  0.000000000
     0.000000000  0.030864198  0.000000000     0.000000000  0.250000000  0.000000000
     0.000000000  0.000000000  0.029850746     0.000000000  0.000000000  1.000000000

  Length of vectors
     0.035650624  0.030864198  0.029850746

  Shift w.r.t. Gamma in fractional coordinates (k-lattice)
     0.000000000  0.000000000  0.000000000

 
 Subroutine IBZKPT returns following result:
 ===========================================
 
 Found      3 irreducible k-points:
 
 Following reciprocal coordinates:
            Coordinates               Weight
  0.000000  0.000000  0.000000      1.000000
  0.000000  0.250000  0.000000      2.000000
  0.000000  0.500000  0.000000      1.000000
 
 Following cartesian coordinates:
            Coordinates               Weight
  0.000000  0.000000  0.000000      1.000000
  0.000000  0.030864  0.000000      2.000000
  0.000000  0.061728  0.000000      1.000000
 


--------------------------------------------------------------------------------------------------------




 Dimension of arrays:
   k-points           NKPTS =      3   k-points in BZ     NKDIM =      3   number of bands    NBANDS=    232
   number of dos      NEDOS =    301   number of ions     NIONS =     92
   non local maximal  LDIM  =      4   non local SUM 2l+1 LMDIM =      8
   total plane-waves  NPLWV = ******
   max r-space proj   IRMAX =   1967   max aug-charges    IRDMAX=   5083
   dimension x,y,z NGX =   210 NGY =   60 NGZ =  250
   dimension x,y,z NGXF=   420 NGYF=  120 NGZF=  500
   support grid    NGXF=   420 NGYF=  120 NGZF=  500
   ions per type =              92
   NGX,Y,Z   is equivalent  to a cutoff of  12.45, 12.31, 12.41 a.u.
   NGXF,Y,Z  is equivalent  to a cutoff of  24.89, 24.63, 24.81 a.u.

 SYSTEM =  unknown system                          
 POSCAR =   C                                      

 Startparameter for this run:
   NWRITE =      2    write-flag & timer
   PREC   = accura    normal or accurate (medium, high low for compatibility)
   ISTART =      0    job   : 0-new  1-cont  2-samecut
   ICHARG =      2    charge: 1-file 2-atom 10-const
   ISPIN  =      1    spin polarized calculation?
   LNONCOLLINEAR =      F non collinear calculations
   LSORBIT =      F    spin-orbit coupling
   INIWAV =      1    electr: 0-lowe 1-rand  2-diag
   LASPH  =      F    aspherical Exc in radial PAW
 Electronic Relaxation 1
   ENCUT  =  500.0 eV  36.75 Ry    6.06 a.u.  51.14 14.77 61.08*2*pi/ulx,y,z
   ENINI  =  500.0     initial cutoff
   ENAUG  =  644.9 eV  augmentation charge cutoff
   NELM   =    150;   NELMIN=  2; NELMDL= -5     # of ELM steps 
   EDIFF  = 0.1E-05   stopping-criterion for ELM
   LREAL  =      T    real-space projection
   NLSPLINE    = F    spline interpolate recip. space projectors
   LCOMPAT=      F    compatible to vasp.4.4
   GGA_COMPAT  = T    GGA compatible to vasp.4.4-vasp.4.6
   LMAXPAW     = -100 max onsite density
   LMAXMIX     =    2 max onsite mixed and CHGCAR
   VOSKOWN=      0    Vosko Wilk Nusair interpolation
   ROPT   =   -0.00025
 Ionic relaxation
   EDIFFG = 0.1E-04   stopping-criterion for IOM
   NSW    =      0    number of steps for IOM
   NBLOCK =      1;   KBLOCK =      1    inner block; outer block 
   IBRION =     -1    ionic relax: 0-MD 1-quasi-New 2-CG
   NFREE  =      0    steps in history (QN), initial steepest desc. (CG)
   ISIF   =      2    stress and relaxation
   IWAVPR =     10    prediction:  0-non 1-charg 2-wave 3-comb
   ISYM   =      2    0-nonsym 1-usesym 2-fastsym
   LCORR  =      T    Harris-Foulkes like correction to forces

   POTIM  = 0.5000    time-step for ionic-motion
   TEIN   =    0.0    initial temperature
   TEBEG  =    0.0;   TEEND  =   0.0 temperature during run
   SMASS  =  -3.00    Nose mass-parameter (am)
   estimated Nose-frequenzy (Omega)   =  0.10E-29 period in steps = 0.13E+47 mass=  -0.180E-25a.u.
   SCALEE = 1.0000    scale energy and forces
   NPACO  =    256;   APACO  = 10.0  distance and # of slots for P.C.
   PSTRESS=    0.0 pullay stress

  Mass of Ions in am
   POMASS =  12.01
  Ionic Valenz
   ZVAL   =   4.00
  Atomic Wigner-Seitz radii
   RWIGS  =  -1.00
  virtual crystal weights 
   VCA    =   1.00
   NELECT =     368.0000    total number of electrons
   NUPDOWN=      -1.0000    fix difference up-down

 DOS related values:
   EMIN   =  10.00;   EMAX   =-10.00  energy-range for DOS
   EFERMI =   0.00;   METHOD = LEGACY      
   ISMEAR =     0;   SIGMA  =   0.20  broadening in eV -4-tet -1-fermi 0-gaus
   EFERMI_NEDOS =   21; number of points for ismear=-14 and -15

 Electronic relaxation 2 (details)
   IALGO  =     38    algorithm
   LDIAG  =      T    sub-space diagonalisation (order eigenvalues)
   LSUBROT=      F    optimize rotation matrix (better conditioning)
   TURBO    =      0    0=normal 1=particle mesh
   IRESTART =      0    0=no restart 2=restart with 2 vectors
   NREBOOT  =      0    no. of reboots
   NMIN     =      0    reboot dimension
   EREF     =   0.00    reference energy to select bands
   IMIX   =      4    mixing-type and parameters
     AMIX     =   0.40;   BMIX     =  1.00
     AMIX_MAG =   1.60;   BMIX_MAG =  1.00
     AMIN     =   0.10
     WC   =   100.;   INIMIX=   1;  MIXPRE=   1;  MAXMIX= -45

 Intra band minimization:
   WEIMIN = 0.0000     energy-eigenvalue tresh-hold
   EBREAK =  0.11E-08  absolut break condition
   DEPER  =   0.30     relativ break condition  

   TIME   =   0.40     timestep for ELM

  volume/ion in A,a.u.               =      82.73       558.30
  Fermi-wavevector in a.u.,A,eV,Ry     =   0.596398  1.127030  4.839472  0.355691
  Thomas-Fermi vector in A             =   1.646729
 
 Write flags
   LWAVE        =      F    write WAVECAR
   LDOWNSAMPLE  =      F    k-point downsampling of WAVECAR
   LCHARG       =      F    write CHGCAR
   LVTOT        =      F    write LOCPOT, total local potential
   LVHAR        =      F    write LOCPOT, Hartree potential only
   WRT_POTENTIAL= false  ! write potential to hdf5 file
   LELF         =      F    write electronic localiz. function (ELF)
   LORBIT       =      0    0 simple, 1 ext, 2 COOP (PROOUT), +10 PAW based schemes


 Python interface
   PLUGINS active      =      F    recompile with -DPLUGINS to activate
 
 Dipole corrections
   LMONO      =      F    monopole corrections only (constant potential shift)
   LDIPOL     =      F    correct potential (dipole corrections)
   IDIPOL     =      0    1-x, 2-y, 3-z, 4-all directions 
   EPSILON    =  1.0000000 bulk dielectric constant
   LVACPOTAV  =      F  vacuum potentials using an averaging scheme for the charge density
   VACPOTFLAT =  0.1000000 required flatness to determine vacuum potential
 
Coulomb truncation method
  LTRUNCATE          =      F  Coulomb kernel truncation to be used
  IDIMENSIONALITY    =      3  Dimensionality of cutoff (0 molecules / 2 surfaces)
  ISURFACE           =     -1  Direction of surface normal
  LCOARSEN           =      F  Coarsen the charge grid before padding, preferred

 
 Exchange correlation treatment:
   GGA     = PE    functional components
   XC_C    = 1    coefficients multiplying the functional components
   LIBXC   =     F    Libxc                    
   VOSKOWN =     0    Vosko Wilk Nusair interpolation
   LHFCALC =     F    Hartree Fock is set to
   LHFONE  =     F    Hartree Fock one center treatment
   AEXX    =    0.0000 exact exchange contribution

 Parameters of functionals:
   PE:
     No parameter
 
 Van der Waals corrections
   IVDW    =     0    specifies the selected vdW correction

 Linear response parameters
   LEPSILON=     F    determine dielectric tensor
   LRPA    =     F    only Hartree local field effects (RPA)
   LNABLA  =     F    use nabla operator in PAW spheres
   LVEL    =     F    velocity operator in full k-point grid
   CSHIFT  =0.1000    complex shift for real part using Kramers Kronig
   OMEGAMAX=  -1.0    maximum frequency
   DEG_THRESHOLD= 0.2000000E-02 threshold for treating states as degnerate
   RTIME   =   -0.100 relaxation time in fs
  (WPLASMAI=    0.000 imaginary part of plasma frequency in eV, 0.658/RTIME)
   DFIELD  = 0.0000000 0.0000000 0.0000000 field for delta impulse in time
 
  Optional k-point grid parameters
   LKPOINTS_OPT  =     F    use optional k-point grid
   KPOINTS_OPT_MODE=     1    mode for optional k-point grid
 
 Orbital magnetization related:
   ORBITALMAG=     F  switch on orbital magnetization
   LCHIMAG   =     F  perturbation theory with respect to B field
   DQ        =  0.001000  dq finite difference perturbation B field
   LLRAUG    =     F  two centre corrections for induced B field
   LBONE     =     F  B-component reconstruction in AE one-centre
   LVGVCALC  =     T  calculate vGv susceptibility
   LVGVAPPL  =     F  apply vGv susceptibility instead of pGv for G=0

 Random number generation:
   RANDOM_GENERATOR = DEFAULT
   PCG_SEED         = not used


--------------------------------------------------------------------------------------------------------


 Static calculation
 charge density and potential will be updated during run
 non-spin polarized calculation
 Variant of blocked Davidson
 Davidson routine will perform the subspace rotation
 perform sub-space diagonalisation
    after iterative eigenvector-optimisation
 modified Broyden-mixing scheme, WC =      100.0
 initial mixing is a Kerker type mixing with AMIX =  0.4000 and BMIX =      1.0000
 Hartree-type preconditioning will be used
 using additional bands            48
 real space projection scheme for non local part
 use partial core corrections
 calculate Harris-corrections to forces 
   (improved forces if not selfconsistent)
 use gradient corrections 
 use of overlap-Matrix (Vanderbilt PP)
 Gauss-broadening in eV      SIGMA  =   0.20


--------------------------------------------------------------------------------------------------------


  energy-cutoff  :      500.00
  volume of cell :     7611.37
      direct lattice vectors                 reciprocal lattice vectors
    28.050000000  0.000000000  0.000000000     0.035650624  0.000000000  0.000000000
     0.000000000  8.100000000  0.000000000     0.000000000  0.123456790  0.000000000
     0.000000000  0.000000000 33.500000000     0.000000000  0.000000000  0.029850746

  length of vectors
    28.050000000  8.100000000 33.500000000     0.035650624  0.123456790  0.029850746


 
 k-points in units of 2pi/SCALE and weight: K-Spacing Value to Generate K-Mesh: 0.03
   0.00000000  0.00000000  0.00000000       0.250
   0.00000000  0.03086420  0.00000000       0.500
   0.00000000  0.06172840  0.00000000       0.250
 
 k-points in reciprocal lattice and weights: K-Spacing Value to Generate K-Mesh: 0.03
   0.00000000  0.00000000  0.00000000       0.250
   0.00000000  0.25000000  0.00000000       0.500
   0.00000000  0.50000000  0.00000000       0.250
 
 position of ions in fractional coordinates (direct lattice) 
   0.00729437  0.11166815  0.49466269
   0.00986364  0.28259630  0.49291045
   0.05215365  0.03545840  0.50074030
   0.05251480  0.36609136  0.49810149
   0.09449697  0.11762111  0.51560299
   0.09445918  0.28735309  0.51464179
   0.13833761  0.03045321  0.52590149
   0.13869305  0.36796049  0.52056119
   0.18219002  0.11458333  0.53482985
   0.18329697  0.28357160  0.53018209
   0.22619501  0.02758901  0.54154328
   0.22813975  0.36131235  0.52967761
   0.27136364  0.11147395  0.54375522
   0.27126488  0.28150617  0.53538806
   0.31605241  0.03386654  0.54157910
   0.31433476  0.35890741  0.52828060
   0.36053476  0.11447840  0.53500896
   0.36048485  0.27980247  0.52814030
   0.40442424  0.03154691  0.53205373
   0.40539037  0.36255679  0.52317313
   0.44966488  0.10914654  0.52290746
   0.44885205  0.27338519  0.52189851
   0.49034938  0.02183889  0.50995821
   0.49299822  0.34780494  0.50958209
   0.53346524  0.10209556  0.49580597
   0.53383601  0.26446173  0.49787463
   0.57599287  0.02018395  0.48382985
   0.57756506  0.35122840  0.48271940
   0.62194296  0.10738593  0.47281791
   0.61944029  0.27722469  0.46977612
   0.65942246  0.03076185  0.45336716
   0.65877005  0.36242963  0.45109552
   0.70238146  0.11092852  0.43977015
   0.70025312  0.28235679  0.44071343
   0.74488770  0.03298123  0.43660299
   0.74526203  0.36283333  0.43726567
   0.79106595  0.11566086  0.43978209
   0.78889127  0.28252593  0.43918209
   0.83498039  0.03512642  0.44526866
   0.83540463  0.36420000  0.44213731
   0.87913369  0.11517852  0.44942985
   0.87852763  0.28685432  0.45167164
   0.92155793  0.03881790  0.45825970
   0.92239572  0.36877037  0.45860896
   0.96083066  0.12070346  0.47517910
   0.96362210  0.28659383  0.47309254
   0.01582460  0.61914074  0.47452537
   0.01451312  0.78587284  0.47515224
   0.05493904  0.52583951  0.48828060
   0.05413619  0.86611605  0.49314627
   0.09662068  0.61079630  0.49745672
   0.09836791  0.77932840  0.49757015
   0.13931800  0.53398889  0.51226567
   0.13905419  0.86621975  0.51512836
   0.18370410  0.61034074  0.51800299
   0.18270945  0.77861235  0.52159701
   0.22779358  0.53436543  0.52658209
   0.22411979  0.86113333  0.53325672
   0.27238645  0.61353457  0.52745970
   0.27060535  0.78510988  0.53151940
   0.31680463  0.52791481  0.52625373
   0.31388984  0.86302716  0.53953731
   0.36172906  0.61246296  0.52944776
   0.35945811  0.77879012  0.53591940
   0.40493048  0.53047407  0.52322388
   0.40462745  0.86474321  0.53229552
   0.44890196  0.61001481  0.51713731
   0.44967914  0.77879506  0.52287761
   0.49062032  0.52150864  0.50614030
   0.49288414  0.85601728  0.51137015
   0.53122995  0.60314321  0.49375522
   0.53411408  0.76936049  0.49542687
   0.57385027  0.52045432  0.48088060
   0.57586096  0.85227284  0.48194328
   0.61698396  0.60424321  0.46603284
   0.61625312  0.77300247  0.46588060
   0.65801783  0.53162716  0.45231343
   0.65867023  0.86060123  0.45504179
   0.70288770  0.61384074  0.44765672
   0.70329412  0.78138395  0.44838209
   0.74661319  0.53302716  0.44059701
   0.74794652  0.86964691  0.44519104
   0.79085205  0.61539506  0.44042090
   0.79217825  0.78662099  0.44469552
   0.83560428  0.53328272  0.44057612
   0.83617825  0.86568272  0.44175224
   0.88142959  0.61437531  0.44652239
   0.87970766  0.78461605  0.44525672
   0.92465954  0.53442222  0.45113433
   0.92303387  0.87009136  0.45295522
   0.96733333  0.61871235  0.45773134
   0.96682709  0.78853086  0.45928955
 
 position of ions in cartesian coordinates  (Angst):
   0.20460700  0.90451200 16.57120000
   0.27667500  2.28903000 16.51250000
   1.46291000  0.28721300 16.77480000
   1.47304000  2.96534000 16.68640000
   2.65064000  0.95273100 17.27270000
   2.64958000  2.32756000 17.24050000
   3.88037000  0.24667100 17.61770000
   3.89034000  2.98048000 17.43880000
   5.11043000  0.92812500 17.91680000
   5.14148000  2.29693000 17.76110000
   6.34477000  0.22347100 18.14170000
   6.39932000  2.92663000 17.74420000
   7.61175000  0.90293900 18.21580000
   7.60898000  2.28020000 17.93550000
   8.86527000  0.27431900 18.14290000
   8.81709000  2.90715000 17.69740000
  10.11300000  0.92727500 17.92280000
  10.11160000  2.26640000 17.69270000
  11.34410000  0.25553000 17.82380000
  11.37120000  2.93671000 17.52630000
  12.61310000  0.88408700 17.51740000
  12.59030000  2.21442000 17.48360000
  13.75430000  0.17689500 17.08360000
  13.82860000  2.81722000 17.07100000
  14.96370000  0.82697400 16.60950000
  14.97410000  2.14214000 16.67880000
  16.15660000  0.16349000 16.20830000
  16.20070000  2.84495000 16.17110000
  17.44550000  0.86982600 15.83940000
  17.37530000  2.24552000 15.73750000
  18.49680000  0.24917100 15.18780000
  18.47850000  2.93568000 15.11170000
  19.70180000  0.89852100 14.73230000
  19.64210000  2.28709000 14.76390000
  20.89410000  0.26714800 14.62620000
  20.90460000  2.93895000 14.64840000
  22.18940000  0.93685300 14.73270000
  22.12840000  2.28846000 14.71260000
  23.42120000  0.28452400 14.91650000
  23.43310000  2.95002000 14.81160000
  24.65970000  0.93294600 15.05590000
  24.64270000  2.32352000 15.13100000
  25.84970000  0.31442500 15.35170000
  25.87320000  2.98704000 15.36340000
  26.95130000  0.97769800 15.91850000
  27.02960000  2.32141000 15.84860000
   0.44388000  5.01504000 15.89660000
   0.40709300  6.36557000 15.91760000
   1.54104000  4.25930000 16.35740000
   1.51852000  7.01554000 16.52040000
   2.71021000  4.94745000 16.66480000
   2.75922000  6.31256000 16.66860000
   3.90787000  4.32531000 17.16090000
   3.90047000  7.01638000 17.25680000
   5.15290000  4.94376000 17.35310000
   5.12500000  6.30676000 17.47350000
   6.38961000  4.32836000 17.64050000
   6.28656000  6.97518000 17.86410000
   7.64044000  4.96963000 17.66990000
   7.59048000  6.35939000 17.80590000
   8.88637000  4.27611000 17.62950000
   8.80461000  6.99052000 18.07450000
  10.14650000  4.96095000 17.73650000
  10.08280000  6.30820000 17.95330000
  11.35830000  4.29684000 17.52800000
  11.34980000  7.00442000 17.83190000
  12.59170000  4.94112000 17.32410000
  12.61350000  6.30824000 17.51640000
  13.76190000  4.22422000 16.95570000
  13.82540000  6.93374000 17.13090000
  14.90100000  4.88546000 16.54080000
  14.98190000  6.23182000 16.59680000
  16.09650000  4.21568000 16.10950000
  16.15290000  6.90341000 16.14510000
  17.30640000  4.89437000 15.61210000
  17.28590000  6.26132000 15.60700000
  18.45740000  4.30618000 15.15250000
  18.47570000  6.97087000 15.24390000
  19.71600000  4.97211000 14.99650000
  19.72740000  6.32921000 15.02080000
  20.94250000  4.31752000 14.76000000
  20.97990000  7.04414000 14.91390000
  22.18340000  4.98470000 14.75410000
  22.22060000  6.37163000 14.89730000
  23.43870000  4.31959000 14.75930000
  23.45480000  7.01203000 14.79870000
  24.72410000  4.97644000 14.95850000
  24.67580000  6.35539000 14.91610000
  25.93670000  4.32882000 15.11300000
  25.89110000  7.04774000 15.17400000
  27.13370000  5.01157000 15.33400000
  27.11950000  6.38710000 15.38620000
 


--------------------------------------------------------------------------------------------------------


 k-point     1 :   0.0000 0.0000 0.0000  plane waves:  193173
 k-point     2 :   0.0000 0.2500 0.0000  plane waves:  193166
 k-point     3 :   0.0000 0.5000 0.0000  plane waves:  193226

 maximum and minimum number of plane-waves per node :    193226   193166

 maximum number of plane-waves:    193226
 maximum index in each direction: 
   IXMAX=   51   IYMAX=   14   IZMAX=   61
   IXMIN=  -51   IYMIN=  -15   IZMIN=  -61


 serial   3D FFT for wavefunctions
 parallel 3D FFT for charge:
    minimum data exchange during FFTs selected (reduces bandwidth)


 total amount of memory used by VASP MPI-rank0  2294509. kBytes
=======================================================================

   base                                    :      30000. kBytes
   nonlr-proj                              :      15075. kBytes
   fftplans                                :     436558. kBytes
   grid                                    :     732614. kBytes
   one-center                              :        282. kBytes
   wavefun                                 :    1079980. kBytes
 
     INWAV:  cpu time      0.0000: real time      0.0000
 Broyden mixing: mesh for mixing (old mesh)
   NGX =103   NGY = 29   NGZ =123
  (NGX  =420   NGY  =120   NGZ  =500)
  gives a total of 367401 points

 initial charge density was supplied:
 charge density of overlapping atoms calculated
 number of electron     368.0000000 magnetization 
 keeping initial charge density in first step


--------------------------------------------------------------------------------------------------------


 Maximum index for non-local projection operator          1871
 Maximum index for augmentation-charges          2390 (set IRDMAX)


--------------------------------------------------------------------------------------------------------


 First call to EWALD:  gamma=   0.090
 Maximum number of real-space cells   2x   6x   2
 Maximum number of reciprocal cells   4x   1x   4

    FEWALD:  cpu time      0.1593: real time      0.1593


--------------------------------------- Ionic step        1  -------------------------------------------




--------------------------------------- Iteration      1(   1)  ---------------------------------------


    POTLOK:  cpu time      0.4223: real time      0.4476
    SETDIJ:  cpu time      0.0415: real time      0.0415
     EDDAV:  cpu time     11.0583: real time     11.0632
       DOS:  cpu time      0.0008: real time      0.0008
    --------------------------------------------
      LOOP:  cpu time     11.5228: real time     11.5531

 eigenvalue-minimisations  :  1712
 total energy-change (2. order) : 0.3695097E+04  (-0.1189907E+05)
 number of electron     368.0000000 magnetization 
 augmentation part      368.0000000 magnetization 

 Free energy of the ion-electron system (eV)
  ---------------------------------------------------
  alpha Z        PSCENC =        91.34886789
  Ewald energy   TEWEN  =    119283.58091656
  -Hartree energ DENC   =   -128613.46741954
  -exchange      EXHF   =         0.00000000
  -V(xc)+E(xc)   XCENC  =      1221.13394811
  PAW double counting   =      9984.02826696   -10036.41360137
  entropy T*S    EENTRO =        -0.84055082
  eigenvalues    EBANDS =     -1771.92792774
  atomic energy  EATOM  =     13537.65479391
  Solvation  Ediel_sol  =         0.00000000
  ---------------------------------------------------
  free energy    TOTEN  =      3695.09729395 eV

  energy without entropy =     3695.93784478  energy(sigma->0) =     3695.51756936


--------------------------------------------------------------------------------------------------------




--------------------------------------- Iteration      1(   2)  ---------------------------------------


     EDDAV:  cpu time     13.1207: real time     13.1256
       DOS:  cpu time      0.0007: real time      0.0007
    --------------------------------------------
      LOOP:  cpu time     13.1214: real time     13.1263

 eigenvalue-minimisations  :  2144
 total energy-change (2. order) :-0.3513813E+04  (-0.3258795E+04)
 number of electron     368.0000000 magnetization 
 augmentation part      368.0000000 magnetization 

 Free energy of the ion-electron system (eV)
  ---------------------------------------------------
  alpha Z        PSCENC =        91.34886789
  Ewald energy   TEWEN  =    119283.58091656
  -Hartree energ DENC   =   -128613.46741954
  -exchange      EXHF   =         0.00000000
  -V(xc)+E(xc)   XCENC  =      1221.13394811
  PAW double counting   =      9984.02826696   -10036.41360137
  entropy T*S    EENTRO =        -0.24299961
  eigenvalues    EBANDS =     -5286.33885186
  atomic energy  EATOM  =     13537.65479391
  Solvation  Ediel_sol  =         0.00000000
  ---------------------------------------------------
  free energy    TOTEN  =       181.28392105 eV

  energy without entropy =      181.52692066  energy(sigma->0) =      181.40542085


--------------------------------------------------------------------------------------------------------




--------------------------------------- Iteration      1(   3)  ---------------------------------------


     EDDAV:  cpu time     11.3072: real time     11.3111
       DOS:  cpu time      0.0007: real time      0.0007
    --------------------------------------------
      LOOP:  cpu time     11.3079: real time     11.3118

 eigenvalue-minimisations  :  1792
 total energy-change (2. order) :-0.1015695E+04  (-0.9916347E+03)
 number of electron     368.0000000 magnetization 
 augmentation part      368.0000000 magnetization 

 Free energy of the ion-electron system (eV)
  ---------------------------------------------------
  alpha Z        PSCENC =        91.34886789
  Ewald energy   TEWEN  =    119283.58091656
  -Hartree energ DENC   =   -128613.46741954
  -exchange      EXHF   =         0.00000000
  -V(xc)+E(xc)   XCENC  =      1221.13394811
  PAW double counting   =      9984.02826696   -10036.41360137
  entropy T*S    EENTRO =        -0.01367100
  eigenvalues    EBANDS =     -6302.26271779
  atomic energy  EATOM  =     13537.65479391
  Solvation  Ediel_sol  =         0.00000000
  ---------------------------------------------------
  free energy    TOTEN  =      -834.41061628 eV

  energy without entropy =     -834.39694527  energy(sigma->0) =     -834.40378077


--------------------------------------------------------------------------------------------------------




--------------------------------------- Iteration      1(   4)  ---------------------------------------


     EDDAV:  cpu time     10.8894: real time     10.8936
       DOS:  cpu time      0.0007: real time      0.0007
    --------------------------------------------
      LOOP:  cpu time     10.8901: real time     10.8942

 eigenvalue-minimisations  :  1712
 total energy-change (2. order) :-0.6152365E+02  (-0.6054591E+02)
 number of electron     368.0000000 magnetization 
 augmentation part      368.0000000 magnetization 

 Free energy of the ion-electron system (eV)
  ---------------------------------------------------
  alpha Z        PSCENC =        91.34886789
  Ewald energy   TEWEN  =    119283.58091656
  -Hartree energ DENC   =   -128613.46741954
  -exchange      EXHF   =         0.00000000
  -V(xc)+E(xc)   XCENC  =      1221.13394811
  PAW double counting   =      9984.02826696   -10036.41360137
  entropy T*S    EENTRO =        -0.06195939
  eigenvalues    EBANDS =     -6363.73807768
  atomic energy  EATOM  =     13537.65479391
  Solvation  Ediel_sol  =         0.00000000
  ---------------------------------------------------
  free energy    TOTEN  =      -895.93426456 eV

  energy without entropy =     -895.87230516  energy(sigma->0) =     -895.90328486


--------------------------------------------------------------------------------------------------------




--------------------------------------- Iteration      1(   5)  ---------------------------------------


     EDDAV:  cpu time     11.2321: real time     11.2361
       DOS:  cpu time      0.0007: real time      0.0007
    CHARGE:  cpu time      1.2043: real time      1.2054
    MIXING:  cpu time      0.2760: real time      0.2761
    --------------------------------------------
      LOOP:  cpu time     12.7131: real time     12.7184

 eigenvalue-minimisations  :  1784
 total energy-change (2. order) :-0.1494578E+01  (-0.1474028E+01)
 number of electron     367.9999997 magnetization 
 augmentation part       10.1468010 magnetization 

 Broyden mixing:
  rms(total) = 0.45478E+01    rms(broyden)= 0.45472E+01
  rms(prec ) = 0.46650E+01
  weight for this iteration     100.00

 Free energy of the ion-electron system (eV)
  ---------------------------------------------------
  alpha Z        PSCENC =        91.34886789
  Ewald energy   TEWEN  =    119283.58091656
  -Hartree energ DENC   =   -128613.46741954
  -exchange      EXHF   =         0.00000000
  -V(xc)+E(xc)   XCENC  =      1221.13394811
  PAW double counting   =      9984.02826696   -10036.41360137
  entropy T*S    EENTRO =        -0.06269521
  eigenvalues    EBANDS =     -6365.23192018
  atomic energy  EATOM  =     13537.65479391
  Solvation  Ediel_sol  =         0.00000000
  ---------------------------------------------------
  free energy    TOTEN  =      -897.42884287 eV

  energy without entropy =     -897.36614766  energy(sigma->0) =     -897.39749527


--------------------------------------------------------------------------------------------------------




--------------------------------------- Iteration      1(   6)  ---------------------------------------


    POTLOK:  cpu time      0.3223: real time      0.3223
    SETDIJ:  cpu time      0.0403: real time      0.0403
     EDDAV:  cpu time     10.1632: real time     10.1690
       DOS:  cpu time      0.0007: real time      0.0007
    CHARGE:  cpu time      1.1563: real time      1.1583
    MIXING:  cpu time      0.2754: real time      0.2764
    --------------------------------------------
      LOOP:  cpu time     11.9581: real time     11.9671

 eigenvalue-minimisations  :  1568
 total energy-change (2. order) : 0.4955148E+02  (-0.4732346E+01)
 number of electron     367.9999997 magnetization 
 augmentation part        9.7258073 magnetization 

 Broyden mixing:
  rms(total) = 0.26711E+01    rms(broyden)= 0.26711E+01
  rms(prec ) = 0.27292E+01
  weight for this iteration     100.00

 eigenvalues of (default mixing * dielectric matrix)
  average eigenvalue GAMMA=   2.1848
  2.1848

 Free energy of the ion-electron system (eV)
  ---------------------------------------------------
  alpha Z        PSCENC =        91.34886789
  Ewald energy   TEWEN  =    119283.58091656
  -Hartree energ DENC   =   -129183.27855805
  -exchange      EXHF   =         0.00000000
  -V(xc)+E(xc)   XCENC  =      1244.45793461
  PAW double counting   =     18925.11593216   -18985.10498326
  entropy T*S    EENTRO =        -0.06264299
  eigenvalues    EBANDS =     -5761.58962631
  atomic energy  EATOM  =     13537.65479391
  Solvation  Ediel_sol  =         0.00000000
  ---------------------------------------------------
  free energy    TOTEN  =      -847.87736547 eV

  energy without entropy =     -847.81472248  energy(sigma->0) =     -847.84604398


--------------------------------------------------------------------------------------------------------




--------------------------------------- Iteration      1(   7)  ---------------------------------------


    POTLOK:  cpu time      0.3202: real time      0.3203
    SETDIJ:  cpu time      0.0403: real time      0.0403
     EDDAV:  cpu time     10.0391: real time     10.0453
       DOS:  cpu time      0.0007: real time      0.0007
    CHARGE:  cpu time      1.1534: real time      1.1540
    MIXING:  cpu time      0.2783: real time      0.2789
    --------------------------------------------
      LOOP:  cpu time     11.8321: real time     11.8395

 eigenvalue-minimisations  :  1544
 total energy-change (2. order) : 0.1844956E+02  (-0.6564278E+01)
 number of electron     367.9999998 magnetization 
 augmentation part        9.1714228 magnetization 

 Broyden mixing:
  rms(total) = 0.73158E+00    rms(broyden)= 0.73131E+00
  rms(prec ) = 0.74136E+00
  weight for this iteration     100.00

 eigenvalues of (default mixing * dielectric matrix)
  average eigenvalue GAMMA=   2.2159
  2.2159  2.2159

 Free energy of the ion-electron system (eV)
  ---------------------------------------------------
  alpha Z        PSCENC =        91.34886789
  Ewald energy   TEWEN  =    119283.58091656
  -Hartree energ DENC   =   -129948.31626763
  -exchange      EXHF   =         0.00000000
  -V(xc)+E(xc)   XCENC  =      1275.57571345
  PAW double counting   =     36540.59950795   -36607.49170815
  entropy T*S    EENTRO =        -0.06904869
  eigenvalues    EBANDS =     -5002.31058509
  atomic energy  EATOM  =     13537.65479391
  Solvation  Ediel_sol  =         0.00000000
  ---------------------------------------------------
  free energy    TOTEN  =      -829.42780981 eV

  energy without entropy =     -829.35876112  energy(sigma->0) =     -829.39328546


--------------------------------------------------------------------------------------------------------




--------------------------------------- Iteration      1(   8)  ---------------------------------------


    POTLOK:  cpu time      0.3211: real time      0.3211
    SETDIJ:  cpu time      0.0404: real time      0.0404
     EDDAV:  cpu time     10.4055: real time     10.4117
       DOS:  cpu time      0.0007: real time      0.0007
    CHARGE:  cpu time      1.1522: real time      1.1538
    MIXING:  cpu time      0.2818: real time      0.2832
    --------------------------------------------
      LOOP:  cpu time     12.2018: real time     12.2110

 eigenvalue-minimisations  :  1616
 total energy-change (2. order) : 0.2876779E+00  (-0.2527585E+00)
 number of electron     367.9999998 magnetization 
 augmentation part        9.1567346 magnetization 

 Broyden mixing:
  rms(total) = 0.97520E-01    rms(broyden)= 0.97489E-01
  rms(prec ) = 0.12010E+00
  weight for this iteration     100.00

 eigenvalues of (default mixing * dielectric matrix)
  average eigenvalue GAMMA=   1.8558
  1.2171  2.4318  1.9183

 Free energy of the ion-electron system (eV)
  ---------------------------------------------------
  alpha Z        PSCENC =        91.34886789
  Ewald energy   TEWEN  =    119283.58091656
  -Hartree energ DENC   =   -130041.59652129
  -exchange      EXHF   =         0.00000000
  -V(xc)+E(xc)   XCENC  =      1275.25312405
  PAW double counting   =     40815.39656595   -40879.55284831
  entropy T*S    EENTRO =        -0.06626750
  eigenvalues    EBANDS =     -4911.15876315
  atomic energy  EATOM  =     13537.65479391
  Solvation  Ediel_sol  =         0.00000000
  ---------------------------------------------------
  free energy    TOTEN  =      -829.14013189 eV

  energy without entropy =     -829.07386439  energy(sigma->0) =     -829.10699814


--------------------------------------------------------------------------------------------------------




--------------------------------------- Iteration      1(   9)  ---------------------------------------


    POTLOK:  cpu time      0.3214: real time      0.3213
    SETDIJ:  cpu time      0.0404: real time      0.0404
     EDDAV:  cpu time     10.5312: real time     10.5350
       DOS:  cpu time      0.0007: real time      0.0007
    CHARGE:  cpu time      1.1544: real time      1.1554
    MIXING:  cpu time      0.2857: real time      0.2857
    --------------------------------------------
      LOOP:  cpu time     12.3338: real time     12.3385

 eigenvalue-minimisations  :  1640
 total energy-change (2. order) : 0.1060401E+00  (-0.2648209E-01)
 number of electron     367.9999998 magnetization 
 augmentation part        9.1322352 magnetization 

 Broyden mixing:
  rms(total) = 0.57134E-01    rms(broyden)= 0.57124E-01
  rms(prec ) = 0.78662E-01
  weight for this iteration     100.00

 eigenvalues of (default mixing * dielectric matrix)
  average eigenvalue GAMMA=   1.7214
  2.2200  2.2200  1.1257  1.3198

 Free energy of the ion-electron system (eV)
  ---------------------------------------------------
  alpha Z        PSCENC =        91.34886789
  Ewald energy   TEWEN  =    119283.58091656
  -Hartree energ DENC   =   -130110.00667923
  -exchange      EXHF   =         0.00000000
  -V(xc)+E(xc)   XCENC  =      1276.71469209
  PAW double counting   =     41285.75173808   -41350.04663586
  entropy T*S    EENTRO =        -0.06650043
  eigenvalues    EBANDS =     -4843.96528476
  atomic energy  EATOM  =     13537.65479391
  Solvation  Ediel_sol  =         0.00000000
  ---------------------------------------------------
  free energy    TOTEN  =      -829.03409176 eV

  energy without entropy =     -828.96759132  energy(sigma->0) =     -829.00084154


--------------------------------------------------------------------------------------------------------




--------------------------------------- Iteration      1(  10)  ---------------------------------------


    POTLOK:  cpu time      0.3219: real time      0.3217
    SETDIJ:  cpu time      0.0404: real time      0.0404
     EDDAV:  cpu time     10.9604: real time     10.9644
       DOS:  cpu time      0.0008: real time      0.0008
    CHARGE:  cpu time      1.1504: real time      1.1543
    MIXING:  cpu time      0.2939: real time      0.2939
    --------------------------------------------
      LOOP:  cpu time     12.7678: real time     12.7755

 eigenvalue-minimisations  :  1728
 total energy-change (2. order) : 0.4110822E-01  (-0.4839769E-02)
 number of electron     367.9999998 magnetization 
 augmentation part        9.1226336 magnetization 

 Broyden mixing:
  rms(total) = 0.35407E-01    rms(broyden)= 0.35404E-01
  rms(prec ) = 0.54607E-01
  weight for this iteration     100.00

 eigenvalues of (default mixing * dielectric matrix)
  average eigenvalue GAMMA=   1.7379
  2.4890  2.4890  1.6679  1.1977  0.8461

 Free energy of the ion-electron system (eV)
  ---------------------------------------------------
  alpha Z        PSCENC =        91.34886789
  Ewald energy   TEWEN  =    119283.58091656
  -Hartree energ DENC   =   -130163.46958535
  -exchange      EXHF   =         0.00000000
  -V(xc)+E(xc)   XCENC  =      1277.07068014
  PAW double counting   =     41036.82027317   -41100.96671966
  entropy T*S    EENTRO =        -0.06654768
  eigenvalues    EBANDS =     -4790.96566251
  atomic energy  EATOM  =     13537.65479391
  Solvation  Ediel_sol  =         0.00000000
  ---------------------------------------------------
  free energy    TOTEN  =      -828.99298354 eV

  energy without entropy =     -828.92643586  energy(sigma->0) =     -828.95970970


--------------------------------------------------------------------------------------------------------




--------------------------------------- Iteration      1(  11)  ---------------------------------------


    POTLOK:  cpu time      0.3212: real time      0.3212
    SETDIJ:  cpu time      0.0402: real time      0.0402
     EDDAV:  cpu time     10.1119: real time     10.1156
       DOS:  cpu time      0.0007: real time      0.0007
    CHARGE:  cpu time      1.1593: real time      1.1617
    MIXING:  cpu time      0.2973: real time      0.2983
    --------------------------------------------
      LOOP:  cpu time     11.9307: real time     11.9377

 eigenvalue-minimisations  :  1560
 total energy-change (2. order) : 0.2805286E-01  (-0.2186871E-02)
 number of electron     367.9999998 magnetization 
 augmentation part        9.1173322 magnetization 

 Broyden mixing:
  rms(total) = 0.23636E-01    rms(broyden)= 0.23634E-01
  rms(prec ) = 0.37141E-01
  weight for this iteration     100.00

 eigenvalues of (default mixing * dielectric matrix)
  average eigenvalue GAMMA=   1.7903
  3.0255  2.5138  1.9218  0.9304  1.1751  1.1751

 Free energy of the ion-electron system (eV)
  ---------------------------------------------------
  alpha Z        PSCENC =        91.34886789
  Ewald energy   TEWEN  =    119283.58091656
  -Hartree energ DENC   =   -130226.85066308
  -exchange      EXHF   =         0.00000000
  -V(xc)+E(xc)   XCENC  =      1277.65556579
  PAW double counting   =     40994.73117174   -41058.78323437
  entropy T*S    EENTRO =        -0.06666659
  eigenvalues    EBANDS =     -4728.23568253
  atomic energy  EATOM  =     13537.65479391
  Solvation  Ediel_sol  =         0.00000000
  ---------------------------------------------------
  free energy    TOTEN  =      -828.96493068 eV

  energy without entropy =     -828.89826409  energy(sigma->0) =     -828.93159738


--------------------------------------------------------------------------------------------------------




--------------------------------------- Iteration      1(  12)  ---------------------------------------


    POTLOK:  cpu time      0.3212: real time      0.3212
    SETDIJ:  cpu time      0.0402: real time      0.0402
     EDDAV:  cpu time     10.0324: real time     10.0364
       DOS:  cpu time      0.0007: real time      0.0007
    CHARGE:  cpu time      1.1504: real time      1.1538
    MIXING:  cpu time      0.3051: real time      0.3051
    --------------------------------------------
      LOOP:  cpu time     11.8499: real time     11.8575

 eigenvalue-minimisations  :  1544
 total energy-change (2. order) : 0.2531295E-02  (-0.2114620E-02)
 number of electron     367.9999998 magnetization 
 augmentation part        9.1105211 magnetization 

 Broyden mixing:
  rms(total) = 0.14842E-01    rms(broyden)= 0.14838E-01
  rms(prec ) = 0.22919E-01
  weight for this iteration     100.00

 eigenvalues of (default mixing * dielectric matrix)
  average eigenvalue GAMMA=   2.0882
  4.9812  2.3983  2.0501  2.0207  0.9692  1.0990  1.0990

 Free energy of the ion-electron system (eV)
  ---------------------------------------------------
  alpha Z        PSCENC =        91.34886789
  Ewald energy   TEWEN  =    119283.58091656
  -Hartree energ DENC   =   -130288.68899195
  -exchange      EXHF   =         0.00000000
  -V(xc)+E(xc)   XCENC  =      1278.23495924
  PAW double counting   =     41045.68553634   -41109.72311807
  entropy T*S    EENTRO =        -0.06672798
  eigenvalues    EBANDS =     -4666.98863532
  atomic energy  EATOM  =     13537.65479391
  Solvation  Ediel_sol  =         0.00000000
  ---------------------------------------------------
  free energy    TOTEN  =      -828.96239938 eV

  energy without entropy =     -828.89567140  energy(sigma->0) =     -828.92903539


--------------------------------------------------------------------------------------------------------




--------------------------------------- Iteration      1(  13)  ---------------------------------------


    POTLOK:  cpu time      0.3217: real time      0.3219
    SETDIJ:  cpu time      0.0403: real time      0.0403
     EDDAV:  cpu time     10.1040: real time     10.1073
       DOS:  cpu time      0.0007: real time      0.0007
    CHARGE:  cpu time      1.1539: real time      1.1556
    MIXING:  cpu time      0.3150: real time      0.3149
    --------------------------------------------
      LOOP:  cpu time     11.9356: real time     11.9408

 eigenvalue-minimisations  :  1560
 total energy-change (2. order) :-0.1132955E-01  (-0.8938970E-03)
 number of electron     367.9999998 magnetization 
 augmentation part        9.1078872 magnetization 

 Broyden mixing:
  rms(total) = 0.84747E-02    rms(broyden)= 0.84729E-02
  rms(prec ) = 0.11869E-01
  weight for this iteration     100.00

 eigenvalues of (default mixing * dielectric matrix)
  average eigenvalue GAMMA=   2.1159
  5.4783  2.5177  2.5177  1.9105  1.2627  1.2627  0.9106  1.0673

 Free energy of the ion-electron system (eV)
  ---------------------------------------------------
  alpha Z        PSCENC =        91.34886789
  Ewald energy   TEWEN  =    119283.58091656
  -Hartree energ DENC   =   -130341.00704774
  -exchange      EXHF   =         0.00000000
  -V(xc)+E(xc)   XCENC  =      1278.44813869
  PAW double counting   =     40995.38591329   -41059.41799169
  entropy T*S    EENTRO =        -0.06667423
  eigenvalues    EBANDS =     -4614.90064561
  atomic energy  EATOM  =     13537.65479391
  Solvation  Ediel_sol  =         0.00000000
  ---------------------------------------------------
  free energy    TOTEN  =      -828.97372893 eV

  energy without entropy =     -828.90705470  energy(sigma->0) =     -828.94039182


--------------------------------------------------------------------------------------------------------




--------------------------------------- Iteration      1(  14)  ---------------------------------------


    POTLOK:  cpu time      0.3218: real time      0.3218
    SETDIJ:  cpu time      0.0405: real time      0.0405
     EDDAV:  cpu time     10.1050: real time     10.1098
       DOS:  cpu time      0.0007: real time      0.0007
    CHARGE:  cpu time      1.1509: real time      1.1548
    MIXING:  cpu time      0.3220: real time      0.3222
    --------------------------------------------
      LOOP:  cpu time     11.9409: real time     11.9499

 eigenvalue-minimisations  :  1560
 total energy-change (2. order) :-0.2071325E-01  (-0.1487010E-03)
 number of electron     367.9999998 magnetization 
 augmentation part        9.1069055 magnetization 

 Broyden mixing:
  rms(total) = 0.49212E-02    rms(broyden)= 0.49207E-02
  rms(prec ) = 0.70464E-02
  weight for this iteration     100.00

 eigenvalues of (default mixing * dielectric matrix)
  average eigenvalue GAMMA=   2.2740
  6.7420  3.1292  2.4726  1.9132  1.9132  1.1919  1.1919  0.9561  0.9561

 Free energy of the ion-electron system (eV)
  ---------------------------------------------------
  alpha Z        PSCENC =        91.34886789
  Ewald energy   TEWEN  =    119283.58091656
  -Hartree energ DENC   =   -130356.31315123
  -exchange      EXHF   =         0.00000000
  -V(xc)+E(xc)   XCENC  =      1278.45927980
  PAW double counting   =     41006.88741550   -41070.93163850
  entropy T*S    EENTRO =        -0.06668721
  eigenvalues    EBANDS =     -4599.61423890
  atomic energy  EATOM  =     13537.65479391
  Solvation  Ediel_sol  =         0.00000000
  ---------------------------------------------------
  free energy    TOTEN  =      -828.99444219 eV

  energy without entropy =     -828.92775497  energy(sigma->0) =     -828.96109858


--------------------------------------------------------------------------------------------------------




--------------------------------------- Iteration      1(  15)  ---------------------------------------


    POTLOK:  cpu time      0.3214: real time      0.3214
    SETDIJ:  cpu time      0.0404: real time      0.0404
     EDDAV:  cpu time     10.3956: real time     10.3994
       DOS:  cpu time      0.0007: real time      0.0007
    CHARGE:  cpu time      1.1539: real time      1.1560
    MIXING:  cpu time      0.3289: real time      0.3311
    --------------------------------------------
      LOOP:  cpu time     12.2409: real time     12.2490

 eigenvalue-minimisations  :  1616
 total energy-change (2. order) :-0.1939506E-01  (-0.1685453E-03)
 number of electron     367.9999998 magnetization 
 augmentation part        9.1066161 magnetization 

 Broyden mixing:
  rms(total) = 0.31137E-02    rms(broyden)= 0.31134E-02
  rms(prec ) = 0.40092E-02
  weight for this iteration     100.00

 eigenvalues of (default mixing * dielectric matrix)
  average eigenvalue GAMMA=   2.2735
  7.1088  3.5957  2.2986  2.2986  1.7439  1.3245  1.3245  0.9633  0.9633  1.1139

 Free energy of the ion-electron system (eV)
  ---------------------------------------------------
  alpha Z        PSCENC =        91.34886789
  Ewald energy   TEWEN  =    119283.58091656
  -Hartree energ DENC   =   -130366.31379762
  -exchange      EXHF   =         0.00000000
  -V(xc)+E(xc)   XCENC  =      1278.43371351
  PAW double counting   =     41000.13048035   -41064.17617036
  entropy T*S    EENTRO =        -0.06670725
  eigenvalues    EBANDS =     -4589.60593422
  atomic energy  EATOM  =     13537.65479391
  Solvation  Ediel_sol  =         0.00000000
  ---------------------------------------------------
  free energy    TOTEN  =      -829.01383724 eV

  energy without entropy =     -828.94712999  energy(sigma->0) =     -828.98048362


--------------------------------------------------------------------------------------------------------




--------------------------------------- Iteration      1(  16)  ---------------------------------------


    POTLOK:  cpu time      0.3209: real time      0.3209
    SETDIJ:  cpu time      0.0407: real time      0.0407
     EDDAV:  cpu time     10.4819: real time     10.4858
       DOS:  cpu time      0.0008: real time      0.0008
    CHARGE:  cpu time      1.1625: real time      1.1633
    MIXING:  cpu time      0.3400: real time      0.3403
    --------------------------------------------
      LOOP:  cpu time     12.3467: real time     12.3518

 eigenvalue-minimisations  :  1632
 total energy-change (2. order) :-0.7405145E-02  (-0.4107987E-04)
 number of electron     367.9999998 magnetization 
 augmentation part        9.1065675 magnetization 

 Broyden mixing:
  rms(total) = 0.19249E-02    rms(broyden)= 0.19249E-02
  rms(prec ) = 0.24452E-02
  weight for this iteration     100.00

 eigenvalues of (default mixing * dielectric matrix)
  average eigenvalue GAMMA=   2.3560
  8.0171  4.1053  2.4008  2.4008  1.8579  1.5333  1.5333  0.9402  0.9743  1.0768
  1.0768

 Free energy of the ion-electron system (eV)
  ---------------------------------------------------
  alpha Z        PSCENC =        91.34886789
  Ewald energy   TEWEN  =    119283.58091656
  -Hartree energ DENC   =   -130369.24193113
  -exchange      EXHF   =         0.00000000
  -V(xc)+E(xc)   XCENC  =      1278.41894917
  PAW double counting   =     41000.86854603   -41064.90939103
  entropy T*S    EENTRO =        -0.06669061
  eigenvalues    EBANDS =     -4586.67530318
  atomic energy  EATOM  =     13537.65479391
  Solvation  Ediel_sol  =         0.00000000
  ---------------------------------------------------
  free energy    TOTEN  =      -829.02124239 eV

  energy without entropy =     -828.95455177  energy(sigma->0) =     -828.98789708


--------------------------------------------------------------------------------------------------------




--------------------------------------- Iteration      1(  17)  ---------------------------------------


    POTLOK:  cpu time      0.3211: real time      0.3212
    SETDIJ:  cpu time      0.0401: real time      0.0401
     EDDAV:  cpu time     10.1044: real time     10.1081
       DOS:  cpu time      0.0007: real time      0.0007
    CHARGE:  cpu time      1.1563: real time      1.1570
    MIXING:  cpu time      0.3507: real time      0.3507
    --------------------------------------------
      LOOP:  cpu time     11.9733: real time     11.9778

 eigenvalue-minimisations  :  1560
 total energy-change (2. order) :-0.4281886E-02  (-0.2462292E-04)
 number of electron     367.9999998 magnetization 
 augmentation part        9.1064698 magnetization 

 Broyden mixing:
  rms(total) = 0.10514E-02    rms(broyden)= 0.10513E-02
  rms(prec ) = 0.13492E-02
  weight for this iteration     100.00

 eigenvalues of (default mixing * dielectric matrix)
  average eigenvalue GAMMA=   2.4059
  8.3813  4.7921  2.5562  2.5562  1.9965  1.3939  1.3939  1.5265  0.9740  0.9740
  1.1973  1.1286

 Free energy of the ion-electron system (eV)
  ---------------------------------------------------
  alpha Z        PSCENC =        91.34886789
  Ewald energy   TEWEN  =    119283.58091656
  -Hartree energ DENC   =   -130371.17521717
  -exchange      EXHF   =         0.00000000
  -V(xc)+E(xc)   XCENC  =      1278.41814892
  PAW double counting   =     41002.51110522   -41066.55070955
  entropy T*S    EENTRO =        -0.06669674
  eigenvalues    EBANDS =     -4584.74673330
  atomic energy  EATOM  =     13537.65479391
  Solvation  Ediel_sol  =         0.00000000
  ---------------------------------------------------
  free energy    TOTEN  =      -829.02552427 eV

  energy without entropy =     -828.95882753  energy(sigma->0) =     -828.99217590


--------------------------------------------------------------------------------------------------------




--------------------------------------- Iteration      1(  18)  ---------------------------------------


    POTLOK:  cpu time      0.3220: real time      0.3221
    SETDIJ:  cpu time      0.0404: real time      0.0405
     EDDAV:  cpu time     10.3347: real time     10.3385
       DOS:  cpu time      0.0008: real time      0.0008
    CHARGE:  cpu time      1.1550: real time      1.1557
    MIXING:  cpu time      0.3604: real time      0.3611
    --------------------------------------------
      LOOP:  cpu time     12.2133: real time     12.2186

 eigenvalue-minimisations  :  1608
 total energy-change (2. order) :-0.2084621E-02  (-0.9400885E-05)
 number of electron     367.9999998 magnetization 
 augmentation part        9.1064139 magnetization 

 Broyden mixing:
  rms(total) = 0.54666E-03    rms(broyden)= 0.54660E-03
  rms(prec ) = 0.70796E-03
  weight for this iteration     100.00

 eigenvalues of (default mixing * dielectric matrix)
  average eigenvalue GAMMA=   2.4302
  8.8605  5.1618  2.9200  2.5138  1.9576  1.9576  1.5143  1.5143  1.1579  1.1579
  0.9526  0.9526  0.9717

 Free energy of the ion-electron system (eV)
  ---------------------------------------------------
  alpha Z        PSCENC =        91.34886789
  Ewald energy   TEWEN  =    119283.58091656
  -Hartree energ DENC   =   -130371.96875179
  -exchange      EXHF   =         0.00000000
  -V(xc)+E(xc)   XCENC  =      1278.41848876
  PAW double counting   =     41002.13776061   -41066.17646307
  entropy T*S    EENTRO =        -0.06670132
  eigenvalues    EBANDS =     -4583.95652045
  atomic energy  EATOM  =     13537.65479391
  Solvation  Ediel_sol  =         0.00000000
  ---------------------------------------------------
  free energy    TOTEN  =      -829.02760890 eV

  energy without entropy =     -828.96090758  energy(sigma->0) =     -828.99425824


--------------------------------------------------------------------------------------------------------




--------------------------------------- Iteration      1(  19)  ---------------------------------------


    POTLOK:  cpu time      0.3199: real time      0.3199
    SETDIJ:  cpu time      0.0401: real time      0.0401
     EDDAV:  cpu time      9.7248: real time      9.7283
       DOS:  cpu time      0.0008: real time      0.0008
    CHARGE:  cpu time      1.1516: real time      1.1553
    MIXING:  cpu time      0.3725: real time      0.3725
    --------------------------------------------
      LOOP:  cpu time     11.6096: real time     11.6169

 eigenvalue-minimisations  :  1480
 total energy-change (2. order) :-0.8368778E-03  (-0.2496715E-05)
 number of electron     367.9999998 magnetization 
 augmentation part        9.1064290 magnetization 

 Broyden mixing:
  rms(total) = 0.40755E-03    rms(broyden)= 0.40753E-03
  rms(prec ) = 0.47911E-03
  weight for this iteration     100.00

 eigenvalues of (default mixing * dielectric matrix)
  average eigenvalue GAMMA=   2.4223
  8.9359  5.5195  3.1461  2.4137  2.4137  1.8039  1.4326  1.4326  1.3673  1.3673
  0.9532  0.9967  0.9967  1.1324

 Free energy of the ion-electron system (eV)
  ---------------------------------------------------
  alpha Z        PSCENC =        91.34886789
  Ewald energy   TEWEN  =    119283.58091656
  -Hartree energ DENC   =   -130372.23744738
  -exchange      EXHF   =         0.00000000
  -V(xc)+E(xc)   XCENC  =      1278.41598012
  PAW double counting   =     41000.94445643   -41064.98244237
  entropy T*S    EENTRO =        -0.06669707
  eigenvalues    EBANDS =     -4583.68687386
  atomic energy  EATOM  =     13537.65479391
  Solvation  Ediel_sol  =         0.00000000
  ---------------------------------------------------
  free energy    TOTEN  =      -829.02844577 eV

  energy without entropy =     -828.96174871  energy(sigma->0) =     -828.99509724


--------------------------------------------------------------------------------------------------------




--------------------------------------- Iteration      1(  20)  ---------------------------------------


    POTLOK:  cpu time      0.3206: real time      0.3206
    SETDIJ:  cpu time      0.0401: real time      0.0401
     EDDAV:  cpu time      9.1803: real time      9.1838
       DOS:  cpu time      0.0007: real time      0.0007
    CHARGE:  cpu time      1.1504: real time      1.1538
    MIXING:  cpu time      0.3830: real time      0.3837
    --------------------------------------------
      LOOP:  cpu time     11.0751: real time     11.0828

 eigenvalue-minimisations  :  1368
 total energy-change (2. order) :-0.3254278E-03  (-0.4372861E-06)
 number of electron     367.9999998 magnetization 
 augmentation part        9.1063996 magnetization 

 Broyden mixing:
  rms(total) = 0.19673E-03    rms(broyden)= 0.19671E-03
  rms(prec ) = 0.24534E-03
  weight for this iteration     100.00

 eigenvalues of (default mixing * dielectric matrix)
  average eigenvalue GAMMA=   2.4617
  9.1748  5.9671  3.7076  2.5238  2.5238  1.9789  1.5530  1.5530  1.6026  1.1666
  1.1666  0.9888  0.9888  1.0153  1.0153

 Free energy of the ion-electron system (eV)
  ---------------------------------------------------
  alpha Z        PSCENC =        91.34886789
  Ewald energy   TEWEN  =    119283.58091656
  -Hartree energ DENC   =   -130372.38705094
  -exchange      EXHF   =         0.00000000
  -V(xc)+E(xc)   XCENC  =      1278.41653734
  PAW double counting   =     41000.97214861   -41065.01100299
  entropy T*S    EENTRO =        -0.06669864
  eigenvalues    EBANDS =     -4583.53728294
  atomic energy  EATOM  =     13537.65479391
  Solvation  Ediel_sol  =         0.00000000
  ---------------------------------------------------
  free energy    TOTEN  =      -829.02877120 eV

  energy without entropy =     -828.96207256  energy(sigma->0) =     -828.99542188


--------------------------------------------------------------------------------------------------------




--------------------------------------- Iteration      1(  21)  ---------------------------------------


    POTLOK:  cpu time      0.3207: real time      0.3207
    SETDIJ:  cpu time      0.0401: real time      0.0401
     EDDAV:  cpu time      8.6066: real time      8.6101
       DOS:  cpu time      0.0008: real time      0.0008
    CHARGE:  cpu time      1.1619: real time      1.1640
    MIXING:  cpu time      0.3939: real time      0.3959
    --------------------------------------------
      LOOP:  cpu time     10.5240: real time     10.5316

 eigenvalue-minimisations  :  1256
 total energy-change (2. order) :-0.1934790E-03  (-0.2935893E-06)
 number of electron     367.9999998 magnetization 
 augmentation part        9.1064104 magnetization 

 Broyden mixing:
  rms(total) = 0.12726E-03    rms(broyden)= 0.12725E-03
  rms(prec ) = 0.14839E-03
  weight for this iteration     100.00

 eigenvalues of (default mixing * dielectric matrix)
  average eigenvalue GAMMA=   2.4316
  9.1790  6.1885  3.8477  2.6214  2.6214  1.8705  1.8705  1.4504  1.4504  1.3293
  1.3293  1.1328  1.1328  0.9647  0.9647  0.9512

 Free energy of the ion-electron system (eV)
  ---------------------------------------------------
  alpha Z        PSCENC =        91.34886789
  Ewald energy   TEWEN  =    119283.58091656
  -Hartree energ DENC   =   -130372.46110498
  -exchange      EXHF   =         0.00000000
  -V(xc)+E(xc)   XCENC  =      1278.41524892
  PAW double counting   =     41000.58794520   -41064.62675444
  entropy T*S    EENTRO =        -0.06669890
  eigenvalues    EBANDS =     -4583.46217883
  atomic energy  EATOM  =     13537.65479391
  Solvation  Ediel_sol  =         0.00000000
  ---------------------------------------------------
  free energy    TOTEN  =      -829.02896468 eV

  energy without entropy =     -828.96226578  energy(sigma->0) =     -828.99561523


[...]
   -.220E+01 -.163E+02 -.554E+02   0.203E+01 0.174E+02 0.554E+02   -.370E+00 -.214E+00 0.235E+00   -.725E-05 0.483E-05 -.136E-05
   -.209E+02 -.135E+02 -.149E+03   0.218E+02 0.142E+02 0.149E+03   0.457E+00 -.465E+00 -.296E+00   -.137E-04 -.487E-05 0.264E-05
   -.352E+01 0.125E+02 -.545E+02   0.289E+01 -.132E+02 0.541E+02   -.581E+00 -.870E+00 0.946E+00   -.128E-04 0.707E-05 -.101E-05
   -.205E+02 0.216E+02 -.128E+03   0.197E+02 -.235E+02 0.128E+03   -.841E+00 -.621E+00 -.103E+00   -.254E-05 -.140E-04 0.173E-05
   -.204E+02 -.237E+02 -.130E+03   0.209E+02 0.255E+02 0.130E+03   0.728E+00 0.601E+00 -.154E+01   -.160E-06 0.209E-04 0.220E-06
   -.115E+02 -.135E+02 -.548E+02   0.122E+02 0.144E+02 0.543E+02   0.125E+01 0.735E+00 0.395E+00   0.106E-04 -.653E-05 -.527E-05
   -.172E+02 0.971E-01 -.809E+02   0.161E+02 0.788E+00 0.811E+02   -.795E+00 0.154E+01 -.559E-01   0.852E-05 0.137E-04 -.314E-05
   -.175E+01 0.250E+02 -.633E+01   0.124E+01 -.275E+02 0.632E+01   0.277E+00 -.343E+00 0.847E+00   0.117E-04 -.917E-05 -.650E-05
   -.290E+02 -.262E+02 -.462E+02   0.310E+02 0.283E+02 0.458E+02   0.479E+00 0.147E+01 -.690E+00   0.141E-04 0.146E-04 -.532E-05
   -.117E+02 -.215E+02 -.181E+01   0.128E+02 0.225E+02 0.140E+01   0.686E+00 0.537E+00 0.331E+00   0.145E-04 -.182E-05 -.572E-05
   0.116E+02 0.160E+02 -.913E+01   -.133E+02 -.161E+02 0.974E+01   -.956E+00 0.570E+00 0.437E+00   0.129E-04 0.552E-05 -.602E-05
   0.337E+01 0.156E+02 -.430E+02   -.472E+01 -.159E+02 0.444E+02   -.203E+01 0.266E+00 -.212E+01   0.428E-05 0.138E-05 -.265E-05
   0.227E+01 -.968E+01 0.236E+02   -.148E+01 0.954E+01 -.242E+02   -.263E+00 -.240E+00 -.166E+00   0.109E-05 0.285E-05 -.153E-05
   0.269E+02 -.958E+01 0.132E+03   -.264E+02 0.945E+01 -.133E+03   0.516E+00 -.821E+00 0.140E+01   -.344E-05 0.907E-06 0.217E-05
   0.444E+02 0.110E+02 0.149E+03   -.457E+02 -.110E+02 -.149E+03   -.150E+00 -.515E+00 0.110E+01   -.349E-05 0.206E-05 0.226E-05
   0.400E+02 0.918E+01 0.206E+03   -.420E+02 -.821E+01 -.205E+03   -.125E+01 0.398E+00 0.702E+00   -.935E-05 0.146E-05 0.434E-05
   0.235E+02 -.876E+01 0.189E+03   -.227E+02 0.821E+01 -.189E+03   0.115E+01 -.351E+00 -.376E+00   -.770E-05 0.223E-05 0.444E-05
   -.171E+01 -.684E+01 0.214E+03   0.418E+01 0.698E+01 -.215E+03   0.127E+01 -.186E+00 0.203E+01   -.529E-05 0.157E-05 0.190E-05
   0.113E+02 0.447E+01 0.185E+03   -.121E+02 -.409E+01 -.186E+03   0.327E+00 0.483E+00 0.613E+00   -.704E-05 0.815E-06 0.335E-05
   -.442E+01 0.161E+02 0.136E+03   0.361E+01 -.168E+02 -.136E+03   -.710E+00 -.229E+00 -.163E+00   -.523E-05 0.673E-07 0.239E-05
   -.143E+02 -.188E+02 0.138E+03   0.156E+02 0.195E+02 -.137E+03   0.138E+01 0.720E-01 -.562E+00   -.498E-05 0.230E-05 0.264E-05
   -.806E+01 -.110E+02 0.826E+02   0.793E+01 0.109E+02 -.821E+02   0.273E+00 -.104E+00 -.173E+01   -.606E-05 0.278E-05 0.228E-05
   -.703E+01 0.141E+02 0.136E+03   0.582E+01 -.143E+02 -.136E+03   -.429E+00 0.496E+00 0.590E+00   -.616E-05 -.489E-06 0.435E-06
   -.181E+02 0.408E+01 0.114E+03   0.175E+02 -.297E+01 -.115E+03   -.394E+00 0.956E+00 0.150E+01   -.517E-05 -.226E-05 -.192E-05
   -.149E+02 -.114E+02 0.598E+02   0.150E+02 0.107E+02 -.591E+02   0.277E+00 -.319E+00 -.131E+01   -.434E-05 0.453E-05 0.544E-06
   -.435E+02 0.569E+00 0.713E+02   0.444E+02 -.126E+01 -.709E+02   0.486E+00 -.318E+00 0.473E+00   -.105E-04 -.886E-05 -.585E-05
   -.324E+02 0.485E+01 0.598E+02   0.328E+02 -.511E+01 -.594E+02   0.732E+00 -.572E+00 -.127E+00   -.108E-04 0.251E-05 -.324E-05
   -.115E+01 0.727E+02 -.206E+02   -.260E+01 -.746E+02 0.198E+02   0.183E+01 0.218E+00 -.332E+00   0.235E-04 -.793E-05 0.119E-04
   -.183E+02 -.771E+02 0.238E+02   0.152E+02 0.801E+02 -.252E+02   -.529E-01 -.162E+01 0.844E+00   0.244E-04 0.971E-05 0.981E-05
   -.163E+02 0.698E+02 0.811E+02   0.193E+02 -.723E+02 -.803E+02   -.147E+01 0.242E+00 -.106E+01   0.113E-04 0.513E-05 0.462E-05
   -.199E+02 -.790E+02 0.753E+02   0.244E+02 0.822E+02 -.744E+02   -.843E+00 -.157E+01 0.808E+00   0.116E-04 -.793E-05 0.438E-05
   0.749E+01 0.325E+01 0.619E+02   -.830E+01 -.215E+01 -.629E+02   -.106E+00 0.192E+01 0.178E+00   -.451E-05 -.177E-05 -.349E-06
   0.158E+02 -.425E+01 -.129E+02   -.157E+02 0.441E+01 0.137E+02   -.146E+00 -.700E-01 -.230E+01   -.469E-05 0.151E-05 -.904E-06
   -.128E+02 0.112E+02 0.438E+02   0.134E+02 -.117E+02 -.438E+02   0.178E+01 0.530E+00 0.458E+00   0.306E-05 -.434E-05 0.184E-05
   -.214E+02 -.269E+02 0.639E+02   0.217E+02 0.285E+02 -.646E+02   -.841E+00 0.990E+00 0.220E+01   0.672E-05 0.312E-05 0.326E-05
   0.140E+02 -.111E+02 -.279E+02   -.146E+02 0.109E+02 0.277E+02   0.737E+00 -.866E+00 -.337E+00   0.593E-05 -.405E-05 0.296E-05
   0.223E+02 0.497E+01 -.424E+02   -.225E+02 -.598E+01 0.424E+02   0.433E+00 -.800E+00 -.100E+00   0.755E-05 0.939E-05 0.587E-05
   0.967E+00 0.138E+02 -.699E+01   -.729E+00 -.141E+02 0.614E+01   -.774E-01 0.110E+01 0.118E+01   0.502E-06 0.266E-05 0.141E-05
   0.146E+02 -.138E+02 -.493E+02   -.158E+02 0.145E+02 0.486E+02   0.275E+00 0.972E+00 0.373E+00   0.525E-05 0.470E-05 0.280E-05
   0.978E+01 -.660E+01 -.727E+02   -.962E+01 0.574E+01 0.731E+02   -.120E+00 -.115E+01 -.146E+01   -.282E-05 -.220E-05 -.907E-06
   0.139E+02 0.115E+02 -.130E+03   -.133E+02 -.119E+02 0.130E+03   0.197E+01 0.295E+00 -.339E+00   -.253E-05 0.685E-05 -.420E-06
   -.480E+01 0.376E+01 -.404E+02   0.559E+01 -.335E+01 0.403E+02   -.737E+00 0.351E+00 -.679E-01   -.556E-05 0.178E-05 -.233E-06
   0.697E+01 -.109E+02 -.643E+02   -.798E+01 0.107E+02 0.636E+02   0.258E+00 -.995E+00 0.163E+01   -.863E-05 0.517E-05 0.143E-06
   -.427E+01 -.153E+02 -.173E+02   0.454E+01 0.160E+02 0.170E+02   -.999E+00 0.498E+00 0.809E+00   -.183E-05 0.415E-05 -.310E-06
   -.833E+01 0.162E+02 -.173E+03   0.911E+01 -.163E+02 0.174E+03   0.135E+01 -.106E+00 -.125E+01   -.544E-05 0.154E-05 -.245E-05
   -.192E+01 0.796E+01 -.904E+02   0.109E+01 -.824E+01 0.905E+02   -.107E+01 -.461E+00 -.659E+00   -.755E-05 0.269E-05 0.165E-06
   -.721E+01 -.131E+02 -.158E+03   0.701E+01 0.142E+02 0.158E+03   0.813E+00 0.705E-01 -.335E+00   -.101E-04 -.386E-05 -.911E-06
   -.464E+01 -.129E+02 -.625E+02   0.529E+01 0.136E+02 0.624E+02   0.406E-01 -.443E+00 -.739E-01   -.971E-05 0.597E-05 0.265E-06
   -.222E+02 0.246E+02 -.154E+03   0.222E+02 -.259E+02 0.154E+03   0.511E+00 -.111E+01 -.496E-01   -.871E-05 -.791E-05 0.412E-06
   -.123E+02 0.537E+01 -.598E+02   0.123E+02 -.520E+01 0.599E+02   -.323E+00 -.407E+00 0.457E+00   0.218E-05 -.347E-05 -.242E-05
   -.132E+02 -.127E+02 -.139E+03   0.127E+02 0.131E+02 0.140E+03   -.234E+00 -.544E+00 -.842E+00   -.222E-05 -.217E-05 0.111E-05
   0.272E+01 0.838E+00 -.296E+02   -.341E+01 -.210E+01 0.298E+02   0.337E+00 0.309E+00 0.319E+00   0.281E-05 0.831E-06 -.246E-05
   -.311E+02 0.196E+02 -.954E+02   0.318E+02 -.209E+02 0.955E+02   -.100E+01 -.640E-01 -.506E+00   0.663E-05 -.801E-05 -.118E-05
   -.194E+01 0.144E+02 0.891E+01   0.250E+01 -.152E+02 -.935E+01   0.160E+01 -.135E+00 -.205E+00   0.742E-05 -.592E-05 -.372E-05
   -.351E+01 -.180E+02 -.241E+02   0.317E+01 0.193E+02 0.240E+02   -.736E+00 0.805E+00 0.495E+00   0.824E-05 0.508E-06 -.318E-05
   0.904E+01 -.147E+02 0.271E+02   -.880E+01 0.148E+02 -.274E+02   0.114E+01 0.161E+00 -.507E+00   0.960E-05 -.634E-05 -.381E-05
   0.551E+01 0.111E+02 0.102E+02   -.547E+01 -.115E+02 -.101E+02   -.617E+00 0.156E+00 -.312E+00   0.945E-05 0.928E-07 -.416E-05
   0.345E+02 0.151E+02 0.640E+02   -.362E+02 -.154E+02 -.628E+02   -.843E+00 0.768E+00 -.539E+00   0.365E-05 -.247E-05 -.147E-05
   0.233E+02 -.145E+02 0.879E+02   -.230E+02 0.149E+02 -.881E+02   0.423E+00 0.601E+00 0.818E+00   0.435E-05 -.214E-05 -.184E-05
   0.231E+02 -.128E+02 0.143E+03   -.220E+02 0.127E+02 -.144E+03   0.633E+00 -.860E+00 0.915E+00   -.336E-05 -.337E-05 0.166E-05
   0.269E+02 0.112E+02 0.103E+03   -.268E+02 -.115E+02 -.103E+03   0.355E+00 -.303E+00 -.423E+00   -.192E-05 0.131E-05 0.806E-06
   0.123E+02 0.134E+02 0.979E+02   -.123E+02 -.139E+02 -.976E+02   -.372E+00 -.429E-01 -.953E+00   -.618E-05 -.117E-05 0.220E-05
   0.646E+01 -.143E+02 0.996E+02   -.616E+01 0.153E+02 -.999E+02   -.303E+00 0.571E-01 0.695E+00   -.589E-05 -.732E-06 0.206E-05
   0.277E+01 -.109E+02 0.142E+03   -.287E+01 0.107E+02 -.142E+03   -.194E+00 -.499E-01 0.122E+00   -.467E-05 0.117E-05 0.270E-05
   0.300E+01 0.159E+02 0.700E+02   -.347E+01 -.168E+02 -.693E+02   -.944E+00 -.116E+01 -.130E+01   -.583E-05 -.389E-05 0.321E-05
   -.487E+01 0.744E+01 0.136E+03   0.513E+01 -.717E+01 -.136E+03   0.434E+00 0.110E+00 0.567E+00   -.655E-05 -.104E-05 0.147E-05
   -.207E+01 -.138E+01 0.647E+02   0.177E+01 0.871E+00 -.643E+02   -.634E+00 -.399E+00 -.143E+01   -.801E-05 -.321E-05 0.252E-05
   -.189E+02 -.154E+02 0.155E+03   0.194E+02 0.158E+02 -.155E+03   0.260E+00 0.670E-01 0.748E+00   -.540E-05 0.246E-05 0.589E-06
   -.161E+02 0.921E+01 0.153E+03   0.158E+02 -.902E+01 -.153E+03   -.333E+00 0.187E+00 0.194E+01   -.408E-05 -.230E-05 0.107E-06
   -.124E+02 0.122E+02 0.113E+03   0.109E+02 -.120E+02 -.113E+03   -.100E+01 0.612E+00 -.168E+01   -.689E-05 -.629E-06 0.692E-06
   -.277E+02 -.663E+01 0.140E+03   0.284E+02 0.611E+01 -.140E+03   0.753E+00 0.220E+00 0.171E+00   0.682E-06 0.138E-05 0.712E-06
   -.508E+02 0.358E+01 0.152E+03   0.517E+02 -.384E+01 -.152E+03   0.134E+00 0.487E+00 0.127E+01   -.729E-05 -.137E-05 -.267E-05
   -.429E+02 0.156E+01 0.121E+03   0.431E+02 -.167E+01 -.120E+03   0.120E+01 -.383E+00 0.622E-01   -.885E-05 -.739E-06 -.257E-05
   -.485E+02 0.692E+02 0.158E+03   0.462E+02 -.708E+02 -.160E+03   0.476E+00 0.138E+01 0.110E+01   0.189E-04 -.201E-05 0.494E-05
   -.389E+02 -.741E+02 0.137E+03   0.350E+02 0.760E+02 -.139E+03   0.595E+00 -.178E+01 0.975E+00   0.141E-04 0.319E-05 0.432E-05
 -----------------------------------------------------------------------------------------------
   -.708E+00 0.150E+00 0.448E+00   -.504E-12 0.441E-12 -.540E-12   0.696E+00 -.140E+00 -.432E+00   -.236E-04 -.348E-05 0.325E-04
 
 
 POSITION                                       TOTAL-FORCE (eV/Angst)
 -----------------------------------------------------------------------------------
      0.20461      0.90451     16.57120         3.377161      0.397812      0.787630
      0.27667      2.28903     16.51250         1.597957      0.314528      0.506828
      1.46291      0.28721     16.77480        -0.711797     -0.940075      0.763504
      1.47304      2.96534     16.68640        -0.183339     -2.414108      1.054829
      2.65064      0.95273     17.27270        -0.283499     -0.805633      0.195318
      2.64958      2.32756     17.24050        -0.271659     -0.322947     -0.404473
      3.88037      0.24667     17.61770        -1.097928      0.862838     -1.179098
      3.89034      2.98048     17.43880         0.561876     -0.721104      0.010540
      5.11043      0.92813     17.91680        -0.212595     -0.804960      0.427419
      5.14148      2.29693     17.76110        -1.477667      0.363590     -0.104212
      6.34477      0.22347     18.14170        -0.808698      1.073257     -0.585766
      6.39932      2.92663     17.74420        -1.224385      1.636240      0.480745
      7.61175      0.90294     18.21580        -0.553948      0.771844     -0.844301
      7.60898      2.28020     17.93550        -0.275713     -1.717265      0.093488
      8.86527      0.27432     18.14290        -0.162156     -0.616510      0.289084
      8.81709      2.90715     17.69740         2.806804      0.351503      0.062331
     10.11300      0.92728     17.92280        -0.218087     -0.607726      0.451213
     10.11160      2.26640     17.69270        -0.534697      0.901067      0.245409
     11.34410      0.25553     17.82380         1.341820      0.252461     -0.215863
     11.37120      2.93671     17.52630        -1.216648     -1.557872      0.497815
     12.61310      0.88409     17.51740        -1.721091     -2.438337      0.206015
     12.59030      2.21442     17.48360         1.316153      2.421295     -1.384488
     13.75430      0.17689     17.08360         1.987544      1.609936     -0.143305
     13.82860      2.81722     17.07100        -1.905939      2.421561      0.200813
     14.96370      0.82697     16.60950        -0.235845     -2.827129      0.831905
     14.97410      2.14214     16.67880         2.509392      3.634410     -1.018727
     16.15660      0.16349     16.20830         1.843034      1.558970     -0.071476
     16.20070      2.84495     16.17110        -2.625201      0.548031      1.043531
     17.44550      0.86983     15.83940        -3.382513     -0.040688     -0.779417
     17.37530      2.24552     15.73750         0.528208     -0.384308     -0.676073
     18.49680      0.24917     15.18780         0.941895     -0.951119      0.455319
     18.47850      2.93568     15.11170        -1.479866     -0.531488      1.203623
     19.70180      0.89852     14.73230        -3.240480      1.359072      0.983789
     19.64210      2.28709     14.76390         1.980758     -0.901463     -0.536359
     20.89410      0.26715     14.62620         3.741152     -0.045429      1.099352
     20.90460      2.93895     14.64840        -0.518970      0.870643      0.158870
     22.18940      0.93685     14.73270        -1.515785     -0.980614     -0.443096
     22.12840      2.28846     14.71260         2.698726      0.704230     -0.340686
     23.42120      0.28452     14.91650         0.136533     -0.205386     -1.257419
     23.43310      2.95002     14.81160        -1.629597      0.346911      0.169963
     24.65970      0.93295     15.05590        -0.982535      2.061003      0.962664
     24.64270      2.32352     15.13100         0.409192     -1.031086     -0.652513
     25.84970      0.31442     15.35170         1.456551     -1.008556      0.810402
     25.87320      2.98704     15.36340         1.113650     -0.831935      0.240551
     26.95130      0.97770     15.91850        -1.918739     -1.738937     -1.149500
     27.02960      2.32141     15.84860        -3.140311      1.383975     -0.583873
      0.44388      5.01504     15.89660         1.459047     -2.267644     -0.298596
      0.40709      6.36557     15.91760         3.685203      1.643186      1.664690
      1.54104      4.25930     16.35740        -0.913653      3.015279     -0.779922
      1.51852      7.01554     16.52040        -0.094984      0.081498     -1.467434
      2.71021      4.94745     16.66480         2.370802      0.035516      0.486675
      2.75922      6.31256     16.66860        -0.609274      2.587956      1.463077
      3.90787      4.32531     17.16090         0.118249     -1.001524     -0.525776
      3.90047      7.01638     17.25680         0.224336     -1.809292     -0.130889
      5.15290      4.94376     17.35310         0.160741      0.778407      0.323910
      5.12500      6.30676     17.47350        -0.855777      1.643233     -0.305749
      6.38961      4.32836     17.64050         0.034662     -2.013840     -1.112124
      6.28656      6.97518     17.86410         2.542195     -0.098116      0.101947
      7.64044      4.96963     17.66990         0.057546      0.769000     -0.107078
      7.59048      6.35939     17.80590        -0.749459     -1.160775      0.973450
      8.88637      4.27611     17.62950        -0.726039      1.270305      0.546157
      8.80461      6.99052     18.07450         2.140144     -0.209369     -0.601027
     10.14650      4.96095     17.73650        -1.899489     -0.741333     -0.573042
     10.08280      6.30820     17.95330         0.609038      1.187335     -0.323428
     11.35830      4.29684     17.52800         0.690606      0.242177     -0.174533
     11.34980      7.00442     17.83190         0.467930     -2.415972      0.046743
     12.59170      4.94112     17.32410        -0.315499     -0.240237      0.601065
     12.61350      6.30824     17.51640        -0.798116     -0.149475     -0.359963
     13.76190      4.22422     16.95570        -0.355441     -0.953460      0.538864
     13.82540      6.93374     17.13090        -0.299659     -1.348166     -0.345114
     14.90100      4.88546     16.54080         2.162063     -0.980485     -0.650176
     14.98190      6.23182     16.59680        -1.081297      2.113146      0.402474
     16.09650      4.21568     16.10950         1.383822      0.248669     -0.744165
     16.15290      6.90341     16.14510        -0.579101     -0.254649     -0.165084
     17.30640      4.89437     15.61210        -2.544453      0.453657      0.692720
     17.28590      6.26132     15.60700         0.707126      0.986241      0.537944
     18.45740      4.30618     15.15250         1.676467     -0.875911      0.169826
     18.47570      6.97087     15.24390         0.434553     -0.600174     -0.357469
     19.71600      4.97211     14.99650        -0.391246     -0.505927     -0.684674
     19.72740      6.32921     15.02080        -0.000919      1.091896      0.352888
     20.94250      4.31752     14.76000        -0.291064     -0.248917      0.068553
     20.97990      7.04414     14.91390        -1.412433     -2.078529     -0.600857
     22.18340      4.98470     14.75410         0.690362      0.380402      0.494924
     22.22060      6.37163     14.89730        -0.934784     -0.905054     -0.997213
     23.43870      4.31959     14.75930         0.713952      0.422223      0.604739
     23.45480      7.01203     14.79870        -0.594813      0.375697      1.152328
     24.72410      4.97644     14.95850        -2.488882      0.791116     -1.526059
     24.67580      6.35539     14.91610         1.454984     -0.292630      0.060524
     25.93670      4.32882     15.11300         1.084759      0.229269      0.873868
     25.89110      7.04774     15.17400         1.375678     -0.491841      0.332679
     27.13370      5.01157     15.33400        -1.850543     -0.246894     -0.514284
     27.11950      6.38710     15.38620        -3.276061      0.123504     -1.007690
 -----------------------------------------------------------------------------------
    total drift:                               -0.012712      0.010155      0.016217


--------------------------------------------------------------------------------------------------------



  FREE ENERGIE OF THE ION-ELECTRON SYSTEM (eV)
  ---------------------------------------------------
  free  energy   TOTEN  =      -829.02907121 eV

  energy  without entropy=     -828.96237265  energy(sigma->0) =     -828.99572193
 


--------------------------------------------------------------------------------------------------------


    POTLOK:  cpu time      0.4537: real time      0.4536


--------------------------------------------------------------------------------------------------------


     LOOP+:  cpu time    332.8332: real time    333.0487
    4ORBIT:  cpu time      0.0000: real time      0.0000

 total amount of memory used by VASP MPI-rank0  2294509. kBytes
=======================================================================

   base                                    :      30000. kBytes
   nonlr-proj                              :      15075. kBytes
   fftplans                                :     436558. kBytes
   grid                                    :     732614. kBytes
   one-center                              :        282. kBytes
   wavefun                                 :    1079980. kBytes
 
  
  
 General timing and accounting informations for this job:
 ========================================================
  
                  Total CPU time used (sec):      366.148
                            User time (sec):      357.822
                          System time (sec):        8.326
                         Elapsed time (sec):      366.459
  
                   Maximum memory used (kb):     3733124.
                   Average memory used (kb):          N/A
  
                          Minor page faults:      3179106
                          Major page faults:         6761
                 Voluntary context switches:         9768
