<?xml version="1.0" encoding="ISO-8859-1"?>
<modeling>
 <generator>
  <i name="program" type="string">vasp </i>
  <i name="version" type="string">6.5.0  </i>
  <i name="subversion" type="string">16Dec24 (build Feb 19 2025 19:45:31) complex                          parallel </i>
  <i name="platform" type="string">LinuxNV </i>
  <i name="date" type="string">2025 10 25 </i>
  <i name="time" type="string">17:30:44 </i>
 </generator>
 <incar>
  <i type="int" name="ISTART">     0</i>
  <i type="string" name="PREC">Accurate   (Precision level)</i>
  <i type="string" name="ALGO">Normal</i>
  <i type="int" name="ISPIN">     1</i>
  <i type="int" name="ICHARG">     2</i>
  <i type="int" name="NELM">   150</i>
  <i type="int" name="IBRION">    -1</i>
  <i name="EDIFF">      0.00000100</i>
  <i type="int" name="NSW">     0</i>
  <i name="ENCUT">    500.00000000</i>
  <i type="string" name="LREAL">Auto         (Projection operators: automatic)</i>
  <i type="int" name="ISMEAR">     0</i>
  <i type="logical" name="KGAMMA"> T  </i>
  <i type="logical" name="LWAVE"> F  </i>
  <i type="logical" name="LCHARG"> F  </i>
 </incar>
 <primitive_cell>
  <structure name="primitive_cell" >
   <crystal>
    <varray name="basis" >
     <v>      28.05000000       0.00000000       0.00000000 </v>
     <v>       0.00000000       8.10000000       0.00000000 </v>
     <v>       0.00000000       0.00000000      33.50000000 </v>
    </varray>
    <i name="volume">   7611.36750000 </i>
    <varray name="rec_basis" >
     <v>       0.03565062       0.00000000       0.00000000 </v>
     <v>       0.00000000       0.12345679       0.00000000 </v>
     <v>       0.00000000       0.00000000       0.02985075 </v>
    </varray>
   </crystal>
   <varray name="positions" >
    <v>       0.00729437       0.11166815       0.49466269 </v>
    <v>       0.00986364       0.28259630       0.49291045 </v>
    <v>       0.05215365       0.03545840       0.50074030 </v>
    <v>       0.05251480       0.36609136       0.49810149 </v>
    <v>       0.09449697       0.11762111       0.51560299 </v>
    <v>       0.09445918       0.28735309       0.51464179 </v>
    <v>       0.13833761       0.03045321       0.52590149 </v>
    <v>       0.13869305       0.36796049       0.52056119 </v>
    <v>       0.18219002       0.11458333       0.53482985 </v>
    <v>       0.18329697       0.28357160       0.53018209 </v>
    <v>       0.22619501       0.02758901       0.54154328 </v>
    <v>       0.22813975       0.36131235       0.52967761 </v>
    <v>       0.27136364       0.11147395       0.54375522 </v>
    <v>       0.27126488       0.28150617       0.53538806 </v>
    <v>       0.31605241       0.03386654       0.54157910 </v>
    <v>       0.31433476       0.35890741       0.52828060 </v>
    <v>       0.36053476       0.11447840       0.53500896 </v>
    <v>       0.36048485       0.27980247       0.52814030 </v>
    <v>       0.40442424       0.03154691       0.53205373 </v>
    <v>       0.40539037       0.36255679       0.52317313 </v>
    <v>       0.44966488       0.10914654       0.52290746 </v>
    <v>       0.44885205       0.27338519       0.52189851 </v>
    <v>       0.49034938       0.02183889       0.50995821 </v>
    <v>       0.49299822       0.34780494       0.50958209 </v>
    <v>       0.53346524       0.10209556       0.49580597 </v>
    <v>       0.53383601       0.26446173       0.49787463 </v>
    <v>       0.57599287       0.02018395       0.48382985 </v>
    <v>       0.57756506       0.35122840       0.48271940 </v>
    <v>       0.62194296       0.10738593       0.47281791 </v>
    <v>       0.61944029       0.27722469       0.46977612 </v>
    <v>       0.65942246       0.03076185       0.45336716 </v>
    <v>       0.65877005       0.36242963       0.45109552 </v>
    <v>       0.70238146       0.11092852       0.43977015 </v>
    <v>       0.70025312       0.28235679       0.44071343 </v>
    <v>       0.74488770       0.03298123       0.43660299 </v>
    <v>       0.74526203       0.36283333       0.43726567 </v>
    <v>       0.79106595       0.11566086       0.43978209 </v>
    <v>       0.78889127       0.28252593       0.43918209 </v>
    <v>       0.83498039       0.03512642       0.44526866 </v>
    <v>       0.83540463       0.36420000       0.44213731 </v>
    <v>       0.87913369       0.11517852       0.44942985 </v>
    <v>       0.87852763       0.28685432       0.45167164 </v>
    <v>       0.92155793       0.03881790       0.45825970 </v>
    <v>       0.92239572       0.36877037       0.45860896 </v>
    <v>       0.96083066       0.12070346       0.47517910 </v>
    <v>       0.96362210       0.28659383       0.47309254 </v>
    <v>       0.01582460       0.61914074       0.47452537 </v>
    <v>       0.01451312       0.78587284       0.47515224 </v>
    <v>       0.05493904       0.52583951       0.48828060 </v>
    <v>       0.05413619       0.86611605       0.49314627 </v>
    <v>       0.09662068       0.61079630       0.49745672 </v>
    <v>       0.09836791       0.77932840       0.49757015 </v>
    <v>       0.13931800       0.53398889       0.51226567 </v>
    <v>       0.13905419       0.86621975       0.51512836 </v>
    <v>       0.18370410       0.61034074       0.51800299 </v>
    <v>       0.18270945       0.77861235       0.52159701 </v>
    <v>       0.22779358       0.53436543       0.52658209 </v>
    <v>       0.22411979       0.86113333       0.53325672 </v>
    <v>       0.27238645       0.61353457       0.52745970 </v>
    <v>       0.27060535       0.78510988       0.53151940 </v>
    <v>       0.31680463       0.52791481       0.52625373 </v>
    <v>       0.31388984       0.86302716       0.53953731 </v>
    <v>       0.36172906       0.61246296       0.52944776 </v>
    <v>       0.35945811       0.77879012       0.53591940 </v>
    <v>       0.40493048       0.53047407       0.52322388 </v>
    <v>       0.40462745       0.86474321       0.53229552 </v>
    <v>       0.44890196       0.61001481       0.51713731 </v>
    <v>       0.44967914       0.77879506       0.52287761 </v>
    <v>       0.49062032       0.52150864       0.50614030 </v>
    <v>       0.49288414       0.85601728       0.51137015 </v>
    <v>       0.53122995       0.60314321       0.49375522 </v>
    <v>       0.53411408       0.76936049       0.49542687 </v>
    <v>       0.57385027       0.52045432       0.48088060 </v>
    <v>       0.57586096       0.85227284       0.48194328 </v>
    <v>       0.61698396       0.60424321       0.46603284 </v>
    <v>       0.61625312       0.77300247       0.46588060 </v>
    <v>       0.65801783       0.53162716       0.45231343 </v>
    <v>       0.65867023       0.86060123       0.45504179 </v>
    <v>       0.70288770       0.61384074       0.44765672 </v>
    <v>       0.70329412       0.78138395       0.44838209 </v>
    <v>       0.74661319       0.53302716       0.44059701 </v>
    <v>       0.74794652       0.86964691       0.44519104 </v>
    <v>       0.79085205       0.61539506       0.44042090 </v>
    <v>       0.79217825       0.78662099       0.44469552 </v>
    <v>       0.83560428       0.53328272       0.44057612 </v>
    <v>       0.83617825       0.86568272       0.44175224 </v>
    <v>       0.88142959       0.61437531       0.44652239 </v>
    <v>       0.87970766       0.78461605       0.44525672 </v>
    <v>       0.92465954       0.53442222       0.45113433 </v>
    <v>       0.92303387       0.87009136       0.45295522 </v>
    <v>       0.96733333       0.61871235       0.45773134 </v>
    <v>       0.96682709       0.78853086       0.45928955 </v>
   </varray>
  </structure>
  <varray name="primitive_index" >
   <v type="int" >        1 </v>
   <v type="int" >        2 </v>
   <v type="int" >        3 </v>
   <v type="int" >        4 </v>
   <v type="int" >        5 </v>
   <v type="int" >        6 </v>
   <v type="int" >        7 </v>
   <v type="int" >        8 </v>
   <v type="int" >        9 </v>
   <v type="int" >       10 </v>
   <v type="int" >       11 </v>
   <v type="int" >       12 </v>
   <v type="int" >       13 </v>
   <v type="int" >       14 </v>
   <v type="int" >       15 </v>
   <v type="int" >       16 </v>
   <v type="int" >       17 </v>
   <v type="int" >       18 </v>
   <v type="int" >       19 </v>
   <v type="int" >       20 </v>
   <v type="int" >       21 </v>
   <v type="int" >       22 </v>
   <v type="int" >       23 </v>
   <v type="int" >       24 </v>
   <v type="int" >       25 </v>
   <v type="int" >       26 </v>
   <v type="int" >       27 </v>
   <v type="int" >       28 </v>
   <v type="int" >       29 </v>
   <v type="int" >       30 </v>
   <v type="int" >       31 </v>
   <v type="int" >       32 </v>
   <v type="int" >       33 </v>
   <v type="int" >       34 </v>
   <v type="int" >       35 </v>
   <v type="int" >       36 </v>
   <v type="int" >       37 </v>
   <v type="int" >       38 </v>
   <v type="int" >       39 </v>
   <v type="int" >       40 </v>
   <v type="int" >       41 </v>
   <v type="int" >       42 </v>
   <v type="int" >       43 </v>
   <v type="int" >       44 </v>
   <v type="int" >       45 </v>
   <v type="int" >       46 </v>
   <v type="int" >       47 </v>
   <v type="int" >       48 </v>
   <v type="int" >       49 </v>
   <v type="int" >       50 </v>
   <v type="int" >       51 </v>
   <v type="int" >       52 </v>
   <v type="int" >       53 </v>
   <v type="int" >       54 </v>
   <v type="int" >       55 </v>
   <v type="int" >       56 </v>
   <v type="int" >       57 </v>
   <v type="int" >       58 </v>
   <v type="int" >       59 </v>
   <v type="int" >       60 </v>
   <v type="int" >       61 </v>
   <v type="int" >       62 </v>
   <v type="int" >       63 </v>
   <v type="int" >       64 </v>
   <v type="int" >       65 </v>
   <v type="int" >       66 </v>
   <v type="int" >       67 </v>
   <v type="int" >       68 </v>
   <v type="int" >       69 </v>
   <v type="int" >       70 </v>
   <v type="int" >       71 </v>
   <v type="int" >       72 </v>
   <v type="int" >       73 </v>
   <v type="int" >       74 </v>
   <v type="int" >       75 </v>
   <v type="int" >       76 </v>
   <v type="int" >       77 </v>
   <v type="int" >       78 </v>
   <v type="int" >       79 </v>
   <v type="int" >       80 </v>
   <v type="int" >       81 </v>
   <v type="int" >       82 </v>
   <v type="int" >       83 </v>
   <v type="int" >       84 </v>
   <v type="int" >       85 </v>
   <v type="int" >       86 </v>
   <v type="int" >       87 </v>
   <v type="int" >       88 </v>
   <v type="int" >       89 </v>
   <v type="int" >       90 </v>
   <v type="int" >       91 </v>
   <v type="int" >       92 </v>
  </varray>
 </primitive_cell>
 <kpoints>
  <generation param="Gamma">
   <v type="int" name="divisions">       1        4        1 </v>
   <v name="usershift">      0.00000000       0.00000000       0.00000000 </v>
   <v name="genvec1">      1.00000000       0.00000000       0.00000000 </v>
   <v name="genvec2">      0.00000000       0.25000000       0.00000000 </v>
   <v name="genvec3">      0.00000000       0.00000000       1.00000000 </v>
   <v name="shift">      0.00000000       0.00000000       0.00000000 </v>
  </generation>
  <varray name="kpointlist" >
   <v>       0.00000000       0.00000000       0.00000000 </v>
   <v>       0.00000000       0.25000000       0.00000000 </v>
   <v>       0.00000000       0.50000000       0.00000000 </v>
  </varray>
  <varray name="weights" >
   <v>       0.25000000 </v>
   <v>       0.50000000 </v>
   <v>       0.25000000 </v>
  </varray>
 </kpoints>
 <parameters>
  <separator name="general" >
   <i type="string" name="SYSTEM">unknown system</i>
   <i type="logical" name="LCOMPAT"> F  </i>
  </separator>
  <separator name="electronic" >
   <i type="string" name="PREC">accura</i>
   <i name="ENMAX">    500.00000000</i>
   <i name="ENAUG">    644.87300000</i>
   <i name="EDIFF">      0.00000100</i>
   <i type="int" name="IALGO">    38</i>
   <i type="int" name="IWAVPR">    10</i>
   <i type="int" name="NBANDS">   232</i>
   <i type="int" name="NBANDSLOW">    -1</i>
   <i type="int" name="NBANDSHIGH">    -1</i>
   <i name="NELECT">    368.00000000</i>
   <i type="int" name="TURBO">     0</i>
   <i type="int" name="IRESTART">     0</i>
   <i type="int" name="NREBOOT">     0</i>
   <i type="int" name="NMIN">     0</i>
   <i name="EREF">      0.00000000</i>
   <separator name="electronic smearing" >
    <i type="int" name="ISMEAR">     0</i>
    <i name="SIGMA">      0.20000000</i>
    <i name="KSPACING">      0.50000000</i>
    <i type="logical" name="KGAMMA"> T  </i>
    <i type="logical" name="KBLOWUP"> T  </i>
   </separator>
   <separator name="electronic projectors" >
    <i type="logical" name="LREAL"> T  </i>
    <v name="ROPT">     -0.00025000</v>
    <i type="int" name="LMAXPAW">  -100</i>
    <i type="int" name="LMAXMIX">     2</i>
    <i type="logical" name="NLSPLINE"> F  </i>
   </separator>
   <separator name="electronic startup" >
    <i type="int" name="ISTART">     0</i>
    <i type="int" name="ICHARG">     2</i>
    <i type="int" name="INIWAV">     1</i>
   </separator>
   <separator name="electronic spin" >
    <i type="int" name="ISPIN">     1</i>
    <i type="logical" name="LNONCOLLINEAR"> F  </i>
    <v name="MAGMOM">      1.00000000      1.00000000      1.00000000      1.00000000      1.00000000      1.00000000      1.00000000      1.00000000      1.00000000      1.00000000      1.00000000      1.00000000      1.00000000      1.00000000      1.00000000      1.00000000      1.00000000      1.00000000      1.00000000      1.00000000
      1.00000000      1.00000000      1.00000000      1.00000000      1.00000000      1.00000000      1.00000000      1.00000000      1.00000000      1.00000000      1.00000000      1.00000000      1.00000000      1.00000000      1.00000000      1.00000000      1.00000000      1.00000000      1.00000000      1.00000000
      1.00000000      1.00000000      1.00000000      1.00000000      1.00000000      1.00000000      1.00000000      1.00000000      1.00000000      1.00000000      1.00000000      1.00000000      1.00000000      1.00000000      1.00000000      1.00000000      1.00000000      1.00000000      1.00000000      1.00000000
      1.00000000      1.00000000      1.00000000      1.00000000      1.00000000      1.00000000      1.00000000      1.00000000      1.00000000      1.00000000      1.00000000      1.00000000      1.00000000      1.00000000      1.00000000      1.00000000      1.00000000      1.00000000      1.00000000      1.00000000
      1.00000000      1.00000000      1.00000000      1.00000000      1.00000000      1.00000000      1.00000000      1.00000000      1.00000000      1.00000000      1.00000000      1.00000000</v>
    <i name="NUPDOWN">     -1.00000000</i>
    <i type="logical" name="LSORBIT"> F  </i>
    <v name="SAXIS">      0.00000000      0.00000000      1.00000000</v>
    <i type="logical" name="LSPIRAL"> F  </i>
    <v name="QSPIRAL">      0.00000000      0.00000000      0.00000000</v>
    <i type="logical" name="LZEROZ"> F  </i>
   </separator>
   <separator name="electronic exchange-correlation" >
    <i type="logical" name="LASPH"> F  </i>
   </separator>
   <separator name="electronic convergence" >
    <i type="int" name="NELM">   150</i>
    <i type="int" name="NELMDL">    -5</i>
    <i type="int" name="NELMIN">     2</i>
    <i name="ENINI">    500.00000000</i>
    <separator name="electronic convergence detail" >
     <i type="logical" name="LDIAG"> T  </i>
     <i type="logical" name="LSUBROT"> F  </i>
     <i name="WEIMIN">      0.00000000</i>
     <i name="EBREAK">      0.00000000</i>
     <i name="DEPER">      0.30000000</i>
     <i type="int" name="NRMM">     4</i>
     <i name="TIME">      0.40000000</i>
    </separator>
   </separator>
   <separator name="electronic mixer" >
    <i name="AMIX">      0.40000000</i>
    <i name="BMIX">      1.00000000</i>
    <i name="AMIN">      0.10000000</i>
    <i name="AMIX_MAG">      1.60000000</i>
    <i name="BMIX_MAG">      1.00000000</i>
    <separator name="electronic mixer details" >
     <i type="int" name="IMIX">     4</i>
     <i type="logical" name="MIXFIRST"> F  </i>
     <i type="int" name="MAXMIX">   -45</i>
     <i name="WC">    100.00000000</i>
     <i type="int" name="INIMIX">     1</i>
     <i type="int" name="MIXPRE">     1</i>
     <i type="int" name="MREMOVE">     5</i>
    </separator>
   </separator>
   <separator name="electronic dipolcorrection" >
    <i type="logical" name="LDIPOL"> F  </i>
    <i type="logical" name="LMONO"> F  </i>
    <i type="int" name="IDIPOL">     0</i>
    <i name="EPSILON">      1.00000000</i>
    <v name="DIPOL">   -100.00000000   -100.00000000   -100.00000000</v>
    <i name="EFIELD">      0.00000000</i>
    <i type="logical" name="LVACPOTAV"> F  </i>
   </separator>
  </separator>
  <separator name="grids" >
   <i type="int" name="NGX">   210</i>
   <i type="int" name="NGY">    60</i>
   <i type="int" name="NGZ">   250</i>
   <i type="int" name="NGXF">   420</i>
   <i type="int" name="NGYF">   120</i>
   <i type="int" name="NGZF">   500</i>
   <i type="logical" name="ADDGRID"> F  </i>
  </separator>
  <separator name="ionic" >
   <i type="int" name="NSW">     0</i>
   <i type="int" name="IBRION">    -1</i>
   <i type="int" name="MDALGO">     0</i>
   <i type="int" name="ISIF">     2</i>
   <i name="PSTRESS">      0.00000000</i>
   <i name="EDIFFG">      0.00001000</i>
   <i type="int" name="NFREE">     0</i>
   <i name="POTIM">      0.50000000</i>
   <i name="SMASS">     -3.00000000</i>
   <i name="SCALEE">      1.00000000</i>
  </separator>
  <separator name="ionic md" >
   <i name="TEBEG">      0.00010000</i>
   <i name="TEEND">      0.00010000</i>
   <i type="int" name="NBLOCK">     1</i>
   <i type="int" name="KBLOCK">     1</i>
   <i type="int" name="NPACO">   256</i>
   <i name="APACO">     10.00000000</i>
  </separator>
  <separator name="symmetry" >
   <i type="int" name="ISYM">     2</i>
   <i name="SYMPREC">      0.00001000</i>
  </separator>
  <separator name="dos" >
   <i type="int" name="LORBIT">     0</i>
   <v name="RWIGS">     -1.00000000</v>
   <i type="int" name="NEDOS">   301</i>
   <i name="EMIN">     10.00000000</i>
   <i name="EMAX">    -10.00000000</i>
   <i name="EFERMI">      0.00000000</i>
  </separator>
  <separator name="writing" >
   <i type="int" name="NWRITE">     2</i>
   <i type="logical" name="LWAVE"> F  </i>
   <i type="logical" name="LDOWNSAMPLE"> F  </i>
   <i type="logical" name="LCHARG"> F  </i>
   <i type="logical" name="LPARD"> F  </i>
   <i type="logical" name="LVTOT"> F  </i>
   <i type="logical" name="LVHAR"> F  </i>
   <i type="logical" name="LELF"> F  </i>
   <i type="logical" name="LOPTICS"> F  </i>
   <v name="STM">      0.00000000      0.00000000      0.00000000      0.00000000      0.00000000      0.00000000      0.00000000</v>
  </separator>
  <separator name="performance" >
   <i type="int" name="NPAR">     2</i>
   <i type="int" name="NSIM">     4</i>
   <i type="int" name="NBLK">    -1</i>
   <i type="logical" name="LPLANE"> T  </i>
   <i type="logical" name="LSCALAPACK"> T  </i>
   <i type="logical" name="LSCAAWARE"> F  </i>
   <i type="logical" name="LSCALU"> F  </i>
   <i type="logical" name="LASYNC"> F  </i>
   <i type="logical" name="LORBITALREAL"> F  </i>
  </separator>
  <separator name="miscellaneous" >
   <i type="int" name="IDIOT">     3</i>
   <i type="int" name="PHON_NSTRUCT">    -1</i>
   <i type="logical" name="LMUSIC"> F  </i>
   <v name="POMASS">     12.01100000</v>
   <v name="DARWINR">      0.00000000</v>
   <v name="DARWINV">      1.00000000</v>
   <i type="logical" name="LCORR"> T  </i>
  </separator>
  <i type="logical" name="GGA_COMPAT"> T  </i>
  <i type="logical" name="LBERRY"> F  </i>
  <i type="int" name="ICORELEVEL">     0</i>
  <i type="logical" name="LDAU"> F  </i>
  <i type="int" name="I_CONSTRAINED_M">     0</i>
  <separator name="electronic exchange-correlation" >
   <i type="string" name="GGA    ">PE</i>
   <i type="string" name="XC_C">1</i>
   <i type="int" name="VOSKOWN">     0</i>
   <i type="logical" name="LHFCALC"> F  </i>
   <i type="string" name="PRECFOCK"></i>
   <i type="logical" name="LSYMGRAD"> F  </i>
   <i type="logical" name="LHFONE"> F  </i>
   <i type="logical" name="LRHFCALC"> F  </i>
   <i type="logical" name="LTHOMAS"> F  </i>
   <i type="logical" name="LMODELHF"> F  </i>
   <i type="logical" name="LFOCKACE"> F  </i>
   <i name="ENCUT4O">     -1.00000000</i>
   <i type="int" name="EXXOEP">     0</i>
   <i type="int" name="FOURORBIT">     0</i>
   <i name="AEXX">      0.00000000</i>
   <i name="HFALPHA">      0.00000000</i>
   <i name="MCALPHA">      0.00000000</i>
   <i name="ALDAX">      1.00000000</i>
   <i name="AGGAX">      1.00000000</i>
   <i name="AMGGAX">      1.00000000</i>
   <i name="ALDAC">      1.00000000</i>
   <i name="AGGAC">      1.00000000</i>
   <i name="AMGGAC">      1.00000000</i>
   <i type="int" name="NKREDX">     1</i>
   <i type="int" name="NKREDY">     1</i>
   <i type="int" name="NKREDZ">     1</i>
   <i type="logical" name="SHIFTRED"> F  </i>
   <i type="logical" name="ODDONLY"> F  </i>
   <i type="logical" name="EVENONLY"> F  </i>
   <i type="int" name="LMAXFOCK">     0</i>
   <i type="int" name="NMAXFOCKAE">     0</i>
   <i type="logical" name="LFOCKAEDFT"> F  </i>
   <i name="HFSCREEN">      0.00000000</i>
   <i name="HFSCREENC">      0.00000000</i>
   <i type="int" name="NBANDSGWLOW">     0</i>
  </separator>
  <separator name="vdW DFT" >
   <i type="logical" name="LUSE_VDW"> F  </i>
   <i type="int" name="IVDW_NL">    -1</i>
   <i type="logical" name="LSPIN_VDW"> F  </i>
   <i name="ZAB_VDW">     -0.84910000</i>
   <i name="GAMMA_VDW">      1.39626340</i>
   <i name="ALPHA_VDW">      0.00000000</i>
   <i name="PARAM1">      0.12340000</i>
   <i name="PARAM2">      1.00000000</i>
   <i name="BPARAM">      6.30000000</i>
   <i name="CPARAM">      0.00930000</i>
  </separator>
  <separator name="model GW" >
   <i type="int" name="MODEL_GW">     0</i>
   <i name="MODEL_EPS0">     49.63935326</i>
   <i name="MODEL_ALPHA">      1.00000000</i>
  </separator>
  <separator name="linear response parameters" >
   <i type="logical" name="LEPSILON"> F  </i>
   <i type="logical" name="LRPA"> F  </i>
   <i type="logical" name="LNABLA"> F  </i>
   <i type="logical" name="LVEL"> F  </i>
   <i name="CSHIFT">      0.10000000</i>
   <i name="OMEGAMAX">     -1.00000000</i>
   <i name="DEG_THRESHOLD">      0.00200000</i>
   <i name="RTIME">     -0.10000000</i>
   <i name="WPLASMAI">      0.00000000</i>
   <v name="DFIELD">      0.00000000      0.00000000      0.00000000</v>
   <v name="WPLASMA">      0.00000000      0.00000000      0.00000000      0.00000000      0.00000000      0.00000000      0.00000000      0.00000000      0.00000000</v>
  </separator>
  <separator name="orbital magnetization" >
   <i type="logical" name="NUCIND"> F  </i>
   <v name="MAGPOS">      0.00000000      0.00000000      0.00000000</v>
   <i type="logical" name="LNICSALL"> T  </i>
   <i type="logical" name="ORBITALMAG"> F  </i>
   <i type="logical" name="LMAGBLOCH"> F  </i>
   <i type="logical" name="LCHIMAG"> F  </i>
   <i type="logical" name="LGAUGE"> T  </i>
   <i type="int" name="MAGATOM">     0</i>
   <v name="MAGDIPOL">      0.00000000      0.00000000      0.00000000</v>
   <v name="AVECCONST">      0.00000000      0.00000000      0.00000000</v>
  </separator>
  <separator name="response functions" >
   <i type="logical" name="LALL_IN_ONE"> F  </i>
   <i type="int" name="IALL_IN_ONE">    -1</i>
   <i type="int" name="NBANDS_WAVE">    -1</i>
   <i type="logical" name="LFINITE_TEMPERATURE"> F  </i>
   <i type="logical" name="LADDER"> F  </i>
   <i type="logical" name="LRPAFORCE"> F  </i>
   <i type="logical" name="LFXC"> F  </i>
   <i type="logical" name="LHARTREE"> T  </i>
   <i type="int" name="IBSE">     2</i>
   <v type="int" name="KPOINT">    -1     0     0     0</v>
   <i type="logical" name="LTCTC"> F  </i>
   <i type="logical" name="LTCTE"> F  </i>
   <i type="logical" name="LTETE"> F  </i>
   <i type="logical" name="LTRIPLET"> F  </i>
   <i type="logical" name="LFXCEPS"> F  </i>
   <i type="logical" name="LFXHEG"> F  </i>
   <i type="int" name="NATURALO">     2</i>
   <i type="logical" name="LHOLEGF"> F  </i>
   <i type="logical" name="L2ORDER"> F  </i>
   <i type="logical" name="LDMP1"> F  </i>
   <i type="logical" name="LMP2LT"> F  </i>
   <i type="logical" name="LSMP2LT"> F  </i>
   <i type="logical" name="LGWLF"> F  </i>
   <i name="ENCUTGW">     -1.60000002</i>
   <i name="ENCUTGWSOFT">     -1.60000002</i>
   <i name="ENCUTLF">     -1.00000000</i>
   <i type="logical" name="ESF_SPLINES"> F  </i>
   <i name="ESF_CONV">      0.01000000</i>
   <i type="int" name="ESF_NINTER">    15</i>
   <i type="int" name="LMAXMP2">    -1</i>
   <i name="SCISSOR">      0.00000000</i>
   <i type="int" name="NOMEGA">     0</i>
   <i type="int" name="NOMEGAR">     0</i>
   <i type="int" name="NBANDSGW">    -1</i>
   <i type="int" name="NBANDSO">    -1</i>
   <i type="int" name="NBANDSV">    -1</i>
   <i type="int" name="NELMGW">     1</i>
   <i type="int" name="NELMHF">     1</i>
   <i type="int" name="DIM">     3</i>
   <i type="int" name="IESPILON">     4</i>
   <i type="int" name="ANTIRES">     0</i>
   <i name="OMEGAMAX">    -30.00000000</i>
   <i name="OMEGAMIN">    -30.00000000</i>
   <i name="OMEGATL">   -200.00000000</i>
   <i type="int" name="OMEGAGRID">     0</i>
   <i name="CSHIFT">     -0.10000000</i>
   <i type="logical" name="LSELFENERGY"> F  </i>
   <i type="logical" name="LSPECTRAL"> F  </i>
   <i type="logical" name="LSPECTRALGW"> F  </i>
   <i type="logical" name="LSINGLES"> F  </i>
   <i type="logical" name="LFERMIGW"> F  </i>
   <i type="logical" name="ODDONLYGW"> F  </i>
   <i type="logical" name="EVENONLYGW"> F  </i>
   <i type="int" name="NKREDLFX">     1</i>
   <i type="int" name="NKREDLFY">     1</i>
   <i type="int" name="NKREDLFZ">     1</i>
   <i type="int" name="MAXMEM">  2800</i>
   <i type="int" name="TELESCOPE">     0</i>
   <i type="int" name="NTAUPAR">    -1</i>
   <i type="int" name="NOMEGAPAR">    -1</i>
   <i name="DAMP_NEWTON">      0.80000001</i>
   <i name="LAMBDA">      1.00000000</i>
  </separator>
  <separator name="External order field" >
   <i name="OFIELD_KAPPA">      0.00000000</i>
   <v name="OFIELD_K">      0.00000000      0.00000000      0.00000000</v>
   <i name="OFIELD_Q6_NEAR">      0.00000000</i>
   <i name="OFIELD_Q6_FAR">      0.00000000</i>
   <i name="OFIELD_A">      0.00000000</i>
  </separator>
  <separator name="optional k-points parameters" >
   <i type="int" name="KPOINTS_OPT_MODE">     1</i>
   <i type="logical" name="LKPOINTS_OPT"> F  </i>
  </separator>
 </parameters>
 <atominfo>
  <atoms>      92 </atoms>
  <types>       1 </types>
  <array name="atoms" >
   <dimension dim="1">ion</dimension>
   <field type="string">element</field>
   <field type="int">atomtype</field>
   <set>
    <rc><c>C </c><c>   1</c></rc>
    <rc><c>C </c><c>   1</c></rc>
    <rc><c>C </c><c>   1</c></rc>
    <rc><c>C </c><c>   1</c></rc>
    <rc><c>C </c><c>   1</c></rc>
    <rc><c>C </c><c>   1</c></rc>
    <rc><c>C </c><c>   1</c></rc>
    <rc><c>C </c><c>   1</c></rc>
    <rc><c>C </c><c>   1</c></rc>
    <rc><c>C </c><c>   1</c></rc>
    <rc><c>C </c><c>   1</c></rc>
    <rc><c>C </c><c>   1</c></rc>
    <rc><c>C </c><c>   1</c></rc>
    <rc><c>C </c><c>   1</c></rc>
    <rc><c>C </c><c>   1</c></rc>
    <rc><c>C </c><c>   1</c></rc>
    <rc><c>C </c><c>   1</c></rc>
    <rc><c>C </c><c>   1</c></rc>
    <rc><c>C </c><c>   1</c></rc>
    <rc><c>C </c><c>   1</c></rc>
    <rc><c>C </c><c>   1</c></rc>
    <rc><c>C </c><c>   1</c></rc>
    <rc><c>C </c><c>   1</c></rc>
    <rc><c>C </c><c>   1</c></rc>
    <rc><c>C </c><c>   1</c></rc>
    <rc><c>C </c><c>   1</c></rc>
    <rc><c>C </c><c>   1</c></rc>
    <rc><c>C </c><c>   1</c></rc>
    <rc><c>C </c><c>   1</c></rc>
    <rc><c>C </c><c>   1</c></rc>
    <rc><c>C </c><c>   1</c></rc>
    <rc><c>C </c><c>   1</c></rc>
    <rc><c>C </c><c>   1</c></rc>
    <rc><c>C </c><c>   1</c></rc>
    <rc><c>C </c><c>   1</c></rc>
    <rc><c>C </c><c>   1</c></rc>
    <rc><c>C </c><c>   1</c></rc>
    <rc><c>C </c><c>   1</c></rc>
    <rc><c>C </c><c>   1</c></rc>
    <rc><c>C </c><c>   1</c></rc>
    <rc><c>C </c><c>   1</c></rc>
    <rc><c>C </c><c>   1</c></rc>
    <rc><c>C </c><c>   1</c></rc>
    <rc><c>C </c><c>   1</c></rc>
    <rc><c>C </c><c>   1</c></rc>
    <rc><c>C </c><c>   1</c></rc>
    <rc><c>C </c><c>   1</c></rc>
    <rc><c>C </c><c>   1</c></rc>
    <rc><c>C </c><c>   1</c></rc>
    <rc><c>C </c><c>   1</c></rc>
    <rc><c>C </c><c>   1</c></rc>
    <rc><c>C </c><c>   1</c></rc>
    <rc><c>C </c><c>   1</c></rc>
    <rc><c>C </c><c>   1</c></rc>
    <rc><c>C </c><c>   1</c></rc>
    <rc><c>C </c><c>   1</c></rc>
    <rc><c>C </c><c>   1</c></rc>
    <rc><c>C </c><c>   1</c></rc>
    <rc><c>C </c><c>   1</c></rc>
    <rc><c>C </c><c>   1</c></rc>
    <rc><c>C </c><c>   1</c></rc>
    <rc><c>C </c><c>   1</c></rc>
    <rc><c>C </c><c>   1</c></rc>
    <rc><c>C </c><c>   1</c></rc>
    <rc><c>C </c><c>   1</c></rc>
    <rc><c>C </c><c>   1</c></rc>
    <rc><c>C </c><c>   1</c></rc>
    <rc><c>C </c><c>   1</c></rc>
    <rc><c>C </c><c>   1</c></rc>
    <rc><c>C </c><c>   1</c></rc>
    <rc><c>C </c><c>   1</c></rc>
    <rc><c>C </c><c>   1</c></rc>
    <rc><c>C </c><c>   1</c></rc>
    <rc><c>C </c><c>   1</c></rc>
    <rc><c>C </c><c>   1</c></rc>
    <rc><c>C </c><c>   1</c></rc>
    <rc><c>C </c><c>   1</c></rc>
    <rc><c>C </c><c>   1</c></rc>
    <rc><c>C </c><c>   1</c></rc>
    <rc><c>C </c><c>   1</c></rc>
    <rc><c>C </c><c>   1</c></rc>
    <rc><c>C </c><c>   1</c></rc>
    <rc><c>C </c><c>   1</c></rc>
    <rc><c>C </c><c>   1</c></rc>
    <rc><c>C </c><c>   1</c></rc>
    <rc><c>C </c><c>   1</c></rc>
    <rc><c>C </c><c>   1</c></rc>
    <rc><c>C </c><c>   1</c></rc>
    <rc><c>C </c><c>   1</c></rc>
    <rc><c>C </c><c>   1</c></rc>
    <rc><c>C </c><c>   1</c></rc>
    <rc><c>C </c><c>   1</c></rc>
   </set>
  </array>
  <array name="atomtypes" >
   <dimension dim="1">type</dimension>
   <field type="int">atomspertype</field>
   <field type="string">element</field>
   <field>mass</field>
   <field>valence</field>
   <field type="string">pseudopotential</field>
   <set>
    <rc><c>  92</c><c>C </c><c>     12.01100000</c><c>      4.00000000</c><c>  PAW_PBE C 08Apr2002                   </c></rc>
   </set>
  </array>
 </atominfo>
 <structure name="initialpos" >
  <crystal>
   <varray name="basis" >
    <v>      28.05000000       0.00000000       0.00000000 </v>
    <v>       0.00000000       8.10000000       0.00000000 </v>
    <v>       0.00000000       0.00000000      33.50000000 </v>
   </varray>
   <i name="volume">   7611.36750000 </i>
   <varray name="rec_basis" >
    <v>       0.03565062       0.00000000       0.00000000 </v>
    <v>       0.00000000       0.12345679       0.00000000 </v>
    <v>       0.00000000       0.00000000       0.02985075 </v>
   </varray>
  </crystal>
  <varray name="positions" >
   <v>       0.00729437       0.11166815       0.49466269 </v>
   <v>       0.00986364       0.28259630       0.49291045 </v>
   <v>       0.05215365       0.03545840       0.50074030 </v>
   <v>       0.05251480       0.36609136       0.49810149 </v>
   <v>       0.09449697       0.11762111       0.51560299 </v>
   <v>       0.09445918       0.28735309       0.51464179 </v>
   <v>       0.13833761       0.03045321       0.52590149 </v>
   <v>       0.13869305       0.36796049       0.52056119 </v>
   <v>       0.18219002       0.11458333       0.53482985 </v>
   <v>       0.18329697       0.28357160       0.53018209 </v>
   <v>       0.22619501       0.02758901       0.54154328 </v>
   <v>       0.22813975       0.36131235       0.52967761 </v>
   <v>       0.27136364       0.11147395       0.54375522 </v>
   <v>       0.27126488       0.28150617       0.53538806 </v>
   <v>       0.31605241       0.03386654       0.54157910 </v>
   <v>       0.31433476       0.35890741       0.52828060 </v>
   <v>       0.36053476       0.11447840       0.53500896 </v>
   <v>       0.36048485       0.27980247       0.52814030 </v>
   <v>       0.40442424       0.03154691       0.53205373 </v>
   <v>       0.40539037       0.36255679       0.52317313 </v>
   <v>       0.44966488       0.10914654       0.52290746 </v>
   <v>       0.44885205       0.27338519       0.52189851 </v>
   <v>       0.49034938       0.02183889       0.50995821 </v>
   <v>       0.49299822       0.34780494       0.50958209 </v>
   <v>       0.53346524       0.10209556       0.49580597 </v>
   <v>       0.53383601       0.26446173       0.49787463 </v>
   <v>       0.57599287       0.02018395       0.48382985 </v>
   <v>       0.57756506       0.35122840       0.48271940 </v>
   <v>       0.62194296       0.10738593       0.47281791 </v>
   <v>       0.61944029       0.27722469       0.46977612 </v>
   <v>       0.65942246       0.03076185       0.45336716 </v>
   <v>       0.65877005       0.36242963       0.45109552 </v>
   <v>       0.70238146       0.11092852       0.43977015 </v>
   <v>       0.70025312       0.28235679       0.44071343 </v>
   <v>       0.74488770       0.03298123       0.43660299 </v>
   <v>       0.74526203       0.36283333       0.43726567 </v>
   <v>       0.79106595       0.11566086       0.43978209 </v>
   <v>       0.78889127       0.28252593       0.43918209 </v>
   <v>       0.83498039       0.03512642       0.44526866 </v>
   <v>       0.83540463       0.36420000       0.44213731 </v>
   <v>       0.87913369       0.11517852       0.44942985 </v>
   <v>       0.87852763       0.28685432       0.45167164 </v>
   <v>       0.92155793       0.03881790       0.45825970 </v>
   <v>       0.92239572       0.36877037       0.45860896 </v>
   <v>       0.96083066       0.12070346       0.47517910 </v>
   <v>       0.96362210       0.28659383       0.47309254 </v>
   <v>       0.01582460       0.61914074       0.47452537 </v>
   <v>       0.01451312       0.78587284       0.47515224 </v>
   <v>       0.05493904       0.52583951       0.48828060 </v>
   <v>       0.05413619       0.86611605       0.49314627 </v>
   <v>       0.09662068       0.61079630       0.49745672 </v>
   <v>       0.09836791       0.77932840       0.49757015 </v>
   <v>       0.13931800       0.53398889       0.51226567 </v>
   <v>       0.13905419       0.86621975       0.51512836 </v>
   <v>       0.18370410       0.61034074       0.51800299 </v>
   <v>       0.18270945       0.77861235       0.52159701 </v>
   <v>       0.22779358       0.53436543       0.52658209 </v>
   <v>       0.22411979       0.86113333       0.53325672 </v>
   <v>       0.27238645       0.61353457       0.52745970 </v>
   <v>       0.27060535       0.78510988       0.53151940 </v>
   <v>       0.31680463       0.52791481       0.52625373 </v>
   <v>       0.31388984       0.86302716       0.53953731 </v>
   <v>       0.36172906       0.61246296       0.52944776 </v>
   <v>       0.35945811       0.77879012       0.53591940 </v>
   <v>       0.40493048       0.53047407       0.52322388 </v>
   <v>       0.40462745       0.86474321       0.53229552 </v>
   <v>       0.44890196       0.61001481       0.51713731 </v>
   <v>       0.44967914       0.77879506       0.52287761 </v>
   <v>       0.49062032       0.52150864       0.50614030 </v>
   <v>       0.49288414       0.85601728       0.51137015 </v>
   <v>       0.53122995       0.60314321       0.49375522 </v>
   <v>       0.53411408       0.76936049       0.49542687 </v>
   <v>       0.57385027       0.52045432       0.48088060 </v>
   <v>       0.57586096       0.85227284       0.48194328 </v>
   <v>       0.61698396       0.60424321       0.46603284 </v>
   <v>       0.61625312       0.77300247       0.46588060 </v>
   <v>       0.65801783       0.53162716       0.45231343 </v>
   <v>       0.65867023       0.86060123       0.45504179 </v>
   <v>       0.70288770       0.61384074       0.44765672 </v>
   <v>       0.70329412       0.78138395       0.44838209 </v>
   <v>       0.74661319       0.53302716       0.44059701 </v>
   <v>       0.74794652       0.86964691       0.44519104 </v>
   <v>       0.79085205       0.61539506       0.44042090 </v>
   <v>       0.79217825       0.78662099       0.44469552 </v>
   <v>       0.83560428       0.53328272       0.44057612 </v>
   <v>       0.83617825       0.86568272       0.44175224 </v>
   <v>       0.88142959       0.61437531       0.44652239 </v>
   <v>       0.87970766       0.78461605       0.44525672 </v>
   <v>       0.92465954       0.53442222       0.45113433 </v>
   <v>       0.92303387       0.87009136       0.45295522 </v>
   <v>       0.96733333       0.61871235       0.45773134 </v>
   <v>       0.96682709       0.78853086       0.45928955 </v>
  </varray>
 </structure>
 <calculation>
  <scstep>
   <time name="dav">   11.06   11.06</time>
   <time name="total">   11.52   11.55</time>
   <energy>
    <i name="alphaZ">     91.34886789 </i>
    <i name="ewald"> 119283.58091656 </i>
    <i name="hartreedc">-128613.46741954 </i>
    <i name="XCdc">   1221.13394811 </i>
    <i name="pawpsdc">   9984.02826696 </i>
    <i name="pawaedc"> -10036.41360137 </i>
    <i name="eentropy">     -0.84055082 </i>
    <i name="bandstr">  -1771.92792774 </i>
    <i name="atom">  13537.65479391 </i>
    <i name="e_fr_energy">   3695.09729395 </i>
    <i name="e_wo_entrp">   3695.93784478 </i>
    <i name="e_0_energy">   3695.51756936 </i>
   </energy>
  </scstep>
  <scstep>
   <time name="dav">   13.12   13.13</time>
   <time name="total">   13.12   13.13</time>
   <energy>
    <i name="e_fr_energy">    181.28392105 </i>
    <i name="e_wo_entrp">    181.52692066 </i>
    <i name="e_0_energy">    181.40542085 </i>
   </energy>
  </scstep>
  <scstep>
   <time name="dav">   11.31   11.31</time>
   <time name="total">   11.31   11.31</time>
   <energy>
    <i name="e_fr_energy">   -834.41061628 </i>
    <i name="e_wo_entrp">   -834.39694527 </i>
    <i name="e_0_energy">   -834.40378077 </i>
   </energy>
  </scstep>
  <scstep>
   <time name="dav">   10.89   10.89</time>
   <time name="total">   10.89   10.89</time>
   <energy>
    <i name="e_fr_energy">   -895.93426456 </i>
    <i name="e_wo_entrp">   -895.87230516 </i>
    <i name="e_0_energy">   -895.90328486 </i>
   </energy>
  </scstep>
  <scstep>
   <time name="dav">   11.23   11.24</time>
   <time name="total">   12.71   12.72</time>
   <energy>
    <i name="e_fr_energy">   -897.42884287 </i>
    <i name="e_wo_entrp">   -897.36614766 </i>
    <i name="e_0_energy">   -897.39749527 </i>
   </energy>
  </scstep>
  <scstep>
   <time name="dav">   10.16   10.17</time>
   <time name="total">   11.96   11.97</time>
   <energy>
    <i name="e_fr_energy">   -847.87736547 </i>
    <i name="e_wo_entrp">   -847.81472248 </i>
    <i name="e_0_energy">   -847.84604398 </i>
   </energy>
  </scstep>
  <scstep>
   <time name="dav">   10.04   10.05</time>
   <time name="total">   11.83   11.84</time>
   <energy>
    <i name="e_fr_energy">   -829.42780981 </i>
    <i name="e_wo_entrp">   -829.35876112 </i>
    <i name="e_0_energy">   -829.39328546 </i>
   </energy>
  </scstep>
  <scstep>
   <time name="dav">   10.41   10.41</time>
   <time name="total">   12.20   12.21</time>
   <energy>
    <i name="e_fr_energy">   -829.14013189 </i>
    <i name="e_wo_entrp">   -829.07386439 </i>
    <i name="e_0_energy">   -829.10699814 </i>
   </energy>
  </scstep>
  <scstep>
   <time name="dav">   10.53   10.53</time>
   <time name="total">   12.33   12.34</time>
   <energy>
    <i name="e_fr_energy">   -829.03409176 </i>
    <i name="e_wo_entrp">   -828.96759132 </i>
    <i name="e_0_energy">   -829.00084154 </i>
   </energy>
  </scstep>
  <scstep>
   <time name="dav">   10.96   10.96</time>
   <time name="total">   12.77   12.78</time>
   <energy>
    <i name="e_fr_energy">   -828.99298354 </i>
    <i name="e_wo_entrp">   -828.92643586 </i>
    <i name="e_0_energy">   -828.95970970 </i>
   </energy>
  </scstep>
  <scstep>
   <time name="dav">   10.11   10.12</time>
   <time name="total">   11.93   11.94</time>
   <energy>
    <i name="e_fr_energy">   -828.96493068 </i>
    <i name="e_wo_entrp">   -828.89826409 </i>
    <i name="e_0_energy">   -828.93159738 </i>
   </energy>
  </scstep>
  <scstep>
   <time name="dav">   10.03   10.04</time>
   <time name="total">   11.85   11.86</time>
   <energy>
    <i name="e_fr_energy">   -828.96239938 </i>
    <i name="e_wo_entrp">   -828.89567140 </i>
    <i name="e_0_energy">   -828.92903539 </i>
   </energy>
  </scstep>
  <scstep>
   <time name="dav">   10.10   10.11</time>
   <time name="total">   11.94   11.94</time>
   <energy>
    <i name="e_fr_energy">   -828.97372893 </i>
    <i name="e_wo_entrp">   -828.90705470 </i>
    <i name="e_0_energy">   -828.94039182 </i>
   </energy>
  </scstep>
  <scstep>
   <time name="dav">   10.10   10.11</time>
   <time name="total">   11.94   11.95</time>
   <energy>
    <i name="e_fr_energy">   -828.99444219 </i>
    <i name="e_wo_entrp">   -828.92775497 </i>
    <i name="e_0_energy">   -828.96109858 </i>
   </energy>
  </scstep>
  <scstep>
   <time name="dav">   10.40   10.40</time>
   <time name="total">   12.24   12.25</time>
   <energy>
    <i name="e_fr_energy">   -829.01383724 </i>
    <i name="e_wo_entrp">   -828.94712999 </i>
    <i name="e_0_energy">   -828.98048362 </i>
   </energy>
  </scstep>
  <scstep>
   <time name="dav">   10.48   10.49</time>
   <time name="total">   12.35   12.35</time>
   <energy>
    <i name="e_fr_energy">   -829.02124239 </i>
    <i name="e_wo_entrp">   -828.95455177 </i>
    <i name="e_0_energy">   -828.98789708 </i>
   </energy>
  </scstep>
  <scstep>
   <time name="dav">   10.10   10.11</time>
   <time name="total">   11.97   11.98</time>
   <energy>
    <i name="e_fr_energy">   -829.02552427 </i>
    <i name="e_wo_entrp">   -828.95882753 </i>
    <i name="e_0_energy">   -828.99217590 </i>
   </energy>
  </scstep>
  <scstep>
   <time name="dav">   10.33   10.34</time>
   <time name="total">   12.21   12.22</time>
   <energy>
    <i name="e_fr_energy">   -829.02760890 </i>
    <i name="e_wo_entrp">   -828.96090758 </i>
    <i name="e_0_energy">   -828.99425824 </i>
   </energy>
  </scstep>
  <scstep>
   <time name="dav">    9.72    9.73</time>
   <time name="total">   11.61   11.62</time>
   <energy>
    <i name="e_fr_energy">   -829.02844577 </i>
    <i name="e_wo_entrp">   -828.96174871 </i>
    <i name="e_0_energy">   -828.99509724 </i>
   </energy>
  </scstep>
  <scstep>
   <time name="dav">    9.18    9.18</time>
   <time name="total">   11.08   11.08</time>
   <energy>
    <i name="e_fr_energy">   -829.02877120 </i>
    <i name="e_wo_entrp">   -828.96207256 </i>
    <i name="e_0_energy">   -828.99542188 </i>
   </energy>
  </scstep>
  <scstep>
   <time name="dav">    8.61    8.61</time>
   <time name="total">   10.52   10.53</time>
   <energy>
    <i name="e_fr_energy">   -829.02896468 </i>
    <i name="e_wo_entrp">   -828.96226578 </i>
    <i name="e_0_energy">   -828.99561523 </i>
   </energy>
  </scstep>
  <scstep>
   <time name="dav">    7.66    7.66</time>
   <time name="total">    9.58    9.59</time>
   <energy>
    <i name="e_fr_energy">   -829.02901209 </i>
    <i name="e_wo_entrp">   -828.96231368 </i>
    <i name="e_0_energy">   -828.99566288 </i>
   </energy>
  </scstep>
  <scstep>
   <time name="dav">    7.00    7.00</time>
   <time name="total">    8.93    8.94</time>
   <energy>
    <i name="e_fr_energy">   -829.02904611 </i>
    <i name="e_wo_entrp">   -828.96234754 </i>
    <i name="e_0_energy">   -828.99569683 </i>
   </energy>
  </scstep>
  <scstep>
   <time name="dav">    7.12    7.12</time>
   <time name="total">    9.07    9.08</time>
   <energy>
    <i name="e_fr_energy">   -829.02905826 </i>
    <i name="e_wo_entrp">   -828.96235962 </i>
    <i name="e_0_energy">   -828.99570894 </i>
   </energy>
  </scstep>
  <scstep>
   <time name="dav">    7.00    7.00</time>
   <time name="total">    8.97    8.97</time>
   <energy>
    <i name="e_fr_energy">   -829.02906365 </i>
    <i name="e_wo_entrp">   -828.96236511 </i>
    <i name="e_0_energy">   -828.99571438 </i>
   </energy>
  </scstep>
  <scstep>
   <time name="dav">    7.01    7.02</time>
   <time name="total">    9.01    9.01</time>
   <energy>
    <i name="e_fr_energy">   -829.02906681 </i>
    <i name="e_wo_entrp">   -828.96236829 </i>
    <i name="e_0_energy">   -828.99571755 </i>
   </energy>
  </scstep>
  <scstep>
   <time name="dav">    7.06    7.06</time>
   <time name="total">    9.06    9.07</time>
   <energy>
    <i name="e_fr_energy">   -829.02906907 </i>
    <i name="e_wo_entrp">   -828.96237054 </i>
    <i name="e_0_energy">   -828.99571981 </i>
   </energy>
  </scstep>
  <scstep>
   <time name="dav">    7.11    7.11</time>
   <time name="total">    9.13    9.14</time>
   <energy>
    <i name="e_fr_energy">   -829.02907035 </i>
    <i name="e_wo_entrp">   -828.96237180 </i>
    <i name="e_0_energy">   -828.99572107 </i>
   </energy>
  </scstep>
  <scstep>
   <time name="dav">    6.90    6.91</time>
   <time name="total">    7.26    7.27</time>
   <energy>
    <i name="alphaZ">     91.34886789 </i>
    <i name="ewald"> 119283.58091656 </i>
    <i name="hartreedc">-130372.57561529 </i>
    <i name="XCdc">   1278.41567455 </i>
    <i name="pawpsdc">  41000.76960494 </i>
    <i name="pawaedc"> -41064.80840250 </i>
    <i name="eentropy">     -0.06669856 </i>
    <i name="bandstr">  -4583.34821271 </i>
    <i name="atom">  13537.65479391 </i>
    <i name="e_fr_energy">   -829.02907121 </i>
    <i name="e_wo_entrp">   -828.96237265 </i>
    <i name="e_0_energy">   -828.99572193 </i>
   </energy>
  </scstep>
  <structure>
   <crystal>
    <varray name="basis" >
     <v>      28.05000000       0.00000000       0.00000000 </v>
     <v>       0.00000000       8.10000000       0.00000000 </v>
     <v>       0.00000000       0.00000000      33.50000000 </v>
    </varray>
    <i name="volume">   7611.36750000 </i>
    <varray name="rec_basis" >
     <v>       0.03565062       0.00000000       0.00000000 </v>
     <v>       0.00000000       0.12345679       0.00000000 </v>
     <v>       0.00000000       0.00000000       0.02985075 </v>
    </varray>
   </crystal>
   <varray name="positions" >
    <v>       0.00729437       0.11166815       0.49466269 </v>
    <v>       0.00986364       0.28259630       0.49291045 </v>
    <v>       0.05215365       0.03545840       0.50074030 </v>
    <v>       0.05251480       0.36609136       0.49810149 </v>
    <v>       0.09449697       0.11762111       0.51560299 </v>
    <v>       0.09445918       0.28735309       0.51464179 </v>
    <v>       0.13833761       0.03045321       0.52590149 </v>
    <v>       0.13869305       0.36796049       0.52056119 </v>
    <v>       0.18219002       0.11458333       0.53482985 </v>
    <v>       0.18329697       0.28357160       0.53018209 </v>
    <v>       0.22619501       0.02758901       0.54154328 </v>
    <v>       0.22813975       0.36131235       0.52967761 </v>
    <v>       0.27136364       0.11147395       0.54375522 </v>
    <v>       0.27126488       0.28150617       0.53538806 </v>
    <v>       0.31605241       0.03386654       0.54157910 </v>
    <v>       0.31433476       0.35890741       0.52828060 </v>
    <v>       0.36053476       0.11447840       0.53500896 </v>
    <v>       0.36048485       0.27980247       0.52814030 </v>
    <v>       0.40442424       0.03154691       0.53205373 </v>
    <v>       0.40539037       0.36255679       0.52317313 </v>
    <v>       0.44966488       0.10914654       0.52290746 </v>
    <v>       0.44885205       0.27338519       0.52189851 </v>
    <v>       0.49034938       0.02183889       0.50995821 </v>
    <v>       0.49299822       0.34780494       0.50958209 </v>
    <v>       0.53346524       0.10209556       0.49580597 </v>
    <v>       0.53383601       0.26446173       0.49787463 </v>
    <v>       0.57599287       0.02018395       0.48382985 </v>
    <v>       0.57756506       0.35122840       0.48271940 </v>
    <v>       0.62194296       0.10738593       0.47281791 </v>
    <v>       0.61944029       0.27722469       0.46977612 </v>
    <v>       0.65942246       0.03076185       0.45336716 </v>
    <v>       0.65877005       0.36242963       0.45109552 </v>
    <v>       0.70238146       0.11092852       0.43977015 </v>
    <v>       0.70025312       0.28235679       0.44071343 </v>
    <v>       0.74488770       0.03298123       0.43660299 </v>
    <v>       0.74526203       0.36283333       0.43726567 </v>
    <v>       0.79106595       0.11566086       0.43978209 </v>
    <v>       0.78889127       0.28252593       0.43918209 </v>
    <v>       0.83498039       0.03512642       0.44526866 </v>
    <v>       0.83540463       0.36420000       0.44213731 </v>
    <v>       0.87913369       0.11517852       0.44942985 </v>
    <v>       0.87852763       0.28685432       0.45167164 </v>
    <v>       0.92155793       0.03881790       0.45825970 </v>
    <v>       0.92239572       0.36877037       0.45860896 </v>
    <v>       0.96083066       0.12070346       0.47517910 </v>
    <v>       0.96362210       0.28659383       0.47309254 </v>
    <v>       0.01582460       0.61914074       0.47452537 </v>
    <v>       0.01451312       0.78587284       0.47515224 </v>
    <v>       0.05493904       0.52583951       0.48828060 </v>
    <v>       0.05413619       0.86611605       0.49314627 </v>
    <v>       0.09662068       0.61079630       0.49745672 </v>
    <v>       0.09836791       0.77932840       0.49757015 </v>
    <v>       0.13931800       0.53398889       0.51226567 </v>
    <v>       0.13905419       0.86621975       0.51512836 </v>
    <v>       0.18370410       0.61034074       0.51800299 </v>
    <v>       0.18270945       0.77861235       0.52159701 </v>
    <v>       0.22779358       0.53436543       0.52658209 </v>
    <v>       0.22411979       0.86113333       0.53325672 </v>
    <v>       0.27238645       0.61353457       0.52745970 </v>
    <v>       0.27060535       0.78510988       0.53151940 </v>
    <v>       0.31680463       0.52791481       0.52625373 </v>
    <v>       0.31388984       0.86302716       0.53953731 </v>
    <v>       0.36172906       0.61246296       0.52944776 </v>
    <v>       0.35945811       0.77879012       0.53591940 </v>
    <v>       0.40493048       0.53047407       0.52322388 </v>
    <v>       0.40462745       0.86474321       0.53229552 </v>
    <v>       0.44890196       0.61001481       0.51713731 </v>
    <v>       0.44967914       0.77879506       0.52287761 </v>
    <v>       0.49062032       0.52150864       0.50614030 </v>
    <v>       0.49288414       0.85601728       0.51137015 </v>
    <v>       0.53122995       0.60314321       0.49375522 </v>
    <v>       0.53411408       0.76936049       0.49542687 </v>
    <v>       0.57385027       0.52045432       0.48088060 </v>
    <v>       0.57586096       0.85227284       0.48194328 </v>
    <v>       0.61698396       0.60424321       0.46603284 </v>
    <v>       0.61625312       0.77300247       0.46588060 </v>
    <v>       0.65801783       0.53162716       0.45231343 </v>
    <v>       0.65867023       0.86060123       0.45504179 </v>
    <v>       0.70288770       0.61384074       0.44765672 </v>
    <v>       0.70329412       0.78138395       0.44838209 </v>
    <v>       0.74661319       0.53302716       0.44059701 </v>
    <v>       0.74794652       0.86964691       0.44519104 </v>
    <v>       0.79085205       0.61539506       0.44042090 </v>
    <v>       0.79217825       0.78662099       0.44469552 </v>
    <v>       0.83560428       0.53328272       0.44057612 </v>
    <v>       0.83617825       0.86568272       0.44175224 </v>
    <v>       0.88142959       0.61437531       0.44652239 </v>
    <v>       0.87970766       0.78461605       0.44525672 </v>
    <v>       0.92465954       0.53442222       0.45113433 </v>
    <v>       0.92303387       0.87009136       0.45295522 </v>
    <v>       0.96733333       0.61871235       0.45773134 </v>
    <v>       0.96682709       0.78853086       0.45928955 </v>
   </varray>
  </structure>
  <varray name="forces" >
   <v>       3.37716097       0.39781209       0.78763022 </v>
   <v>       1.59795737       0.31452805       0.50682782 </v>
   <v>      -0.71179708      -0.94007470       0.76350363 </v>
   <v>      -0.18333929      -2.41410782       1.05482877 </v>
   <v>      -0.28349921      -0.80563330       0.19531813 </v>
   <v>      -0.27165855      -0.32294749      -0.40447325 </v>
   <v>      -1.09792770       0.86283807      -1.17909832 </v>
   <v>       0.56187621      -0.72110374       0.01053961 </v>
   <v>      -0.21259488      -0.80496015       0.42741876 </v>
   <v>      -1.47766747       0.36359043      -0.10421218 </v>
   <v>      -0.80869828       1.07325657      -0.58576553 </v>
   <v>      -1.22438456       1.63624022       0.48074529 </v>
   <v>      -0.55394805       0.77184372      -0.84430053 </v>
   <v>      -0.27571288      -1.71726521       0.09348807 </v>
   <v>      -0.16215606      -0.61651043       0.28908393 </v>
   <v>       2.80680365       0.35150284       0.06233135 </v>
   <v>      -0.21808675      -0.60772642       0.45121272 </v>
   <v>      -0.53469722       0.90106671       0.24540900 </v>
   <v>       1.34182011       0.25246098      -0.21586338 </v>
   <v>      -1.21664782      -1.55787203       0.49781464 </v>
   <v>      -1.72109127      -2.43833692       0.20601451 </v>
   <v>       1.31615314       2.42129521      -1.38448838 </v>
   <v>       1.98754377       1.60993597      -0.14330528 </v>
   <v>      -1.90593903       2.42156090       0.20081348 </v>
   <v>      -0.23584484      -2.82712928       0.83190512 </v>
   <v>       2.50939237       3.63440974      -1.01872711 </v>
   <v>       1.84303431       1.55897025      -0.07147613 </v>
   <v>      -2.62520111       0.54803114       1.04353124 </v>
   <v>      -3.38251319      -0.04068787      -0.77941696 </v>
   <v>       0.52820796      -0.38430819      -0.67607303 </v>
   <v>       0.94189519      -0.95111894       0.45531950 </v>
   <v>      -1.47986605      -0.53148750       1.20362283 </v>
   <v>      -3.24048028       1.35907204       0.98378883 </v>
   <v>       1.98075810      -0.90146300      -0.53635871 </v>
   <v>       3.74115220      -0.04542863       1.09935243 </v>
   <v>      -0.51897029       0.87064277       0.15887018 </v>
   <v>      -1.51578479      -0.98061428      -0.44309611 </v>
   <v>       2.69872607       0.70422956      -0.34068634 </v>
   <v>       0.13653312      -0.20538571      -1.25741851 </v>
   <v>      -1.62959736       0.34691087       0.16996319 </v>
   <v>      -0.98253461       2.06100330       0.96266373 </v>
   <v>       0.40919191      -1.03108636      -0.65251330 </v>
   <v>       1.45655124      -1.00855552       0.81040239 </v>
   <v>       1.11364963      -0.83193455       0.24055109 </v>
   <v>      -1.91873872      -1.73893678      -1.14950027 </v>
   <v>      -3.14031134       1.38397549      -0.58387301 </v>
   <v>       1.45904695      -2.26764375      -0.29859622 </v>
   <v>       3.68520283       1.64318558       1.66469022 </v>
   <v>      -0.91365258       3.01527861      -0.77992242 </v>
   <v>      -0.09498435       0.08149762      -1.46743439 </v>
   <v>       2.37080151       0.03551603       0.48667454 </v>
   <v>      -0.60927421       2.58795589       1.46307745 </v>
   <v>       0.11824922      -1.00152378      -0.52577647 </v>
   <v>       0.22433632      -1.80929178      -0.13088869 </v>
   <v>       0.16074106       0.77840673       0.32390971 </v>
   <v>      -0.85577677       1.64323328      -0.30574927 </v>
   <v>       0.03466195      -2.01384015      -1.11212387 </v>
   <v>       2.54219535      -0.09811629       0.10194716 </v>
   <v>       0.05754584       0.76900023      -0.10707784 </v>
   <v>      -0.74945874      -1.16077543       0.97344961 </v>
   <v>      -0.72603889       1.27030538       0.54615651 </v>
   <v>       2.14014382      -0.20936865      -0.60102658 </v>
   <v>      -1.89948926      -0.74133349      -0.57304175 </v>
   <v>       0.60903816       1.18733519      -0.32342761 </v>
   <v>       0.69060594       0.24217712      -0.17453295 </v>
   <v>       0.46792956      -2.41597220       0.04674265 </v>
   <v>      -0.31549885      -0.24023654       0.60106475 </v>
   <v>      -0.79811552      -0.14947491      -0.35996321 </v>
   <v>      -0.35544051      -0.95345998       0.53886365 </v>
   <v>      -0.29965862      -1.34816563      -0.34511416 </v>
   <v>       2.16206317      -0.98048543      -0.65017555 </v>
   <v>      -1.08129688       2.11314577       0.40247418 </v>
   <v>       1.38382164       0.24866858      -0.74416497 </v>
   <v>      -0.57910064      -0.25464858      -0.16508431 </v>
   <v>      -2.54445289       0.45365738       0.69271962 </v>
   <v>       0.70712635       0.98624092       0.53794409 </v>
   <v>       1.67646749      -0.87591129       0.16982573 </v>
   <v>       0.43455342      -0.60017373      -0.35746935 </v>
   <v>      -0.39124554      -0.50592653      -0.68467407 </v>
   <v>      -0.00091901       1.09189601       0.35288825 </v>
   <v>      -0.29106357      -0.24891711       0.06855285 </v>
   <v>      -1.41243332      -2.07852892      -0.60085712 </v>
   <v>       0.69036151       0.38040169       0.49492433 </v>
   <v>      -0.93478410      -0.90505376      -0.99721298 </v>
   <v>       0.71395172       0.42222267       0.60473860 </v>
   <v>      -0.59481345       0.37569714       1.15232819 </v>
   <v>      -2.48888193       0.79111558      -1.52605922 </v>
   <v>       1.45498426      -0.29262970       0.06052413 </v>
   <v>       1.08475892       0.22926860       0.87386764 </v>
   <v>       1.37567805      -0.49184124       0.33267893 </v>
   <v>      -1.85054285      -0.24689357      -0.51428413 </v>
   <v>      -3.27606123       0.12350437      -1.00768973 </v>
  </varray>
  <varray name="stress" >
   <v>      -5.83763181      -1.37187615       0.47857914 </v>
   <v>      -1.37187615      56.04686179      -0.08100765 </v>
   <v>       0.47857915      -0.08100765      -1.25636988 </v>
  </varray>
  <energy>
   <i name="e_fr_energy">   -829.02907121 </i>
   <i name="e_wo_entrp">   -828.96237265 </i>
   <i name="e_0_energy">   -828.99572193 </i>
  </energy>
  <time name="totalsc">  332.83  333.05</time>
  <eigenvalues>
   <array>
    <dimension dim="1">band</dimension>
    <dimension dim="2">kpoint</dimension>
    <dimension dim="3">spin</dimension>
    <field>eigene</field>
    <field>occ</field>
    <set>
     <set comment="spin 1">
      <set comment="kpoint 1">
       <r>  -23.2770    1.0000 </r>
       <r>  -23.0395    1.0000 </r>
       <r>  -22.9769    1.0000 </r>
       <r>  -22.6928    1.0000 </r>
       <r>  -22.6373    1.0000 </r>
       <r>  -22.5650    1.0000 </r>
       <r>  -22.0849    1.0000 </r>
       <r>  -21.9556    1.0000 </r>
       <r>  -21.4822    1.0000 </r>
       <r>  -21.4308    1.0000 </r>
       <r>  -21.3707    1.0000 </r>
       <r>  -21.3502    1.0000 </r>
       <r>  -21.2549    1.0000 </r>
       <r>  -21.1742    1.0000 </r>
       <r>  -21.1604    1.0000 </r>
       <r>  -21.0599    1.0000 </r>
       <r>  -20.9643    1.0000 </r>
       <r>  -20.9162    1.0000 </r>
       <r>  -20.7492    1.0000 </r>
       <r>  -20.5673    1.0000 </r>
       <r>  -20.3745    1.0000 </r>
       <r>  -20.3256    1.0000 </r>
       <r>  -20.1865    1.0000 </r>
       <r>  -20.0628    1.0000 </r>
       <r>  -19.9398    1.0000 </r>
       <r>  -19.7616    1.0000 </r>
       <r>  -19.5368    1.0000 </r>
       <r>  -19.4740    1.0000 </r>
       <r>  -19.1630    1.0000 </r>
       <r>  -18.9561    1.0000 </r>
       <r>  -18.7272    1.0000 </r>
       <r>  -18.6676    1.0000 </r>
       <r>  -18.5193    1.0000 </r>
       <r>  -18.4083    1.0000 </r>
       <r>  -18.1747    1.0000 </r>
       <r>  -17.6293    1.0000 </r>
       <r>  -17.3986    1.0000 </r>
       <r>  -17.2640    1.0000 </r>
       <r>  -16.9330    1.0000 </r>
       <r>  -16.8952    1.0000 </r>
       <r>  -16.7556    1.0000 </r>
       <r>  -16.7012    1.0000 </r>
       <r>  -16.6567    1.0000 </r>
       <r>  -16.6023    1.0000 </r>
       <r>  -16.5567    1.0000 </r>
       <r>  -16.4923    1.0000 </r>
       <r>  -16.4587    1.0000 </r>
       <r>  -16.4122    1.0000 </r>
       <r>  -16.3503    1.0000 </r>
       <r>  -16.3172    1.0000 </r>
       <r>  -16.2884    1.0000 </r>
       <r>  -16.1857    1.0000 </r>
       <r>  -16.1072    1.0000 </r>
       <r>  -15.9537    1.0000 </r>
       <r>  -15.8230    1.0000 </r>
       <r>  -15.6522    1.0000 </r>
       <r>  -15.4824    1.0000 </r>
       <r>  -15.4375    1.0000 </r>
       <r>  -15.2615    1.0000 </r>
       <r>  -15.1328    1.0000 </r>
       <r>  -15.0341    1.0000 </r>
       <r>  -14.9980    1.0000 </r>
       <r>  -14.2873    1.0000 </r>
       <r>  -14.1441    1.0000 </r>
       <r>  -14.1055    1.0000 </r>
       <r>  -14.0575    1.0000 </r>
       <r>  -13.8697    1.0000 </r>
       <r>  -13.8139    1.0000 </r>
       <r>  -13.6827    1.0000 </r>
       <r>  -13.6529    1.0000 </r>
       <r>  -13.5120    1.0000 </r>
       <r>  -13.3522    1.0000 </r>
       <r>  -13.2823    1.0000 </r>
       <r>  -13.1395    1.0000 </r>
       <r>  -12.9737    1.0000 </r>
       <r>  -12.9104    1.0000 </r>
       <r>  -12.6655    1.0000 </r>
       <r>  -12.4832    1.0000 </r>
       <r>  -12.2346    1.0000 </r>
       <r>  -12.1783    1.0000 </r>
       <r>  -12.0964    1.0000 </r>
       <r>  -12.0053    1.0000 </r>
       <r>  -11.8345    1.0000 </r>
       <r>  -11.8133    1.0000 </r>
       <r>  -11.7249    1.0000 </r>
       <r>  -11.5828    1.0000 </r>
       <r>  -11.3457    1.0000 </r>
       <r>  -11.1743    1.0000 </r>
       <r>  -11.0730    1.0000 </r>
       <r>  -11.0169    1.0000 </r>
       <r>  -10.9765    1.0000 </r>
       <r>  -10.9614    1.0000 </r>
       <r>  -10.8050    1.0000 </r>
       <r>  -10.7778    1.0000 </r>
       <r>  -10.6599    1.0000 </r>
       <r>  -10.6331    1.0000 </r>
       <r>  -10.6081    1.0000 </r>
       <r>  -10.5371    1.0000 </r>
       <r>  -10.4995    1.0000 </r>
       <r>  -10.4028    1.0000 </r>
       <r>  -10.3687    1.0000 </r>
       <r>  -10.2836    1.0000 </r>
       <r>  -10.2445    1.0000 </r>
       <r>  -10.1632    1.0000 </r>
       <r>  -10.0970    1.0000 </r>
       <r>  -10.0359    1.0000 </r>
       <r>   -9.8275    1.0000 </r>
       <r>   -9.7958    1.0000 </r>
       <r>   -9.7560    1.0000 </r>
       <r>   -9.7330    1.0000 </r>
       <r>   -9.7142    1.0000 </r>
       <r>   -9.6099    1.0000 </r>
       <r>   -9.6052    1.0000 </r>
       <r>   -9.5801    1.0000 </r>
       <r>   -9.5357    1.0000 </r>
       <r>   -9.4933    1.0000 </r>
       <r>   -9.4809    1.0000 </r>
       <r>   -9.4254    1.0000 </r>
       <r>   -9.4068    1.0000 </r>
       <r>   -9.3415    1.0000 </r>
       <r>   -9.3236    1.0000 </r>
       <r>   -9.2945    1.0000 </r>
       <r>   -9.2857    1.0000 </r>
       <r>   -9.2649    1.0000 </r>
       <r>   -9.2413    1.0000 </r>
       <r>   -9.1715    1.0000 </r>
       <r>   -9.1535    1.0000 </r>
       <r>   -9.0910    1.0000 </r>
       <r>   -9.0482    1.0000 </r>
       <r>   -9.0080    1.0000 </r>
       <r>   -8.9801    1.0000 </r>
       <r>   -8.9695    1.0000 </r>
       <r>   -8.9444    1.0000 </r>
       <r>   -8.9346    1.0000 </r>
       <r>   -8.9165    1.0000 </r>
       <r>   -8.8857    1.0000 </r>
       <r>   -8.8139    1.0000 </r>
       <r>   -8.7816    1.0000 </r>
       <r>   -8.7740    1.0000 </r>
       <r>   -8.6865    1.0000 </r>
       <r>   -8.6810    1.0000 </r>
       <r>   -8.6411    1.0000 </r>
       <r>   -8.5776    1.0000 </r>
       <r>   -8.4934    1.0000 </r>
       <r>   -8.4850    1.0000 </r>
       <r>   -8.3442    1.0000 </r>
       <r>   -8.0944    1.0000 </r>
       <r>   -7.9210    1.0000 </r>
       <r>   -7.8767    1.0000 </r>
       <r>   -7.7973    1.0000 </r>
       <r>   -7.7301    1.0000 </r>
       <r>   -7.6928    1.0000 </r>
       <r>   -7.6276    1.0000 </r>
       <r>   -7.6086    1.0000 </r>
       <r>   -7.4547    1.0000 </r>
       <r>   -7.3707    1.0000 </r>
       <r>   -7.3430    1.0000 </r>
       <r>   -7.1726    1.0000 </r>
       <r>   -6.9965    1.0000 </r>
       <r>   -6.9607    1.0000 </r>
       <r>   -6.8039    1.0000 </r>
       <r>   -6.7381    1.0000 </r>
       <r>   -6.7171    1.0000 </r>
       <r>   -6.6615    1.0000 </r>
       <r>   -6.4455    1.0000 </r>
       <r>   -6.3071    1.0000 </r>
       <r>   -6.2289    1.0000 </r>
       <r>   -6.0790    1.0000 </r>
       <r>   -6.0078    1.0000 </r>
       <r>   -5.9927    1.0000 </r>
       <r>   -5.9161    1.0000 </r>
       <r>   -5.8313    1.0000 </r>
       <r>   -5.7958    1.0000 </r>
       <r>   -5.0334    1.0000 </r>
       <r>   -4.9350    1.0000 </r>
       <r>   -4.8096    1.0000 </r>
       <r>   -4.7190    1.0000 </r>
       <r>   -4.5560    1.0000 </r>
       <r>   -4.4890    1.0000 </r>
       <r>   -4.4243    1.0000 </r>
       <r>   -4.3830    1.0000 </r>
       <r>   -3.6792    0.9997 </r>
       <r>   -3.6349    0.9991 </r>
       <r>   -3.2161    0.5634 </r>
       <r>   -3.1562    0.3959 </r>
       <r>   -2.6565    0.0001 </r>
       <r>   -2.5920    0.0000 </r>
       <r>   -2.4792    0.0000 </r>
       <r>   -2.2601    0.0000 </r>
       <r>   -2.1614    0.0000 </r>
       <r>   -1.7770    0.0000 </r>
       <r>   -1.6119    0.0000 </r>
       <r>   -1.5704    0.0000 </r>
       <r>   -1.5308    0.0000 </r>
       <r>   -1.3682    0.0000 </r>
       <r>   -1.3115    0.0000 </r>
       <r>   -1.2760    0.0000 </r>
       <r>   -1.1589    0.0000 </r>
       <r>   -0.8777    0.0000 </r>
       <r>   -0.6661    0.0000 </r>
       <r>   -0.5722    0.0000 </r>
       <r>   -0.3518    0.0000 </r>
       <r>   -0.0301    0.0000 </r>
       <r>    0.0826    0.0000 </r>
       <r>    0.1370    0.0000 </r>
       <r>    0.1543    0.0000 </r>
       <r>    0.3287    0.0000 </r>
       <r>    0.5609    0.0000 </r>
       <r>    0.6279    0.0000 </r>
       <r>    0.6845    0.0000 </r>
       <r>    0.7088    0.0000 </r>
       <r>    0.8638    0.0000 </r>
       <r>    0.9102    0.0000 </r>
       <r>    0.9163    0.0000 </r>
       <r>    0.9278    0.0000 </r>
       <r>    0.9885    0.0000 </r>
       <r>    1.0320    0.0000 </r>
       <r>    1.1503    0.0000 </r>
       <r>    1.1573    0.0000 </r>
       <r>    1.2214    0.0000 </r>
       <r>    1.3017    0.0000 </r>
       <r>    1.3084    0.0000 </r>
       <r>    1.3246    0.0000 </r>
       <r>    1.4084    0.0000 </r>
       <r>    1.4674    0.0000 </r>
       <r>    1.5523    0.0000 </r>
       <r>    1.5703    0.0000 </r>
       <r>    1.7117    0.0000 </r>
       <r>    1.7291    0.0000 </r>
       <r>    1.7306    0.0000 </r>
       <r>    1.7515    0.0000 </r>
       <r>    1.8088    0.0000 </r>
      </set>
      <set comment="kpoint 2">
       <r>  -23.2029    1.0000 </r>
       <r>  -22.9412    1.0000 </r>
       <r>  -22.8781    1.0000 </r>
       <r>  -22.7545    1.0000 </r>
       <r>  -22.5979    1.0000 </r>
       <r>  -22.4679    1.0000 </r>
       <r>  -22.1477    1.0000 </r>
       <r>  -22.0687    1.0000 </r>
       <r>  -21.9842    1.0000 </r>
       <r>  -21.8507    1.0000 </r>
       <r>  -21.8135    1.0000 </r>
       <r>  -21.6522    1.0000 </r>
       <r>  -21.2842    1.0000 </r>
       <r>  -21.1718    1.0000 </r>
       <r>  -21.0464    1.0000 </r>
       <r>  -20.9564    1.0000 </r>
       <r>  -20.5970    1.0000 </r>
       <r>  -20.5007    1.0000 </r>
       <r>  -20.4581    1.0000 </r>
       <r>  -20.2868    1.0000 </r>
       <r>  -20.1837    1.0000 </r>
       <r>  -20.1124    1.0000 </r>
       <r>  -20.0511    1.0000 </r>
       <r>  -19.8663    1.0000 </r>
       <r>  -19.8372    1.0000 </r>
       <r>  -19.5486    1.0000 </r>
       <r>  -19.4635    1.0000 </r>
       <r>  -19.1305    1.0000 </r>
       <r>  -19.0608    1.0000 </r>
       <r>  -18.8960    1.0000 </r>
       <r>  -18.6663    1.0000 </r>
       <r>  -18.5869    1.0000 </r>
       <r>  -18.5106    1.0000 </r>
       <r>  -18.2001    1.0000 </r>
       <r>  -18.1330    1.0000 </r>
       <r>  -18.0863    1.0000 </r>
       <r>  -18.0239    1.0000 </r>
       <r>  -17.9975    1.0000 </r>
       <r>  -17.7699    1.0000 </r>
       <r>  -17.7451    1.0000 </r>
       <r>  -17.4911    1.0000 </r>
       <r>  -17.3842    1.0000 </r>
       <r>  -17.2784    1.0000 </r>
       <r>  -17.1927    1.0000 </r>
       <r>  -17.0225    1.0000 </r>
       <r>  -16.5636    1.0000 </r>
       <r>  -16.4039    1.0000 </r>
       <r>  -16.1972    1.0000 </r>
       <r>  -16.0557    1.0000 </r>
       <r>  -15.8865    1.0000 </r>
       <r>  -15.7548    1.0000 </r>
       <r>  -15.6371    1.0000 </r>
       <r>  -15.5620    1.0000 </r>
       <r>  -15.3205    1.0000 </r>
       <r>  -15.2156    1.0000 </r>
       <r>  -15.1699    1.0000 </r>
       <r>  -15.0922    1.0000 </r>
       <r>  -15.0645    1.0000 </r>
       <r>  -14.9645    1.0000 </r>
       <r>  -14.9073    1.0000 </r>
       <r>  -14.8581    1.0000 </r>
       <r>  -14.7629    1.0000 </r>
       <r>  -14.5594    1.0000 </r>
       <r>  -14.4157    1.0000 </r>
       <r>  -14.3328    1.0000 </r>
       <r>  -14.2093    1.0000 </r>
       <r>  -13.9299    1.0000 </r>
       <r>  -13.8476    1.0000 </r>
       <r>  -13.3214    1.0000 </r>
       <r>  -13.2215    1.0000 </r>
       <r>  -13.1776    1.0000 </r>
       <r>  -13.1132    1.0000 </r>
       <r>  -12.9490    1.0000 </r>
       <r>  -12.8532    1.0000 </r>
       <r>  -12.8013    1.0000 </r>
       <r>  -12.7711    1.0000 </r>
       <r>  -12.6676    1.0000 </r>
       <r>  -12.5232    1.0000 </r>
       <r>  -12.3531    1.0000 </r>
       <r>  -12.2751    1.0000 </r>
       <r>  -12.1657    1.0000 </r>
       <r>  -12.0651    1.0000 </r>
       <r>  -11.9615    1.0000 </r>
       <r>  -11.8743    1.0000 </r>
       <r>  -11.7112    1.0000 </r>
       <r>  -11.6711    1.0000 </r>
       <r>  -11.5046    1.0000 </r>
       <r>  -11.3598    1.0000 </r>
       <r>  -11.2840    1.0000 </r>
       <r>  -11.2420    1.0000 </r>
       <r>  -11.0585    1.0000 </r>
       <r>  -11.0165    1.0000 </r>
       <r>  -10.9933    1.0000 </r>
       <r>  -10.9448    1.0000 </r>
       <r>  -10.9044    1.0000 </r>
       <r>  -10.8558    1.0000 </r>
       <r>  -10.8313    1.0000 </r>
       <r>  -10.7548    1.0000 </r>
       <r>  -10.6753    1.0000 </r>
       <r>  -10.6068    1.0000 </r>
       <r>  -10.5571    1.0000 </r>
       <r>  -10.5082    1.0000 </r>
       <r>  -10.4707    1.0000 </r>
       <r>  -10.4330    1.0000 </r>
       <r>  -10.3826    1.0000 </r>
       <r>  -10.3113    1.0000 </r>
       <r>  -10.2116    1.0000 </r>
       <r>  -10.1138    1.0000 </r>
       <r>  -10.0876    1.0000 </r>
       <r>  -10.0318    1.0000 </r>
       <r>   -9.9947    1.0000 </r>
       <r>   -9.9149    1.0000 </r>
       <r>   -9.8896    1.0000 </r>
       <r>   -9.7998    1.0000 </r>
       <r>   -9.7281    1.0000 </r>
       <r>   -9.6825    1.0000 </r>
       <r>   -9.6318    1.0000 </r>
       <r>   -9.6113    1.0000 </r>
       <r>   -9.5825    1.0000 </r>
       <r>   -9.5613    1.0000 </r>
       <r>   -9.4934    1.0000 </r>
       <r>   -9.4559    1.0000 </r>
       <r>   -9.3871    1.0000 </r>
       <r>   -9.3419    1.0000 </r>
       <r>   -9.2987    1.0000 </r>
       <r>   -9.1473    1.0000 </r>
       <r>   -8.9468    1.0000 </r>
       <r>   -8.8963    1.0000 </r>
       <r>   -8.8311    1.0000 </r>
       <r>   -8.7894    1.0000 </r>
       <r>   -8.7471    1.0000 </r>
       <r>   -8.6921    1.0000 </r>
       <r>   -8.6610    1.0000 </r>
       <r>   -8.6191    1.0000 </r>
       <r>   -8.5753    1.0000 </r>
       <r>   -8.5079    1.0000 </r>
       <r>   -8.4777    1.0000 </r>
       <r>   -8.4439    1.0000 </r>
       <r>   -8.3668    1.0000 </r>
       <r>   -8.2977    1.0000 </r>
       <r>   -8.2323    1.0000 </r>
       <r>   -8.1815    1.0000 </r>
       <r>   -8.1011    1.0000 </r>
       <r>   -8.0647    1.0000 </r>
       <r>   -8.0140    1.0000 </r>
       <r>   -7.9611    1.0000 </r>
       <r>   -7.8804    1.0000 </r>
       <r>   -7.8371    1.0000 </r>
       <r>   -7.7383    1.0000 </r>
       <r>   -7.6397    1.0000 </r>
       <r>   -7.6209    1.0000 </r>
       <r>   -7.5289    1.0000 </r>
       <r>   -7.4766    1.0000 </r>
       <r>   -7.4186    1.0000 </r>
       <r>   -7.3825    1.0000 </r>
       <r>   -7.3333    1.0000 </r>
       <r>   -7.2841    1.0000 </r>
       <r>   -7.0636    1.0000 </r>
       <r>   -7.0170    1.0000 </r>
       <r>   -6.8818    1.0000 </r>
       <r>   -6.8609    1.0000 </r>
       <r>   -6.7070    1.0000 </r>
       <r>   -6.6065    1.0000 </r>
       <r>   -6.5966    1.0000 </r>
       <r>   -6.5087    1.0000 </r>
       <r>   -6.2987    1.0000 </r>
       <r>   -6.2294    1.0000 </r>
       <r>   -6.0858    1.0000 </r>
       <r>   -6.0497    1.0000 </r>
       <r>   -6.0102    1.0000 </r>
       <r>   -5.9348    1.0000 </r>
       <r>   -5.7730    1.0000 </r>
       <r>   -5.6740    1.0000 </r>
       <r>   -5.6332    1.0000 </r>
       <r>   -5.5590    1.0000 </r>
       <r>   -5.4371    1.0000 </r>
       <r>   -5.1278    1.0000 </r>
       <r>   -5.1110    1.0000 </r>
       <r>   -4.7735    1.0000 </r>
       <r>   -4.6770    1.0000 </r>
       <r>   -4.5717    1.0000 </r>
       <r>   -4.4981    1.0000 </r>
       <r>   -4.3941    1.0000 </r>
       <r>   -3.5478    0.9939 </r>
       <r>   -2.9210    0.0270 </r>
       <r>   -2.5301    0.0000 </r>
       <r>   -2.1547    0.0000 </r>
       <r>   -2.0010    0.0000 </r>
       <r>   -1.6255    0.0000 </r>
       <r>   -1.5028    0.0000 </r>
       <r>   -1.4515    0.0000 </r>
       <r>   -1.3662    0.0000 </r>
       <r>   -1.3004    0.0000 </r>
       <r>   -1.2331    0.0000 </r>
       <r>   -1.1224    0.0000 </r>
       <r>   -1.0472    0.0000 </r>
       <r>   -0.9598    0.0000 </r>
       <r>   -0.8715    0.0000 </r>
       <r>   -0.7959    0.0000 </r>
       <r>   -0.5193    0.0000 </r>
       <r>   -0.2463    0.0000 </r>
       <r>   -0.1028    0.0000 </r>
       <r>   -0.0005    0.0000 </r>
       <r>    0.0123    0.0000 </r>
       <r>    0.0891    0.0000 </r>
       <r>    0.1886    0.0000 </r>
       <r>    0.2084    0.0000 </r>
       <r>    0.3258    0.0000 </r>
       <r>    0.3623    0.0000 </r>
       <r>    0.7865    0.0000 </r>
       <r>    0.8093    0.0000 </r>
       <r>    0.8473    0.0000 </r>
       <r>    1.0245    0.0000 </r>
       <r>    1.0523    0.0000 </r>
       <r>    1.0580    0.0000 </r>
       <r>    1.0954    0.0000 </r>
       <r>    1.1315    0.0000 </r>
       <r>    1.2481    0.0000 </r>
       <r>    1.2929    0.0000 </r>
       <r>    1.3001    0.0000 </r>
       <r>    1.3523    0.0000 </r>
       <r>    1.3640    0.0000 </r>
       <r>    1.4180    0.0000 </r>
       <r>    1.4370    0.0000 </r>
       <r>    1.4509    0.0000 </r>
       <r>    1.4674    0.0000 </r>
       <r>    1.5504    0.0000 </r>
       <r>    1.5926    0.0000 </r>
       <r>    1.6109    0.0000 </r>
       <r>    1.6514    0.0000 </r>
       <r>    1.6760    0.0000 </r>
       <r>    1.7147    0.0000 </r>
      </set>
      <set comment="kpoint 3">
       <r>  -23.0204    1.0000 </r>
       <r>  -22.9838    1.0000 </r>
       <r>  -22.6736    1.0000 </r>
       <r>  -22.6188    1.0000 </r>
       <r>  -22.5969    1.0000 </r>
       <r>  -22.5467    1.0000 </r>
       <r>  -22.3144    1.0000 </r>
       <r>  -22.3010    1.0000 </r>
       <r>  -22.1799    1.0000 </r>
       <r>  -22.1246    1.0000 </r>
       <r>  -21.7326    1.0000 </r>
       <r>  -21.7017    1.0000 </r>
       <r>  -21.5764    1.0000 </r>
       <r>  -21.4984    1.0000 </r>
       <r>  -20.9496    1.0000 </r>
       <r>  -20.8748    1.0000 </r>
       <r>  -20.6968    1.0000 </r>
       <r>  -20.6508    1.0000 </r>
       <r>  -19.9656    1.0000 </r>
       <r>  -19.8890    1.0000 </r>
       <r>  -19.6144    1.0000 </r>
       <r>  -19.5595    1.0000 </r>
       <r>  -19.5102    1.0000 </r>
       <r>  -19.4262    1.0000 </r>
       <r>  -19.3902    1.0000 </r>
       <r>  -19.3590    1.0000 </r>
       <r>  -19.2574    1.0000 </r>
       <r>  -19.1722    1.0000 </r>
       <r>  -19.0182    1.0000 </r>
       <r>  -19.0018    1.0000 </r>
       <r>  -18.9485    1.0000 </r>
       <r>  -18.8946    1.0000 </r>
       <r>  -18.6296    1.0000 </r>
       <r>  -18.5798    1.0000 </r>
       <r>  -18.4701    1.0000 </r>
       <r>  -18.4416    1.0000 </r>
       <r>  -18.3223    1.0000 </r>
       <r>  -18.2621    1.0000 </r>
       <r>  -18.1467    1.0000 </r>
       <r>  -18.1024    1.0000 </r>
       <r>  -17.7351    1.0000 </r>
       <r>  -17.7195    1.0000 </r>
       <r>  -17.6724    1.0000 </r>
       <r>  -17.5597    1.0000 </r>
       <r>  -16.9738    1.0000 </r>
       <r>  -16.9151    1.0000 </r>
       <r>  -16.2829    1.0000 </r>
       <r>  -16.2531    1.0000 </r>
       <r>  -15.9871    1.0000 </r>
       <r>  -15.9370    1.0000 </r>
       <r>  -15.8820    1.0000 </r>
       <r>  -15.8516    1.0000 </r>
       <r>  -15.3315    1.0000 </r>
       <r>  -15.2368    1.0000 </r>
       <r>  -15.1337    1.0000 </r>
       <r>  -15.0664    1.0000 </r>
       <r>  -14.8379    1.0000 </r>
       <r>  -14.7785    1.0000 </r>
       <r>  -14.7162    1.0000 </r>
       <r>  -14.6708    1.0000 </r>
       <r>  -14.0366    1.0000 </r>
       <r>  -13.9982    1.0000 </r>
       <r>  -13.7719    1.0000 </r>
       <r>  -13.6956    1.0000 </r>
       <r>  -13.6556    1.0000 </r>
       <r>  -13.6016    1.0000 </r>
       <r>  -13.5927    1.0000 </r>
       <r>  -13.5540    1.0000 </r>
       <r>  -13.5495    1.0000 </r>
       <r>  -13.5209    1.0000 </r>
       <r>  -13.4843    1.0000 </r>
       <r>  -13.4561    1.0000 </r>
       <r>  -13.3558    1.0000 </r>
       <r>  -13.3465    1.0000 </r>
       <r>  -13.1526    1.0000 </r>
       <r>  -13.0966    1.0000 </r>
       <r>  -12.3479    1.0000 </r>
       <r>  -12.3322    1.0000 </r>
       <r>  -12.1653    1.0000 </r>
       <r>  -12.1066    1.0000 </r>
       <r>  -12.0708    1.0000 </r>
       <r>  -11.9892    1.0000 </r>
       <r>  -11.9691    1.0000 </r>
       <r>  -11.9449    1.0000 </r>
       <r>  -11.8799    1.0000 </r>
       <r>  -11.8276    1.0000 </r>
       <r>  -11.7388    1.0000 </r>
       <r>  -11.6992    1.0000 </r>
       <r>  -11.6106    1.0000 </r>
       <r>  -11.5773    1.0000 </r>
       <r>  -11.3337    1.0000 </r>
       <r>  -11.2526    1.0000 </r>
       <r>  -11.1836    1.0000 </r>
       <r>  -11.0983    1.0000 </r>
       <r>  -11.0196    1.0000 </r>
       <r>  -10.9667    1.0000 </r>
       <r>  -10.7957    1.0000 </r>
       <r>  -10.7135    1.0000 </r>
       <r>  -10.6800    1.0000 </r>
       <r>  -10.6755    1.0000 </r>
       <r>  -10.5820    1.0000 </r>
       <r>  -10.5419    1.0000 </r>
       <r>  -10.5112    1.0000 </r>
       <r>  -10.4936    1.0000 </r>
       <r>  -10.4757    1.0000 </r>
       <r>  -10.3805    1.0000 </r>
       <r>  -10.3721    1.0000 </r>
       <r>  -10.3354    1.0000 </r>
       <r>  -10.2912    1.0000 </r>
       <r>  -10.2626    1.0000 </r>
       <r>  -10.2386    1.0000 </r>
       <r>  -10.1681    1.0000 </r>
       <r>  -10.1368    1.0000 </r>
       <r>  -10.0643    1.0000 </r>
       <r>  -10.0544    1.0000 </r>
[...]
       <r>   -22.7563    14.5460     6.4032 </r>
       <r>   -22.6593    15.9864     7.9531 </r>
       <r>   -22.5624    16.4430     9.5473 </r>
       <r>   -22.4654    14.3316    10.9368 </r>
       <r>   -22.3685    11.2719    12.0297 </r>
       <r>   -22.2715    10.2048    13.0190 </r>
       <r>   -22.1745    11.7649    14.1597 </r>
       <r>   -22.0776    13.9424    15.5114 </r>
       <r>   -21.9806    14.7121    16.9378 </r>
       <r>   -21.8837    14.1631    18.3110 </r>
       <r>   -21.7867    13.3698    19.6072 </r>
       <r>   -21.6898    12.5911    20.8279 </r>
       <r>   -21.5928    11.7677    21.9688 </r>
       <r>   -21.4959    11.3739    23.0716 </r>
       <r>   -21.3989    11.9218    24.2274 </r>
       <r>   -21.3020    13.2731    25.5143 </r>
       <r>   -21.2050    14.7704    26.9463 </r>
       <r>   -21.1081    15.8206    28.4802 </r>
       <r>   -21.0111    16.0336    30.0347 </r>
       <r>   -20.9142    14.8993    31.4792 </r>
       <r>   -20.8172    12.6919    32.7097 </r>
       <r>   -20.7203    11.2678    33.8022 </r>
       <r>   -20.6233    11.8152    34.9477 </r>
       <r>   -20.5264    13.1420    36.2218 </r>
       <r>   -20.4294    13.7062    37.5507 </r>
       <r>   -20.3324    13.6885    38.8778 </r>
       <r>   -20.2355    14.1211    40.2469 </r>
       <r>   -20.1385    15.0817    41.7091 </r>
       <r>   -20.0416    15.7465    43.2358 </r>
       <r>   -19.9446    15.5960    44.7478 </r>
       <r>   -19.8477    14.5071    46.1544 </r>
       <r>   -19.7507    12.8505    47.4002 </r>
       <r>   -19.6538    12.3938    48.6019 </r>
       <r>   -19.5568    14.2183    49.9804 </r>
       <r>   -19.4599    16.0039    51.5320 </r>
       <r>   -19.3629    15.2438    53.0099 </r>
       <r>   -19.2660    13.3578    54.3050 </r>
       <r>   -19.1690    13.1768    55.5825 </r>
       <r>   -19.0721    14.6456    57.0025 </r>
       <r>   -18.9751    15.4935    58.5046 </r>
       <r>   -18.8782    14.5930    59.9194 </r>
       <r>   -18.7812    13.4812    61.2265 </r>
       <r>   -18.6842    14.3362    62.6164 </r>
       <r>   -18.5873    16.4744    64.2136 </r>
       <r>   -18.4903    17.0960    65.8711 </r>
       <r>   -18.3934    15.6290    67.3864 </r>
       <r>   -18.2964    14.6870    68.8103 </r>
       <r>   -18.1995    16.1574    70.3768 </r>
       <r>   -18.1025    18.0680    72.1286 </r>
       <r>   -18.0056    17.2591    73.8019 </r>
       <r>   -17.9086    14.3219    75.1905 </r>
       <r>   -17.8117    12.7046    76.4222 </r>
       <r>   -17.7147    13.1456    77.6967 </r>
       <r>   -17.6178    13.3193    78.9880 </r>
       <r>   -17.5208    12.5596    80.2057 </r>
       <r>   -17.4239    12.1330    81.3820 </r>
       <r>   -17.3269    12.1798    82.5629 </r>
       <r>   -17.2300    11.7411    83.7012 </r>
       <r>   -17.1330    10.7343    84.7420 </r>
       <r>   -17.0361    10.1520    85.7262 </r>
       <r>   -16.9391    10.1482    86.7101 </r>
       <r>   -16.8421     9.9096    87.6709 </r>
       <r>   -16.7452     9.8529    88.6261 </r>
       <r>   -16.6482    11.1536    89.7075 </r>
       <r>   -16.5513    13.5273    91.0190 </r>
       <r>   -16.4543    15.7040    92.5416 </r>
       <r>   -16.3574    16.9501    94.1849 </r>
       <r>   -16.2604    17.0586    95.8388 </r>
       <r>   -16.1635    16.2197    97.4113 </r>
       <r>   -16.0665    15.4017    98.9046 </r>
       <r>   -15.9696    15.4963   100.4070 </r>
       <r>   -15.8726    15.8940   101.9479 </r>
       <r>   -15.7757    15.3716   103.4383 </r>
       <r>   -15.6787    14.0249   104.7980 </r>
       <r>   -15.5818    12.7176   106.0310 </r>
       <r>   -15.4848    11.9936   107.1938 </r>
       <r>   -15.3879    12.7252   108.4276 </r>
       <r>   -15.2909    15.6763   109.9474 </r>
       <r>   -15.1940    19.8708   111.8740 </r>
       <r>   -15.0970    22.9553   114.0995 </r>
       <r>   -15.0000    23.3676   116.3651 </r>
       <r>   -14.9031    21.5320   118.4527 </r>
       <r>   -14.8061    18.6330   120.2592 </r>
       <r>   -14.7092    15.2084   121.7337 </r>
       <r>   -14.6122    11.8506   122.8826 </r>
       <r>   -14.5153     9.7465   123.8276 </r>
       <r>   -14.4183     9.5135   124.7500 </r>
       <r>   -14.3214    10.4582   125.7639 </r>
       <r>   -14.2244    11.4729   126.8762 </r>
       <r>   -14.1275    12.2106   128.0601 </r>
       <r>   -14.0305    12.9806   129.3186 </r>
       <r>   -13.9336    13.9604   130.6721 </r>
       <r>   -13.8366    14.9922   132.1256 </r>
       <r>   -13.7397    16.0653   133.6832 </r>
       <r>   -13.6427    17.3510   135.3654 </r>
       <r>   -13.5458    18.3877   137.1482 </r>
       <r>   -13.4488    18.6476   138.9561 </r>
       <r>   -13.3518    18.7735   140.7762 </r>
       <r>   -13.2549    19.3220   142.6496 </r>
       <r>   -13.1579    19.3874   144.5292 </r>
       <r>   -13.0610    18.1614   146.2900 </r>
       <r>   -12.9640    16.6496   147.9042 </r>
       <r>   -12.8671    16.0493   149.4603 </r>
       <r>   -12.7701    15.6150   150.9742 </r>
       <r>   -12.6732    14.1819   152.3492 </r>
       <r>   -12.5762    12.3391   153.5455 </r>
       <r>   -12.4793    11.7253   154.6823 </r>
       <r>   -12.3823    13.2091   155.9629 </r>
       <r>   -12.2854    16.2424   157.5377 </r>
       <r>   -12.1884    19.5884   159.4368 </r>
       <r>   -12.0915    22.2927   161.5982 </r>
       <r>   -11.9945    23.8137   163.9070 </r>
       <r>   -11.8976    24.0143   166.2352 </r>
       <r>   -11.8006    23.2624   168.4906 </r>
       <r>   -11.7037    21.8029   170.6044 </r>
       <r>   -11.6067    19.3837   172.4837 </r>
       <r>   -11.5097    16.6109   174.0942 </r>
       <r>   -11.4128    15.4834   175.5954 </r>
       <r>   -11.3158    16.9447   177.2382 </r>
       <r>   -11.2189    19.8411   179.1618 </r>
       <r>   -11.1219    23.5686   181.4469 </r>
       <r>   -11.0250    28.1553   184.1766 </r>
       <r>   -10.9280    31.7392   187.2538 </r>
       <r>   -10.8311    32.8856   190.4422 </r>
       <r>   -10.7341    33.4385   193.6841 </r>
       <r>   -10.6372    35.5471   197.1305 </r>
       <r>   -10.5402    38.4775   200.8610 </r>
       <r>   -10.4433    39.8043   204.7202 </r>
       <r>   -10.3463    38.5331   208.4561 </r>
       <r>   -10.2494    36.2131   211.9670 </r>
       <r>   -10.1524    34.8536   215.3462 </r>
       <r>   -10.0555    34.2561   218.6674 </r>
       <r>    -9.9585    32.8361   221.8509 </r>
       <r>    -9.8616    31.3029   224.8858 </r>
       <r>    -9.7646    32.2595   228.0135 </r>
       <r>    -9.6676    35.7509   231.4796 </r>
       <r>    -9.5707    38.8832   235.2495 </r>
       <r>    -9.4737    39.9948   239.1271 </r>
       <r>    -9.3768    39.7850   242.9843 </r>
       <r>    -9.2798    38.1198   246.6802 </r>
       <r>    -9.1829    34.3852   250.0139 </r>
       <r>    -9.0859    30.9418   253.0138 </r>
       <r>    -8.9890    30.9807   256.0174 </r>
       <r>    -8.8920    34.0065   259.3145 </r>
       <r>    -8.7951    37.1165   262.9130 </r>
       <r>    -8.6981    38.4374   266.6396 </r>
       <r>    -8.6012    37.5362   270.2788 </r>
       <r>    -8.5042    35.2307   273.6946 </r>
       <r>    -8.4073    32.8229   276.8768 </r>
       <r>    -8.3103    30.6847   279.8518 </r>
       <r>    -8.2134    28.6699   282.6314 </r>
       <r>    -8.1164    26.8632   285.2359 </r>
       <r>    -8.0194    25.6118   287.7190 </r>
       <r>    -7.9225    25.5546   290.1966 </r>
       <r>    -7.8255    26.9998   292.8143 </r>
       <r>    -7.7286    29.2541   295.6506 </r>
       <r>    -7.6316    30.9821   298.6544 </r>
       <r>    -7.5347    31.4180   301.7004 </r>
       <r>    -7.4377    30.9811   304.7041 </r>
       <r>    -7.3408    29.6538   307.5792 </r>
       <r>    -7.2438    26.9279   310.1899 </r>
       <r>    -7.1469    24.3747   312.5531 </r>
       <r>    -7.0499    24.1626   314.8957 </r>
       <r>    -6.9530    25.5757   317.3754 </r>
       <r>    -6.8560    26.7746   319.9712 </r>
       <r>    -6.7591    27.3466   322.6226 </r>
       <r>    -6.6621    26.8362   325.2244 </r>
       <r>    -6.5652    24.2575   327.5762 </r>
       <r>    -6.4682    20.5357   329.5672 </r>
       <r>    -6.3713    18.4814   331.3590 </r>
       <r>    -6.2743    18.9965   333.2008 </r>
       <r>    -6.1773    20.5138   335.1897 </r>
       <r>    -6.0804    22.4020   337.3616 </r>
       <r>    -5.9834    24.3359   339.7210 </r>
       <r>    -5.8865    24.7282   342.1185 </r>
       <r>    -5.7895    23.3334   344.3808 </r>
       <r>    -5.6926    21.4073   346.4563 </r>
       <r>    -5.5956    19.0421   348.3024 </r>
       <r>    -5.4987    15.5732   349.8123 </r>
       <r>    -5.4017    11.8391   350.9601 </r>
       <r>    -5.3048    10.0158   351.9312 </r>
       <r>    -5.2078    10.8611   352.9842 </r>
       <r>    -5.1109    12.2501   354.1719 </r>
       <r>    -5.0139    11.8001   355.3159 </r>
       <r>    -4.9170    10.2063   356.3055 </r>
       <r>    -4.8200     9.9090   357.2662 </r>
       <r>    -4.7231    11.4592   358.3772 </r>
       <r>    -4.6261    13.5246   359.6884 </r>
       <r>    -4.5292    14.8668   361.1298 </r>
       <r>    -4.4322    14.4348   362.5293 </r>
       <r>    -4.3352    11.7459   363.6681 </r>
       <r>    -4.2383     8.0888   364.4523 </r>
       <r>    -4.1413     5.1853   364.9550 </r>
       <r>    -4.0444     3.2234   365.2675 </r>
       <r>    -3.9474     1.8506   365.4470 </r>
       <r>    -3.8505     1.4457   365.5871 </r>
       <r>    -3.7535     2.4074   365.8205 </r>
       <r>    -3.6566     4.1474   366.2226 </r>
       <r>    -3.5596     5.1668   366.7236 </r>
       <r>    -3.4627     4.5752   367.1672 </r>
       <r>    -3.3657     3.3110   367.4882 </r>
       <r>    -3.2688     2.8386   367.7634 </r>
       <r>    -3.1718     3.1989   368.0735 </r>
       <r>    -3.0749     3.5666   368.4193 </r>
       <r>    -2.9779     3.7867   368.7864 </r>
       <r>    -2.8810     4.1444   369.1882 </r>
       <r>    -2.7840     5.0087   369.6739 </r>
       <r>    -2.6871     6.8246   370.3355 </r>
       <r>    -2.5901     8.7410   371.1830 </r>
       <r>    -2.4931     8.8785   372.0438 </r>
       <r>    -2.3962     7.2336   372.7451 </r>
       <r>    -2.2992     5.9991   373.3267 </r>
       <r>    -2.2023     6.3613   373.9435 </r>
       <r>    -2.1053     7.0724   374.6292 </r>
       <r>    -2.0084     6.7372   375.2824 </r>
       <r>    -1.9114     5.8473   375.8493 </r>
       <r>    -1.8145     6.2264   376.4529 </r>
       <r>    -1.7175     9.2209   377.3469 </r>
       <r>    -1.6206    14.2122   378.7248 </r>
       <r>    -1.5236    18.9049   380.5577 </r>
       <r>    -1.4267    21.5404   382.6461 </r>
       <r>    -1.3297    22.3096   384.8091 </r>
       <r>    -1.2328    22.0568   386.9476 </r>
       <r>    -1.1358    21.0220   388.9857 </r>
       <r>    -1.0389    19.2885   390.8558 </r>
       <r>    -0.9419    17.1143   392.5150 </r>
       <r>    -0.8449    14.7844   393.9484 </r>
       <r>    -0.7480    12.8607   395.1953 </r>
       <r>    -0.6510    12.1698   396.3752 </r>
       <r>    -0.5541    12.3820   397.5757 </r>
       <r>    -0.4571    12.0327   398.7423 </r>
       <r>    -0.3602    11.2238   399.8305 </r>
       <r>    -0.2632    11.6579   400.9607 </r>
       <r>    -0.1663    13.9478   402.3130 </r>
       <r>    -0.0693    17.2694   403.9873 </r>
       <r>     0.0276    20.3121   405.9566 </r>
       <r>     0.1246    21.9039   408.0803 </r>
       <r>     0.2215    21.9435   410.2077 </r>
       <r>     0.3185    21.0829   412.2518 </r>
       <r>     0.4154    19.8213   414.1735 </r>
       <r>     0.5124    19.1417   416.0293 </r>
       <r>     0.6093    20.4878   418.0157 </r>
       <r>     0.7063    23.9090   420.3337 </r>
       <r>     0.8032    27.7431   423.0235 </r>
       <r>     0.9002    30.6718   425.9972 </r>
       <r>     0.9972    33.3688   429.2324 </r>
       <r>     1.0941    37.0781   432.8272 </r>
       <r>     1.1911    41.8340   436.8832 </r>
       <r>     1.2880    46.7095   441.4118 </r>
       <r>     1.3850    49.7952   446.2396 </r>
       <r>     1.4819    49.3907   451.0281 </r>
       <r>     1.5789    45.2046   455.4108 </r>
       <r>     1.6758    37.4139   459.0382 </r>
       <r>     1.7728    26.6650   461.6235 </r>
       <r>     1.8697    15.3022   463.1070 </r>
       <r>     1.9667     6.6271   463.7496 </r>
       <r>     2.0636     2.0628   463.9496 </r>
       <r>     2.1606     0.4471   463.9929 </r>
       <r>     2.2575     0.0661   463.9993 </r>
       <r>     2.3545     0.0066   464.0000 </r>
       <r>     2.4514     0.0004   464.0000 </r>
       <r>     2.5484     0.0000   464.0000 </r>
       <r>     2.6453     0.0000   464.0000 </r>
       <r>     2.7423     0.0000   464.0000 </r>
       <r>     2.8393     0.0000   464.0000 </r>
       <r>     2.9362     0.0000   464.0000 </r>
       <r>     3.0332     0.0000   464.0000 </r>
       <r>     3.1301     0.0000   464.0000 </r>
       <r>     3.2271     0.0000   464.0000 </r>
       <r>     3.3240     0.0000   464.0000 </r>
       <r>     3.4210     0.0000   464.0000 </r>
       <r>     3.5179     0.0000   464.0000 </r>
       <r>     3.6149     0.0000   464.0000 </r>
       <r>     3.7118     0.0000   464.0000 </r>
       <r>     3.8088     0.0000   464.0000 </r>
      </set>
     </set>
    </array>
   </total>
  </dos>
 </calculation>
 <structure name="finalpos" >
  <crystal>
   <varray name="basis" >
    <v>      28.05000000       0.00000000       0.00000000 </v>
    <v>       0.00000000       8.10000000       0.00000000 </v>
    <v>       0.00000000       0.00000000      33.50000000 </v>
   </varray>
   <i name="volume">   7611.36750000 </i>
   <varray name="rec_basis" >
    <v>       0.03565062       0.00000000       0.00000000 </v>
    <v>       0.00000000       0.12345679       0.00000000 </v>
    <v>       0.00000000       0.00000000       0.02985075 </v>
   </varray>
  </crystal>
  <varray name="positions" >
   <v>       0.00729437       0.11166815       0.49466269 </v>
   <v>       0.00986364       0.28259630       0.49291045 </v>
   <v>       0.05215365       0.03545840       0.50074030 </v>
   <v>       0.05251480       0.36609136       0.49810149 </v>
   <v>       0.09449697       0.11762111       0.51560299 </v>
   <v>       0.09445918       0.28735309       0.51464179 </v>
   <v>       0.13833761       0.03045321       0.52590149 </v>
   <v>       0.13869305       0.36796049       0.52056119 </v>
   <v>       0.18219002       0.11458333       0.53482985 </v>
   <v>       0.18329697       0.28357160       0.53018209 </v>
   <v>       0.22619501       0.02758901       0.54154328 </v>
   <v>       0.22813975       0.36131235       0.52967761 </v>
   <v>       0.27136364       0.11147395       0.54375522 </v>
   <v>       0.27126488       0.28150617       0.53538806 </v>
   <v>       0.31605241       0.03386654       0.54157910 </v>
   <v>       0.31433476       0.35890741       0.52828060 </v>
   <v>       0.36053476       0.11447840       0.53500896 </v>
   <v>       0.36048485       0.27980247       0.52814030 </v>
   <v>       0.40442424       0.03154691       0.53205373 </v>
   <v>       0.40539037       0.36255679       0.52317313 </v>
   <v>       0.44966488       0.10914654       0.52290746 </v>
   <v>       0.44885205       0.27338519       0.52189851 </v>
   <v>       0.49034938       0.02183889       0.50995821 </v>
   <v>       0.49299822       0.34780494       0.50958209 </v>
   <v>       0.53346524       0.10209556       0.49580597 </v>
   <v>       0.53383601       0.26446173       0.49787463 </v>
   <v>       0.57599287       0.02018395       0.48382985 </v>
   <v>       0.57756506       0.35122840       0.48271940 </v>
   <v>       0.62194296       0.10738593       0.47281791 </v>
   <v>       0.61944029       0.27722469       0.46977612 </v>
   <v>       0.65942246       0.03076185       0.45336716 </v>
   <v>       0.65877005       0.36242963       0.45109552 </v>
   <v>       0.70238146       0.11092852       0.43977015 </v>
   <v>       0.70025312       0.28235679       0.44071343 </v>
   <v>       0.74488770       0.03298123       0.43660299 </v>
   <v>       0.74526203       0.36283333       0.43726567 </v>
   <v>       0.79106595       0.11566086       0.43978209 </v>
   <v>       0.78889127       0.28252593       0.43918209 </v>
   <v>       0.83498039       0.03512642       0.44526866 </v>
   <v>       0.83540463       0.36420000       0.44213731 </v>
   <v>       0.87913369       0.11517852       0.44942985 </v>
   <v>       0.87852763       0.28685432       0.45167164 </v>
   <v>       0.92155793       0.03881790       0.45825970 </v>
   <v>       0.92239572       0.36877037       0.45860896 </v>
   <v>       0.96083066       0.12070346       0.47517910 </v>
   <v>       0.96362210       0.28659383       0.47309254 </v>
   <v>       0.01582460       0.61914074       0.47452537 </v>
   <v>       0.01451312       0.78587284       0.47515224 </v>
   <v>       0.05493904       0.52583951       0.48828060 </v>
   <v>       0.05413619       0.86611605       0.49314627 </v>
   <v>       0.09662068       0.61079630       0.49745672 </v>
   <v>       0.09836791       0.77932840       0.49757015 </v>
   <v>       0.13931800       0.53398889       0.51226567 </v>
   <v>       0.13905419       0.86621975       0.51512836 </v>
   <v>       0.18370410       0.61034074       0.51800299 </v>
   <v>       0.18270945       0.77861235       0.52159701 </v>
   <v>       0.22779358       0.53436543       0.52658209 </v>
   <v>       0.22411979       0.86113333       0.53325672 </v>
   <v>       0.27238645       0.61353457       0.52745970 </v>
   <v>       0.27060535       0.78510988       0.53151940 </v>
   <v>       0.31680463       0.52791481       0.52625373 </v>
   <v>       0.31388984       0.86302716       0.53953731 </v>
   <v>       0.36172906       0.61246296       0.52944776 </v>
   <v>       0.35945811       0.77879012       0.53591940 </v>
   <v>       0.40493048       0.53047407       0.52322388 </v>
   <v>       0.40462745       0.86474321       0.53229552 </v>
   <v>       0.44890196       0.61001481       0.51713731 </v>
   <v>       0.44967914       0.77879506       0.52287761 </v>
   <v>       0.49062032       0.52150864       0.50614030 </v>
   <v>       0.49288414       0.85601728       0.51137015 </v>
   <v>       0.53122995       0.60314321       0.49375522 </v>
   <v>       0.53411408       0.76936049       0.49542687 </v>
   <v>       0.57385027       0.52045432       0.48088060 </v>
   <v>       0.57586096       0.85227284       0.48194328 </v>
   <v>       0.61698396       0.60424321       0.46603284 </v>
   <v>       0.61625312       0.77300247       0.46588060 </v>
   <v>       0.65801783       0.53162716       0.45231343 </v>
   <v>       0.65867023       0.86060123       0.45504179 </v>
   <v>       0.70288770       0.61384074       0.44765672 </v>
   <v>       0.70329412       0.78138395       0.44838209 </v>
   <v>       0.74661319       0.53302716       0.44059701 </v>
   <v>       0.74794652       0.86964691       0.44519104 </v>
   <v>       0.79085205       0.61539506       0.44042090 </v>
   <v>       0.79217825       0.78662099       0.44469552 </v>
   <v>       0.83560428       0.53328272       0.44057612 </v>
   <v>       0.83617825       0.86568272       0.44175224 </v>
   <v>       0.88142959       0.61437531       0.44652239 </v>
   <v>       0.87970766       0.78461605       0.44525672 </v>
   <v>       0.92465954       0.53442222       0.45113433 </v>
   <v>       0.92303387       0.87009136       0.45295522 </v>
   <v>       0.96733333       0.61871235       0.45773134 </v>
   <v>       0.96682709       0.78853086       0.45928955 </v>
  </varray>
 </structure>
</modeling>
