unknown system                          
            1
    28.050000    0.000000    0.000000
     0.000000    8.100000    0.000000
     0.000000    0.000000   33.500000
   C 
    92
Direct configuration=     1
   0.00729437  0.11166815  0.49466269
   0.00986364  0.28259630  0.49291045
   0.05215365  0.03545840  0.50074030
   0.05251480  0.36609136  0.49810149
   0.09449697  0.11762111  0.51560299
   0.09445918  0.28735309  0.51464179
   0.13833761  0.03045321  0.52590149
   0.13869305  0.36796049  0.52056119
   0.18219002  0.11458333  0.53482985
   0.18329697  0.28357160  0.53018209
   0.22619501  0.02758901  0.54154328
   0.22813975  0.36131235  0.52967761
   0.27136364  0.11147395  0.54375522
   0.27126488  0.28150617  0.53538806
   0.31605241  0.03386654  0.54157910
   0.31433476  0.35890741  0.52828060
   0.36053476  0.11447840  0.53500896
   0.36048485  0.27980247  0.52814030
   0.40442424  0.03154691  0.53205373
   0.40539037  0.36255679  0.52317313
   0.44966488  0.10914654  0.52290746
   0.44885205  0.27338519  0.52189851
   0.49034938  0.02183889  0.50995821
   0.49299822  0.34780494  0.50958209
   0.53346524  0.10209556  0.49580597
   0.53383601  0.26446173  0.49787463
   0.57599287  0.02018395  0.48382985
   0.57756506  0.35122840  0.48271940
   0.62194296  0.10738593  0.47281791
   0.61944029  0.27722469  0.46977612
   0.65942246  0.03076185  0.45336716
   0.65877005  0.36242963  0.45109552
   0.70238146  0.11092852  0.43977015
   0.70025312  0.28235679  0.44071343
   0.74488770  0.03298123  0.43660299
   0.74526203  0.36283333  0.43726567
   0.79106595  0.11566086  0.43978209
   0.78889127  0.28252593  0.43918209
   0.83498039  0.03512642  0.44526866
   0.83540463  0.36420000  0.44213731
   0.87913369  0.11517852  0.44942985
   0.87852763  0.28685432  0.45167164
   0.92155793  0.03881790  0.45825970
   0.92239572  0.36877037  0.45860896
   0.96083066  0.12070346  0.47517910
   0.96362210  0.28659383  0.47309254
   0.01582460  0.61914074  0.47452537
   0.01451312  0.78587284  0.47515224
   0.05493904  0.52583951  0.48828060
   0.05413619  0.86611605  0.49314627
   0.09662068  0.61079630  0.49745672
   0.09836791  0.77932840  0.49757015
   0.13931800  0.53398889  0.51226567
   0.13905419  0.86621975  0.51512836
   0.18370410  0.61034074  0.51800299
   0.18270945  0.77861235  0.52159701
   0.22779358  0.53436543  0.52658209
   0.22411979  0.86113333  0.53325672
   0.27238645  0.61353457  0.52745970
   0.27060535  0.78510988  0.53151940
   0.31680463  0.52791481  0.52625373
   0.31388984  0.86302716  0.53953731
   0.36172906  0.61246296  0.52944776
   0.35945811  0.77879012  0.53591940
   0.40493048  0.53047407  0.52322388
   0.40462745  0.86474321  0.53229552
   0.44890196  0.61001481  0.51713731
   0.44967914  0.77879506  0.52287761
   0.49062032  0.52150864  0.50614030
   0.49288414  0.85601728  0.51137015
   0.53122995  0.60314321  0.49375522
   0.53411408  0.76936049  0.49542687
   0.57385027  0.52045432  0.48088060
   0.57586096  0.85227284  0.48194328
   0.61698396  0.60424321  0.46603284
   0.61625312  0.77300247  0.46588060
   0.65801783  0.53162716  0.45231343
   0.65867023  0.86060123  0.45504179
   0.70288770  0.61384074  0.44765672
   0.70329412  0.78138395  0.44838209
   0.74661319  0.53302716  0.44059701
   0.74794652  0.86964691  0.44519104
   0.79085205  0.61539506  0.44042090
   0.79217825  0.78662099  0.44469552
   0.83560428  0.53328272  0.44057612
   0.83617825  0.86568272  0.44175224
   0.88142959  0.61437531  0.44652239
   0.87970766  0.78461605  0.44525672
   0.92465954  0.53442222  0.45113433
   0.92303387  0.87009136  0.45295522
   0.96733333  0.61871235  0.45773134
   0.96682709  0.78853086  0.45928955
