  92  92   0   0
  0.8273226E+02  0.2805000E-08  0.8100000E-09  0.3350000E-08  0.5000000E-15
   1.0000000000000000E-004
  CAR 
 unknown system                          
      3.83605276    -25.22691621  301     -3.15923514      1.00000000
    -25.227  0.0000E+00  0.0000E+00
    -25.130  0.0000E+00  0.0000E+00
    -25.033  0.0000E+00  0.0000E+00
    -24.936  0.0000E+00  0.0000E+00
    -24.839  0.0000E+00  0.0000E+00
    -24.743  0.0000E+00  0.0000E+00
    -24.646  0.0000E+00  0.0000E+00
    -24.549  0.0000E+00  0.0000E+00
    -24.452  0.0000E+00  0.0000E+00
    -24.355  0.4011E-14  0.3886E-15
    -24.258  0.8062E-12  0.7849E-13
    -24.161  0.1046E-09  0.1022E-10
    -24.064  0.8611E-08  0.8444E-09
    -23.968  0.4511E-06  0.4455E-07
    -23.871  0.1512E-04  0.1509E-05
    -23.774  0.3263E-03  0.3312E-04
    -23.677  0.4573E-02  0.4761E-03
    -23.580  0.4204E-01  0.4549E-02
    -23.483  0.2571E+00  0.2946E-01
    -23.386  0.1065E+01  0.1327E+00
    -23.289  0.3067E+01  0.4298E+00
    -23.193  0.6353E+01  0.1045E+01
    -23.096  0.9906E+01  0.2005E+01
    -22.999  0.1229E+02  0.3195E+01
    -22.902  0.1315E+02  0.4469E+01
    -22.805  0.1375E+02  0.5801E+01
    -22.708  0.1523E+02  0.7277E+01
    -22.611  0.1657E+02  0.8882E+01
    -22.514  0.1592E+02  0.1042E+02
    -22.417  0.1362E+02  0.1174E+02
    -22.321  0.1203E+02  0.1291E+02
    -22.224  0.1239E+02  0.1411E+02
    -22.127  0.1355E+02  0.1542E+02
    -22.030  0.1410E+02  0.1679E+02
    -21.933  0.1399E+02  0.1814E+02
    -21.836  0.1368E+02  0.1947E+02
    -21.739  0.1309E+02  0.2074E+02
    -21.642  0.1216E+02  0.2191E+02
    -21.546  0.1153E+02  0.2303E+02
    -21.449  0.1164E+02  0.2416E+02
    -21.352  0.1230E+02  0.2535E+02
    -21.255  0.1343E+02  0.2665E+02
    -21.158  0.1498E+02  0.2810E+02
    -21.061  0.1603E+02  0.2966E+02
    -20.964  0.1525E+02  0.3113E+02
    -20.867  0.1312E+02  0.3240E+02
    -20.771  0.1193E+02  0.3356E+02
    -20.674  0.1259E+02  0.3478E+02
    -20.577  0.1366E+02  0.3610E+02
    -20.480  0.1383E+02  0.3744E+02
    -20.383  0.1335E+02  0.3874E+02
    -20.286  0.1311E+02  0.4000E+02
    -20.189  0.1353E+02  0.4132E+02
    -20.092  0.1437E+02  0.4271E+02
    -19.996  0.1498E+02  0.4416E+02
    -19.899  0.1480E+02  0.4559E+02
    -19.802  0.1371E+02  0.4692E+02
    -19.705  0.1310E+02  0.4819E+02
    -19.608  0.1464E+02  0.4961E+02
    -19.511  0.1684E+02  0.5124E+02
    -19.414  0.1653E+02  0.5284E+02
    -19.317  0.1372E+02  0.5417E+02
    -19.221  0.1166E+02  0.5530E+02
    -19.124  0.1224E+02  0.5648E+02
    -19.027  0.1389E+02  0.5783E+02
    -18.930  0.1442E+02  0.5923E+02
    -18.833  0.1386E+02  0.6057E+02
    -18.736  0.1387E+02  0.6191E+02
    -18.639  0.1534E+02  0.6340E+02
    -18.542  0.1701E+02  0.6505E+02
    -18.446  0.1740E+02  0.6673E+02
    -18.349  0.1722E+02  0.6840E+02
    -18.252  0.1781E+02  0.7013E+02
    -18.155  0.1839E+02  0.7191E+02
    -18.058  0.1725E+02  0.7358E+02
    -17.961  0.1460E+02  0.7499E+02
    -17.864  0.1246E+02  0.7620E+02
    -17.767  0.1208E+02  0.7737E+02
    -17.671  0.1256E+02  0.7859E+02
    -17.574  0.1262E+02  0.7981E+02
    -17.477  0.1216E+02  0.8099E+02
    -17.380  0.1147E+02  0.8210E+02
    -17.283  0.1099E+02  0.8316E+02
    -17.186  0.1142E+02  0.8427E+02
    -17.089  0.1236E+02  0.8547E+02
    -16.992  0.1230E+02  0.8666E+02
    -16.896  0.1098E+02  0.8772E+02
    -16.799  0.9941E+01  0.8869E+02
    -16.702  0.1050E+02  0.8970E+02
    -16.605  0.1241E+02  0.9090E+02
    -16.508  0.1440E+02  0.9230E+02
    -16.411  0.1572E+02  0.9382E+02
    -16.314  0.1648E+02  0.9542E+02
    -16.217  0.1693E+02  0.9706E+02
    -16.121  0.1717E+02  0.9872E+02
    -16.024  0.1710E+02  0.1004E+03
    -15.927  0.1609E+02  0.1019E+03
    -15.830  0.1406E+02  0.1033E+03
    -15.733  0.1202E+02  0.1045E+03
    -15.636  0.1099E+02  0.1055E+03
    -15.539  0.1139E+02  0.1066E+03
    -15.442  0.1364E+02  0.1080E+03
    -15.346  0.1749E+02  0.1096E+03
    -15.249  0.2093E+02  0.1117E+03
    -15.152  0.2237E+02  0.1138E+03
    -15.055  0.2209E+02  0.1160E+03
    -14.958  0.2053E+02  0.1180E+03
    -14.861  0.1783E+02  0.1197E+03
    -14.764  0.1461E+02  0.1211E+03
    -14.667  0.1190E+02  0.1223E+03
    -14.570  0.1050E+02  0.1233E+03
    -14.474  0.1017E+02  0.1243E+03
    -14.377  0.1005E+02  0.1252E+03
    -14.280  0.1014E+02  0.1262E+03
    -14.183  0.1125E+02  0.1273E+03
    -14.086  0.1333E+02  0.1286E+03
    -13.989  0.1507E+02  0.1301E+03
    -13.892  0.1580E+02  0.1316E+03
    -13.795  0.1641E+02  0.1332E+03
    -13.699  0.1735E+02  0.1349E+03
    -13.602  0.1791E+02  0.1366E+03
    -13.505  0.1823E+02  0.1384E+03
    -13.408  0.1933E+02  0.1402E+03
    -13.311  0.2078E+02  0.1423E+03
    -13.214  0.2063E+02  0.1443E+03
    -13.117  0.1768E+02  0.1460E+03
    -13.020  0.1384E+02  0.1473E+03
    -12.924  0.1231E+02  0.1485E+03
    -12.827  0.1339E+02  0.1498E+03
    -12.730  0.1479E+02  0.1512E+03
    -12.633  0.1512E+02  0.1527E+03
    -12.536  0.1484E+02  0.1541E+03
    -12.439  0.1474E+02  0.1556E+03
    -12.342  0.1520E+02  0.1570E+03
    -12.245  0.1698E+02  0.1587E+03
    -12.149  0.2062E+02  0.1607E+03
    -12.052  0.2444E+02  0.1630E+03
    -11.955  0.2609E+02  0.1656E+03
    -11.858  0.2496E+02  0.1680E+03
    -11.761  0.2183E+02  0.1701E+03
    -11.664  0.1800E+02  0.1718E+03
    -11.567  0.1500E+02  0.1733E+03
    -11.470  0.1416E+02  0.1747E+03
    -11.374  0.1566E+02  0.1762E+03
    -11.277  0.1873E+02  0.1780E+03
    -11.180  0.2264E+02  0.1802E+03
    -11.083  0.2700E+02  0.1828E+03
    -10.986  0.3124E+02  0.1858E+03
    -10.889  0.3439E+02  0.1892E+03
    -10.792  0.3562E+02  0.1926E+03
    -10.695  0.3541E+02  0.1961E+03
    -10.599  0.3561E+02  0.1995E+03
    -10.502  0.3723E+02  0.2031E+03
    -10.405  0.3865E+02  0.2069E+03
    -10.308  0.3797E+02  0.2105E+03
    -10.211  0.3596E+02  0.2140E+03
    -10.114  0.3460E+02  0.2174E+03
    -10.017  0.3399E+02  0.2207E+03
     -9.920  0.3317E+02  0.2239E+03
     -9.824  0.3289E+02  0.2271E+03
     -9.727  0.3463E+02  0.2304E+03
     -9.630  0.3800E+02  0.2341E+03
     -9.533  0.4085E+02  0.2381E+03
     -9.436  0.4157E+02  0.2421E+03
     -9.339  0.3983E+02  0.2459E+03
     -9.242  0.3586E+02  0.2494E+03
     -9.145  0.3141E+02  0.2525E+03
     -9.049  0.2932E+02  0.2553E+03
     -8.952  0.3054E+02  0.2583E+03
     -8.855  0.3349E+02  0.2615E+03
     -8.758  0.3608E+02  0.2650E+03
     -8.661  0.3700E+02  0.2686E+03
     -8.564  0.3610E+02  0.2721E+03
     -8.467  0.3403E+02  0.2754E+03
     -8.370  0.3164E+02  0.2784E+03
     -8.274  0.2994E+02  0.2813E+03
     -8.177  0.2921E+02  0.2842E+03
     -8.080  0.2875E+02  0.2870E+03
     -7.983  0.2814E+02  0.2897E+03
     -7.886  0.2730E+02  0.2923E+03
     -7.789  0.2609E+02  0.2949E+03
     -7.692  0.2541E+02  0.2973E+03
     -7.595  0.2639E+02  0.2999E+03
     -7.499  0.2821E+02  0.3026E+03
     -7.402  0.2903E+02  0.3054E+03
     -7.305  0.2817E+02  0.3081E+03
     -7.208  0.2642E+02  0.3107E+03
     -7.111  0.2519E+02  0.3131E+03
     -7.014  0.2534E+02  0.3156E+03
     -6.917  0.2610E+02  0.3181E+03
     -6.820  0.2636E+02  0.3207E+03
     -6.723  0.2613E+02  0.3232E+03
     -6.627  0.2516E+02  0.3257E+03
     -6.530  0.2294E+02  0.3279E+03
     -6.433  0.2056E+02  0.3299E+03
     -6.336  0.1972E+02  0.3318E+03
     -6.239  0.1999E+02  0.3337E+03
     -6.142  0.2049E+02  0.3357E+03
     -6.045  0.2205E+02  0.3378E+03
     -5.948  0.2470E+02  0.3402E+03
     -5.852  0.2624E+02  0.3428E+03
     -5.755  0.2517E+02  0.3452E+03
     -5.658  0.2208E+02  0.3473E+03
     -5.561  0.1807E+02  0.3491E+03
     -5.464  0.1383E+02  0.3504E+03
     -5.367  0.1061E+02  0.3515E+03
     -5.270  0.1012E+02  0.3524E+03
     -5.173  0.1178E+02  0.3536E+03
     -5.077  0.1255E+02  0.3548E+03
     -4.980  0.1103E+02  0.3559E+03
     -4.883  0.9206E+01  0.3568E+03
     -4.786  0.9255E+01  0.3577E+03
     -4.689  0.1125E+02  0.3587E+03
     -4.592  0.1392E+02  0.3601E+03
     -4.495  0.1555E+02  0.3616E+03
     -4.398  0.1438E+02  0.3630E+03
     -4.302  0.1059E+02  0.3640E+03
     -4.205  0.6714E+01  0.3647E+03
     -4.108  0.4272E+01  0.3651E+03
     -4.011  0.2742E+01  0.3654E+03
     -3.914  0.1884E+01  0.3655E+03
     -3.817  0.2175E+01  0.3657E+03
     -3.720  0.3422E+01  0.3661E+03
     -3.623  0.4542E+01  0.3665E+03
     -3.527  0.4548E+01  0.3670E+03
     -3.430  0.3449E+01  0.3673E+03
     -3.333  0.2346E+01  0.3675E+03
     -3.236  0.2354E+01  0.3677E+03
     -3.139  0.3423E+01  0.3681E+03
     -3.042  0.4548E+01  0.3685E+03
     -2.945  0.4874E+01  0.3690E+03
     -2.848  0.4604E+01  0.3694E+03
     -2.752  0.4788E+01  0.3699E+03
     -2.655  0.5670E+01  0.3705E+03
     -2.558  0.6238E+01  0.3711E+03
     -2.461  0.6220E+01  0.3717E+03
     -2.364  0.6459E+01  0.3723E+03
     -2.267  0.7205E+01  0.3730E+03
     -2.170  0.8074E+01  0.3738E+03
     -2.073  0.8480E+01  0.3746E+03
     -1.977  0.7661E+01  0.3753E+03
     -1.880  0.6248E+01  0.3759E+03
     -1.783  0.6588E+01  0.3766E+03
     -1.686  0.1010E+02  0.3776E+03
     -1.589  0.1568E+02  0.3791E+03
     -1.492  0.2067E+02  0.3811E+03
     -1.395  0.2281E+02  0.3833E+03
     -1.298  0.2183E+02  0.3854E+03
     -1.202  0.1963E+02  0.3873E+03
     -1.105  0.1849E+02  0.3891E+03
     -1.008  0.1857E+02  0.3909E+03
     -0.911  0.1785E+02  0.3926E+03
     -0.814  0.1554E+02  0.3941E+03
     -0.717  0.1333E+02  0.3954E+03
     -0.620  0.1260E+02  0.3966E+03
     -0.523  0.1253E+02  0.3978E+03
     -0.427  0.1181E+02  0.3990E+03
     -0.330  0.1140E+02  0.4001E+03
     -0.233  0.1331E+02  0.4014E+03
     -0.136  0.1665E+02  0.4030E+03
     -0.039  0.1854E+02  0.4048E+03
      0.058  0.1871E+02  0.4066E+03
      0.155  0.1913E+02  0.4085E+03
      0.252  0.2043E+02  0.4104E+03
      0.348  0.2133E+02  0.4125E+03
      0.445  0.2080E+02  0.4145E+03
      0.542  0.1991E+02  0.4165E+03
      0.639  0.2077E+02  0.4185E+03
      0.736  0.2393E+02  0.4208E+03
      0.833  0.2782E+02  0.4235E+03
      0.930  0.3104E+02  0.4265E+03
      1.027  0.3458E+02  0.4298E+03
      1.124  0.3960E+02  0.4337E+03
      1.220  0.4495E+02  0.4380E+03
      1.317  0.4908E+02  0.4428E+03
      1.414  0.5087E+02  0.4477E+03
      1.511  0.4907E+02  0.4525E+03
      1.608  0.4307E+02  0.4566E+03
      1.705  0.3374E+02  0.4599E+03
      1.802  0.2277E+02  0.4621E+03
      1.899  0.1245E+02  0.4633E+03
      1.995  0.5161E+01  0.4638E+03
      2.092  0.1552E+01  0.4640E+03
      2.189  0.3299E+00  0.4640E+03
      2.286  0.4883E-01  0.4640E+03
      2.383  0.4953E-02  0.4640E+03
      2.480  0.3384E-03  0.4640E+03
      2.577  0.1530E-04  0.4640E+03
      2.674  0.4508E-06  0.4640E+03
      2.770  0.8560E-08  0.4640E+03
      2.867  0.1039E-09  0.4640E+03
      2.964  0.7993E-12  0.4640E+03
      3.061  0.4011E-14  0.4640E+03
      3.158  0.0000E+00  0.4640E+03
      3.255  0.0000E+00  0.4640E+03
      3.352  0.0000E+00  0.4640E+03
      3.449  0.0000E+00  0.4640E+03
      3.545  0.0000E+00  0.4640E+03
      3.642  0.0000E+00  0.4640E+03
      3.739  0.0000E+00  0.4640E+03
      3.836  0.0000E+00  0.4640E+03
