 vasp.6.5.0 16Dec24 (build Feb 19 2025 19:45:31) complex                         
 executed on              LinuxNV date 2025.10.25  16:16:38
 running    2 mpi-ranks, on    1 nodes
 distrk:  each k-point on    2 cores,    1 groups
 distr:  one band on NCORE=   1 cores,    2 groups
 Offloading initialized ...    2 GPUs detected


--------------------------------------------------------------------------------------------------------


 INCAR:
   ISTART = 0            (Not Read existing wavefunction
   ISPIN = 1            (Non-Spin polarised DFT, Default\=1)
   ICHARG = 2            (The initial guess charge density is generated by superposition of atomic charge density)
   LREAL = Auto         (Projection operators: automatic)
   ENCUT = 500          (Cut-off energy for plane wave basis set, in eV)
   LWAVE = .FALSE.       (Write WAVECAR or not)
   LCHARG = .FALSE.       (Write CHGCAR or not)
   PREC = Accurate   (Precision level)
   KGAMMA = .TRUE.
   ALGO = Normal
   NSW = 0           (Default: NSW \= 0)
   IBRION = -1           (Ions are not moved)
   ISMEAR = 0
   EDIFF = 1E-06        (SCF energy convergence
   NELM = 150          (Max electronic SCF steps)

 POTCAR:    PAW_PBE C 08Apr2002                   
 POTCAR:    PAW_PBE C 08Apr2002                   
   SHA256 =  253f7b50bb8d59471dbedb8285d89021f4a42ed1a2c5d38a03a736e69125dd95 C/POTCAR              
   COPYR  = (c) Copyright 08Apr2002 Georg Kresse                                                    
   COPYR  = This file is part of the software VASP. Any use, copying, and all other rights are regul
   COPYR  = If you do not have a valid VASP license, you may not use, copy or distribute this file. 
   VRHFIN =C: s2p2                                                                                  
   LEXCH  = PE                                                                                      
   EATOM  =   147.1560 eV,   10.8157 Ry                                                             
                                                                                                    
   TITEL  = PAW_PBE C 08Apr2002                                                                     
   LULTRA =        F    use ultrasoft PP ?                                                          
   IUNSCR =        1    unscreen: 0-lin 1-nonlin 2-no                                               
   RPACOR =    1.200    partial core radius                                                         
   POMASS =   12.011; ZVAL   =    4.000    mass and valenz                                          
   RCORE  =    1.500    outmost cutoff radius                                                       
   RWIGS  =    1.630; RWIGS  =    0.863    wigner-seitz radius (au A)                               
   ENMAX  =  400.000; ENMIN  =  300.000 eV                                                          
   ICORE  =        2    local potential                                                             
   LCOR   =        T    correct aug charges                                                         
   LPAW   =        T    paw PP                                                                      
   EAUG   =  644.873                                                                                
   DEXC   =    0.000                                                                                
   RMAX   =    1.529    core radius for proj-oper                                                   
   RAUG   =    1.300    factor for augmentation sphere                                              
   RDEP   =    1.501    radius for radial grids                                                     
   RDEPT  =    1.300    core radius for aug-charge                                                  
                                                                                                    
   Atomic configuration                                                                             
    4 entries                                                                                       
     n  l   j            E        occ.                                                              
     1  0  0.50      -273.3789   2.0000                                                             
     2  0  0.50       -13.7508   2.0000                                                             
     2  1  0.50        -5.2854   2.0000                                                             
     3  2  1.50        -5.4423   0.0000                                                             
   Description                                                                                      
     l       E           TYP  RCUT    TYP  RCUT                                                     
     0    -13.7508458     23  1.200                                                                 
     0     -8.2022199     23  1.200                                                                 
     1     -5.2854383     23  1.500                                                                 
     1     34.0145650     23  1.500                                                                 
     2     -5.4423304      7  1.500                                                                 
  local pseudopotential read in
  partial core-charges read in
  partial kinetic energy density read in
  atomic valenz-charges read in
  non local Contribution for L=            0  read in
    real space projection operators read in
  non local Contribution for L=            0  read in
    real space projection operators read in
  non local Contribution for L=            1  read in
    real space projection operators read in
  non local Contribution for L=            1  read in
    real space projection operators read in
    PAW grid and wavefunctions read in
 
   number of l-projection  operators is LMAX  =            4
   number of lm-projection operators is LMMAX =            8
 
 Optimization of the real space projectors (new method)

 maximal supplied QI-value         = 25.13
 optimisation between [QCUT,QGAM] = [ 11.31, 22.87] = [ 35.82,146.48] Ry 
 Optimized for a Real-space Cutoff    1.03 Angstroem

   l    n(q)    QCUT    max X(q) W(low)/X(q) W(high)/X(q)  e(spline) 
   0      7    11.310   115.676    0.20E-03    0.90E-03    0.20E-06
   0      7    11.310    87.132    0.20E-03    0.89E-03    0.19E-06
   1      6    11.310     4.429    0.16E-03    0.28E-03    0.12E-06
   1      6    11.310     2.733    0.12E-03    0.21E-03    0.99E-07
  PAW_PBE C 08Apr2002                   :
 energy of atom  1       EATOM= -147.1560
 kinetic energy error for atom=    0.0076 (will be added to EATOM!!)
 
 
 POSCAR:  C
  positions in cartesian coordinates
  No initial velocities read in


 exchange-correlation table for PE
   RHO(1)=    0.500       N(1)  =     2000
   RHO(2)=  100.500       N(2)  =     4000
 


--------------------------------------------------------------------------------------------------------


 ion  position               nearest neighbor table
   1  0.002  0.097  0.481-   3 1.37   2 1.38  45 1.45  46 2.06
   2  0.003  0.268  0.484-   4 1.38   1 1.38  46 1.45  45 1.93
   3  0.043  0.011  0.477-   1 1.37  50 1.39   5 1.46
   4  0.046  0.353  0.481-  49 1.37   2 1.38   6 1.44
   5  0.087  0.098  0.467-   6 1.37   7 1.41   3 1.46
   6  0.088  0.267  0.470-   5 1.37   8 1.43   4 1.44
   7  0.131  0.018  0.459-  54 1.37   9 1.39   5 1.41
   8  0.132  0.356  0.467-  53 1.37   6 1.43  10 1.44
   9  0.174  0.099  0.454-   7 1.39  10 1.39  11 1.44
  10  0.175  0.271  0.456-   9 1.39  12 1.41   8 1.44
  11  0.221  0.026  0.459-  58 1.38   9 1.44  13 1.47
  12  0.219  0.357  0.455-  57 1.36  10 1.41  14 1.43
  13  0.268  0.105  0.455-  15 1.36  14 1.38  11 1.47
  14  0.264  0.275  0.455-  13 1.38  12 1.43  16 1.48
  15  0.311  0.028  0.457-  13 1.36  62 1.39  17 1.42
  16  0.311  0.357  0.460-  61 1.37  18 1.40  14 1.48
  17  0.355  0.109  0.464-  18 1.34  15 1.42  19 1.45
  18  0.355  0.274  0.464-  17 1.34  16 1.40  20 1.46
  19  0.399  0.021  0.471-  66 1.37  21 1.42  17 1.45
  20  0.398  0.359  0.477-  65 1.35  22 1.39  18 1.46
  21  0.440  0.106  0.485-  22 1.39  23 1.42  19 1.42
  22  0.439  0.277  0.490-  20 1.39  21 1.39  24 1.41
  23  0.485  0.029  0.492-  70 1.36  25 1.39  21 1.42
  24  0.480  0.356  0.504-  69 1.38  22 1.41  26 1.41
  25  0.525  0.107  0.508-  26 1.35  27 1.38  23 1.39
  26  0.523  0.273  0.511-  25 1.35  24 1.41  28 1.42
  27  0.567  0.028  0.517-  25 1.38  74 1.41  29 1.43
  28  0.567  0.354  0.520-  73 1.34  30 1.41  26 1.42
  29  0.612  0.105  0.526-  30 1.37  31 1.40  27 1.43
  30  0.608  0.271  0.532-  29 1.37  28 1.41  32 1.45
  31  0.655  0.024  0.530-  78 1.37  29 1.40  33 1.43
  32  0.654  0.354  0.535-  77 1.33  30 1.45  34 1.46
  33  0.700  0.109  0.534-  34 1.34  35 1.41  31 1.43
  34  0.701  0.274  0.537-  33 1.34  36 1.38  32 1.46
  35  0.743  0.023  0.536-  82 1.38  37 1.40  33 1.41
  36  0.743  0.353  0.544-  81 1.36  34 1.38  38 1.41
  37  0.787  0.105  0.532-  35 1.40  38 1.40  39 1.42
  38  0.788  0.275  0.540-  37 1.40  40 1.40  36 1.41
  39  0.831  0.020  0.531-  41 1.40  86 1.40  37 1.42
  40  0.831  0.357  0.532-  85 1.36  42 1.39  38 1.40
  41  0.872  0.105  0.518-  42 1.37  39 1.40  43 1.42
  42  0.871  0.274  0.518-  41 1.37  40 1.39  44 1.40
  43  0.916  0.020  0.514-  90 1.40  41 1.42  45 1.42
  44  0.914  0.358  0.514-  42 1.40  89 1.40  46 1.42
  45  0.953  0.111  0.495-  46 1.37  43 1.42   1 1.45   2 1.93
  46  0.953  0.280  0.495-  45 1.37  44 1.42   2 1.45   1 2.06
  47  0.013  0.602  0.512-  48 1.37  49 1.41  91 1.52  92 2.02
  48  0.011  0.770  0.509-  50 1.36  47 1.37  92 1.47
  49  0.050  0.515  0.492-   4 1.37  47 1.41  51 1.43
  50  0.048  0.850  0.491-  48 1.36  52 1.37   3 1.39
  51  0.093  0.600  0.484-  53 1.36  52 1.40  49 1.43
  52  0.091  0.772  0.484-  50 1.37  51 1.40  54 1.45
  53  0.134  0.524  0.472-  51 1.36   8 1.37  55 1.41
  54  0.133  0.854  0.469-   7 1.37  56 1.43  52 1.45
  55  0.179  0.604  0.468-  56 1.37  57 1.39  53 1.41
  56  0.178  0.773  0.466-  55 1.37  58 1.38  54 1.43
  57  0.222  0.521  0.463-  12 1.36  55 1.39  59 1.47
  58  0.221  0.856  0.462-  56 1.38  11 1.38  60 1.45
  59  0.267  0.609  0.465-  60 1.35  61 1.39  57 1.47
  60  0.267  0.774  0.462-  59 1.35  62 1.41  58 1.45
  61  0.310  0.523  0.467-  16 1.37  63 1.39  59 1.39
  62  0.311  0.858  0.461-  15 1.39  60 1.41  64 1.42
  63  0.352  0.607  0.475-  64 1.34  61 1.39  65 1.41
  64  0.353  0.771  0.470-  63 1.34  66 1.42  62 1.42
  65  0.396  0.525  0.479-  20 1.35  67 1.40  63 1.41
  66  0.398  0.851  0.473-  19 1.37  64 1.42  68 1.42
  67  0.439  0.610  0.488-  68 1.37  65 1.40  69 1.45
  68  0.441  0.778  0.486-  67 1.37  70 1.42  66 1.42
  69  0.481  0.527  0.502-  71 1.36  24 1.38  67 1.45
  70  0.485  0.861  0.490-  23 1.36  72 1.40  68 1.42
  71  0.523  0.605  0.511-  69 1.36  72 1.38  73 1.42
  72  0.525  0.774  0.505-  71 1.38  70 1.40  74 1.43
  73  0.566  0.520  0.520-  28 1.34  71 1.42  75 1.42
  74  0.569  0.854  0.514-  27 1.41  72 1.43  76 1.43
  75  0.610  0.598  0.527-  76 1.39  73 1.42  77 1.46
  76  0.612  0.769  0.523-  75 1.39  74 1.43  78 1.46
  77  0.655  0.518  0.537-  32 1.33  79 1.45  75 1.46
  78  0.657  0.855  0.533-  31 1.37  80 1.39  76 1.46
  79  0.699  0.607  0.544-  80 1.35  81 1.45  77 1.45
  80  0.700  0.772  0.538-  79 1.35  78 1.39  82 1.44
  81  0.743  0.520  0.549-  36 1.36  79 1.45  83 1.49
  82  0.745  0.855  0.541-  35 1.38  84 1.42  80 1.44
  83  0.791  0.603  0.549-  85 1.36  84 1.37  81 1.49
  84  0.789  0.771  0.546-  83 1.37  86 1.40  82 1.42
  85  0.832  0.520  0.543-  40 1.36  83 1.36  87 1.40
  86  0.833  0.853  0.542-  84 1.40  39 1.40  88 1.43
  87  0.876  0.602  0.538-  88 1.35  89 1.39  85 1.40
  88  0.877  0.768  0.537-  87 1.35  90 1.42  86 1.43
  89  0.918  0.517  0.530-  91 1.38  87 1.39  44 1.40
  90  0.918  0.854  0.525-  92 1.38  43 1.40  88 1.42
  91  0.962  0.593  0.526-  89 1.38  92 1.42  47 1.52
  92  0.961  0.767  0.520-  90 1.38  91 1.42  48 1.47  47 2.02
 
  LATTYP: Found a simple orthorhombic cell.
 ALAT       =     8.1000000000
 B/A-ratio  =     3.4629629630
 C/A-ratio  =     4.1358024691
  
  Lattice vectors:
  
 A1 = (   0.0000000000,  -8.1000000000,   0.0000000000)
 A2 = (  28.0500000000,   0.0000000000,   0.0000000000)
 A3 = (   0.0000000000,   0.0000000000,  33.5000000000)


Analysis of symmetry for initial positions (statically):
=====================================================================
 Subroutine PRICEL returns:
 Original cell was already a primitive cell.
 

 Routine SETGRP: Setting up the symmetry group for a 
 simple orthorhombic supercell.


 Subroutine GETGRP returns: Found  1 space group operations
 (whereof  1 operations were pure point group operations)
 out of a pool of  8 trial point group operations.


The static configuration has the point symmetry C_1 .


Analysis of symmetry for dynamics (positions and initial velocities):
=====================================================================
 Subroutine PRICEL returns:
 Original cell was already a primitive cell.
 

 Routine SETGRP: Setting up the symmetry group for a 
 simple orthorhombic supercell.


 Subroutine GETGRP returns: Found  1 space group operations
 (whereof  1 operations were pure point group operations)
 out of a pool of  8 trial point group operations.


The dynamic configuration has the point symmetry C_1 .


 Subroutine INISYM returns: Found  1 space group operations
 (whereof  1 operations are pure point group operations),
 and found     1 'primitive' translations


----------------------------------------------------------------------------------------

                                     Primitive cell                                     

  volume of cell :    7611.3675

  direct lattice vectors                    reciprocal lattice vectors
    28.050000000  0.000000000  0.000000000     0.035650624  0.000000000  0.000000000
     0.000000000  8.100000000  0.000000000     0.000000000  0.123456790  0.000000000
     0.000000000  0.000000000 33.500000000     0.000000000  0.000000000  0.029850746

  length of vectors
    28.050000000  8.100000000 33.500000000     0.035650624  0.123456790  0.029850746

  position of ions in fractional coordinates (direct lattice)
     0.001898463  0.097417901  0.481477612
     0.003282235  0.267877778  0.484453731
     0.043333690  0.010870914  0.476907463
     0.045594652  0.353420988  0.480579104
     0.087249554  0.097501605  0.467008955
     0.088469519  0.266681481  0.470119403
     0.131124777  0.018348889  0.459486567
     0.132356150  0.355981481  0.467080597
     0.174390374  0.099201235  0.454092537
     0.175413191  0.271156790  0.455907463
     0.220840285  0.026064815  0.459182090
     0.219103030  0.357056790  0.454782090
     0.267769697  0.105269012  0.454605970
     0.264257754  0.275466667  0.454588060
     0.310781105  0.028470370  0.457489552
     0.311214973  0.356962963  0.459928358
     0.355016756  0.109053086  0.463934328
     0.354595009  0.274392593  0.464346269
     0.399286988  0.020661852  0.470650746
     0.398021390  0.358644444  0.476605970
     0.440313725  0.106338025  0.484695522
     0.438638146  0.276967901  0.489641791
     0.484884135  0.029328272  0.492005970
     0.479793226  0.356118519  0.503994030
     0.524916221  0.106843457  0.507758209
     0.523105169  0.273177778  0.510537313
     0.566866310  0.027529136  0.517310448
     0.566609626  0.354358025  0.520173134
     0.611543672  0.105203827  0.525644776
     0.608274510  0.271387654  0.532176119
     0.655176471  0.023546420  0.530370149
     0.654024955  0.353512346  0.534758209
     0.699597148  0.109015185  0.534447761
     0.700566845  0.273858025  0.536994030
     0.743279857  0.022784074  0.535641791
     0.743344029  0.353402469  0.544029851
     0.786866310  0.104727160  0.532337313
     0.787950089  0.274734568  0.540017910
     0.831226381  0.019727037  0.530722388
     0.830941176  0.357316049  0.532364179
     0.871975045  0.104901852  0.518361194
     0.870823529  0.274404938  0.518462687
     0.915875223  0.020073086  0.513868657
     0.913946524  0.358234568  0.513728358
     0.952991087  0.110669753  0.495155224
     0.952962567  0.279600000  0.494525373
     0.013450481  0.601728395  0.512241791
     0.010962995  0.769972840  0.508773134
     0.049866310  0.514987654  0.492411940
     0.047783601  0.850388889  0.490719403
     0.093446702  0.599786420  0.484038806
     0.090592157  0.772351852  0.484164179
     0.134282353  0.524348148  0.472023881
     0.132973619  0.853798765  0.468898507
     0.178705882  0.603641975  0.468450746
     0.178187522  0.772734568  0.465507463
     0.221517647  0.521139506  0.462955224
     0.220648128  0.856045679  0.461525373
     0.267154011  0.608523457  0.465447761
     0.266501961  0.773922222  0.461671642
     0.310232442  0.523432099  0.467047761
     0.310658824  0.857908642  0.461429851
     0.352330125  0.607420988  0.475298507
     0.353294474  0.771160494  0.470382090
     0.396167558  0.524887654  0.479379104
     0.398042781  0.851428395  0.472653731
     0.438584670  0.609823457  0.487988060
     0.441219251  0.778093827  0.485937313
     0.481058824  0.526772840  0.501973134
     0.485386809  0.861185185  0.490185075
     0.522716578  0.605461728  0.510683582
     0.525023173  0.774177778  0.504662687
     0.565561497  0.520172840  0.519546269
     0.568941176  0.854497531  0.514089552
     0.610181818  0.598435802  0.526719403
     0.612420677  0.768706173  0.522608955
     0.654901961  0.517858025  0.537086567
     0.656648841  0.854533333  0.533059701
     0.698816399  0.607317284  0.544119403
     0.699672014  0.771932099  0.537632836
     0.743333333  0.519823457  0.549498507
     0.744720143  0.854672840  0.541432836
     0.790780749  0.603030864  0.548937313
     0.788866310  0.771308642  0.545564179
     0.832303030  0.520051852  0.542504478
     0.832588235  0.852539506  0.541680597
     0.876131907  0.601543210  0.538340299
     0.876934046  0.767606173  0.537241791
     0.918046346  0.517227160  0.529877612
     0.918434938  0.853614815  0.525131343
     0.961821747  0.592928395  0.526032836
     0.960527629  0.766869136  0.520402985

  ion indices of the primitive-cell ions
   primitive index   ion index
                 1           1
                 2           2
                 3           3
                 4           4
                 5           5
                 6           6
                 7           7
                 8           8
                 9           9
                10          10
                11          11
                12          12
                13          13
                14          14
                15          15
                16          16
                17          17
                18          18
                19          19
                20          20
                21          21
                22          22
                23          23
                24          24
                25          25
                26          26
                27          27
                28          28
                29          29
                30          30
                31          31
                32          32
                33          33
                34          34
                35          35
                36          36
                37          37
                38          38
                39          39
                40          40
                41          41
                42          42
                43          43
                44          44
                45          45
                46          46
                47          47
                48          48
                49          49
                50          50
                51          51
                52          52
                53          53
                54          54
                55          55
                56          56
                57          57
                58          58
                59          59
                60          60
                61          61
                62          62
                63          63
                64          64
                65          65
                66          66
                67          67
                68          68
                69          69
                70          70
                71          71
                72          72
                73          73
                74          74
                75          75
                76          76
                77          77
                78          78
                79          79
                80          80
                81          81
                82          82
                83          83
                84          84
                85          85
                86          86
                87          87
                88          88
                89          89
                90          90
                91          91
                92          92

----------------------------------------------------------------------------------------

 
 
 KPOINTS: K-Spacing Value to Generate K-Mesh: 0.03

Automatic generation of k-mesh.
 Grid dimensions read from file:
 generate k-points for:    1    4    1

 Generating k-lattice:

  Cartesian coordinates                     Fractional coordinates (reciprocal lattice)
     0.035650624  0.000000000  0.000000000     1.000000000  0.000000000  0.000000000
     0.000000000  0.030864198  0.000000000     0.000000000  0.250000000  0.000000000
     0.000000000  0.000000000  0.029850746     0.000000000  0.000000000  1.000000000

  Length of vectors
     0.035650624  0.030864198  0.029850746

  Shift w.r.t. Gamma in fractional coordinates (k-lattice)
     0.000000000  0.000000000  0.000000000

 
 Subroutine IBZKPT returns following result:
 ===========================================
 
 Found      3 irreducible k-points:
 
 Following reciprocal coordinates:
            Coordinates               Weight
  0.000000  0.000000  0.000000      1.000000
  0.000000  0.250000  0.000000      2.000000
  0.000000  0.500000  0.000000      1.000000
 
 Following cartesian coordinates:
            Coordinates               Weight
  0.000000  0.000000  0.000000      1.000000
  0.000000  0.030864  0.000000      2.000000
  0.000000  0.061728  0.000000      1.000000
 


--------------------------------------------------------------------------------------------------------




 Dimension of arrays:
   k-points           NKPTS =      3   k-points in BZ     NKDIM =      3   number of bands    NBANDS=    232
   number of dos      NEDOS =    301   number of ions     NIONS =     92
   non local maximal  LDIM  =      4   non local SUM 2l+1 LMDIM =      8
   total plane-waves  NPLWV = ******
   max r-space proj   IRMAX =   1967   max aug-charges    IRDMAX=   5083
   dimension x,y,z NGX =   210 NGY =   60 NGZ =  250
   dimension x,y,z NGXF=   420 NGYF=  120 NGZF=  500
   support grid    NGXF=   420 NGYF=  120 NGZF=  500
   ions per type =              92
   NGX,Y,Z   is equivalent  to a cutoff of  12.45, 12.31, 12.41 a.u.
   NGXF,Y,Z  is equivalent  to a cutoff of  24.89, 24.63, 24.81 a.u.

 SYSTEM =  unknown system                          
 POSCAR =   C                                      

 Startparameter for this run:
   NWRITE =      2    write-flag & timer
   PREC   = accura    normal or accurate (medium, high low for compatibility)
   ISTART =      0    job   : 0-new  1-cont  2-samecut
   ICHARG =      2    charge: 1-file 2-atom 10-const
   ISPIN  =      1    spin polarized calculation?
   LNONCOLLINEAR =      F non collinear calculations
   LSORBIT =      F    spin-orbit coupling
   INIWAV =      1    electr: 0-lowe 1-rand  2-diag
   LASPH  =      F    aspherical Exc in radial PAW
 Electronic Relaxation 1
   ENCUT  =  500.0 eV  36.75 Ry    6.06 a.u.  51.14 14.77 61.08*2*pi/ulx,y,z
   ENINI  =  500.0     initial cutoff
   ENAUG  =  644.9 eV  augmentation charge cutoff
   NELM   =    150;   NELMIN=  2; NELMDL= -5     # of ELM steps 
   EDIFF  = 0.1E-05   stopping-criterion for ELM
   LREAL  =      T    real-space projection
   NLSPLINE    = F    spline interpolate recip. space projectors
   LCOMPAT=      F    compatible to vasp.4.4
   GGA_COMPAT  = T    GGA compatible to vasp.4.4-vasp.4.6
   LMAXPAW     = -100 max onsite density
   LMAXMIX     =    2 max onsite mixed and CHGCAR
   VOSKOWN=      0    Vosko Wilk Nusair interpolation
   ROPT   =   -0.00025
 Ionic relaxation
   EDIFFG = 0.1E-04   stopping-criterion for IOM
   NSW    =      0    number of steps for IOM
   NBLOCK =      1;   KBLOCK =      1    inner block; outer block 
   IBRION =     -1    ionic relax: 0-MD 1-quasi-New 2-CG
   NFREE  =      0    steps in history (QN), initial steepest desc. (CG)
   ISIF   =      2    stress and relaxation
   IWAVPR =     10    prediction:  0-non 1-charg 2-wave 3-comb
   ISYM   =      2    0-nonsym 1-usesym 2-fastsym
   LCORR  =      T    Harris-Foulkes like correction to forces

   POTIM  = 0.5000    time-step for ionic-motion
   TEIN   =    0.0    initial temperature
   TEBEG  =    0.0;   TEEND  =   0.0 temperature during run
   SMASS  =  -3.00    Nose mass-parameter (am)
   estimated Nose-frequenzy (Omega)   =  0.10E-29 period in steps = 0.13E+47 mass=  -0.180E-25a.u.
   SCALEE = 1.0000    scale energy and forces
   NPACO  =    256;   APACO  = 10.0  distance and # of slots for P.C.
   PSTRESS=    0.0 pullay stress

  Mass of Ions in am
   POMASS =  12.01
  Ionic Valenz
   ZVAL   =   4.00
  Atomic Wigner-Seitz radii
   RWIGS  =  -1.00
  virtual crystal weights 
   VCA    =   1.00
   NELECT =     368.0000    total number of electrons
   NUPDOWN=      -1.0000    fix difference up-down

 DOS related values:
   EMIN   =  10.00;   EMAX   =-10.00  energy-range for DOS
   EFERMI =   0.00;   METHOD = LEGACY      
   ISMEAR =     0;   SIGMA  =   0.20  broadening in eV -4-tet -1-fermi 0-gaus
   EFERMI_NEDOS =   21; number of points for ismear=-14 and -15

 Electronic relaxation 2 (details)
   IALGO  =     38    algorithm
   LDIAG  =      T    sub-space diagonalisation (order eigenvalues)
   LSUBROT=      F    optimize rotation matrix (better conditioning)
   TURBO    =      0    0=normal 1=particle mesh
   IRESTART =      0    0=no restart 2=restart with 2 vectors
   NREBOOT  =      0    no. of reboots
   NMIN     =      0    reboot dimension
   EREF     =   0.00    reference energy to select bands
   IMIX   =      4    mixing-type and parameters
     AMIX     =   0.40;   BMIX     =  1.00
     AMIX_MAG =   1.60;   BMIX_MAG =  1.00
     AMIN     =   0.10
     WC   =   100.;   INIMIX=   1;  MIXPRE=   1;  MAXMIX= -45

 Intra band minimization:
   WEIMIN = 0.0000     energy-eigenvalue tresh-hold
   EBREAK =  0.11E-08  absolut break condition
   DEPER  =   0.30     relativ break condition  

   TIME   =   0.40     timestep for ELM

  volume/ion in A,a.u.               =      82.73       558.30
  Fermi-wavevector in a.u.,A,eV,Ry     =   0.596398  1.127030  4.839472  0.355691
  Thomas-Fermi vector in A             =   1.646729
 
 Write flags
   LWAVE        =      F    write WAVECAR
   LDOWNSAMPLE  =      F    k-point downsampling of WAVECAR
   LCHARG       =      F    write CHGCAR
   LVTOT        =      F    write LOCPOT, total local potential
   LVHAR        =      F    write LOCPOT, Hartree potential only
   WRT_POTENTIAL= false  ! write potential to hdf5 file
   LELF         =      F    write electronic localiz. function (ELF)
   LORBIT       =      0    0 simple, 1 ext, 2 COOP (PROOUT), +10 PAW based schemes


 Python interface
   PLUGINS active      =      F    recompile with -DPLUGINS to activate
 
 Dipole corrections
   LMONO      =      F    monopole corrections only (constant potential shift)
   LDIPOL     =      F    correct potential (dipole corrections)
   IDIPOL     =      0    1-x, 2-y, 3-z, 4-all directions 
   EPSILON    =  1.0000000 bulk dielectric constant
   LVACPOTAV  =      F  vacuum potentials using an averaging scheme for the charge density
   VACPOTFLAT =  0.1000000 required flatness to determine vacuum potential
 
Coulomb truncation method
  LTRUNCATE          =      F  Coulomb kernel truncation to be used
  IDIMENSIONALITY    =      3  Dimensionality of cutoff (0 molecules / 2 surfaces)
  ISURFACE           =     -1  Direction of surface normal
  LCOARSEN           =      F  Coarsen the charge grid before padding, preferred

 
 Exchange correlation treatment:
   GGA     = PE    functional components
   XC_C    = 1    coefficients multiplying the functional components
   LIBXC   =     F    Libxc                    
   VOSKOWN =     0    Vosko Wilk Nusair interpolation
   LHFCALC =     F    Hartree Fock is set to
   LHFONE  =     F    Hartree Fock one center treatment
   AEXX    =    0.0000 exact exchange contribution

 Parameters of functionals:
   PE:
     No parameter
 
 Van der Waals corrections
   IVDW    =     0    specifies the selected vdW correction

 Linear response parameters
   LEPSILON=     F    determine dielectric tensor
   LRPA    =     F    only Hartree local field effects (RPA)
   LNABLA  =     F    use nabla operator in PAW spheres
   LVEL    =     F    velocity operator in full k-point grid
   CSHIFT  =0.1000    complex shift for real part using Kramers Kronig
   OMEGAMAX=  -1.0    maximum frequency
   DEG_THRESHOLD= 0.2000000E-02 threshold for treating states as degnerate
   RTIME   =   -0.100 relaxation time in fs
  (WPLASMAI=    0.000 imaginary part of plasma frequency in eV, 0.658/RTIME)
   DFIELD  = 0.0000000 0.0000000 0.0000000 field for delta impulse in time
 
  Optional k-point grid parameters
   LKPOINTS_OPT  =     F    use optional k-point grid
   KPOINTS_OPT_MODE=     1    mode for optional k-point grid
 
 Orbital magnetization related:
   ORBITALMAG=     F  switch on orbital magnetization
   LCHIMAG   =     F  perturbation theory with respect to B field
   DQ        =  0.001000  dq finite difference perturbation B field
   LLRAUG    =     F  two centre corrections for induced B field
   LBONE     =     F  B-component reconstruction in AE one-centre
   LVGVCALC  =     T  calculate vGv susceptibility
   LVGVAPPL  =     F  apply vGv susceptibility instead of pGv for G=0

 Random number generation:
   RANDOM_GENERATOR = DEFAULT
   PCG_SEED         = not used


--------------------------------------------------------------------------------------------------------


 Static calculation
 charge density and potential will be updated during run
 non-spin polarized calculation
 Variant of blocked Davidson
 Davidson routine will perform the subspace rotation
 perform sub-space diagonalisation
    after iterative eigenvector-optimisation
 modified Broyden-mixing scheme, WC =      100.0
 initial mixing is a Kerker type mixing with AMIX =  0.4000 and BMIX =      1.0000
 Hartree-type preconditioning will be used
 using additional bands            48
 real space projection scheme for non local part
 use partial core corrections
 calculate Harris-corrections to forces 
   (improved forces if not selfconsistent)
 use gradient corrections 
 use of overlap-Matrix (Vanderbilt PP)
 Gauss-broadening in eV      SIGMA  =   0.20


--------------------------------------------------------------------------------------------------------


  energy-cutoff  :      500.00
  volume of cell :     7611.37
      direct lattice vectors                 reciprocal lattice vectors
    28.050000000  0.000000000  0.000000000     0.035650624  0.000000000  0.000000000
     0.000000000  8.100000000  0.000000000     0.000000000  0.123456790  0.000000000
     0.000000000  0.000000000 33.500000000     0.000000000  0.000000000  0.029850746

  length of vectors
    28.050000000  8.100000000 33.500000000     0.035650624  0.123456790  0.029850746


 
 k-points in units of 2pi/SCALE and weight: K-Spacing Value to Generate K-Mesh: 0.03
   0.00000000  0.00000000  0.00000000       0.250
   0.00000000  0.03086420  0.00000000       0.500
   0.00000000  0.06172840  0.00000000       0.250
 
 k-points in reciprocal lattice and weights: K-Spacing Value to Generate K-Mesh: 0.03
   0.00000000  0.00000000  0.00000000       0.250
   0.00000000  0.25000000  0.00000000       0.500
   0.00000000  0.50000000  0.00000000       0.250
 
 position of ions in fractional coordinates (direct lattice) 
   0.00189846  0.09741790  0.48147761
   0.00328224  0.26787778  0.48445373
   0.04333369  0.01087091  0.47690746
   0.04559465  0.35342099  0.48057910
   0.08724955  0.09750160  0.46700896
   0.08846952  0.26668148  0.47011940
   0.13112478  0.01834889  0.45948657
   0.13235615  0.35598148  0.46708060
   0.17439037  0.09920123  0.45409254
   0.17541319  0.27115679  0.45590746
   0.22084029  0.02606481  0.45918209
   0.21910303  0.35705679  0.45478209
   0.26776970  0.10526901  0.45460597
   0.26425775  0.27546667  0.45458806
   0.31078111  0.02847037  0.45748955
   0.31121497  0.35696296  0.45992836
   0.35501676  0.10905309  0.46393433
   0.35459501  0.27439259  0.46434627
   0.39928699  0.02066185  0.47065075
   0.39802139  0.35864444  0.47660597
   0.44031373  0.10633802  0.48469552
   0.43863815  0.27696790  0.48964179
   0.48488414  0.02932827  0.49200597
   0.47979323  0.35611852  0.50399403
   0.52491622  0.10684346  0.50775821
   0.52310517  0.27317778  0.51053731
   0.56686631  0.02752914  0.51731045
   0.56660963  0.35435802  0.52017313
   0.61154367  0.10520383  0.52564478
   0.60827451  0.27138765  0.53217612
   0.65517647  0.02354642  0.53037015
   0.65402496  0.35351235  0.53475821
   0.69959715  0.10901519  0.53444776
   0.70056684  0.27385802  0.53699403
   0.74327986  0.02278407  0.53564179
   0.74334403  0.35340247  0.54402985
   0.78686631  0.10472716  0.53233731
   0.78795009  0.27473457  0.54001791
   0.83122638  0.01972704  0.53072239
   0.83094118  0.35731605  0.53236418
   0.87197504  0.10490185  0.51836119
   0.87082353  0.27440494  0.51846269
   0.91587522  0.02007309  0.51386866
   0.91394652  0.35823457  0.51372836
   0.95299109  0.11066975  0.49515522
   0.95296257  0.27960000  0.49452537
   0.01345048  0.60172840  0.51224179
   0.01096299  0.76997284  0.50877313
   0.04986631  0.51498765  0.49241194
   0.04778360  0.85038889  0.49071940
   0.09344670  0.59978642  0.48403881
   0.09059216  0.77235185  0.48416418
   0.13428235  0.52434815  0.47202388
   0.13297362  0.85379877  0.46889851
   0.17870588  0.60364198  0.46845075
   0.17818752  0.77273457  0.46550746
   0.22151765  0.52113951  0.46295522
   0.22064813  0.85604568  0.46152537
   0.26715401  0.60852346  0.46544776
   0.26650196  0.77392222  0.46167164
   0.31023244  0.52343210  0.46704776
   0.31065882  0.85790864  0.46142985
   0.35233012  0.60742099  0.47529851
   0.35329447  0.77116049  0.47038209
   0.39616756  0.52488765  0.47937910
   0.39804278  0.85142840  0.47265373
   0.43858467  0.60982346  0.48798806
   0.44121925  0.77809383  0.48593731
   0.48105882  0.52677284  0.50197313
   0.48538681  0.86118519  0.49018507
   0.52271658  0.60546173  0.51068358
   0.52502317  0.77417778  0.50466269
   0.56556150  0.52017284  0.51954627
   0.56894118  0.85449753  0.51408955
   0.61018182  0.59843580  0.52671940
   0.61242068  0.76870617  0.52260896
   0.65490196  0.51785802  0.53708657
   0.65664884  0.85453333  0.53305970
   0.69881640  0.60731728  0.54411940
   0.69967201  0.77193210  0.53763284
   0.74333333  0.51982346  0.54949851
   0.74472014  0.85467284  0.54143284
   0.79078075  0.60303086  0.54893731
   0.78886631  0.77130864  0.54556418
   0.83230303  0.52005185  0.54250448
   0.83258824  0.85253951  0.54168060
   0.87613191  0.60154321  0.53834030
   0.87693405  0.76760617  0.53724179
   0.91804635  0.51722716  0.52987761
   0.91843494  0.85361481  0.52513134
   0.96182175  0.59292840  0.52603284
   0.96052763  0.76686914  0.52040299
 
 position of ions in cartesian coordinates  (Angst):
   0.05325190  0.78908500 16.12950000
   0.09206670  2.16981000 16.22920000
   1.21551000  0.08805440 15.97640000
   1.27893000  2.86271000 16.09940000
   2.44735000  0.78976300 15.64480000
   2.48157000  2.16012000 15.74900000
   3.67805000  0.14862600 15.39280000
   3.71259000  2.88345000 15.64720000
   4.89165000  0.80353000 15.21210000
   4.92034000  2.19637000 15.27290000
   6.19457000  0.21112500 15.38260000
   6.14584000  2.89216000 15.23520000
   7.51094000  0.85267900 15.22930000
   7.41243000  2.23128000 15.22870000
   8.71741000  0.23061000 15.32590000
   8.72958000  2.89140000 15.40760000
   9.95822000  0.88333000 15.54180000
   9.94639000  2.22258000 15.55560000
  11.20000000  0.16736100 15.76680000
  11.16450000  2.90502000 15.96630000
  12.35080000  0.86133800 16.23730000
  12.30380000  2.24344000 16.40300000
  13.60100000  0.23755900 16.48220000
  13.45820000  2.88456000 16.88380000
  14.72390000  0.86543200 17.00990000
  14.67310000  2.21274000 17.10300000
  15.90060000  0.22298600 17.32990000
  15.89340000  2.87030000 17.42580000
  17.15380000  0.85215100 17.60910000
  17.06210000  2.19824000 17.82790000
  18.37770000  0.19072600 17.76740000
  18.34540000  2.86345000 17.91440000
  19.62370000  0.88302300 17.90400000
  19.65090000  2.21825000 17.98930000
  20.84900000  0.18455100 17.94400000
  20.85080000  2.86256000 18.22500000
  22.07160000  0.84829000 17.83330000
  22.10200000  2.22535000 18.09060000
  23.31590000  0.15978900 17.77920000
  23.30790000  2.89426000 17.83420000
  24.45890000  0.84970500 17.36510000
  24.42660000  2.22268000 17.36850000
  25.69030000  0.16259200 17.21460000
  25.63620000  2.90170000 17.20990000
  26.73140000  0.89642500 16.58770000
  26.73060000  2.26476000 16.56660000
   0.37728600  4.87400000 17.16010000
   0.30751200  6.23678000 17.04390000
   1.39875000  4.17140000 16.49580000
   1.34033000  6.88815000 16.43910000
   2.62118000  4.85827000 16.21530000
   2.54111000  6.25605000 16.21950000
   3.76662000  4.24722000 15.81280000
   3.72991000  6.91577000 15.70810000
   5.01270000  4.88950000 15.69310000
   4.99816000  6.25915000 15.59450000
   6.21357000  4.22123000 15.50900000
   6.18918000  6.93397000 15.46110000
   7.49367000  4.92904000 15.59250000
   7.47538000  6.26877000 15.46600000
   8.70202000  4.23980000 15.64610000
   8.71398000  6.94906000 15.45790000
   9.88286000  4.92011000 15.92250000
   9.90991000  6.24640000 15.75780000
  11.11250000  4.25159000 16.05920000
  11.16510000  6.89657000 15.83390000
  12.30230000  4.93957000 16.34760000
  12.37620000  6.30256000 16.27890000
  13.49370000  4.26686000 16.81610000
  13.61510000  6.97560000 16.42120000
  14.66220000  4.90424000 17.10790000
  14.72690000  6.27084000 16.90620000
  15.86400000  4.21340000 17.40480000
  15.95880000  6.92143000 17.22200000
  17.11560000  4.84733000 17.64510000
  17.17840000  6.22652000 17.50740000
  18.37000000  4.19465000 17.99240000
  18.41900000  6.92172000 17.85750000
  19.60180000  4.91927000 18.22800000
  19.62580000  6.25265000 18.01070000
  20.85050000  4.21057000 18.40820000
  20.88940000  6.92285000 18.13800000
  22.18140000  4.88455000 18.38940000
  22.12770000  6.24760000 18.27640000
  23.34610000  4.21242000 18.17390000
  23.35410000  6.90557000 18.14630000
  24.57550000  4.87250000 18.03440000
  24.59800000  6.21761000 17.99760000
  25.75120000  4.18954000 17.75090000
  25.76210000  6.91428000 17.59190000
  26.97910000  4.80272000 17.62210000
  26.94280000  6.21164000 17.43350000
 


--------------------------------------------------------------------------------------------------------


 k-point     1 :   0.0000 0.0000 0.0000  plane waves:  193173
 k-point     2 :   0.0000 0.2500 0.0000  plane waves:  193166
 k-point     3 :   0.0000 0.5000 0.0000  plane waves:  193226

 maximum and minimum number of plane-waves per node :    193226   193166

 maximum number of plane-waves:    193226
 maximum index in each direction: 
   IXMAX=   51   IYMAX=   14   IZMAX=   61
   IXMIN=  -51   IYMIN=  -15   IZMIN=  -61


 serial   3D FFT for wavefunctions
 parallel 3D FFT for charge:
    minimum data exchange during FFTs selected (reduces bandwidth)


 total amount of memory used by VASP MPI-rank0  2294513. kBytes
=======================================================================

   base                                    :      30000. kBytes
   nonlr-proj                              :      15079. kBytes
   fftplans                                :     436558. kBytes
   grid                                    :     732614. kBytes
   one-center                              :        282. kBytes
   wavefun                                 :    1079980. kBytes
 
     INWAV:  cpu time      0.0000: real time      0.0000
 Broyden mixing: mesh for mixing (old mesh)
   NGX =103   NGY = 29   NGZ =123
  (NGX  =420   NGY  =120   NGZ  =500)
  gives a total of 367401 points

 initial charge density was supplied:
 charge density of overlapping atoms calculated
 number of electron     368.0000000 magnetization 
 keeping initial charge density in first step


--------------------------------------------------------------------------------------------------------


 Maximum index for non-local projection operator          1874
 Maximum index for augmentation-charges          2389 (set IRDMAX)


--------------------------------------------------------------------------------------------------------


 First call to EWALD:  gamma=   0.090
 Maximum number of real-space cells   2x   6x   2
 Maximum number of reciprocal cells   4x   1x   4

    FEWALD:  cpu time      0.1590: real time      0.1591


--------------------------------------- Ionic step        1  -------------------------------------------




--------------------------------------- Iteration      1(   1)  ---------------------------------------


    POTLOK:  cpu time      0.4220: real time      0.4364
    SETDIJ:  cpu time      0.0416: real time      0.0417
     EDDAV:  cpu time     11.1662: real time     11.1711
       DOS:  cpu time      0.0008: real time      0.0008
    --------------------------------------------
      LOOP:  cpu time     11.6307: real time     11.6500

 eigenvalue-minimisations  :  1728
 total energy-change (2. order) : 0.3638325E+04  (-0.1198544E+05)
 number of electron     368.0000000 magnetization 
 augmentation part      368.0000000 magnetization 

 Free energy of the ion-electron system (eV)
  ---------------------------------------------------
  alpha Z        PSCENC =        91.34886789
  Ewald energy   TEWEN  =    120438.83508545
  -Hartree energ DENC   =   -129745.33273827
  -exchange      EXHF   =         0.00000000
  -V(xc)+E(xc)   XCENC  =      1222.59911136
  PAW double counting   =      9984.02826696   -10036.41360137
  entropy T*S    EENTRO =        -0.86901855
  eigenvalues    EBANDS =     -1853.52586701
  atomic energy  EATOM  =     13537.65479391
  Solvation  Ediel_sol  =         0.00000000
  ---------------------------------------------------
  free energy    TOTEN  =      3638.32490037 eV

  energy without entropy =     3639.19391892  energy(sigma->0) =     3638.75940964


--------------------------------------------------------------------------------------------------------




--------------------------------------- Iteration      1(   2)  ---------------------------------------


     EDDAV:  cpu time     13.0110: real time     13.0155
       DOS:  cpu time      0.0007: real time      0.0007
    --------------------------------------------
      LOOP:  cpu time     13.0117: real time     13.0162

 eigenvalue-minimisations  :  2120
 total energy-change (2. order) :-0.3462732E+04  (-0.3208299E+04)
 number of electron     368.0000000 magnetization 
 augmentation part      368.0000000 magnetization 

 Free energy of the ion-electron system (eV)
  ---------------------------------------------------
  alpha Z        PSCENC =        91.34886789
  Ewald energy   TEWEN  =    120438.83508545
  -Hartree energ DENC   =   -129745.33273827
  -exchange      EXHF   =         0.00000000
  -V(xc)+E(xc)   XCENC  =      1222.59911136
  PAW double counting   =      9984.02826696   -10036.41360137
  entropy T*S    EENTRO =        -0.21945017
  eigenvalues    EBANDS =     -5316.90748911
  atomic energy  EATOM  =     13537.65479391
  Solvation  Ediel_sol  =         0.00000000
  ---------------------------------------------------
  free energy    TOTEN  =       175.59284665 eV

  energy without entropy =      175.81229682  energy(sigma->0) =      175.70257174


--------------------------------------------------------------------------------------------------------




--------------------------------------- Iteration      1(   3)  ---------------------------------------


     EDDAV:  cpu time     11.3938: real time     11.3976
       DOS:  cpu time      0.0006: real time      0.0006
    --------------------------------------------
      LOOP:  cpu time     11.3944: real time     11.3983

 eigenvalue-minimisations  :  1808
 total energy-change (2. order) :-0.1011519E+04  (-0.9921036E+03)
 number of electron     368.0000000 magnetization 
 augmentation part      368.0000000 magnetization 

 Free energy of the ion-electron system (eV)
  ---------------------------------------------------
  alpha Z        PSCENC =        91.34886789
  Ewald energy   TEWEN  =    120438.83508545
  -Hartree energ DENC   =   -129745.33273827
  -exchange      EXHF   =         0.00000000
  -V(xc)+E(xc)   XCENC  =      1222.59911136
  PAW double counting   =      9984.02826696   -10036.41360137
  entropy T*S    EENTRO =        -0.02204879
  eigenvalues    EBANDS =     -6328.62362346
  atomic energy  EATOM  =     13537.65479391
  Solvation  Ediel_sol  =         0.00000000
  ---------------------------------------------------
  free energy    TOTEN  =      -835.92588632 eV

  energy without entropy =     -835.90383753  energy(sigma->0) =     -835.91486193


--------------------------------------------------------------------------------------------------------




--------------------------------------- Iteration      1(   4)  ---------------------------------------


     EDDAV:  cpu time     10.9563: real time     10.9604
       DOS:  cpu time      0.0007: real time      0.0007
    --------------------------------------------
      LOOP:  cpu time     10.9570: real time     10.9611

 eigenvalue-minimisations  :  1720
 total energy-change (2. order) :-0.6189652E+02  (-0.6090494E+02)
 number of electron     368.0000000 magnetization 
 augmentation part      368.0000000 magnetization 

 Free energy of the ion-electron system (eV)
  ---------------------------------------------------
  alpha Z        PSCENC =        91.34886789
  Ewald energy   TEWEN  =    120438.83508545
  -Hartree energ DENC   =   -129745.33273827
  -exchange      EXHF   =         0.00000000
  -V(xc)+E(xc)   XCENC  =      1222.59911136
  PAW double counting   =      9984.02826696   -10036.41360137
  entropy T*S    EENTRO =        -0.05943782
  eigenvalues    EBANDS =     -6390.48275186
  atomic energy  EATOM  =     13537.65479391
  Solvation  Ediel_sol  =         0.00000000
  ---------------------------------------------------
  free energy    TOTEN  =      -897.82240375 eV

  energy without entropy =     -897.76296593  energy(sigma->0) =     -897.79268484


--------------------------------------------------------------------------------------------------------




--------------------------------------- Iteration      1(   5)  ---------------------------------------


     EDDAV:  cpu time     11.2963: real time     11.3003
       DOS:  cpu time      0.0007: real time      0.0007
    CHARGE:  cpu time      1.2120: real time      1.2119
    MIXING:  cpu time      0.2751: real time      0.2753
    --------------------------------------------
      LOOP:  cpu time     12.7840: real time     12.7882

 eigenvalue-minimisations  :  1792
 total energy-change (2. order) :-0.1505059E+01  (-0.1483881E+01)
 number of electron     367.9999999 magnetization 
 augmentation part       10.2096709 magnetization 

 Broyden mixing:
  rms(total) = 0.45840E+01    rms(broyden)= 0.45835E+01
  rms(prec ) = 0.47022E+01
  weight for this iteration     100.00

 Free energy of the ion-electron system (eV)
  ---------------------------------------------------
  alpha Z        PSCENC =        91.34886789
  Ewald energy   TEWEN  =    120438.83508545
  -Hartree energ DENC   =   -129745.33273827
  -exchange      EXHF   =         0.00000000
  -V(xc)+E(xc)   XCENC  =      1222.59911136
  PAW double counting   =      9984.02826696   -10036.41360137
  entropy T*S    EENTRO =        -0.06011182
  eigenvalues    EBANDS =     -6391.98713656
  atomic energy  EATOM  =     13537.65479391
  Solvation  Ediel_sol  =         0.00000000
  ---------------------------------------------------
  free energy    TOTEN  =      -899.32746245 eV

  energy without entropy =     -899.26735063  energy(sigma->0) =     -899.29740654


--------------------------------------------------------------------------------------------------------




--------------------------------------- Iteration      1(   6)  ---------------------------------------


    POTLOK:  cpu time      0.3227: real time      0.3227
    SETDIJ:  cpu time      0.0403: real time      0.0404
     EDDAV:  cpu time     10.2728: real time     10.2764
       DOS:  cpu time      0.0007: real time      0.0007
    CHARGE:  cpu time      1.1621: real time      1.1621
    MIXING:  cpu time      0.2775: real time      0.2788
    --------------------------------------------
      LOOP:  cpu time     12.0762: real time     12.0811

 eigenvalue-minimisations  :  1584
 total energy-change (2. order) : 0.5040663E+02  (-0.4809616E+01)
 number of electron     367.9999999 magnetization 
 augmentation part        9.7783488 magnetization 

 Broyden mixing:
  rms(total) = 0.26928E+01    rms(broyden)= 0.26927E+01
  rms(prec ) = 0.27513E+01
  weight for this iteration     100.00

 eigenvalues of (default mixing * dielectric matrix)
  average eigenvalue GAMMA=   2.1815
  2.1815

 Free energy of the ion-electron system (eV)
  ---------------------------------------------------
  alpha Z        PSCENC =        91.34886789
  Ewald energy   TEWEN  =    120438.83508545
  -Hartree energ DENC   =   -130321.57884013
  -exchange      EXHF   =         0.00000000
  -V(xc)+E(xc)   XCENC  =      1246.11510293
  PAW double counting   =     19030.13285159   -19090.22799687
  entropy T*S    EENTRO =        -0.06766715
  eigenvalues    EBANDS =     -5781.13302803
  atomic energy  EATOM  =     13537.65479391
  Solvation  Ediel_sol  =         0.00000000
  ---------------------------------------------------
  free energy    TOTEN  =      -848.92083043 eV

  energy without entropy =     -848.85316327  energy(sigma->0) =     -848.88699685


--------------------------------------------------------------------------------------------------------




--------------------------------------- Iteration      1(   7)  ---------------------------------------


    POTLOK:  cpu time      0.3207: real time      0.3207
    SETDIJ:  cpu time      0.0402: real time      0.0402
     EDDAV:  cpu time     10.1911: real time     10.1947
       DOS:  cpu time      0.0007: real time      0.0007
    CHARGE:  cpu time      1.1559: real time      1.1574
    MIXING:  cpu time      0.2791: real time      0.2800
    --------------------------------------------
      LOOP:  cpu time     11.9877: real time     11.9937

 eigenvalue-minimisations  :  1568
 total energy-change (2. order) : 0.1877387E+02  (-0.6627327E+01)
 number of electron     367.9999999 magnetization 
 augmentation part        9.2168967 magnetization 

 Broyden mixing:
  rms(total) = 0.74062E+00    rms(broyden)= 0.74034E+00
  rms(prec ) = 0.75040E+00
  weight for this iteration     100.00

 eigenvalues of (default mixing * dielectric matrix)
  average eigenvalue GAMMA=   2.1971
  2.1971  2.1971

 Free energy of the ion-electron system (eV)
  ---------------------------------------------------
  alpha Z        PSCENC =        91.34886789
  Ewald energy   TEWEN  =    120438.83508545
  -Hartree energ DENC   =   -131093.78309258
  -exchange      EXHF   =         0.00000000
  -V(xc)+E(xc)   XCENC  =      1277.46620019
  PAW double counting   =     36872.42988452   -36939.50913944
  entropy T*S    EENTRO =        -0.07957639
  eigenvalues    EBANDS =     -5014.50998757
  atomic energy  EATOM  =     13537.65479391
  Solvation  Ediel_sol  =         0.00000000
  ---------------------------------------------------
  free energy    TOTEN  =      -830.14696402 eV

  energy without entropy =     -830.06738763  energy(sigma->0) =     -830.10717582


--------------------------------------------------------------------------------------------------------




--------------------------------------- Iteration      1(   8)  ---------------------------------------


    POTLOK:  cpu time      0.3205: real time      0.3204
    SETDIJ:  cpu time      0.0402: real time      0.0403
     EDDAV:  cpu time     10.3836: real time     10.3874
       DOS:  cpu time      0.0007: real time      0.0007
    CHARGE:  cpu time      1.1548: real time      1.1575
    MIXING:  cpu time      0.2810: real time      0.2821
    --------------------------------------------
      LOOP:  cpu time     12.1808: real time     12.1884

 eigenvalue-minimisations  :  1608
 total energy-change (2. order) : 0.2896762E+00  (-0.2422898E+00)
 number of electron     367.9999999 magnetization 
 augmentation part        9.2021500 magnetization 

 Broyden mixing:
  rms(total) = 0.10007E+00    rms(broyden)= 0.10004E+00
  rms(prec ) = 0.12271E+00
  weight for this iteration     100.00

 eigenvalues of (default mixing * dielectric matrix)
  average eigenvalue GAMMA=   1.8645
  1.2433  2.4421  1.9080

 Free energy of the ion-electron system (eV)
  ---------------------------------------------------
  alpha Z        PSCENC =        91.34886789
  Ewald energy   TEWEN  =    120438.83508545
  -Hartree energ DENC   =   -131188.55404405
  -exchange      EXHF   =         0.00000000
  -V(xc)+E(xc)   XCENC  =      1277.25665229
  PAW double counting   =     41203.38782973   -41267.77462591
  entropy T*S    EENTRO =        -0.07440918
  eigenvalues    EBANDS =     -4921.93743795
  atomic energy  EATOM  =     13537.65479391
  Solvation  Ediel_sol  =         0.00000000
  ---------------------------------------------------
  free energy    TOTEN  =      -829.85728783 eV

  energy without entropy =     -829.78287865  energy(sigma->0) =     -829.82008324


--------------------------------------------------------------------------------------------------------




--------------------------------------- Iteration      1(   9)  ---------------------------------------


    POTLOK:  cpu time      0.3197: real time      0.3197
    SETDIJ:  cpu time      0.0402: real time      0.0401
     EDDAV:  cpu time     10.5888: real time     10.5927
       DOS:  cpu time      0.0008: real time      0.0008
    CHARGE:  cpu time      1.1580: real time      1.1576
    MIXING:  cpu time      0.2839: real time      0.2860
    --------------------------------------------
      LOOP:  cpu time     12.3913: real time     12.3969

 eigenvalue-minimisations  :  1648
 total energy-change (2. order) : 0.1111028E+00  (-0.2733249E-01)
 number of electron     367.9999999 magnetization 
 augmentation part        9.1783267 magnetization 

 Broyden mixing:
  rms(total) = 0.57083E-01    rms(broyden)= 0.57074E-01
  rms(prec ) = 0.78691E-01
  weight for this iteration     100.00

 eigenvalues of (default mixing * dielectric matrix)
  average eigenvalue GAMMA=   1.6979
  2.2115  2.2115  1.1269  1.2419

 Free energy of the ion-electron system (eV)
  ---------------------------------------------------
  alpha Z        PSCENC =        91.34886789
  Ewald energy   TEWEN  =    120438.83508545
  -Hartree energ DENC   =   -131260.12950264
  -exchange      EXHF   =         0.00000000
  -V(xc)+E(xc)   XCENC  =      1278.70958628
  PAW double counting   =     41758.85095060   -41823.31421061
  entropy T*S    EENTRO =        -0.07601634
  eigenvalues    EBANDS =     -4851.62573956
  atomic energy  EATOM  =     13537.65479391
  Solvation  Ediel_sol  =         0.00000000
  ---------------------------------------------------
  free energy    TOTEN  =      -829.74618502 eV

  energy without entropy =     -829.67016868  energy(sigma->0) =     -829.70817685


--------------------------------------------------------------------------------------------------------




--------------------------------------- Iteration      1(  10)  ---------------------------------------


    POTLOK:  cpu time      0.3218: real time      0.3219
    SETDIJ:  cpu time      0.0404: real time      0.0404
     EDDAV:  cpu time     11.1026: real time     11.1113
       DOS:  cpu time      0.0007: real time      0.0007
    CHARGE:  cpu time      1.1560: real time      1.1560
    MIXING:  cpu time      0.2912: real time      0.2919
    --------------------------------------------
      LOOP:  cpu time     12.9128: real time     12.9224

 eigenvalue-minimisations  :  1752
 total energy-change (2. order) : 0.3821656E-01  (-0.5134011E-02)
 number of electron     367.9999999 magnetization 
 augmentation part        9.1687008 magnetization 

 Broyden mixing:
  rms(total) = 0.35969E-01    rms(broyden)= 0.35966E-01
  rms(prec ) = 0.55403E-01
  weight for this iteration     100.00

 eigenvalues of (default mixing * dielectric matrix)
  average eigenvalue GAMMA=   1.7312
  2.4899  2.4899  1.5866  1.2873  0.8025

 Free energy of the ion-electron system (eV)
  ---------------------------------------------------
  alpha Z        PSCENC =        91.34886789
  Ewald energy   TEWEN  =    120438.83508545
  -Hartree energ DENC   =   -131310.92887026
  -exchange      EXHF   =         0.00000000
  -V(xc)+E(xc)   XCENC  =      1279.02225038
  PAW double counting   =     41516.05813705   -41580.37141456
  entropy T*S    EENTRO =        -0.07609775
  eigenvalues    EBANDS =     -4801.25072057
  atomic energy  EATOM  =     13537.65479391
  Solvation  Ediel_sol  =         0.00000000
  ---------------------------------------------------
  free energy    TOTEN  =      -829.70796847 eV

  energy without entropy =     -829.63187072  energy(sigma->0) =     -829.66991959


--------------------------------------------------------------------------------------------------------




--------------------------------------- Iteration      1(  11)  ---------------------------------------


    POTLOK:  cpu time      0.3220: real time      0.3219
    SETDIJ:  cpu time      0.0404: real time      0.0405
     EDDAV:  cpu time     10.0864: real time     10.0928
       DOS:  cpu time      0.0008: real time      0.0008
    CHARGE:  cpu time      1.1651: real time      1.1695
    MIXING:  cpu time      0.2982: real time      0.2982
    --------------------------------------------
      LOOP:  cpu time     11.9129: real time     11.9236

 eigenvalue-minimisations  :  1552
 total energy-change (2. order) : 0.2865885E-01  (-0.2125277E-02)
 number of electron     367.9999999 magnetization 
 augmentation part        9.1639257 magnetization 

 Broyden mixing:
  rms(total) = 0.24981E-01    rms(broyden)= 0.24979E-01
  rms(prec ) = 0.38346E-01
  weight for this iteration     100.00

 eigenvalues of (default mixing * dielectric matrix)
  average eigenvalue GAMMA=   1.7962
  3.0835  2.4649  1.9617  0.9037  1.1817  1.1817

 Free energy of the ion-electron system (eV)
  ---------------------------------------------------
  alpha Z        PSCENC =        91.34886789
  Ewald energy   TEWEN  =    120438.83508545
  -Hartree energ DENC   =   -131374.74775210
  -exchange      EXHF   =         0.00000000
  -V(xc)+E(xc)   XCENC  =      1279.57536860
  PAW double counting   =     41440.78299852   -41504.99100938
  entropy T*S    EENTRO =        -0.07599089
  eigenvalues    EBANDS =     -4738.06167161
  atomic energy  EATOM  =     13537.65479391
  Solvation  Ediel_sol  =         0.00000000
  ---------------------------------------------------
  free energy    TOTEN  =      -829.67930961 eV

  energy without entropy =     -829.60331872  energy(sigma->0) =     -829.64131417


--------------------------------------------------------------------------------------------------------




--------------------------------------- Iteration      1(  12)  ---------------------------------------


    POTLOK:  cpu time      0.3205: real time      0.3205
    SETDIJ:  cpu time      0.0404: real time      0.0404
     EDDAV:  cpu time     10.0856: real time     10.0893
       DOS:  cpu time      0.0007: real time      0.0007
    CHARGE:  cpu time      1.1550: real time      1.1569
    MIXING:  cpu time      0.3057: real time      0.3059
    --------------------------------------------
      LOOP:  cpu time     11.9080: real time     11.9138

 eigenvalue-minimisations  :  1552
 total energy-change (2. order) : 0.4106265E-02  (-0.2585852E-02)
 number of electron     367.9999999 magnetization 
 augmentation part        9.1561191 magnetization 

 Broyden mixing:
  rms(total) = 0.15153E-01    rms(broyden)= 0.15148E-01
  rms(prec ) = 0.23003E-01
  weight for this iteration     100.00

 eigenvalues of (default mixing * dielectric matrix)
  average eigenvalue GAMMA=   2.0765
  4.8984  2.4409  2.0306  2.0306  0.9426  1.0961  1.0961

 Free energy of the ion-electron system (eV)
  ---------------------------------------------------
  alpha Z        PSCENC =        91.34886789
  Ewald energy   TEWEN  =    120438.83508545
  -Hartree energ DENC   =   -131440.91285969
  -exchange      EXHF   =         0.00000000
  -V(xc)+E(xc)   XCENC  =      1280.23071132
  PAW double counting   =     41514.74035598   -41578.94461577
  entropy T*S    EENTRO =        -0.07626401
  eigenvalues    EBANDS =     -4672.55127842
  atomic energy  EATOM  =     13537.65479391
  Solvation  Ediel_sol  =         0.00000000
  ---------------------------------------------------
  free energy    TOTEN  =      -829.67520335 eV

  energy without entropy =     -829.59893934  energy(sigma->0) =     -829.63707134


--------------------------------------------------------------------------------------------------------




--------------------------------------- Iteration      1(  13)  ---------------------------------------


    POTLOK:  cpu time      0.3210: real time      0.3210
    SETDIJ:  cpu time      0.0404: real time      0.0403
     EDDAV:  cpu time     10.1982: real time     10.2025
       DOS:  cpu time      0.0008: real time      0.0008
    CHARGE:  cpu time      1.1579: real time      1.1576
    MIXING:  cpu time      0.3143: real time      0.3143
    --------------------------------------------
      LOOP:  cpu time     12.0326: real time     12.0365

 eigenvalue-minimisations  :  1576
 total energy-change (2. order) :-0.1236736E-01  (-0.8085492E-03)
 number of electron     367.9999999 magnetization 
 augmentation part        9.1538078 magnetization 

 Broyden mixing:
  rms(total) = 0.88410E-02    rms(broyden)= 0.88391E-02
  rms(prec ) = 0.12310E-01
  weight for this iteration     100.00

 eigenvalues of (default mixing * dielectric matrix)
  average eigenvalue GAMMA=   2.0601
  5.3539  2.4373  2.4373  1.8699  1.2056  1.2056  0.8619  1.1091

 Free energy of the ion-electron system (eV)
  ---------------------------------------------------
  alpha Z        PSCENC =        91.34886789
  Ewald energy   TEWEN  =    120438.83508545
  -Hartree energ DENC   =   -131490.19532851
  -exchange      EXHF   =         0.00000000
  -V(xc)+E(xc)   XCENC  =      1280.39884162
  PAW double counting   =     41455.96001743   -41520.15696136
  entropy T*S    EENTRO =        -0.07612408
  eigenvalues    EBANDS =     -4623.45676305
  atomic energy  EATOM  =     13537.65479391
  Solvation  Ediel_sol  =         0.00000000
  ---------------------------------------------------
  free energy    TOTEN  =      -829.68757071 eV

  energy without entropy =     -829.61144663  energy(sigma->0) =     -829.64950867


--------------------------------------------------------------------------------------------------------




--------------------------------------- Iteration      1(  14)  ---------------------------------------


    POTLOK:  cpu time      0.3214: real time      0.3214
    SETDIJ:  cpu time      0.0405: real time      0.0405
     EDDAV:  cpu time     10.2475: real time     10.2512
       DOS:  cpu time      0.0008: real time      0.0008
    CHARGE:  cpu time      1.1547: real time      1.1560
    MIXING:  cpu time      0.3200: real time      0.3208
    --------------------------------------------
      LOOP:  cpu time     12.0847: real time     12.0906

 eigenvalue-minimisations  :  1584
 total energy-change (2. order) :-0.1576014E-01  (-0.1118422E-03)
 number of electron     367.9999999 magnetization 
 augmentation part        9.1528615 magnetization 

 Broyden mixing:
  rms(total) = 0.59373E-02    rms(broyden)= 0.59368E-02
  rms(prec ) = 0.82650E-02
  weight for this iteration     100.00

 eigenvalues of (default mixing * dielectric matrix)
  average eigenvalue GAMMA=   2.1977
  6.3997  2.8299  2.6496  1.8622  1.6204  1.3861  1.1543  0.9385  0.9385

 Free energy of the ion-electron system (eV)
  ---------------------------------------------------
  alpha Z        PSCENC =        91.34886789
  Ewald energy   TEWEN  =    120438.83508545
  -Hartree energ DENC   =   -131504.06184399
  -exchange      EXHF   =         0.00000000
  -V(xc)+E(xc)   XCENC  =      1280.42454268
  PAW double counting   =     41463.79541040   -41528.00200831
  entropy T*S    EENTRO =        -0.07614640
  eigenvalues    EBANDS =     -4609.62203247
  atomic energy  EATOM  =     13537.65479391
  Solvation  Ediel_sol  =         0.00000000
  ---------------------------------------------------
  free energy    TOTEN  =      -829.70333086 eV

  energy without entropy =     -829.62718446  energy(sigma->0) =     -829.66525766


--------------------------------------------------------------------------------------------------------




--------------------------------------- Iteration      1(  15)  ---------------------------------------


    POTLOK:  cpu time      0.3221: real time      0.3221
    SETDIJ:  cpu time      0.0403: real time      0.0404
     EDDAV:  cpu time     10.2084: real time     10.2127
       DOS:  cpu time      0.0008: real time      0.0008
    CHARGE:  cpu time      1.1527: real time      1.1544
    MIXING:  cpu time      0.3324: real time      0.3338
    --------------------------------------------
      LOOP:  cpu time     12.0567: real time     12.0642

 eigenvalue-minimisations  :  1576
 total energy-change (2. order) :-0.2145370E-01  (-0.1890796E-03)
 number of electron     367.9999999 magnetization 
 augmentation part        9.1525944 magnetization 

 Broyden mixing:
  rms(total) = 0.31075E-02    rms(broyden)= 0.31071E-02
  rms(prec ) = 0.42360E-02
  weight for this iteration     100.00

 eigenvalues of (default mixing * dielectric matrix)
  average eigenvalue GAMMA=   2.2513
  7.0151  3.5489  2.2641  2.2641  1.6471  1.3755  1.3755  0.9447  0.9447  1.1333

 Free energy of the ion-electron system (eV)
  ---------------------------------------------------
  alpha Z        PSCENC =        91.34886789
  Ewald energy   TEWEN  =    120438.83508545
  -Hartree energ DENC   =   -131515.74498595
  -exchange      EXHF   =         0.00000000
  -V(xc)+E(xc)   XCENC  =      1280.39896026
  PAW double counting   =     41467.59114855   -41531.79899363
  entropy T*S    EENTRO =        -0.07622469
  eigenvalues    EBANDS =     -4597.93343634
  atomic energy  EATOM  =     13537.65479391
  Solvation  Ediel_sol  =         0.00000000
  ---------------------------------------------------
  free energy    TOTEN  =      -829.72478456 eV

  energy without entropy =     -829.64855987  energy(sigma->0) =     -829.68667222


--------------------------------------------------------------------------------------------------------




--------------------------------------- Iteration      1(  16)  ---------------------------------------


    POTLOK:  cpu time      0.3203: real time      0.3202
    SETDIJ:  cpu time      0.0403: real time      0.0403
     EDDAV:  cpu time     10.3756: real time     10.3791
       DOS:  cpu time      0.0008: real time      0.0008
    CHARGE:  cpu time      1.1648: real time      1.1669
    MIXING:  cpu time      0.3411: real time      0.3415
    --------------------------------------------
      LOOP:  cpu time     12.2429: real time     12.2487

 eigenvalue-minimisations  :  1608
 total energy-change (2. order) :-0.9146904E-02  (-0.5629322E-04)
 number of electron     367.9999999 magnetization 
 augmentation part        9.1525333 magnetization 

 Broyden mixing:
  rms(total) = 0.21574E-02    rms(broyden)= 0.21573E-02
  rms(prec ) = 0.27068E-02
  weight for this iteration     100.00

 eigenvalues of (default mixing * dielectric matrix)
  average eigenvalue GAMMA=   2.3300
  7.9170  4.0055  2.3915  2.3915  1.8700  1.5091  1.5091  0.9140  1.0065  1.0579
  1.0579

 Free energy of the ion-electron system (eV)
  ---------------------------------------------------
  alpha Z        PSCENC =        91.34886789
  Ewald energy   TEWEN  =    120438.83508545
  -Hartree energ DENC   =   -131519.56965812
  -exchange      EXHF   =         0.00000000
  -V(xc)+E(xc)   XCENC  =      1280.37770318
  PAW double counting   =     41459.45711242   -41523.66322712
  entropy T*S    EENTRO =        -0.07618702
  eigenvalues    EBANDS =     -4594.09842205
  atomic energy  EATOM  =     13537.65479391
  Solvation  Ediel_sol  =         0.00000000
  ---------------------------------------------------
  free energy    TOTEN  =      -829.73393146 eV

  energy without entropy =     -829.65774444  energy(sigma->0) =     -829.69583795


--------------------------------------------------------------------------------------------------------




--------------------------------------- Iteration      1(  17)  ---------------------------------------


    POTLOK:  cpu time      0.3202: real time      0.3202
    SETDIJ:  cpu time      0.0403: real time      0.0403
     EDDAV:  cpu time     10.3664: real time     10.3699
       DOS:  cpu time      0.0007: real time      0.0007
    CHARGE:  cpu time      1.1534: real time      1.1559
    MIXING:  cpu time      0.3506: real time      0.3507
    --------------------------------------------
      LOOP:  cpu time     12.2316: real time     12.2378

 eigenvalue-minimisations  :  1608
 total energy-change (2. order) :-0.4622260E-02  (-0.2592443E-04)
 number of electron     367.9999999 magnetization 
 augmentation part        9.1523895 magnetization 

 Broyden mixing:
  rms(total) = 0.11780E-02    rms(broyden)= 0.11779E-02
  rms(prec ) = 0.15007E-02
  weight for this iteration     100.00

 eigenvalues of (default mixing * dielectric matrix)
  average eigenvalue GAMMA=   2.3563
  8.2994  4.5816  2.4371  2.4371  2.0327  1.4279  1.4279  1.3474  1.3474  0.9476
  0.9948  0.9948

 Free energy of the ion-electron system (eV)
  ---------------------------------------------------
  alpha Z        PSCENC =        91.34886789
  Ewald energy   TEWEN  =    120438.83508545
  -Hartree energ DENC   =   -131521.89618906
  -exchange      EXHF   =         0.00000000
  -V(xc)+E(xc)   XCENC  =      1280.38086959
  PAW double counting   =     41465.46027716   -41529.66434698
  entropy T*S    EENTRO =        -0.07619692
  eigenvalues    EBANDS =     -4591.78171475
  atomic energy  EATOM  =     13537.65479391
  Solvation  Ediel_sol  =         0.00000000
  ---------------------------------------------------
  free energy    TOTEN  =      -829.73855373 eV

  energy without entropy =     -829.66235680  energy(sigma->0) =     -829.70045526


--------------------------------------------------------------------------------------------------------




--------------------------------------- Iteration      1(  18)  ---------------------------------------


    POTLOK:  cpu time      0.3199: real time      0.3200
    SETDIJ:  cpu time      0.0401: real time      0.0402
     EDDAV:  cpu time     10.2812: real time     10.2848
       DOS:  cpu time      0.0008: real time      0.0008
    CHARGE:  cpu time      1.1554: real time      1.1573
    MIXING:  cpu time      0.3609: real time      0.3610
    --------------------------------------------
      LOOP:  cpu time     12.1582: real time     12.1640

 eigenvalue-minimisations  :  1592
 total energy-change (2. order) :-0.2211713E-02  (-0.9169608E-05)
 number of electron     367.9999999 magnetization 
 augmentation part        9.1523251 magnetization 

 Broyden mixing:
  rms(total) = 0.60702E-03    rms(broyden)= 0.60694E-03
  rms(prec ) = 0.80375E-03
  weight for this iteration     100.00

 eigenvalues of (default mixing * dielectric matrix)
  average eigenvalue GAMMA=   2.3893
  8.8102  4.9698  2.6889  2.6889  1.9704  1.7193  1.5170  1.5170  0.9367  0.9367
  1.1616  1.0720  1.0720

 Free energy of the ion-electron system (eV)
  ---------------------------------------------------
  alpha Z        PSCENC =        91.34886789
  Ewald energy   TEWEN  =    120438.83508545
  -Hartree energ DENC   =   -131522.71372107
  -exchange      EXHF   =         0.00000000
  -V(xc)+E(xc)   XCENC  =      1280.38012527
  PAW double counting   =     41465.19547261   -41529.39941328
  entropy T*S    EENTRO =        -0.07619876
  eigenvalues    EBANDS =     -4590.96577745
  atomic energy  EATOM  =     13537.65479391
  Solvation  Ediel_sol  =         0.00000000
  ---------------------------------------------------
  free energy    TOTEN  =      -829.74076544 eV

  energy without entropy =     -829.66456668  energy(sigma->0) =     -829.70266606


--------------------------------------------------------------------------------------------------------




--------------------------------------- Iteration      1(  19)  ---------------------------------------


    POTLOK:  cpu time      0.3204: real time      0.3203
    SETDIJ:  cpu time      0.0403: real time      0.0403
     EDDAV:  cpu time      9.3024: real time      9.3060
       DOS:  cpu time      0.0008: real time      0.0008
    CHARGE:  cpu time      1.1540: real time      1.1562
    MIXING:  cpu time      0.3727: real time      0.3735
    --------------------------------------------
      LOOP:  cpu time     11.1905: real time     11.1972

 eigenvalue-minimisations  :  1392
 total energy-change (2. order) :-0.1099136E-02  (-0.3732990E-05)
 number of electron     367.9999999 magnetization 
 augmentation part        9.1523459 magnetization 

 Broyden mixing:
  rms(total) = 0.40784E-03    rms(broyden)= 0.40781E-03
  rms(prec ) = 0.49495E-03
  weight for this iteration     100.00

 eigenvalues of (default mixing * dielectric matrix)
  average eigenvalue GAMMA=   2.4153
  8.9576  5.5489  3.1502  2.3947  2.3947  1.8710  1.4589  1.4589  1.3150  1.3150
  0.9268  1.0272  0.9978  0.9978

 Free energy of the ion-electron system (eV)
  ---------------------------------------------------
  alpha Z        PSCENC =        91.34886789
  Ewald energy   TEWEN  =    120438.83508545
  -Hartree energ DENC   =   -131523.07096343
  -exchange      EXHF   =         0.00000000
  -V(xc)+E(xc)   XCENC  =      1280.37776984
  PAW double counting   =     41463.41264820   -41527.61524065
  entropy T*S    EENTRO =        -0.07619325
  eigenvalues    EBANDS =     -4590.60863252
  atomic energy  EATOM  =     13537.65479391
  Solvation  Ediel_sol  =         0.00000000
  ---------------------------------------------------
  free energy    TOTEN  =      -829.74186457 eV

  energy without entropy =     -829.66567132  energy(sigma->0) =     -829.70376795


--------------------------------------------------------------------------------------------------------




--------------------------------------- Iteration      1(  20)  ---------------------------------------


    POTLOK:  cpu time      0.3210: real time      0.3210
    SETDIJ:  cpu time      0.0405: real time      0.0405
     EDDAV:  cpu time      9.1059: real time      9.1092
       DOS:  cpu time      0.0007: real time      0.0007
    CHARGE:  cpu time      1.1546: real time      1.1563
    MIXING:  cpu time      0.3865: real time      0.3863
    --------------------------------------------
      LOOP:  cpu time     11.0092: real time     11.0141

 eigenvalue-minimisations  :  1352
 total energy-change (2. order) :-0.4272092E-03  (-0.8241410E-06)
 number of electron     367.9999999 magnetization 
 augmentation part        9.1523310 magnetization 

 Broyden mixing:
  rms(total) = 0.24042E-03    rms(broyden)= 0.24042E-03
  rms(prec ) = 0.28603E-03
  weight for this iteration     100.00

 eigenvalues of (default mixing * dielectric matrix)
  average eigenvalue GAMMA=   2.4698
  9.2406  5.9695  3.8050  2.6447  2.3962  1.9971  1.5614  1.5614  1.3757  1.3757
  0.9549  1.0025  1.0025  1.0799  1.0799

 Free energy of the ion-electron system (eV)
  ---------------------------------------------------
  alpha Z        PSCENC =        91.34886789
  Ewald energy   TEWEN  =    120438.83508545
  -Hartree energ DENC   =   -131523.24023890
  -exchange      EXHF   =         0.00000000
  -V(xc)+E(xc)   XCENC  =      1280.37766433
  PAW double counting   =     41464.40277954   -41528.60557775
  entropy T*S    EENTRO =        -0.07619656
  eigenvalues    EBANDS =     -4590.43946969
  atomic energy  EATOM  =     13537.65479391
  Solvation  Ediel_sol  =         0.00000000
  ---------------------------------------------------
  free energy    TOTEN  =      -829.74229178 eV

  energy without entropy =     -829.66609522  energy(sigma->0) =     -829.70419350


--------------------------------------------------------------------------------------------------------




--------------------------------------- Iteration      1(  21)  ---------------------------------------


    POTLOK:  cpu time      0.3203: real time      0.3203
    SETDIJ:  cpu time      0.0406: real time      0.0406
     EDDAV:  cpu time      8.7498: real time      8.7530
       DOS:  cpu time      0.0008: real time      0.0008
    CHARGE:  cpu time      1.1654: real time      1.1672
    MIXING:  cpu time      0.3964: real time      0.3975
    --------------------------------------------
      LOOP:  cpu time     10.6732: real time     10.6795

 eigenvalue-minimisations  :  1280
 total energy-change (2. order) :-0.2305969E-03  (-0.3498659E-06)
 number of electron     367.9999999 magnetization 
 augmentation part        9.1523360 magnetization 

 Broyden mixing:
  rms(total) = 0.10510E-03    rms(broyden)= 0.10508E-03
  rms(prec ) = 0.12613E-03
  weight for this iteration     100.00

 eigenvalues of (default mixing * dielectric matrix)
  average eigenvalue GAMMA=   2.4207
  9.2343  6.1816  3.8882  2.5678  2.4713  2.1363  1.7430  1.5032  1.5032  1.2959
  1.2959  1.0894  1.0005  1.0005  0.9097  0.9097

 Free energy of the ion-electron system (eV)
  ---------------------------------------------------
  alpha Z        PSCENC =        91.34886789
  Ewald energy   TEWEN  =    120438.83508545
  -Hartree energ DENC   =   -131523.32655704
  -exchange      EXHF   =         0.00000000
  -V(xc)+E(xc)   XCENC  =      1280.37655503
  PAW double counting   =     41463.11363430   -41527.31672830
  entropy T*S    EENTRO =        -0.07619654
  eigenvalues    EBANDS =     -4590.35197708
  atomic energy  EATOM  =     13537.65479391
  Solvation  Ediel_sol  =         0.00000000
  ---------------------------------------------------
  free energy    TOTEN  =      -829.74252238 eV

  energy without entropy =     -829.66632584  energy(sigma->0) =     -829.70442411


[...]
   -.239E+02 -.169E+02 0.134E+03   0.250E+02 0.181E+02 -.134E+03   0.174E+00 0.553E+00 0.728E+00   -.889E-06 -.197E-05 -.724E-06
   -.205E+02 -.138E+02 0.137E+03   0.201E+02 0.143E+02 -.137E+03   -.643E+00 0.102E+01 0.101E+01   -.564E-05 0.112E-05 -.283E-05
   -.613E+01 0.173E+02 0.785E+02   0.516E+01 -.183E+02 -.789E+02   -.856E+00 -.101E+00 0.388E+00   -.475E-05 0.524E-07 -.231E-05
   -.130E+01 0.820E+01 0.431E+02   0.111E+01 -.823E+01 -.429E+02   0.647E+00 0.255E+00 -.972E+00   0.375E-05 0.483E-06 0.118E-05
   0.583E+01 -.960E+00 -.111E+02   -.557E+01 0.379E+00 0.111E+02   0.115E-01 -.636E+00 -.354E+00   -.132E-05 0.152E-05 0.573E-06
   -.133E+02 -.136E+02 0.747E+02   0.127E+02 0.142E+02 -.752E+02   -.658E+00 -.966E+00 0.683E+00   0.691E-05 0.207E-05 0.168E-05
   0.226E+02 0.882E+01 -.859E+02   -.227E+02 -.857E+01 0.864E+02   0.389E+00 0.881E-01 -.138E+01   0.250E-05 -.277E-05 0.218E-05
   0.464E+01 0.134E+02 -.301E+02   -.507E+01 -.136E+02 0.303E+02   0.361E-01 0.165E+00 -.666E+00   0.120E-05 0.182E-05 0.109E-05
   0.835E+01 -.141E+02 -.481E+02   -.808E+01 0.152E+02 0.483E+02   0.243E+00 0.187E+00 0.770E+00   0.586E-05 -.496E-05 0.180E-05
   0.970E+00 0.147E+01 -.613E+02   0.419E+00 -.270E+01 0.617E+02   0.993E+00 -.121E+01 -.881E+00   -.258E-05 0.630E-05 -.245E-06
   0.523E+01 0.133E+02 -.598E+02   -.576E+01 -.144E+02 0.595E+02   -.803E+00 -.230E+00 0.127E+01   -.638E-06 0.198E-05 0.876E-06
   0.385E+01 0.168E+02 -.509E+02   -.447E+01 -.171E+02 0.502E+02   -.116E+01 -.106E+00 0.134E+01   0.318E-05 0.507E-06 0.536E-06
   0.198E+02 -.114E+02 -.165E+03   -.192E+02 0.118E+02 0.166E+03   0.177E+01 0.430E+00 -.313E+01   0.102E-05 0.906E-06 0.441E-06
   0.571E+01 -.654E+01 -.512E+02   -.492E+01 0.671E+01 0.510E+02   0.191E+00 0.214E+00 0.569E+00   0.618E-05 -.270E-06 0.658E-06
   0.925E+01 0.217E+02 -.868E+02   -.916E+01 -.235E+02 0.866E+02   0.665E+00 -.393E-01 0.135E+01   0.675E-05 0.238E-05 0.131E-05
   0.114E+02 0.175E+02 -.585E+02   -.120E+02 -.189E+02 0.584E+02   0.105E+00 -.108E+01 -.330E+00   0.211E-05 0.465E-05 -.300E-06
   0.160E+02 -.200E+02 -.729E+02   -.175E+02 0.212E+02 0.726E+02   -.120E+01 -.373E+00 0.590E+00   0.224E-05 -.324E-05 -.467E-06
   0.654E+01 -.982E+00 -.536E+02   -.655E+01 0.977E+00 0.537E+02   0.398E+00 -.151E+00 0.968E-01   -.548E-05 0.192E-05 -.539E-06
   0.209E+01 0.951E+01 -.151E+03   -.139E+01 -.926E+01 0.151E+03   0.110E+00 0.157E+00 -.307E-02   -.699E-05 -.785E-05 -.217E-05
   -.324E+01 0.676E+01 -.140E+02   0.360E+01 -.622E+01 0.133E+02   0.308E+00 -.896E-01 0.184E+01   -.749E-05 -.120E-05 -.339E-06
   -.771E+01 -.425E+00 -.140E+03   0.812E+01 -.189E+00 0.140E+03   -.772E+00 -.697E+00 -.233E+01   -.304E-05 0.353E-05 -.635E-06
   -.719E+01 0.404E+01 -.502E+02   0.686E+01 -.451E+01 0.505E+02   -.564E+00 0.182E+00 -.238E+00   -.920E-06 0.140E-05 -.799E-06
   -.466E+01 0.648E+01 -.500E+02   0.397E+01 -.702E+01 0.499E+02   -.530E+00 -.493E+00 0.137E+01   0.372E-05 0.405E-05 -.643E-07
   -.229E+01 0.165E+02 0.357E+02   0.268E+01 -.176E+02 -.361E+02   -.471E-01 -.200E+00 0.895E+00   -.373E-05 0.714E-05 -.591E-06
   0.457E+01 -.723E+01 0.454E+02   -.426E+01 0.747E+01 -.461E+02   0.465E+00 0.763E-02 0.552E+00   -.507E-05 0.207E-05 0.103E-05
   -.292E+02 0.131E+02 -.724E+01   0.300E+02 -.128E+02 0.743E+01   -.410E+00 0.465E+00 -.132E+01   0.616E-06 0.301E-05 -.168E-05
   -.258E+02 -.104E+02 0.181E+02   0.267E+02 0.108E+02 -.175E+02   0.769E+00 -.159E+00 -.115E+01   -.657E-05 -.195E-06 0.172E-05
   0.275E+02 0.737E+02 0.108E+03   -.317E+02 -.767E+02 -.108E+03   0.152E+01 -.203E+00 0.716E+00   0.881E-05 -.140E-05 -.471E-05
   0.236E+02 -.847E+02 0.132E+03   -.269E+02 0.881E+02 -.132E+03   0.118E+01 -.282E+01 0.175E+01   0.537E-05 -.192E-05 -.277E-05
   -.296E+02 0.733E+02 -.165E+03   0.324E+02 -.753E+02 0.165E+03   -.246E+01 0.124E-01 -.137E+01   0.503E-05 0.408E-05 0.671E-06
   -.778E+01 -.723E+02 -.112E+03   0.926E+01 0.743E+02 0.113E+03   -.135E+01 -.205E+01 -.229E+00   0.797E-05 0.665E-05 -.323E-05
   0.144E+02 0.784E+01 -.267E+02   -.147E+02 -.732E+01 0.267E+02   0.212E+00 0.591E+00 0.106E+01   0.356E-05 -.852E-06 -.164E-05
   0.161E+02 -.152E+02 -.126E+02   -.167E+02 0.161E+02 0.120E+02   -.160E-01 0.185E+00 0.203E+00   -.431E-05 0.404E-06 0.117E-05
   0.600E+01 0.704E+01 -.208E+02   -.742E+01 -.605E+01 0.217E+02   -.112E+01 0.836E+00 0.400E-02   0.101E-04 -.251E-05 -.294E-05
   -.130E+02 -.138E+02 -.242E+02   0.147E+02 0.133E+02 0.244E+02   0.119E+01 -.531E+00 -.126E+01   -.902E-06 0.245E-06 0.395E-06
   0.341E+01 -.308E+01 0.575E+02   -.224E+01 0.287E+01 -.585E+02   0.154E+00 -.117E+01 0.110E+01   0.613E-05 0.281E-05 -.936E-06
   0.167E+02 0.147E+02 0.763E+02   -.170E+02 -.156E+02 -.761E+02   0.113E+00 -.323E+00 0.119E+00   0.802E-05 0.348E-05 -.350E-05
   0.348E+01 0.836E+01 0.299E+02   -.338E+01 -.836E+01 -.293E+02   -.696E+00 0.259E+00 -.929E+00   -.305E-05 0.207E-05 -.250E-07
   0.132E+02 -.100E+02 0.760E+02   -.145E+02 0.103E+02 -.758E+02   -.573E+00 -.620E-01 0.597E+00   0.418E-05 -.330E-05 -.152E-06
   -.123E+02 -.798E+01 0.699E+02   0.136E+02 0.895E+01 -.697E+02   -.254E+00 0.436E+00 -.484E-01   -.831E-05 0.115E-05 0.898E-06
   -.705E+01 0.499E+01 0.878E+02   0.834E+01 -.432E+01 -.883E+02   0.884E+00 -.210E+00 0.337E+00   -.751E-05 -.486E-05 0.801E-06
   0.124E+02 0.170E+02 0.396E+02   -.134E+02 -.184E+02 -.392E+02   -.104E+01 -.990E+00 -.916E+00   -.324E-05 -.682E-06 0.112E-05
   0.628E+01 -.196E+02 0.988E+02   -.686E+01 0.213E+02 -.989E+02   -.177E+00 0.552E-01 0.639E+00   -.802E-05 0.110E-05 0.643E-06
   0.329E+01 0.226E+01 0.525E+02   -.338E+01 -.252E+01 -.527E+02   -.135E+00 0.341E+00 0.339E+00   0.802E-06 0.320E-05 0.155E-05
   -.886E+01 0.350E+01 0.121E+03   0.895E+01 -.340E+01 -.121E+03   -.257E+00 -.451E+00 0.541E+00   -.214E-05 0.343E-05 -.349E-06
   0.336E+01 0.120E+02 -.124E+02   -.332E+01 -.135E+02 0.131E+02   0.571E+00 -.333E+00 -.150E+01   -.470E-05 -.606E-06 0.350E-06
   -.435E+01 -.221E+02 0.598E+02   0.402E+01 0.239E+02 -.598E+02   0.517E+00 0.823E+00 -.470E+00   -.312E-05 -.449E-05 0.573E-06
   -.551E+01 -.899E+01 0.387E+02   0.528E+01 0.976E+01 -.387E+02   0.449E+00 0.483E+00 0.537E+00   -.697E-05 0.997E-06 -.139E-05
   -.163E+02 0.108E+02 0.116E+03   0.167E+02 -.112E+02 -.117E+03   0.161E+00 0.132E+01 0.127E+01   -.398E-05 -.424E-05 -.159E-05
   -.890E+01 0.117E+02 0.227E+02   0.986E+01 -.123E+02 -.225E+02   0.863E+00 -.333E+00 0.125E+01   -.273E-05 -.163E-05 -.656E-06
   -.758E+01 -.149E+02 0.239E+02   0.737E+01 0.155E+02 -.232E+02   -.673E+00 -.839E+00 -.237E+01   0.209E-06 0.246E-05 0.699E-07
   0.207E+02 -.920E+01 -.432E+02   -.225E+02 0.899E+01 0.425E+02   -.665E+00 -.596E+00 0.496E-01   0.390E-05 0.152E-05 0.202E-05
   -.243E+02 0.126E+02 0.104E+03   0.245E+02 -.131E+02 -.105E+03   -.982E+00 -.966E+00 0.187E+01   0.245E-05 0.193E-05 -.618E-06
   0.258E+01 -.117E+01 -.704E+02   -.173E+01 0.183E+01 0.707E+02   0.751E+00 0.252E+00 -.814E+00   0.453E-05 -.143E-05 0.212E-05
   -.108E+02 -.614E+01 0.718E+01   0.114E+02 0.638E+01 -.696E+01   0.744E+00 0.482E-02 -.162E+00   -.167E-05 -.243E-05 -.149E-06
   0.730E+01 -.223E+02 -.641E+02   -.712E+01 0.237E+02 0.644E+02   0.988E+00 0.466E+00 0.176E+00   -.663E-06 -.443E-05 0.104E-05
   -.100E+02 0.103E+02 -.773E+01   0.102E+02 -.101E+02 0.749E+01   -.338E+00 0.104E+00 0.150E+00   -.106E-05 0.301E-05 -.374E-06
   0.372E+01 0.752E+01 -.697E+02   -.325E+01 -.747E+01 0.700E+02   0.451E+00 0.104E+01 -.192E+00   0.277E-05 -.554E-05 0.193E-05
   -.657E+01 -.111E+02 -.131E+02   0.713E+01 0.112E+02 0.131E+02   -.577E+00 0.638E+00 0.123E+01   0.689E-05 -.835E-06 0.197E-05
   0.128E+02 -.263E+02 -.125E+03   -.130E+02 0.280E+02 0.125E+03   -.797E+00 0.113E+01 -.714E+00   0.359E-05 -.344E-05 0.130E-05
   0.221E+02 0.131E+02 -.954E+02   -.237E+02 -.136E+02 0.956E+02   -.676E+00 -.851E-01 -.220E+01   0.106E-04 0.100E-05 0.112E-05
   0.154E+02 0.130E+02 -.167E+03   -.153E+02 -.145E+02 0.168E+03   0.752E-01 -.132E+01 -.851E+00   -.607E-05 0.736E-05 -.278E-05
   0.184E+00 -.917E+01 -.707E+02   0.109E+01 0.100E+02 0.701E+02   0.290E-01 0.188E+00 0.206E+01   -.219E-05 -.447E-06 0.262E-06
   0.416E+01 -.220E+02 -.213E+03   -.350E+01 0.237E+02 0.213E+03   0.206E+00 0.591E+00 -.752E+00   -.301E-05 -.393E-05 -.160E-05
   0.362E+01 0.123E+02 -.123E+03   -.420E+01 -.127E+02 0.123E+03   -.492E+00 -.216E+00 -.946E+00   -.537E-05 0.939E-06 -.199E-05
   0.996E+01 0.937E+01 -.209E+03   -.126E+02 -.100E+02 0.209E+03   -.182E+01 -.539E-01 -.241E+00   0.712E-05 0.562E-06 -.120E-05
   0.380E+01 -.141E+02 -.164E+03   -.412E+01 0.145E+02 0.164E+03   0.250E+00 0.351E+00 0.463E+00   -.209E-05 -.135E-06 -.464E-07
   -.221E+02 -.636E-01 -.170E+03   0.231E+02 0.591E-02 0.170E+03   0.371E+00 0.302E+00 -.646E+00   0.376E-05 -.128E-05 -.802E-06
   -.262E+02 -.844E+01 -.176E+03   0.268E+02 0.889E+01 0.176E+03   0.615E-01 0.681E+00 -.157E+01   -.276E-05 -.340E-05 0.140E-05
   -.310E+02 0.114E+02 -.167E+03   0.306E+02 -.120E+02 0.167E+03   0.529E+00 0.564E-01 0.333E+00   -.629E-05 -.261E-05 0.264E-05
   -.326E+02 -.269E+02 -.159E+03   0.322E+02 0.283E+02 0.159E+03   -.421E+00 0.108E+01 0.168E+00   -.393E-05 -.847E-05 0.310E-05
   -.542E+02 0.205E+02 -.161E+03   0.544E+02 -.219E+02 0.161E+03   0.115E+01 -.415E+00 -.129E+01   -.860E-05 -.603E-06 0.316E-05
   -.382E+02 -.194E+02 -.995E+02   0.383E+02 0.200E+02 0.994E+02   0.667E+00 -.132E+00 -.528E+00   0.504E-07 -.173E-05 0.156E-05
   -.678E+02 0.685E+02 -.189E+03   0.671E+02 -.688E+02 0.191E+03   0.627E+00 0.278E+01 -.195E+01   0.120E-05 -.113E-05 0.211E-05
   -.342E+02 -.639E+02 -.103E+03   0.321E+02 0.643E+02 0.105E+03   0.153E+01 -.115E+01 -.794E-02   0.702E-05 0.387E-05 -.134E-05
 -----------------------------------------------------------------------------------------------
   -.220E-01 0.101E+01 0.785E+00   0.497E-13 -.114E-12 0.000E+00   -.209E-01 -.870E+00 -.810E+00   -.953E-05 -.317E-06 -.156E-04
 
 
 POSITION                                       TOTAL-FORCE (eV/Angst)
 -----------------------------------------------------------------------------------
      0.05325      0.78908     16.12950         0.980749      0.607150     -0.225452
      0.09207      2.16981     16.22920         1.796048      1.360808     -1.366450
      1.21551      0.08805     15.97640         1.040704      0.803105      0.061627
      1.27893      2.86271     16.09940         0.145833     -1.135228      0.435872
      2.44735      0.78976     15.64480        -0.709600      0.185008     -0.488634
      2.48157      2.16012     15.74900        -0.455963      1.276673     -0.063983
      3.67805      0.14863     15.39280        -0.408495     -0.520603      0.879848
      3.71259      2.88345     15.64720         0.680325     -1.992167     -1.296608
      4.89165      0.80353     15.21210         2.173501      1.584720      0.572908
      4.92034      2.19637     15.27290        -1.254648      0.796939      0.295422
      6.19457      0.21113     15.38260         0.346323     -0.826851     -1.884168
      6.14584      2.89216     15.23520         1.714511     -1.508328      0.657262
      7.51094      0.85268     15.22930        -4.264352      1.290778      0.247763
      7.41243      2.23128     15.22870         2.458199      0.405841     -0.323639
      8.71741      0.23061     15.32590         1.865527     -1.665359      0.522073
      8.72958      2.89140     15.40760        -2.525547     -0.381392     -0.019937
      9.95822      0.88333     15.54180         0.690159     -2.317658     -0.767155
      9.94639      2.22258     15.55560         1.313796      1.761483      0.767569
     11.20000      0.16736     15.76680        -1.055503      1.564630      0.348197
     11.16450      2.90502     15.96630        -1.825478     -1.141367     -0.016162
     12.35080      0.86134     16.23730         0.451584      0.224876     -0.752700
     12.30380      2.24344     16.40300         0.274025     -1.218265     -0.322088
     13.60100      0.23756     16.48220        -1.297909     -0.320932      0.177243
     13.45820      2.88456     16.88380         0.304369      0.331869     -0.844274
     14.72390      0.86543     17.00990        -0.392954      0.047940     -0.430198
     14.67310      2.21274     17.10300         0.516876      1.213408      0.943098
     15.90060      0.22299     17.32990         2.382809     -2.441969     -0.520096
     15.89340      2.87030     17.42580        -1.337206     -1.353024      0.999519
     17.15380      0.85215     17.60910        -1.775810     -0.400730      0.698803
     17.06210      2.19824     17.82790         2.416385      0.830073     -1.940243
     18.37770      0.19073     17.76740         0.981956      0.387145      0.375093
     18.34540      2.86345     17.91440         0.760559     -1.841219      1.156320
     19.62370      0.88302     17.90400        -0.502711     -2.507938     -0.395353
     19.65090      2.21825     17.98930        -2.775713      0.865429      0.308547
     20.84900      0.18455     17.94400         0.386816     -0.158180      0.184485
     20.85080      2.86256     18.22500         0.805138      0.408821      0.192631
     22.07160      0.84829     17.83330         0.666855      0.454058      1.140297
     22.10200      2.22535     18.09060        -0.361251     -1.312026     -1.934766
     23.31590      0.15979     17.77920        -0.891486     -0.290128      0.119614
     23.30790      2.89426     17.83420        -1.211506     -1.039283      1.256731
     24.45890      0.84970     17.36510         0.336802     -1.236481      0.482615
     24.42660      2.22268     17.36850         0.775619      0.249358     -0.151607
     25.69030      0.16259     17.21460         0.399956      0.754999     -1.128034
     25.63620      2.90170     17.20990         1.708374      0.204784     -0.546375
     26.73140      0.89642     16.58770        -2.677518     -3.156239      0.999453
     26.73060      2.26476     16.56660        -2.183364      0.657320      1.295056
      0.37729      4.87400     17.16010         0.318894     -2.037966     -0.706395
      0.30751      6.23678     17.04390         0.128916     -0.023291      0.293943
      1.39875      4.17140     16.49580        -0.105904      1.116381      1.019981
      1.34033      6.88815     16.43910        -0.575594      1.073510     -0.389002
      2.62118      4.85827     16.21530        -2.532017      1.823101      0.916940
      2.54111      6.25605     16.21950         2.881073     -0.978680     -1.113667
      3.76662      4.24722     15.81280         1.331593     -1.380857      0.077142
      3.72991      6.91577     15.70810        -0.147249     -1.189761      0.339507
      5.01270      4.88950     15.69310        -0.598786      0.255207     -0.386602
      4.99816      6.25915     15.59450        -1.860749      0.155155      0.834572
      6.21357      4.22123     15.50900         1.044059      1.409194      0.144894
      6.18918      6.93397     15.46110         2.172952      0.457071     -0.180576
      7.49367      4.92904     15.59250        -2.036796     -2.406064     -0.539873
      7.47538      6.26877     15.46600        -0.756745      1.757819      0.565973
      8.70202      4.23980     15.64610        -0.230519      0.075195      0.133710
      8.71398      6.94906     15.45790        -0.168357     -0.352486      0.340184
      9.88286      4.92011     15.92250         0.609061     -1.802538     -0.837302
      9.90991      6.24640     15.75780         0.184241      2.610195     -0.494848
     11.11250      4.25159     16.05920         0.223618      1.251902      0.554411
     11.16510      6.89657     15.83390         0.538770      0.918699      0.798203
     12.30230      4.93957     16.34760         1.830329     -0.938989      1.420262
     12.37620      6.30256     16.27890        -0.884869     -0.191478     -1.688010
     13.49370      4.26686     16.81610        -2.470252     -0.807450     -0.612536
     13.61510      6.97560     16.42120        -0.794826     -1.499070      1.096019
     14.66220      4.90424     17.10790         1.605962      0.906248     -0.464914
     14.72690      6.27084     16.90620         1.409154      0.246364      0.065670
     15.86400      4.21340     17.40480         1.159587      1.782518      0.472575
     15.95880      6.92143     17.22200        -0.140401      0.386254     -0.088308
     17.11560      4.84733     17.64510         0.923161      1.080447      0.180817
     17.17840      6.22652     17.50740        -0.012896      0.781480      1.239690
     18.37000      4.19465     17.99240        -0.942615      2.883770     -0.295849
     18.41900      6.92172     17.85750        -2.252100     -0.542827     -2.009156
     19.60180      4.91927     18.22800         0.229924     -2.831344     -0.396297
     19.62580      6.25265     18.01070         1.300596      1.054485      1.451639
     20.85050      4.21057     18.40820         0.864619      2.257260     -0.517517
     20.88940      6.92285     18.13800        -1.072321     -0.651187     -0.618641
     22.18140      4.88455     18.38940        -4.426307     -0.697924      0.456337
     22.12770      6.24760     18.27640        -0.065301      0.840123      0.573545
     23.34610      4.21242     18.17390         1.319102      0.242219     -0.354782
     23.35410      6.90557     18.14630         0.649457      1.126883     -1.429876
     24.57550      4.87250     18.03440         0.150162     -0.517178      0.611210
     24.59800      6.21761     17.99760        -0.813501      2.448455      0.538589
     25.75120      4.18954     17.75090         1.364216     -1.773621     -1.242524
     25.76210      6.91428     17.59190         0.805937      0.406988     -0.569722
     26.97910      4.80272     17.62210        -0.017166      2.501075     -0.317098
     26.94280      6.21164     17.43350        -0.606894     -0.727139      1.427558
 -----------------------------------------------------------------------------------
    total drift:                               -0.043003      0.145141     -0.025839


--------------------------------------------------------------------------------------------------------



  FREE ENERGIE OF THE ION-ELECTRON SYSTEM (eV)
  ---------------------------------------------------
  free  energy   TOTEN  =      -829.74262476 eV

  energy  without entropy=     -829.66642817  energy(sigma->0) =     -829.70452647
 


--------------------------------------------------------------------------------------------------------


    POTLOK:  cpu time      0.4572: real time      0.4572


--------------------------------------------------------------------------------------------------------


     LOOP+:  cpu time    333.8361: real time    334.0198
    4ORBIT:  cpu time      0.0000: real time      0.0000

 total amount of memory used by VASP MPI-rank0  2294513. kBytes
=======================================================================

   base                                    :      30000. kBytes
   nonlr-proj                              :      15079. kBytes
   fftplans                                :     436558. kBytes
   grid                                    :     732614. kBytes
   one-center                              :        282. kBytes
   wavefun                                 :    1079980. kBytes
 
  
  
 General timing and accounting informations for this job:
 ========================================================
  
                  Total CPU time used (sec):      367.093
                            User time (sec):      358.664
                          System time (sec):        8.429
                         Elapsed time (sec):      367.391
  
                   Maximum memory used (kb):     3731944.
                   Average memory used (kb):          N/A
  
                          Minor page faults:      3178727
                          Major page faults:         6575
                 Voluntary context switches:        10103
