<?xml version="1.0" encoding="ISO-8859-1"?>
<modeling>
 <generator>
  <i name="program" type="string">vasp </i>
  <i name="version" type="string">6.5.0  </i>
  <i name="subversion" type="string">16Dec24 (build Feb 19 2025 19:45:31) complex                          parallel </i>
  <i name="platform" type="string">LinuxNV </i>
  <i name="date" type="string">2025 10 25 </i>
  <i name="time" type="string">16:16:38 </i>
 </generator>
 <incar>
  <i type="int" name="ISTART">     0</i>
  <i type="string" name="PREC">Accurate   (Precision level)</i>
  <i type="string" name="ALGO">Normal</i>
  <i type="int" name="ISPIN">     1</i>
  <i type="int" name="ICHARG">     2</i>
  <i type="int" name="NELM">   150</i>
  <i type="int" name="IBRION">    -1</i>
  <i name="EDIFF">      0.00000100</i>
  <i type="int" name="NSW">     0</i>
  <i name="ENCUT">    500.00000000</i>
  <i type="string" name="LREAL">Auto         (Projection operators: automatic)</i>
  <i type="int" name="ISMEAR">     0</i>
  <i type="logical" name="KGAMMA"> T  </i>
  <i type="logical" name="LWAVE"> F  </i>
  <i type="logical" name="LCHARG"> F  </i>
 </incar>
 <primitive_cell>
  <structure name="primitive_cell" >
   <crystal>
    <varray name="basis" >
     <v>      28.05000000       0.00000000       0.00000000 </v>
     <v>       0.00000000       8.10000000       0.00000000 </v>
     <v>       0.00000000       0.00000000      33.50000000 </v>
    </varray>
    <i name="volume">   7611.36750000 </i>
    <varray name="rec_basis" >
     <v>       0.03565062       0.00000000       0.00000000 </v>
     <v>       0.00000000       0.12345679       0.00000000 </v>
     <v>       0.00000000       0.00000000       0.02985075 </v>
    </varray>
   </crystal>
   <varray name="positions" >
    <v>       0.00189846       0.09741790       0.48147761 </v>
    <v>       0.00328224       0.26787778       0.48445373 </v>
    <v>       0.04333369       0.01087091       0.47690746 </v>
    <v>       0.04559465       0.35342099       0.48057910 </v>
    <v>       0.08724955       0.09750160       0.46700896 </v>
    <v>       0.08846952       0.26668148       0.47011940 </v>
    <v>       0.13112478       0.01834889       0.45948657 </v>
    <v>       0.13235615       0.35598148       0.46708060 </v>
    <v>       0.17439037       0.09920123       0.45409254 </v>
    <v>       0.17541319       0.27115679       0.45590746 </v>
    <v>       0.22084029       0.02606481       0.45918209 </v>
    <v>       0.21910303       0.35705679       0.45478209 </v>
    <v>       0.26776970       0.10526901       0.45460597 </v>
    <v>       0.26425775       0.27546667       0.45458806 </v>
    <v>       0.31078111       0.02847037       0.45748955 </v>
    <v>       0.31121497       0.35696296       0.45992836 </v>
    <v>       0.35501676       0.10905309       0.46393433 </v>
    <v>       0.35459501       0.27439259       0.46434627 </v>
    <v>       0.39928699       0.02066185       0.47065075 </v>
    <v>       0.39802139       0.35864444       0.47660597 </v>
    <v>       0.44031373       0.10633802       0.48469552 </v>
    <v>       0.43863815       0.27696790       0.48964179 </v>
    <v>       0.48488414       0.02932827       0.49200597 </v>
    <v>       0.47979323       0.35611852       0.50399403 </v>
    <v>       0.52491622       0.10684346       0.50775821 </v>
    <v>       0.52310517       0.27317778       0.51053731 </v>
    <v>       0.56686631       0.02752914       0.51731045 </v>
    <v>       0.56660963       0.35435802       0.52017313 </v>
    <v>       0.61154367       0.10520383       0.52564478 </v>
    <v>       0.60827451       0.27138765       0.53217612 </v>
    <v>       0.65517647       0.02354642       0.53037015 </v>
    <v>       0.65402496       0.35351235       0.53475821 </v>
    <v>       0.69959715       0.10901519       0.53444776 </v>
    <v>       0.70056684       0.27385802       0.53699403 </v>
    <v>       0.74327986       0.02278407       0.53564179 </v>
    <v>       0.74334403       0.35340247       0.54402985 </v>
    <v>       0.78686631       0.10472716       0.53233731 </v>
    <v>       0.78795009       0.27473457       0.54001791 </v>
    <v>       0.83122638       0.01972704       0.53072239 </v>
    <v>       0.83094118       0.35731605       0.53236418 </v>
    <v>       0.87197504       0.10490185       0.51836119 </v>
    <v>       0.87082353       0.27440494       0.51846269 </v>
    <v>       0.91587522       0.02007309       0.51386866 </v>
    <v>       0.91394652       0.35823457       0.51372836 </v>
    <v>       0.95299109       0.11066975       0.49515522 </v>
    <v>       0.95296257       0.27960000       0.49452537 </v>
    <v>       0.01345048       0.60172840       0.51224179 </v>
    <v>       0.01096299       0.76997284       0.50877313 </v>
    <v>       0.04986631       0.51498765       0.49241194 </v>
    <v>       0.04778360       0.85038889       0.49071940 </v>
    <v>       0.09344670       0.59978642       0.48403881 </v>
    <v>       0.09059216       0.77235185       0.48416418 </v>
    <v>       0.13428235       0.52434815       0.47202388 </v>
    <v>       0.13297362       0.85379877       0.46889851 </v>
    <v>       0.17870588       0.60364198       0.46845075 </v>
    <v>       0.17818752       0.77273457       0.46550746 </v>
    <v>       0.22151765       0.52113951       0.46295522 </v>
    <v>       0.22064813       0.85604568       0.46152537 </v>
    <v>       0.26715401       0.60852346       0.46544776 </v>
    <v>       0.26650196       0.77392222       0.46167164 </v>
    <v>       0.31023244       0.52343210       0.46704776 </v>
    <v>       0.31065882       0.85790864       0.46142985 </v>
    <v>       0.35233012       0.60742099       0.47529851 </v>
    <v>       0.35329447       0.77116049       0.47038209 </v>
    <v>       0.39616756       0.52488765       0.47937910 </v>
    <v>       0.39804278       0.85142840       0.47265373 </v>
    <v>       0.43858467       0.60982346       0.48798806 </v>
    <v>       0.44121925       0.77809383       0.48593731 </v>
    <v>       0.48105882       0.52677284       0.50197313 </v>
    <v>       0.48538681       0.86118519       0.49018507 </v>
    <v>       0.52271658       0.60546173       0.51068358 </v>
    <v>       0.52502317       0.77417778       0.50466269 </v>
    <v>       0.56556150       0.52017284       0.51954627 </v>
    <v>       0.56894118       0.85449753       0.51408955 </v>
    <v>       0.61018182       0.59843580       0.52671940 </v>
    <v>       0.61242068       0.76870617       0.52260896 </v>
    <v>       0.65490196       0.51785802       0.53708657 </v>
    <v>       0.65664884       0.85453333       0.53305970 </v>
    <v>       0.69881640       0.60731728       0.54411940 </v>
    <v>       0.69967201       0.77193210       0.53763284 </v>
    <v>       0.74333333       0.51982346       0.54949851 </v>
    <v>       0.74472014       0.85467284       0.54143284 </v>
    <v>       0.79078075       0.60303086       0.54893731 </v>
    <v>       0.78886631       0.77130864       0.54556418 </v>
    <v>       0.83230303       0.52005185       0.54250448 </v>
    <v>       0.83258824       0.85253951       0.54168060 </v>
    <v>       0.87613191       0.60154321       0.53834030 </v>
    <v>       0.87693405       0.76760617       0.53724179 </v>
    <v>       0.91804635       0.51722716       0.52987761 </v>
    <v>       0.91843494       0.85361481       0.52513134 </v>
    <v>       0.96182175       0.59292840       0.52603284 </v>
    <v>       0.96052763       0.76686914       0.52040299 </v>
   </varray>
  </structure>
  <varray name="primitive_index" >
   <v type="int" >        1 </v>
   <v type="int" >        2 </v>
   <v type="int" >        3 </v>
   <v type="int" >        4 </v>
   <v type="int" >        5 </v>
   <v type="int" >        6 </v>
   <v type="int" >        7 </v>
   <v type="int" >        8 </v>
   <v type="int" >        9 </v>
   <v type="int" >       10 </v>
   <v type="int" >       11 </v>
   <v type="int" >       12 </v>
   <v type="int" >       13 </v>
   <v type="int" >       14 </v>
   <v type="int" >       15 </v>
   <v type="int" >       16 </v>
   <v type="int" >       17 </v>
   <v type="int" >       18 </v>
   <v type="int" >       19 </v>
   <v type="int" >       20 </v>
   <v type="int" >       21 </v>
   <v type="int" >       22 </v>
   <v type="int" >       23 </v>
   <v type="int" >       24 </v>
   <v type="int" >       25 </v>
   <v type="int" >       26 </v>
   <v type="int" >       27 </v>
   <v type="int" >       28 </v>
   <v type="int" >       29 </v>
   <v type="int" >       30 </v>
   <v type="int" >       31 </v>
   <v type="int" >       32 </v>
   <v type="int" >       33 </v>
   <v type="int" >       34 </v>
   <v type="int" >       35 </v>
   <v type="int" >       36 </v>
   <v type="int" >       37 </v>
   <v type="int" >       38 </v>
   <v type="int" >       39 </v>
   <v type="int" >       40 </v>
   <v type="int" >       41 </v>
   <v type="int" >       42 </v>
   <v type="int" >       43 </v>
   <v type="int" >       44 </v>
   <v type="int" >       45 </v>
   <v type="int" >       46 </v>
   <v type="int" >       47 </v>
   <v type="int" >       48 </v>
   <v type="int" >       49 </v>
   <v type="int" >       50 </v>
   <v type="int" >       51 </v>
   <v type="int" >       52 </v>
   <v type="int" >       53 </v>
   <v type="int" >       54 </v>
   <v type="int" >       55 </v>
   <v type="int" >       56 </v>
   <v type="int" >       57 </v>
   <v type="int" >       58 </v>
   <v type="int" >       59 </v>
   <v type="int" >       60 </v>
   <v type="int" >       61 </v>
   <v type="int" >       62 </v>
   <v type="int" >       63 </v>
   <v type="int" >       64 </v>
   <v type="int" >       65 </v>
   <v type="int" >       66 </v>
   <v type="int" >       67 </v>
   <v type="int" >       68 </v>
   <v type="int" >       69 </v>
   <v type="int" >       70 </v>
   <v type="int" >       71 </v>
   <v type="int" >       72 </v>
   <v type="int" >       73 </v>
   <v type="int" >       74 </v>
   <v type="int" >       75 </v>
   <v type="int" >       76 </v>
   <v type="int" >       77 </v>
   <v type="int" >       78 </v>
   <v type="int" >       79 </v>
   <v type="int" >       80 </v>
   <v type="int" >       81 </v>
   <v type="int" >       82 </v>
   <v type="int" >       83 </v>
   <v type="int" >       84 </v>
   <v type="int" >       85 </v>
   <v type="int" >       86 </v>
   <v type="int" >       87 </v>
   <v type="int" >       88 </v>
   <v type="int" >       89 </v>
   <v type="int" >       90 </v>
   <v type="int" >       91 </v>
   <v type="int" >       92 </v>
  </varray>
 </primitive_cell>
 <kpoints>
  <generation param="Gamma">
   <v type="int" name="divisions">       1        4        1 </v>
   <v name="usershift">      0.00000000       0.00000000       0.00000000 </v>
   <v name="genvec1">      1.00000000       0.00000000       0.00000000 </v>
   <v name="genvec2">      0.00000000       0.25000000       0.00000000 </v>
   <v name="genvec3">      0.00000000       0.00000000       1.00000000 </v>
   <v name="shift">      0.00000000       0.00000000       0.00000000 </v>
  </generation>
  <varray name="kpointlist" >
   <v>       0.00000000       0.00000000       0.00000000 </v>
   <v>       0.00000000       0.25000000       0.00000000 </v>
   <v>       0.00000000       0.50000000       0.00000000 </v>
  </varray>
  <varray name="weights" >
   <v>       0.25000000 </v>
   <v>       0.50000000 </v>
   <v>       0.25000000 </v>
  </varray>
 </kpoints>
 <parameters>
  <separator name="general" >
   <i type="string" name="SYSTEM">unknown system</i>
   <i type="logical" name="LCOMPAT"> F  </i>
  </separator>
  <separator name="electronic" >
   <i type="string" name="PREC">accura</i>
   <i name="ENMAX">    500.00000000</i>
   <i name="ENAUG">    644.87300000</i>
   <i name="EDIFF">      0.00000100</i>
   <i type="int" name="IALGO">    38</i>
   <i type="int" name="IWAVPR">    10</i>
   <i type="int" name="NBANDS">   232</i>
   <i type="int" name="NBANDSLOW">    -1</i>
   <i type="int" name="NBANDSHIGH">    -1</i>
   <i name="NELECT">    368.00000000</i>
   <i type="int" name="TURBO">     0</i>
   <i type="int" name="IRESTART">     0</i>
   <i type="int" name="NREBOOT">     0</i>
   <i type="int" name="NMIN">     0</i>
   <i name="EREF">      0.00000000</i>
   <separator name="electronic smearing" >
    <i type="int" name="ISMEAR">     0</i>
    <i name="SIGMA">      0.20000000</i>
    <i name="KSPACING">      0.50000000</i>
    <i type="logical" name="KGAMMA"> T  </i>
    <i type="logical" name="KBLOWUP"> T  </i>
   </separator>
   <separator name="electronic projectors" >
    <i type="logical" name="LREAL"> T  </i>
    <v name="ROPT">     -0.00025000</v>
    <i type="int" name="LMAXPAW">  -100</i>
    <i type="int" name="LMAXMIX">     2</i>
    <i type="logical" name="NLSPLINE"> F  </i>
   </separator>
   <separator name="electronic startup" >
    <i type="int" name="ISTART">     0</i>
    <i type="int" name="ICHARG">     2</i>
    <i type="int" name="INIWAV">     1</i>
   </separator>
   <separator name="electronic spin" >
    <i type="int" name="ISPIN">     1</i>
    <i type="logical" name="LNONCOLLINEAR"> F  </i>
    <v name="MAGMOM">      1.00000000      1.00000000      1.00000000      1.00000000      1.00000000      1.00000000      1.00000000      1.00000000      1.00000000      1.00000000      1.00000000      1.00000000      1.00000000      1.00000000      1.00000000      1.00000000      1.00000000      1.00000000      1.00000000      1.00000000
      1.00000000      1.00000000      1.00000000      1.00000000      1.00000000      1.00000000      1.00000000      1.00000000      1.00000000      1.00000000      1.00000000      1.00000000      1.00000000      1.00000000      1.00000000      1.00000000      1.00000000      1.00000000      1.00000000      1.00000000
      1.00000000      1.00000000      1.00000000      1.00000000      1.00000000      1.00000000      1.00000000      1.00000000      1.00000000      1.00000000      1.00000000      1.00000000      1.00000000      1.00000000      1.00000000      1.00000000      1.00000000      1.00000000      1.00000000      1.00000000
      1.00000000      1.00000000      1.00000000      1.00000000      1.00000000      1.00000000      1.00000000      1.00000000      1.00000000      1.00000000      1.00000000      1.00000000      1.00000000      1.00000000      1.00000000      1.00000000      1.00000000      1.00000000      1.00000000      1.00000000
      1.00000000      1.00000000      1.00000000      1.00000000      1.00000000      1.00000000      1.00000000      1.00000000      1.00000000      1.00000000      1.00000000      1.00000000</v>
    <i name="NUPDOWN">     -1.00000000</i>
    <i type="logical" name="LSORBIT"> F  </i>
    <v name="SAXIS">      0.00000000      0.00000000      1.00000000</v>
    <i type="logical" name="LSPIRAL"> F  </i>
    <v name="QSPIRAL">      0.00000000      0.00000000      0.00000000</v>
    <i type="logical" name="LZEROZ"> F  </i>
   </separator>
   <separator name="electronic exchange-correlation" >
    <i type="logical" name="LASPH"> F  </i>
   </separator>
   <separator name="electronic convergence" >
    <i type="int" name="NELM">   150</i>
    <i type="int" name="NELMDL">    -5</i>
    <i type="int" name="NELMIN">     2</i>
    <i name="ENINI">    500.00000000</i>
    <separator name="electronic convergence detail" >
     <i type="logical" name="LDIAG"> T  </i>
     <i type="logical" name="LSUBROT"> F  </i>
     <i name="WEIMIN">      0.00000000</i>
     <i name="EBREAK">      0.00000000</i>
     <i name="DEPER">      0.30000000</i>
     <i type="int" name="NRMM">     4</i>
     <i name="TIME">      0.40000000</i>
    </separator>
   </separator>
   <separator name="electronic mixer" >
    <i name="AMIX">      0.40000000</i>
    <i name="BMIX">      1.00000000</i>
    <i name="AMIN">      0.10000000</i>
    <i name="AMIX_MAG">      1.60000000</i>
    <i name="BMIX_MAG">      1.00000000</i>
    <separator name="electronic mixer details" >
     <i type="int" name="IMIX">     4</i>
     <i type="logical" name="MIXFIRST"> F  </i>
     <i type="int" name="MAXMIX">   -45</i>
     <i name="WC">    100.00000000</i>
     <i type="int" name="INIMIX">     1</i>
     <i type="int" name="MIXPRE">     1</i>
     <i type="int" name="MREMOVE">     5</i>
    </separator>
   </separator>
   <separator name="electronic dipolcorrection" >
    <i type="logical" name="LDIPOL"> F  </i>
    <i type="logical" name="LMONO"> F  </i>
    <i type="int" name="IDIPOL">     0</i>
    <i name="EPSILON">      1.00000000</i>
    <v name="DIPOL">   -100.00000000   -100.00000000   -100.00000000</v>
    <i name="EFIELD">      0.00000000</i>
    <i type="logical" name="LVACPOTAV"> F  </i>
   </separator>
  </separator>
  <separator name="grids" >
   <i type="int" name="NGX">   210</i>
   <i type="int" name="NGY">    60</i>
   <i type="int" name="NGZ">   250</i>
   <i type="int" name="NGXF">   420</i>
   <i type="int" name="NGYF">   120</i>
   <i type="int" name="NGZF">   500</i>
   <i type="logical" name="ADDGRID"> F  </i>
  </separator>
  <separator name="ionic" >
   <i type="int" name="NSW">     0</i>
   <i type="int" name="IBRION">    -1</i>
   <i type="int" name="MDALGO">     0</i>
   <i type="int" name="ISIF">     2</i>
   <i name="PSTRESS">      0.00000000</i>
   <i name="EDIFFG">      0.00001000</i>
   <i type="int" name="NFREE">     0</i>
   <i name="POTIM">      0.50000000</i>
   <i name="SMASS">     -3.00000000</i>
   <i name="SCALEE">      1.00000000</i>
  </separator>
  <separator name="ionic md" >
   <i name="TEBEG">      0.00010000</i>
   <i name="TEEND">      0.00010000</i>
   <i type="int" name="NBLOCK">     1</i>
   <i type="int" name="KBLOCK">     1</i>
   <i type="int" name="NPACO">   256</i>
   <i name="APACO">     10.00000000</i>
  </separator>
  <separator name="symmetry" >
   <i type="int" name="ISYM">     2</i>
   <i name="SYMPREC">      0.00001000</i>
  </separator>
  <separator name="dos" >
   <i type="int" name="LORBIT">     0</i>
   <v name="RWIGS">     -1.00000000</v>
   <i type="int" name="NEDOS">   301</i>
   <i name="EMIN">     10.00000000</i>
   <i name="EMAX">    -10.00000000</i>
   <i name="EFERMI">      0.00000000</i>
  </separator>
  <separator name="writing" >
   <i type="int" name="NWRITE">     2</i>
   <i type="logical" name="LWAVE"> F  </i>
   <i type="logical" name="LDOWNSAMPLE"> F  </i>
   <i type="logical" name="LCHARG"> F  </i>
   <i type="logical" name="LPARD"> F  </i>
   <i type="logical" name="LVTOT"> F  </i>
   <i type="logical" name="LVHAR"> F  </i>
   <i type="logical" name="LELF"> F  </i>
   <i type="logical" name="LOPTICS"> F  </i>
   <v name="STM">      0.00000000      0.00000000      0.00000000      0.00000000      0.00000000      0.00000000      0.00000000</v>
  </separator>
  <separator name="performance" >
   <i type="int" name="NPAR">     2</i>
   <i type="int" name="NSIM">     4</i>
   <i type="int" name="NBLK">    -1</i>
   <i type="logical" name="LPLANE"> T  </i>
   <i type="logical" name="LSCALAPACK"> T  </i>
   <i type="logical" name="LSCAAWARE"> F  </i>
   <i type="logical" name="LSCALU"> F  </i>
   <i type="logical" name="LASYNC"> F  </i>
   <i type="logical" name="LORBITALREAL"> F  </i>
  </separator>
  <separator name="miscellaneous" >
   <i type="int" name="IDIOT">     3</i>
   <i type="int" name="PHON_NSTRUCT">    -1</i>
   <i type="logical" name="LMUSIC"> F  </i>
   <v name="POMASS">     12.01100000</v>
   <v name="DARWINR">      0.00000000</v>
   <v name="DARWINV">      1.00000000</v>
   <i type="logical" name="LCORR"> T  </i>
  </separator>
  <i type="logical" name="GGA_COMPAT"> T  </i>
  <i type="logical" name="LBERRY"> F  </i>
  <i type="int" name="ICORELEVEL">     0</i>
  <i type="logical" name="LDAU"> F  </i>
  <i type="int" name="I_CONSTRAINED_M">     0</i>
  <separator name="electronic exchange-correlation" >
   <i type="string" name="GGA    ">PE</i>
   <i type="string" name="XC_C">1</i>
   <i type="int" name="VOSKOWN">     0</i>
   <i type="logical" name="LHFCALC"> F  </i>
   <i type="string" name="PRECFOCK"></i>
   <i type="logical" name="LSYMGRAD"> F  </i>
   <i type="logical" name="LHFONE"> F  </i>
   <i type="logical" name="LRHFCALC"> F  </i>
   <i type="logical" name="LTHOMAS"> F  </i>
   <i type="logical" name="LMODELHF"> F  </i>
   <i type="logical" name="LFOCKACE"> F  </i>
   <i name="ENCUT4O">     -1.00000000</i>
   <i type="int" name="EXXOEP">     0</i>
   <i type="int" name="FOURORBIT">     0</i>
   <i name="AEXX">      0.00000000</i>
   <i name="HFALPHA">      0.00000000</i>
   <i name="MCALPHA">      0.00000000</i>
   <i name="ALDAX">      1.00000000</i>
   <i name="AGGAX">      1.00000000</i>
   <i name="AMGGAX">      1.00000000</i>
   <i name="ALDAC">      1.00000000</i>
   <i name="AGGAC">      1.00000000</i>
   <i name="AMGGAC">      1.00000000</i>
   <i type="int" name="NKREDX">     1</i>
   <i type="int" name="NKREDY">     1</i>
   <i type="int" name="NKREDZ">     1</i>
   <i type="logical" name="SHIFTRED"> F  </i>
   <i type="logical" name="ODDONLY"> F  </i>
   <i type="logical" name="EVENONLY"> F  </i>
   <i type="int" name="LMAXFOCK">     0</i>
   <i type="int" name="NMAXFOCKAE">     0</i>
   <i type="logical" name="LFOCKAEDFT"> F  </i>
   <i name="HFSCREEN">      0.00000000</i>
   <i name="HFSCREENC">      0.00000000</i>
   <i type="int" name="NBANDSGWLOW">     0</i>
  </separator>
  <separator name="vdW DFT" >
   <i type="logical" name="LUSE_VDW"> F  </i>
   <i type="int" name="IVDW_NL">    -1</i>
   <i type="logical" name="LSPIN_VDW"> F  </i>
   <i name="ZAB_VDW">     -0.84910000</i>
   <i name="GAMMA_VDW">      1.39626340</i>
   <i name="ALPHA_VDW">      0.00000000</i>
   <i name="PARAM1">      0.12340000</i>
   <i name="PARAM2">      1.00000000</i>
   <i name="BPARAM">      6.30000000</i>
   <i name="CPARAM">      0.00930000</i>
  </separator>
  <separator name="model GW" >
   <i type="int" name="MODEL_GW">     0</i>
   <i name="MODEL_EPS0">     49.63935326</i>
   <i name="MODEL_ALPHA">      1.00000000</i>
  </separator>
  <separator name="linear response parameters" >
   <i type="logical" name="LEPSILON"> F  </i>
   <i type="logical" name="LRPA"> F  </i>
   <i type="logical" name="LNABLA"> F  </i>
   <i type="logical" name="LVEL"> F  </i>
   <i name="CSHIFT">      0.10000000</i>
   <i name="OMEGAMAX">     -1.00000000</i>
   <i name="DEG_THRESHOLD">      0.00200000</i>
   <i name="RTIME">     -0.10000000</i>
   <i name="WPLASMAI">      0.00000000</i>
   <v name="DFIELD">      0.00000000      0.00000000      0.00000000</v>
   <v name="WPLASMA">      0.00000000      0.00000000      0.00000000      0.00000000      0.00000000      0.00000000      0.00000000      0.00000000      0.00000000</v>
  </separator>
  <separator name="orbital magnetization" >
   <i type="logical" name="NUCIND"> F  </i>
   <v name="MAGPOS">      0.00000000      0.00000000      0.00000000</v>
   <i type="logical" name="LNICSALL"> T  </i>
   <i type="logical" name="ORBITALMAG"> F  </i>
   <i type="logical" name="LMAGBLOCH"> F  </i>
   <i type="logical" name="LCHIMAG"> F  </i>
   <i type="logical" name="LGAUGE"> T  </i>
   <i type="int" name="MAGATOM">     0</i>
   <v name="MAGDIPOL">      0.00000000      0.00000000      0.00000000</v>
   <v name="AVECCONST">      0.00000000      0.00000000      0.00000000</v>
  </separator>
  <separator name="response functions" >
   <i type="logical" name="LALL_IN_ONE"> F  </i>
   <i type="int" name="IALL_IN_ONE">    -1</i>
   <i type="int" name="NBANDS_WAVE">    -1</i>
   <i type="logical" name="LFINITE_TEMPERATURE"> F  </i>
   <i type="logical" name="LADDER"> F  </i>
   <i type="logical" name="LRPAFORCE"> F  </i>
   <i type="logical" name="LFXC"> F  </i>
   <i type="logical" name="LHARTREE"> T  </i>
   <i type="int" name="IBSE">     2</i>
   <v type="int" name="KPOINT">    -1     0     0     0</v>
   <i type="logical" name="LTCTC"> F  </i>
   <i type="logical" name="LTCTE"> F  </i>
   <i type="logical" name="LTETE"> F  </i>
   <i type="logical" name="LTRIPLET"> F  </i>
   <i type="logical" name="LFXCEPS"> F  </i>
   <i type="logical" name="LFXHEG"> F  </i>
   <i type="int" name="NATURALO">     2</i>
   <i type="logical" name="LHOLEGF"> F  </i>
   <i type="logical" name="L2ORDER"> F  </i>
   <i type="logical" name="LDMP1"> F  </i>
   <i type="logical" name="LMP2LT"> F  </i>
   <i type="logical" name="LSMP2LT"> F  </i>
   <i type="logical" name="LGWLF"> F  </i>
   <i name="ENCUTGW">     -1.60000002</i>
   <i name="ENCUTGWSOFT">     -1.60000002</i>
   <i name="ENCUTLF">     -1.00000000</i>
   <i type="logical" name="ESF_SPLINES"> F  </i>
   <i name="ESF_CONV">      0.01000000</i>
   <i type="int" name="ESF_NINTER">    15</i>
   <i type="int" name="LMAXMP2">    -1</i>
   <i name="SCISSOR">      0.00000000</i>
   <i type="int" name="NOMEGA">     0</i>
   <i type="int" name="NOMEGAR">     0</i>
   <i type="int" name="NBANDSGW">    -1</i>
   <i type="int" name="NBANDSO">    -1</i>
   <i type="int" name="NBANDSV">    -1</i>
   <i type="int" name="NELMGW">     1</i>
   <i type="int" name="NELMHF">     1</i>
   <i type="int" name="DIM">     3</i>
   <i type="int" name="IESPILON">     4</i>
   <i type="int" name="ANTIRES">     0</i>
   <i name="OMEGAMAX">    -30.00000000</i>
   <i name="OMEGAMIN">    -30.00000000</i>
   <i name="OMEGATL">   -200.00000000</i>
   <i type="int" name="OMEGAGRID">     0</i>
   <i name="CSHIFT">     -0.10000000</i>
   <i type="logical" name="LSELFENERGY"> F  </i>
   <i type="logical" name="LSPECTRAL"> F  </i>
   <i type="logical" name="LSPECTRALGW"> F  </i>
   <i type="logical" name="LSINGLES"> F  </i>
   <i type="logical" name="LFERMIGW"> F  </i>
   <i type="logical" name="ODDONLYGW"> F  </i>
   <i type="logical" name="EVENONLYGW"> F  </i>
   <i type="int" name="NKREDLFX">     1</i>
   <i type="int" name="NKREDLFY">     1</i>
   <i type="int" name="NKREDLFZ">     1</i>
   <i type="int" name="MAXMEM">  2800</i>
   <i type="int" name="TELESCOPE">     0</i>
   <i type="int" name="NTAUPAR">    -1</i>
   <i type="int" name="NOMEGAPAR">    -1</i>
   <i name="DAMP_NEWTON">      0.80000001</i>
   <i name="LAMBDA">      1.00000000</i>
  </separator>
  <separator name="External order field" >
   <i name="OFIELD_KAPPA">      0.00000000</i>
   <v name="OFIELD_K">      0.00000000      0.00000000      0.00000000</v>
   <i name="OFIELD_Q6_NEAR">      0.00000000</i>
   <i name="OFIELD_Q6_FAR">      0.00000000</i>
   <i name="OFIELD_A">      0.00000000</i>
  </separator>
  <separator name="optional k-points parameters" >
   <i type="int" name="KPOINTS_OPT_MODE">     1</i>
   <i type="logical" name="LKPOINTS_OPT"> F  </i>
  </separator>
 </parameters>
 <atominfo>
  <atoms>      92 </atoms>
  <types>       1 </types>
  <array name="atoms" >
   <dimension dim="1">ion</dimension>
   <field type="string">element</field>
   <field type="int">atomtype</field>
   <set>
    <rc><c>C </c><c>   1</c></rc>
    <rc><c>C </c><c>   1</c></rc>
    <rc><c>C </c><c>   1</c></rc>
    <rc><c>C </c><c>   1</c></rc>
    <rc><c>C </c><c>   1</c></rc>
    <rc><c>C </c><c>   1</c></rc>
    <rc><c>C </c><c>   1</c></rc>
    <rc><c>C </c><c>   1</c></rc>
    <rc><c>C </c><c>   1</c></rc>
    <rc><c>C </c><c>   1</c></rc>
    <rc><c>C </c><c>   1</c></rc>
    <rc><c>C </c><c>   1</c></rc>
    <rc><c>C </c><c>   1</c></rc>
    <rc><c>C </c><c>   1</c></rc>
    <rc><c>C </c><c>   1</c></rc>
    <rc><c>C </c><c>   1</c></rc>
    <rc><c>C </c><c>   1</c></rc>
    <rc><c>C </c><c>   1</c></rc>
    <rc><c>C </c><c>   1</c></rc>
    <rc><c>C </c><c>   1</c></rc>
    <rc><c>C </c><c>   1</c></rc>
    <rc><c>C </c><c>   1</c></rc>
    <rc><c>C </c><c>   1</c></rc>
    <rc><c>C </c><c>   1</c></rc>
    <rc><c>C </c><c>   1</c></rc>
    <rc><c>C </c><c>   1</c></rc>
    <rc><c>C </c><c>   1</c></rc>
    <rc><c>C </c><c>   1</c></rc>
    <rc><c>C </c><c>   1</c></rc>
    <rc><c>C </c><c>   1</c></rc>
    <rc><c>C </c><c>   1</c></rc>
    <rc><c>C </c><c>   1</c></rc>
    <rc><c>C </c><c>   1</c></rc>
    <rc><c>C </c><c>   1</c></rc>
    <rc><c>C </c><c>   1</c></rc>
    <rc><c>C </c><c>   1</c></rc>
    <rc><c>C </c><c>   1</c></rc>
    <rc><c>C </c><c>   1</c></rc>
    <rc><c>C </c><c>   1</c></rc>
    <rc><c>C </c><c>   1</c></rc>
    <rc><c>C </c><c>   1</c></rc>
    <rc><c>C </c><c>   1</c></rc>
    <rc><c>C </c><c>   1</c></rc>
    <rc><c>C </c><c>   1</c></rc>
    <rc><c>C </c><c>   1</c></rc>
    <rc><c>C </c><c>   1</c></rc>
    <rc><c>C </c><c>   1</c></rc>
    <rc><c>C </c><c>   1</c></rc>
    <rc><c>C </c><c>   1</c></rc>
    <rc><c>C </c><c>   1</c></rc>
    <rc><c>C </c><c>   1</c></rc>
    <rc><c>C </c><c>   1</c></rc>
    <rc><c>C </c><c>   1</c></rc>
    <rc><c>C </c><c>   1</c></rc>
    <rc><c>C </c><c>   1</c></rc>
    <rc><c>C </c><c>   1</c></rc>
    <rc><c>C </c><c>   1</c></rc>
    <rc><c>C </c><c>   1</c></rc>
    <rc><c>C </c><c>   1</c></rc>
    <rc><c>C </c><c>   1</c></rc>
    <rc><c>C </c><c>   1</c></rc>
    <rc><c>C </c><c>   1</c></rc>
    <rc><c>C </c><c>   1</c></rc>
    <rc><c>C </c><c>   1</c></rc>
    <rc><c>C </c><c>   1</c></rc>
    <rc><c>C </c><c>   1</c></rc>
    <rc><c>C </c><c>   1</c></rc>
    <rc><c>C </c><c>   1</c></rc>
    <rc><c>C </c><c>   1</c></rc>
    <rc><c>C </c><c>   1</c></rc>
    <rc><c>C </c><c>   1</c></rc>
    <rc><c>C </c><c>   1</c></rc>
    <rc><c>C </c><c>   1</c></rc>
    <rc><c>C </c><c>   1</c></rc>
    <rc><c>C </c><c>   1</c></rc>
    <rc><c>C </c><c>   1</c></rc>
    <rc><c>C </c><c>   1</c></rc>
    <rc><c>C </c><c>   1</c></rc>
    <rc><c>C </c><c>   1</c></rc>
    <rc><c>C </c><c>   1</c></rc>
    <rc><c>C </c><c>   1</c></rc>
    <rc><c>C </c><c>   1</c></rc>
    <rc><c>C </c><c>   1</c></rc>
    <rc><c>C </c><c>   1</c></rc>
    <rc><c>C </c><c>   1</c></rc>
    <rc><c>C </c><c>   1</c></rc>
    <rc><c>C </c><c>   1</c></rc>
    <rc><c>C </c><c>   1</c></rc>
    <rc><c>C </c><c>   1</c></rc>
    <rc><c>C </c><c>   1</c></rc>
    <rc><c>C </c><c>   1</c></rc>
    <rc><c>C </c><c>   1</c></rc>
   </set>
  </array>
  <array name="atomtypes" >
   <dimension dim="1">type</dimension>
   <field type="int">atomspertype</field>
   <field type="string">element</field>
   <field>mass</field>
   <field>valence</field>
   <field type="string">pseudopotential</field>
   <set>
    <rc><c>  92</c><c>C </c><c>     12.01100000</c><c>      4.00000000</c><c>  PAW_PBE C 08Apr2002                   </c></rc>
   </set>
  </array>
 </atominfo>
 <structure name="initialpos" >
  <crystal>
   <varray name="basis" >
    <v>      28.05000000       0.00000000       0.00000000 </v>
    <v>       0.00000000       8.10000000       0.00000000 </v>
    <v>       0.00000000       0.00000000      33.50000000 </v>
   </varray>
   <i name="volume">   7611.36750000 </i>
   <varray name="rec_basis" >
    <v>       0.03565062       0.00000000       0.00000000 </v>
    <v>       0.00000000       0.12345679       0.00000000 </v>
    <v>       0.00000000       0.00000000       0.02985075 </v>
   </varray>
  </crystal>
  <varray name="positions" >
   <v>       0.00189846       0.09741790       0.48147761 </v>
   <v>       0.00328224       0.26787778       0.48445373 </v>
   <v>       0.04333369       0.01087091       0.47690746 </v>
   <v>       0.04559465       0.35342099       0.48057910 </v>
   <v>       0.08724955       0.09750160       0.46700896 </v>
   <v>       0.08846952       0.26668148       0.47011940 </v>
   <v>       0.13112478       0.01834889       0.45948657 </v>
   <v>       0.13235615       0.35598148       0.46708060 </v>
   <v>       0.17439037       0.09920123       0.45409254 </v>
   <v>       0.17541319       0.27115679       0.45590746 </v>
   <v>       0.22084029       0.02606481       0.45918209 </v>
   <v>       0.21910303       0.35705679       0.45478209 </v>
   <v>       0.26776970       0.10526901       0.45460597 </v>
   <v>       0.26425775       0.27546667       0.45458806 </v>
   <v>       0.31078111       0.02847037       0.45748955 </v>
   <v>       0.31121497       0.35696296       0.45992836 </v>
   <v>       0.35501676       0.10905309       0.46393433 </v>
   <v>       0.35459501       0.27439259       0.46434627 </v>
   <v>       0.39928699       0.02066185       0.47065075 </v>
   <v>       0.39802139       0.35864444       0.47660597 </v>
   <v>       0.44031373       0.10633802       0.48469552 </v>
   <v>       0.43863815       0.27696790       0.48964179 </v>
   <v>       0.48488414       0.02932827       0.49200597 </v>
   <v>       0.47979323       0.35611852       0.50399403 </v>
   <v>       0.52491622       0.10684346       0.50775821 </v>
   <v>       0.52310517       0.27317778       0.51053731 </v>
   <v>       0.56686631       0.02752914       0.51731045 </v>
   <v>       0.56660963       0.35435802       0.52017313 </v>
   <v>       0.61154367       0.10520383       0.52564478 </v>
   <v>       0.60827451       0.27138765       0.53217612 </v>
   <v>       0.65517647       0.02354642       0.53037015 </v>
   <v>       0.65402496       0.35351235       0.53475821 </v>
   <v>       0.69959715       0.10901519       0.53444776 </v>
   <v>       0.70056684       0.27385802       0.53699403 </v>
   <v>       0.74327986       0.02278407       0.53564179 </v>
   <v>       0.74334403       0.35340247       0.54402985 </v>
   <v>       0.78686631       0.10472716       0.53233731 </v>
   <v>       0.78795009       0.27473457       0.54001791 </v>
   <v>       0.83122638       0.01972704       0.53072239 </v>
   <v>       0.83094118       0.35731605       0.53236418 </v>
   <v>       0.87197504       0.10490185       0.51836119 </v>
   <v>       0.87082353       0.27440494       0.51846269 </v>
   <v>       0.91587522       0.02007309       0.51386866 </v>
   <v>       0.91394652       0.35823457       0.51372836 </v>
   <v>       0.95299109       0.11066975       0.49515522 </v>
   <v>       0.95296257       0.27960000       0.49452537 </v>
   <v>       0.01345048       0.60172840       0.51224179 </v>
   <v>       0.01096299       0.76997284       0.50877313 </v>
   <v>       0.04986631       0.51498765       0.49241194 </v>
   <v>       0.04778360       0.85038889       0.49071940 </v>
   <v>       0.09344670       0.59978642       0.48403881 </v>
   <v>       0.09059216       0.77235185       0.48416418 </v>
   <v>       0.13428235       0.52434815       0.47202388 </v>
   <v>       0.13297362       0.85379877       0.46889851 </v>
   <v>       0.17870588       0.60364198       0.46845075 </v>
   <v>       0.17818752       0.77273457       0.46550746 </v>
   <v>       0.22151765       0.52113951       0.46295522 </v>
   <v>       0.22064813       0.85604568       0.46152537 </v>
   <v>       0.26715401       0.60852346       0.46544776 </v>
   <v>       0.26650196       0.77392222       0.46167164 </v>
   <v>       0.31023244       0.52343210       0.46704776 </v>
   <v>       0.31065882       0.85790864       0.46142985 </v>
   <v>       0.35233012       0.60742099       0.47529851 </v>
   <v>       0.35329447       0.77116049       0.47038209 </v>
   <v>       0.39616756       0.52488765       0.47937910 </v>
   <v>       0.39804278       0.85142840       0.47265373 </v>
   <v>       0.43858467       0.60982346       0.48798806 </v>
   <v>       0.44121925       0.77809383       0.48593731 </v>
   <v>       0.48105882       0.52677284       0.50197313 </v>
   <v>       0.48538681       0.86118519       0.49018507 </v>
   <v>       0.52271658       0.60546173       0.51068358 </v>
   <v>       0.52502317       0.77417778       0.50466269 </v>
   <v>       0.56556150       0.52017284       0.51954627 </v>
   <v>       0.56894118       0.85449753       0.51408955 </v>
   <v>       0.61018182       0.59843580       0.52671940 </v>
   <v>       0.61242068       0.76870617       0.52260896 </v>
   <v>       0.65490196       0.51785802       0.53708657 </v>
   <v>       0.65664884       0.85453333       0.53305970 </v>
   <v>       0.69881640       0.60731728       0.54411940 </v>
   <v>       0.69967201       0.77193210       0.53763284 </v>
   <v>       0.74333333       0.51982346       0.54949851 </v>
   <v>       0.74472014       0.85467284       0.54143284 </v>
   <v>       0.79078075       0.60303086       0.54893731 </v>
   <v>       0.78886631       0.77130864       0.54556418 </v>
   <v>       0.83230303       0.52005185       0.54250448 </v>
   <v>       0.83258824       0.85253951       0.54168060 </v>
   <v>       0.87613191       0.60154321       0.53834030 </v>
   <v>       0.87693405       0.76760617       0.53724179 </v>
   <v>       0.91804635       0.51722716       0.52987761 </v>
   <v>       0.91843494       0.85361481       0.52513134 </v>
   <v>       0.96182175       0.59292840       0.52603284 </v>
   <v>       0.96052763       0.76686914       0.52040299 </v>
  </varray>
 </structure>
 <calculation>
  <scstep>
   <time name="dav">   11.17   11.17</time>
   <time name="total">   11.63   11.65</time>
   <energy>
    <i name="alphaZ">     91.34886789 </i>
    <i name="ewald"> 120438.83508545 </i>
    <i name="hartreedc">-129745.33273827 </i>
    <i name="XCdc">   1222.59911136 </i>
    <i name="pawpsdc">   9984.02826696 </i>
    <i name="pawaedc"> -10036.41360137 </i>
    <i name="eentropy">     -0.86901855 </i>
    <i name="bandstr">  -1853.52586701 </i>
    <i name="atom">  13537.65479391 </i>
    <i name="e_fr_energy">   3638.32490037 </i>
    <i name="e_wo_entrp">   3639.19391892 </i>
    <i name="e_0_energy">   3638.75940964 </i>
   </energy>
  </scstep>
  <scstep>
   <time name="dav">   13.01   13.02</time>
   <time name="total">   13.01   13.02</time>
   <energy>
    <i name="e_fr_energy">    175.59284665 </i>
    <i name="e_wo_entrp">    175.81229682 </i>
    <i name="e_0_energy">    175.70257174 </i>
   </energy>
  </scstep>
  <scstep>
   <time name="dav">   11.39   11.40</time>
   <time name="total">   11.39   11.40</time>
   <energy>
    <i name="e_fr_energy">   -835.92588632 </i>
    <i name="e_wo_entrp">   -835.90383753 </i>
    <i name="e_0_energy">   -835.91486193 </i>
   </energy>
  </scstep>
  <scstep>
   <time name="dav">   10.96   10.96</time>
   <time name="total">   10.96   10.96</time>
   <energy>
    <i name="e_fr_energy">   -897.82240375 </i>
    <i name="e_wo_entrp">   -897.76296593 </i>
    <i name="e_0_energy">   -897.79268484 </i>
   </energy>
  </scstep>
  <scstep>
   <time name="dav">   11.30   11.30</time>
   <time name="total">   12.78   12.79</time>
   <energy>
    <i name="e_fr_energy">   -899.32746245 </i>
    <i name="e_wo_entrp">   -899.26735063 </i>
    <i name="e_0_energy">   -899.29740654 </i>
   </energy>
  </scstep>
  <scstep>
   <time name="dav">   10.27   10.28</time>
   <time name="total">   12.08   12.08</time>
   <energy>
    <i name="e_fr_energy">   -848.92083043 </i>
    <i name="e_wo_entrp">   -848.85316327 </i>
    <i name="e_0_energy">   -848.88699685 </i>
   </energy>
  </scstep>
  <scstep>
   <time name="dav">   10.19   10.19</time>
   <time name="total">   11.99   11.99</time>
   <energy>
    <i name="e_fr_energy">   -830.14696402 </i>
    <i name="e_wo_entrp">   -830.06738763 </i>
    <i name="e_0_energy">   -830.10717582 </i>
   </energy>
  </scstep>
  <scstep>
   <time name="dav">   10.38   10.39</time>
   <time name="total">   12.18   12.19</time>
   <energy>
    <i name="e_fr_energy">   -829.85728783 </i>
    <i name="e_wo_entrp">   -829.78287865 </i>
    <i name="e_0_energy">   -829.82008324 </i>
   </energy>
  </scstep>
  <scstep>
   <time name="dav">   10.59   10.59</time>
   <time name="total">   12.39   12.40</time>
   <energy>
    <i name="e_fr_energy">   -829.74618502 </i>
    <i name="e_wo_entrp">   -829.67016868 </i>
    <i name="e_0_energy">   -829.70817685 </i>
   </energy>
  </scstep>
  <scstep>
   <time name="dav">   11.10   11.11</time>
   <time name="total">   12.91   12.92</time>
   <energy>
    <i name="e_fr_energy">   -829.70796847 </i>
    <i name="e_wo_entrp">   -829.63187072 </i>
    <i name="e_0_energy">   -829.66991959 </i>
   </energy>
  </scstep>
  <scstep>
   <time name="dav">   10.09   10.09</time>
   <time name="total">   11.91   11.92</time>
   <energy>
    <i name="e_fr_energy">   -829.67930961 </i>
    <i name="e_wo_entrp">   -829.60331872 </i>
    <i name="e_0_energy">   -829.64131417 </i>
   </energy>
  </scstep>
  <scstep>
   <time name="dav">   10.09   10.09</time>
   <time name="total">   11.91   11.91</time>
   <energy>
    <i name="e_fr_energy">   -829.67520335 </i>
    <i name="e_wo_entrp">   -829.59893934 </i>
    <i name="e_0_energy">   -829.63707134 </i>
   </energy>
  </scstep>
  <scstep>
   <time name="dav">   10.20   10.20</time>
   <time name="total">   12.03   12.04</time>
   <energy>
    <i name="e_fr_energy">   -829.68757071 </i>
    <i name="e_wo_entrp">   -829.61144663 </i>
    <i name="e_0_energy">   -829.64950867 </i>
   </energy>
  </scstep>
  <scstep>
   <time name="dav">   10.25   10.25</time>
   <time name="total">   12.08   12.09</time>
   <energy>
    <i name="e_fr_energy">   -829.70333086 </i>
    <i name="e_wo_entrp">   -829.62718446 </i>
    <i name="e_0_energy">   -829.66525766 </i>
   </energy>
  </scstep>
  <scstep>
   <time name="dav">   10.21   10.21</time>
   <time name="total">   12.06   12.06</time>
   <energy>
    <i name="e_fr_energy">   -829.72478456 </i>
    <i name="e_wo_entrp">   -829.64855987 </i>
    <i name="e_0_energy">   -829.68667222 </i>
   </energy>
  </scstep>
  <scstep>
   <time name="dav">   10.38   10.38</time>
   <time name="total">   12.24   12.25</time>
   <energy>
    <i name="e_fr_energy">   -829.73393146 </i>
    <i name="e_wo_entrp">   -829.65774444 </i>
    <i name="e_0_energy">   -829.69583795 </i>
   </energy>
  </scstep>
  <scstep>
   <time name="dav">   10.37   10.37</time>
   <time name="total">   12.23   12.24</time>
   <energy>
    <i name="e_fr_energy">   -829.73855373 </i>
    <i name="e_wo_entrp">   -829.66235680 </i>
    <i name="e_0_energy">   -829.70045526 </i>
   </energy>
  </scstep>
  <scstep>
   <time name="dav">   10.28   10.28</time>
   <time name="total">   12.16   12.16</time>
   <energy>
    <i name="e_fr_energy">   -829.74076544 </i>
    <i name="e_wo_entrp">   -829.66456668 </i>
    <i name="e_0_energy">   -829.70266606 </i>
   </energy>
  </scstep>
  <scstep>
   <time name="dav">    9.30    9.31</time>
   <time name="total">   11.19   11.20</time>
   <energy>
    <i name="e_fr_energy">   -829.74186457 </i>
    <i name="e_wo_entrp">   -829.66567132 </i>
    <i name="e_0_energy">   -829.70376795 </i>
   </energy>
  </scstep>
  <scstep>
   <time name="dav">    9.11    9.11</time>
   <time name="total">   11.01   11.01</time>
   <energy>
    <i name="e_fr_energy">   -829.74229178 </i>
    <i name="e_wo_entrp">   -829.66609522 </i>
    <i name="e_0_energy">   -829.70419350 </i>
   </energy>
  </scstep>
  <scstep>
   <time name="dav">    8.75    8.75</time>
   <time name="total">   10.67   10.68</time>
   <energy>
    <i name="e_fr_energy">   -829.74252238 </i>
    <i name="e_wo_entrp">   -829.66632584 </i>
    <i name="e_0_energy">   -829.70442411 </i>
   </energy>
  </scstep>
  <scstep>
   <time name="dav">    7.59    7.60</time>
   <time name="total">    9.52    9.53</time>
   <energy>
    <i name="e_fr_energy">   -829.74256569 </i>
    <i name="e_wo_entrp">   -829.66636940 </i>
    <i name="e_0_energy">   -829.70446754 </i>
   </energy>
  </scstep>
  <scstep>
   <time name="dav">    7.03    7.03</time>
   <time name="total">    8.97    8.98</time>
   <energy>
    <i name="e_fr_energy">   -829.74260137 </i>
    <i name="e_wo_entrp">   -829.66640435 </i>
    <i name="e_0_energy">   -829.70450286 </i>
   </energy>
  </scstep>
  <scstep>
   <time name="dav">    7.26    7.27</time>
   <time name="total">    9.22    9.23</time>
   <energy>
    <i name="e_fr_energy">   -829.74261251 </i>
    <i name="e_wo_entrp">   -829.66641584 </i>
    <i name="e_0_energy">   -829.70451417 </i>
   </energy>
  </scstep>
  <scstep>
   <time name="dav">    7.01    7.02</time>
   <time name="total">    8.99    8.99</time>
   <energy>
    <i name="e_fr_energy">   -829.74261832 </i>
    <i name="e_wo_entrp">   -829.66642181 </i>
    <i name="e_0_energy">   -829.70452006 </i>
   </energy>
  </scstep>
  <scstep>
   <time name="dav">    6.98    6.98</time>
   <time name="total">    8.97    8.98</time>
   <energy>
    <i name="e_fr_energy">   -829.74262122 </i>
    <i name="e_wo_entrp">   -829.66642460 </i>
    <i name="e_0_energy">   -829.70452291 </i>
   </energy>
  </scstep>
  <scstep>
   <time name="dav">    7.10    7.11</time>
   <time name="total">    9.11    9.11</time>
   <energy>
    <i name="e_fr_energy">   -829.74262274 </i>
    <i name="e_wo_entrp">   -829.66642618 </i>
    <i name="e_0_energy">   -829.70452446 </i>
   </energy>
  </scstep>
  <scstep>
   <time name="dav">    7.14    7.14</time>
   <time name="total">    9.16    9.17</time>
   <energy>
    <i name="e_fr_energy">   -829.74262425 </i>
    <i name="e_wo_entrp">   -829.66642768 </i>
    <i name="e_0_energy">   -829.70452597 </i>
   </energy>
  </scstep>
  <scstep>
   <time name="dav">    7.19    7.19</time>
   <time name="total">    7.55    7.55</time>
   <energy>
    <i name="alphaZ">     91.34886789 </i>
    <i name="ewald"> 120438.83508545 </i>
    <i name="hartreedc">-131523.42342984 </i>
    <i name="XCdc">   1280.37704322 </i>
    <i name="pawpsdc">  41463.58818216 </i>
    <i name="pawaedc"> -41527.79128115 </i>
    <i name="eentropy">     -0.07619659 </i>
    <i name="bandstr">  -4590.25568980 </i>
    <i name="atom">  13537.65479391 </i>
    <i name="e_fr_energy">   -829.74262476 </i>
    <i name="e_wo_entrp">   -829.66642817 </i>
    <i name="e_0_energy">   -829.70452647 </i>
   </energy>
  </scstep>
  <structure>
   <crystal>
    <varray name="basis" >
     <v>      28.05000000       0.00000000       0.00000000 </v>
     <v>       0.00000000       8.10000000       0.00000000 </v>
     <v>       0.00000000       0.00000000      33.50000000 </v>
    </varray>
    <i name="volume">   7611.36750000 </i>
    <varray name="rec_basis" >
     <v>       0.03565062       0.00000000       0.00000000 </v>
     <v>       0.00000000       0.12345679       0.00000000 </v>
     <v>       0.00000000       0.00000000       0.02985075 </v>
    </varray>
   </crystal>
   <varray name="positions" >
    <v>       0.00189846       0.09741790       0.48147761 </v>
    <v>       0.00328224       0.26787778       0.48445373 </v>
    <v>       0.04333369       0.01087091       0.47690746 </v>
    <v>       0.04559465       0.35342099       0.48057910 </v>
    <v>       0.08724955       0.09750160       0.46700896 </v>
    <v>       0.08846952       0.26668148       0.47011940 </v>
    <v>       0.13112478       0.01834889       0.45948657 </v>
    <v>       0.13235615       0.35598148       0.46708060 </v>
    <v>       0.17439037       0.09920123       0.45409254 </v>
    <v>       0.17541319       0.27115679       0.45590746 </v>
    <v>       0.22084029       0.02606481       0.45918209 </v>
    <v>       0.21910303       0.35705679       0.45478209 </v>
    <v>       0.26776970       0.10526901       0.45460597 </v>
    <v>       0.26425775       0.27546667       0.45458806 </v>
    <v>       0.31078111       0.02847037       0.45748955 </v>
    <v>       0.31121497       0.35696296       0.45992836 </v>
    <v>       0.35501676       0.10905309       0.46393433 </v>
    <v>       0.35459501       0.27439259       0.46434627 </v>
    <v>       0.39928699       0.02066185       0.47065075 </v>
    <v>       0.39802139       0.35864444       0.47660597 </v>
    <v>       0.44031373       0.10633802       0.48469552 </v>
    <v>       0.43863815       0.27696790       0.48964179 </v>
    <v>       0.48488414       0.02932827       0.49200597 </v>
    <v>       0.47979323       0.35611852       0.50399403 </v>
    <v>       0.52491622       0.10684346       0.50775821 </v>
    <v>       0.52310517       0.27317778       0.51053731 </v>
    <v>       0.56686631       0.02752914       0.51731045 </v>
    <v>       0.56660963       0.35435802       0.52017313 </v>
    <v>       0.61154367       0.10520383       0.52564478 </v>
    <v>       0.60827451       0.27138765       0.53217612 </v>
    <v>       0.65517647       0.02354642       0.53037015 </v>
    <v>       0.65402496       0.35351235       0.53475821 </v>
    <v>       0.69959715       0.10901519       0.53444776 </v>
    <v>       0.70056684       0.27385802       0.53699403 </v>
    <v>       0.74327986       0.02278407       0.53564179 </v>
    <v>       0.74334403       0.35340247       0.54402985 </v>
    <v>       0.78686631       0.10472716       0.53233731 </v>
    <v>       0.78795009       0.27473457       0.54001791 </v>
    <v>       0.83122638       0.01972704       0.53072239 </v>
    <v>       0.83094118       0.35731605       0.53236418 </v>
    <v>       0.87197504       0.10490185       0.51836119 </v>
    <v>       0.87082353       0.27440494       0.51846269 </v>
    <v>       0.91587522       0.02007309       0.51386866 </v>
    <v>       0.91394652       0.35823457       0.51372836 </v>
    <v>       0.95299109       0.11066975       0.49515522 </v>
    <v>       0.95296257       0.27960000       0.49452537 </v>
    <v>       0.01345048       0.60172840       0.51224179 </v>
    <v>       0.01096299       0.76997284       0.50877313 </v>
    <v>       0.04986631       0.51498765       0.49241194 </v>
    <v>       0.04778360       0.85038889       0.49071940 </v>
    <v>       0.09344670       0.59978642       0.48403881 </v>
    <v>       0.09059216       0.77235185       0.48416418 </v>
    <v>       0.13428235       0.52434815       0.47202388 </v>
    <v>       0.13297362       0.85379877       0.46889851 </v>
    <v>       0.17870588       0.60364198       0.46845075 </v>
    <v>       0.17818752       0.77273457       0.46550746 </v>
    <v>       0.22151765       0.52113951       0.46295522 </v>
    <v>       0.22064813       0.85604568       0.46152537 </v>
    <v>       0.26715401       0.60852346       0.46544776 </v>
    <v>       0.26650196       0.77392222       0.46167164 </v>
    <v>       0.31023244       0.52343210       0.46704776 </v>
    <v>       0.31065882       0.85790864       0.46142985 </v>
    <v>       0.35233012       0.60742099       0.47529851 </v>
    <v>       0.35329447       0.77116049       0.47038209 </v>
    <v>       0.39616756       0.52488765       0.47937910 </v>
    <v>       0.39804278       0.85142840       0.47265373 </v>
    <v>       0.43858467       0.60982346       0.48798806 </v>
    <v>       0.44121925       0.77809383       0.48593731 </v>
    <v>       0.48105882       0.52677284       0.50197313 </v>
    <v>       0.48538681       0.86118519       0.49018507 </v>
    <v>       0.52271658       0.60546173       0.51068358 </v>
    <v>       0.52502317       0.77417778       0.50466269 </v>
    <v>       0.56556150       0.52017284       0.51954627 </v>
    <v>       0.56894118       0.85449753       0.51408955 </v>
    <v>       0.61018182       0.59843580       0.52671940 </v>
    <v>       0.61242068       0.76870617       0.52260896 </v>
    <v>       0.65490196       0.51785802       0.53708657 </v>
    <v>       0.65664884       0.85453333       0.53305970 </v>
    <v>       0.69881640       0.60731728       0.54411940 </v>
    <v>       0.69967201       0.77193210       0.53763284 </v>
    <v>       0.74333333       0.51982346       0.54949851 </v>
    <v>       0.74472014       0.85467284       0.54143284 </v>
    <v>       0.79078075       0.60303086       0.54893731 </v>
    <v>       0.78886631       0.77130864       0.54556418 </v>
    <v>       0.83230303       0.52005185       0.54250448 </v>
    <v>       0.83258824       0.85253951       0.54168060 </v>
    <v>       0.87613191       0.60154321       0.53834030 </v>
    <v>       0.87693405       0.76760617       0.53724179 </v>
    <v>       0.91804635       0.51722716       0.52987761 </v>
    <v>       0.91843494       0.85361481       0.52513134 </v>
    <v>       0.96182175       0.59292840       0.52603284 </v>
    <v>       0.96052763       0.76686914       0.52040299 </v>
   </varray>
  </structure>
  <varray name="forces" >
   <v>       0.98074912       0.60715042      -0.22545236 </v>
   <v>       1.79604845       1.36080819      -1.36644951 </v>
   <v>       1.04070450       0.80310474       0.06162687 </v>
   <v>       0.14583266      -1.13522777       0.43587243 </v>
   <v>      -0.70960026       0.18500812      -0.48863377 </v>
   <v>      -0.45596309       1.27667298      -0.06398309 </v>
   <v>      -0.40849471      -0.52060340       0.87984832 </v>
   <v>       0.68032472      -1.99216677      -1.29660847 </v>
   <v>       2.17350083       1.58472021       0.57290783 </v>
   <v>      -1.25464819       0.79693939       0.29542178 </v>
   <v>       0.34632279      -0.82685111      -1.88416811 </v>
   <v>       1.71451053      -1.50832755       0.65726180 </v>
   <v>      -4.26435244       1.29077818       0.24776341 </v>
   <v>       2.45819892       0.40584064      -0.32363850 </v>
   <v>       1.86552725      -1.66535916       0.52207271 </v>
   <v>      -2.52554686      -0.38139221      -0.01993706 </v>
   <v>       0.69015933      -2.31765793      -0.76715481 </v>
   <v>       1.31379582       1.76148310       0.76756875 </v>
   <v>      -1.05550257       1.56463041       0.34819724 </v>
   <v>      -1.82547769      -1.14136680      -0.01616213 </v>
   <v>       0.45158417       0.22487582      -0.75269966 </v>
   <v>       0.27402527      -1.21826501      -0.32208810 </v>
   <v>      -1.29790854      -0.32093237       0.17724349 </v>
   <v>       0.30436910       0.33186869      -0.84427382 </v>
   <v>      -0.39295418       0.04794035      -0.43019840 </v>
   <v>       0.51687584       1.21340781       0.94309759 </v>
   <v>       2.38280893      -2.44196936      -0.52009644 </v>
   <v>      -1.33720581      -1.35302364       0.99951936 </v>
   <v>      -1.77581006      -0.40072951       0.69880294 </v>
   <v>       2.41638475       0.83007327      -1.94024344 </v>
   <v>       0.98195562       0.38714452       0.37509339 </v>
   <v>       0.76055874      -1.84121892       1.15632015 </v>
   <v>      -0.50271104      -2.50793778      -0.39535263 </v>
   <v>      -2.77571312       0.86542899       0.30854719 </v>
   <v>       0.38681572      -0.15818010       0.18448493 </v>
   <v>       0.80513775       0.40882075       0.19263148 </v>
   <v>       0.66685496       0.45405790       1.14029684 </v>
   <v>      -0.36125114      -1.31202588      -1.93476581 </v>
   <v>      -0.89148553      -0.29012804       0.11961393 </v>
   <v>      -1.21150604      -1.03928337       1.25673063 </v>
   <v>       0.33680221      -1.23648062       0.48261530 </v>
   <v>       0.77561935       0.24935841      -0.15160669 </v>
   <v>       0.39995583       0.75499895      -1.12803388 </v>
   <v>       1.70837391       0.20478436      -0.54637524 </v>
   <v>      -2.67751801      -3.15623892       0.99945261 </v>
   <v>      -2.18336377       0.65732023       1.29505575 </v>
   <v>       0.31889448      -2.03796599      -0.70639480 </v>
   <v>       0.12891554      -0.02329069       0.29394336 </v>
   <v>      -0.10590435       1.11638085       1.01998075 </v>
   <v>      -0.57559352       1.07350962      -0.38900197 </v>
   <v>      -2.53201688       1.82310108       0.91693956 </v>
   <v>       2.88107291      -0.97867993      -1.11366708 </v>
   <v>       1.33159304      -1.38085709       0.07714245 </v>
   <v>      -0.14724914      -1.18976104       0.33950651 </v>
   <v>      -0.59878642       0.25520744      -0.38660166 </v>
   <v>      -1.86074862       0.15515504       0.83457208 </v>
   <v>       1.04405863       1.40919387       0.14489406 </v>
   <v>       2.17295241       0.45707130      -0.18057555 </v>
   <v>      -2.03679647      -2.40606370      -0.53987291 </v>
   <v>      -0.75674540       1.75781945       0.56597313 </v>
   <v>      -0.23051942       0.07519495       0.13371012 </v>
   <v>      -0.16835716      -0.35248590       0.34018441 </v>
   <v>       0.60906126      -1.80253763      -0.83730238 </v>
   <v>       0.18424097       2.61019540      -0.49484776 </v>
   <v>       0.22361754       1.25190187       0.55441068 </v>
   <v>       0.53876975       0.91869930       0.79820259 </v>
   <v>       1.83032933      -0.93898869       1.42026211 </v>
   <v>      -0.88486879      -0.19147821      -1.68801032 </v>
   <v>      -2.47025242      -0.80744961      -0.61253574 </v>
   <v>      -0.79482581      -1.49907005       1.09601911 </v>
   <v>       1.60596204       0.90624765      -0.46491380 </v>
   <v>       1.40915440       0.24636435       0.06566960 </v>
   <v>       1.15958693       1.78251787       0.47257459 </v>
   <v>      -0.14040092       0.38625425      -0.08830790 </v>
   <v>       0.92316099       1.08044732       0.18081700 </v>
   <v>      -0.01289619       0.78147985       1.23968964 </v>
   <v>      -0.94261491       2.88377042      -0.29584902 </v>
   <v>      -2.25210044      -0.54282742      -2.00915622 </v>
   <v>       0.22992418      -2.83134431      -0.39629741 </v>
   <v>       1.30059601       1.05448508       1.45163852 </v>
   <v>       0.86461905       2.25726048      -0.51751697 </v>
   <v>      -1.07232075      -0.65118717      -0.61864070 </v>
   <v>      -4.42630714      -0.69792421       0.45633681 </v>
   <v>      -0.06530143       0.84012255       0.57354533 </v>
   <v>       1.31910177       0.24221855      -0.35478166 </v>
   <v>       0.64945685       1.12688338      -1.42987647 </v>
   <v>       0.15016203      -0.51717839       0.61120981 </v>
   <v>      -0.81350068       2.44845547       0.53858927 </v>
   <v>       1.36421597      -1.77362130      -1.24252382 </v>
   <v>       0.80593691       0.40698825      -0.56972233 </v>
   <v>      -0.01716636       2.50107453      -0.31709773 </v>
   <v>      -0.60689380      -0.72713903       1.42755792 </v>
  </varray>
  <varray name="stress" >
   <v>       1.90337376      -0.63156214      -0.83555104 </v>
   <v>      -0.63156214      53.99600919       0.39832399 </v>
   <v>      -0.83555104       0.39832398      -0.71376051 </v>
  </varray>
  <energy>
   <i name="e_fr_energy">   -829.74262476 </i>
   <i name="e_wo_entrp">   -829.66642817 </i>
   <i name="e_0_energy">   -829.70452647 </i>
  </energy>
  <time name="totalsc">  333.84  334.02</time>
  <eigenvalues>
   <array>
    <dimension dim="1">band</dimension>
    <dimension dim="2">kpoint</dimension>
    <dimension dim="3">spin</dimension>
    <field>eigene</field>
    <field>occ</field>
    <set>
     <set comment="spin 1">
      <set comment="kpoint 1">
       <r>  -23.2269    1.0000 </r>
       <r>  -23.1157    1.0000 </r>
       <r>  -23.0093    1.0000 </r>
       <r>  -22.7332    1.0000 </r>
       <r>  -22.6464    1.0000 </r>
       <r>  -22.4563    1.0000 </r>
       <r>  -22.1084    1.0000 </r>
       <r>  -21.9604    1.0000 </r>
       <r>  -21.5506    1.0000 </r>
       <r>  -21.5023    1.0000 </r>
       <r>  -21.4348    1.0000 </r>
       <r>  -21.3864    1.0000 </r>
       <r>  -21.2938    1.0000 </r>
       <r>  -21.2227    1.0000 </r>
       <r>  -21.1892    1.0000 </r>
       <r>  -21.1101    1.0000 </r>
       <r>  -21.0524    1.0000 </r>
       <r>  -20.9876    1.0000 </r>
       <r>  -20.7647    1.0000 </r>
       <r>  -20.6473    1.0000 </r>
       <r>  -20.3999    1.0000 </r>
       <r>  -20.3566    1.0000 </r>
       <r>  -20.1419    1.0000 </r>
       <r>  -20.0769    1.0000 </r>
       <r>  -19.9520    1.0000 </r>
       <r>  -19.7262    1.0000 </r>
       <r>  -19.5693    1.0000 </r>
       <r>  -19.5140    1.0000 </r>
       <r>  -19.1255    1.0000 </r>
       <r>  -18.8989    1.0000 </r>
       <r>  -18.7585    1.0000 </r>
       <r>  -18.6314    1.0000 </r>
       <r>  -18.5052    1.0000 </r>
       <r>  -18.4358    1.0000 </r>
       <r>  -18.1856    1.0000 </r>
       <r>  -17.5840    1.0000 </r>
       <r>  -17.4196    1.0000 </r>
       <r>  -17.1778    1.0000 </r>
       <r>  -17.1233    1.0000 </r>
       <r>  -16.9957    1.0000 </r>
       <r>  -16.9035    1.0000 </r>
       <r>  -16.7586    1.0000 </r>
       <r>  -16.7277    1.0000 </r>
       <r>  -16.6469    1.0000 </r>
       <r>  -16.6310    1.0000 </r>
       <r>  -16.5403    1.0000 </r>
       <r>  -16.5130    1.0000 </r>
       <r>  -16.4590    1.0000 </r>
       <r>  -16.4021    1.0000 </r>
       <r>  -16.3206    1.0000 </r>
       <r>  -16.2907    1.0000 </r>
       <r>  -16.2318    1.0000 </r>
       <r>  -16.0927    1.0000 </r>
       <r>  -16.0827    1.0000 </r>
       <r>  -15.9445    1.0000 </r>
       <r>  -15.6799    1.0000 </r>
       <r>  -15.4606    1.0000 </r>
       <r>  -15.3493    1.0000 </r>
       <r>  -15.3134    1.0000 </r>
       <r>  -15.2032    1.0000 </r>
       <r>  -15.1173    1.0000 </r>
       <r>  -14.8980    1.0000 </r>
       <r>  -14.4048    1.0000 </r>
       <r>  -14.2149    1.0000 </r>
       <r>  -14.1227    1.0000 </r>
       <r>  -14.0622    1.0000 </r>
       <r>  -13.9367    1.0000 </r>
       <r>  -13.7673    1.0000 </r>
       <r>  -13.6864    1.0000 </r>
       <r>  -13.6035    1.0000 </r>
       <r>  -13.4297    1.0000 </r>
       <r>  -13.3790    1.0000 </r>
       <r>  -13.2648    1.0000 </r>
       <r>  -13.1980    1.0000 </r>
       <r>  -13.0386    1.0000 </r>
       <r>  -12.8893    1.0000 </r>
       <r>  -12.6767    1.0000 </r>
       <r>  -12.4790    1.0000 </r>
       <r>  -12.1602    1.0000 </r>
       <r>  -12.1208    1.0000 </r>
       <r>  -12.0517    1.0000 </r>
       <r>  -11.9148    1.0000 </r>
       <r>  -11.8649    1.0000 </r>
       <r>  -11.7939    1.0000 </r>
       <r>  -11.7085    1.0000 </r>
       <r>  -11.4829    1.0000 </r>
       <r>  -11.3669    1.0000 </r>
       <r>  -11.2611    1.0000 </r>
       <r>  -11.1122    1.0000 </r>
       <r>  -11.0760    1.0000 </r>
       <r>  -10.9154    1.0000 </r>
       <r>  -10.8895    1.0000 </r>
       <r>  -10.8133    1.0000 </r>
       <r>  -10.7680    1.0000 </r>
       <r>  -10.7482    1.0000 </r>
       <r>  -10.6628    1.0000 </r>
       <r>  -10.6088    1.0000 </r>
       <r>  -10.5789    1.0000 </r>
       <r>  -10.5007    1.0000 </r>
       <r>  -10.4311    1.0000 </r>
       <r>  -10.3692    1.0000 </r>
       <r>  -10.3353    1.0000 </r>
       <r>  -10.2863    1.0000 </r>
       <r>  -10.2451    1.0000 </r>
       <r>  -10.2186    1.0000 </r>
       <r>  -10.0637    1.0000 </r>
       <r>   -9.9169    1.0000 </r>
       <r>   -9.8695    1.0000 </r>
       <r>   -9.8276    1.0000 </r>
       <r>   -9.7943    1.0000 </r>
       <r>   -9.7190    1.0000 </r>
       <r>   -9.6915    1.0000 </r>
       <r>   -9.6515    1.0000 </r>
       <r>   -9.6436    1.0000 </r>
       <r>   -9.5933    1.0000 </r>
       <r>   -9.5645    1.0000 </r>
       <r>   -9.5417    1.0000 </r>
       <r>   -9.5292    1.0000 </r>
       <r>   -9.4951    1.0000 </r>
       <r>   -9.4031    1.0000 </r>
       <r>   -9.3851    1.0000 </r>
       <r>   -9.3693    1.0000 </r>
       <r>   -9.3543    1.0000 </r>
       <r>   -9.3294    1.0000 </r>
       <r>   -9.3021    1.0000 </r>
       <r>   -9.2501    1.0000 </r>
       <r>   -9.1730    1.0000 </r>
       <r>   -9.1598    1.0000 </r>
       <r>   -9.0926    1.0000 </r>
       <r>   -9.0610    1.0000 </r>
       <r>   -9.0303    1.0000 </r>
       <r>   -8.9869    1.0000 </r>
       <r>   -8.9773    1.0000 </r>
       <r>   -8.9158    1.0000 </r>
       <r>   -8.8874    1.0000 </r>
       <r>   -8.8437    1.0000 </r>
       <r>   -8.8069    1.0000 </r>
       <r>   -8.7935    1.0000 </r>
       <r>   -8.7579    1.0000 </r>
       <r>   -8.7096    1.0000 </r>
       <r>   -8.6555    1.0000 </r>
       <r>   -8.5998    1.0000 </r>
       <r>   -8.5646    1.0000 </r>
       <r>   -8.5382    1.0000 </r>
       <r>   -8.4490    1.0000 </r>
       <r>   -8.3521    1.0000 </r>
       <r>   -8.1948    1.0000 </r>
       <r>   -8.0224    1.0000 </r>
       <r>   -7.9319    1.0000 </r>
       <r>   -7.8904    1.0000 </r>
       <r>   -7.7287    1.0000 </r>
       <r>   -7.6743    1.0000 </r>
       <r>   -7.5505    1.0000 </r>
       <r>   -7.4124    1.0000 </r>
       <r>   -7.3828    1.0000 </r>
       <r>   -7.3521    1.0000 </r>
       <r>   -7.3100    1.0000 </r>
       <r>   -7.1420    1.0000 </r>
       <r>   -7.0088    1.0000 </r>
       <r>   -6.9595    1.0000 </r>
       <r>   -6.7473    1.0000 </r>
       <r>   -6.7138    1.0000 </r>
       <r>   -6.6099    1.0000 </r>
       <r>   -6.5470    1.0000 </r>
       <r>   -6.4680    1.0000 </r>
       <r>   -6.2601    1.0000 </r>
       <r>   -6.1960    1.0000 </r>
       <r>   -6.0637    1.0000 </r>
       <r>   -6.0308    1.0000 </r>
       <r>   -5.9545    1.0000 </r>
       <r>   -5.9408    1.0000 </r>
       <r>   -5.8965    1.0000 </r>
       <r>   -5.8212    1.0000 </r>
       <r>   -5.0739    1.0000 </r>
       <r>   -4.9471    1.0000 </r>
       <r>   -4.8957    1.0000 </r>
       <r>   -4.7612    1.0000 </r>
       <r>   -4.5089    1.0000 </r>
       <r>   -4.4526    1.0000 </r>
       <r>   -4.4309    1.0000 </r>
       <r>   -4.3763    1.0000 </r>
       <r>   -3.7414    1.0000 </r>
       <r>   -3.6756    0.9999 </r>
       <r>   -3.1732    0.5393 </r>
       <r>   -3.0828    0.2945 </r>
       <r>   -2.7220    0.0010 </r>
       <r>   -2.6322    0.0001 </r>
       <r>   -2.3091    0.0000 </r>
       <r>   -2.2273    0.0000 </r>
       <r>   -2.0940    0.0000 </r>
       <r>   -1.7419    0.0000 </r>
       <r>   -1.6874    0.0000 </r>
       <r>   -1.5350    0.0000 </r>
       <r>   -1.4985    0.0000 </r>
       <r>   -1.4389    0.0000 </r>
       <r>   -1.3406    0.0000 </r>
       <r>   -1.2697    0.0000 </r>
       <r>   -1.1148    0.0000 </r>
       <r>   -0.7835    0.0000 </r>
       <r>   -0.6047    0.0000 </r>
       <r>   -0.5433    0.0000 </r>
       <r>   -0.3710    0.0000 </r>
       <r>   -0.1169    0.0000 </r>
       <r>    0.0593    0.0000 </r>
       <r>    0.1380    0.0000 </r>
       <r>    0.1960    0.0000 </r>
       <r>    0.3250    0.0000 </r>
       <r>    0.5738    0.0000 </r>
       <r>    0.6541    0.0000 </r>
       <r>    0.6974    0.0000 </r>
       <r>    0.7651    0.0000 </r>
       <r>    0.8479    0.0000 </r>
       <r>    0.8954    0.0000 </r>
       <r>    0.9178    0.0000 </r>
       <r>    0.9743    0.0000 </r>
       <r>    1.0021    0.0000 </r>
       <r>    1.1257    0.0000 </r>
       <r>    1.1521    0.0000 </r>
       <r>    1.1588    0.0000 </r>
       <r>    1.2153    0.0000 </r>
       <r>    1.3201    0.0000 </r>
       <r>    1.3271    0.0000 </r>
       <r>    1.3297    0.0000 </r>
       <r>    1.4028    0.0000 </r>
       <r>    1.4559    0.0000 </r>
       <r>    1.5457    0.0000 </r>
       <r>    1.5643    0.0000 </r>
       <r>    1.6962    0.0000 </r>
       <r>    1.7169    0.0000 </r>
       <r>    1.7298    0.0000 </r>
       <r>    1.7320    0.0000 </r>
       <r>    1.8361    0.0000 </r>
      </set>
      <set comment="kpoint 2">
       <r>  -23.1470    1.0000 </r>
       <r>  -23.0205    1.0000 </r>
       <r>  -22.9121    1.0000 </r>
       <r>  -22.6858    1.0000 </r>
       <r>  -22.5723    1.0000 </r>
       <r>  -22.5251    1.0000 </r>
       <r>  -22.2102    1.0000 </r>
       <r>  -22.1098    1.0000 </r>
       <r>  -22.0147    1.0000 </r>
       <r>  -21.9143    1.0000 </r>
       <r>  -21.8196    1.0000 </r>
       <r>  -21.7276    1.0000 </r>
       <r>  -21.3297    1.0000 </r>
       <r>  -21.1478    1.0000 </r>
       <r>  -21.0464    1.0000 </r>
       <r>  -21.0062    1.0000 </r>
       <r>  -20.6274    1.0000 </r>
       <r>  -20.5522    1.0000 </r>
       <r>  -20.4960    1.0000 </r>
       <r>  -20.3504    1.0000 </r>
       <r>  -20.2390    1.0000 </r>
       <r>  -20.1360    1.0000 </r>
       <r>  -20.0702    1.0000 </r>
       <r>  -19.9067    1.0000 </r>
       <r>  -19.8584    1.0000 </r>
       <r>  -19.5555    1.0000 </r>
       <r>  -19.4617    1.0000 </r>
       <r>  -19.1230    1.0000 </r>
       <r>  -19.0375    1.0000 </r>
       <r>  -18.8867    1.0000 </r>
       <r>  -18.6904    1.0000 </r>
       <r>  -18.5634    1.0000 </r>
       <r>  -18.5029    1.0000 </r>
       <r>  -18.2856    1.0000 </r>
       <r>  -18.2336    1.0000 </r>
       <r>  -18.1322    1.0000 </r>
       <r>  -18.0591    1.0000 </r>
       <r>  -18.0145    1.0000 </r>
       <r>  -17.8696    1.0000 </r>
       <r>  -17.7387    1.0000 </r>
       <r>  -17.5162    1.0000 </r>
       <r>  -17.4252    1.0000 </r>
       <r>  -17.3067    1.0000 </r>
       <r>  -17.1236    1.0000 </r>
       <r>  -17.0771    1.0000 </r>
       <r>  -16.5880    1.0000 </r>
       <r>  -16.4301    1.0000 </r>
       <r>  -16.2210    1.0000 </r>
       <r>  -16.0835    1.0000 </r>
       <r>  -15.9440    1.0000 </r>
       <r>  -15.8036    1.0000 </r>
       <r>  -15.6450    1.0000 </r>
       <r>  -15.5463    1.0000 </r>
       <r>  -15.3491    1.0000 </r>
       <r>  -15.3016    1.0000 </r>
       <r>  -15.2786    1.0000 </r>
       <r>  -15.1484    1.0000 </r>
       <r>  -15.1029    1.0000 </r>
       <r>  -15.0353    1.0000 </r>
       <r>  -14.9804    1.0000 </r>
       <r>  -14.9048    1.0000 </r>
       <r>  -14.7642    1.0000 </r>
       <r>  -14.5308    1.0000 </r>
       <r>  -14.4574    1.0000 </r>
       <r>  -14.2944    1.0000 </r>
       <r>  -14.1039    1.0000 </r>
       <r>  -13.9794    1.0000 </r>
       <r>  -13.8618    1.0000 </r>
       <r>  -13.3718    1.0000 </r>
       <r>  -13.2478    1.0000 </r>
       <r>  -13.2089    1.0000 </r>
       <r>  -13.1688    1.0000 </r>
       <r>  -12.9219    1.0000 </r>
       <r>  -12.8297    1.0000 </r>
       <r>  -12.7780    1.0000 </r>
       <r>  -12.7138    1.0000 </r>
       <r>  -12.6214    1.0000 </r>
       <r>  -12.5475    1.0000 </r>
       <r>  -12.4202    1.0000 </r>
       <r>  -12.3445    1.0000 </r>
       <r>  -12.1728    1.0000 </r>
       <r>  -12.0875    1.0000 </r>
       <r>  -12.0149    1.0000 </r>
       <r>  -11.9472    1.0000 </r>
       <r>  -11.8927    1.0000 </r>
       <r>  -11.6377    1.0000 </r>
       <r>  -11.4708    1.0000 </r>
       <r>  -11.3974    1.0000 </r>
       <r>  -11.2528    1.0000 </r>
       <r>  -11.1764    1.0000 </r>
       <r>  -11.0738    1.0000 </r>
       <r>  -11.0369    1.0000 </r>
       <r>  -11.0124    1.0000 </r>
       <r>  -10.9685    1.0000 </r>
       <r>  -10.9169    1.0000 </r>
       <r>  -10.8790    1.0000 </r>
       <r>  -10.8492    1.0000 </r>
       <r>  -10.8012    1.0000 </r>
       <r>  -10.7677    1.0000 </r>
       <r>  -10.6604    1.0000 </r>
       <r>  -10.5845    1.0000 </r>
       <r>  -10.4980    1.0000 </r>
       <r>  -10.4768    1.0000 </r>
       <r>  -10.4368    1.0000 </r>
       <r>  -10.3859    1.0000 </r>
       <r>  -10.3393    1.0000 </r>
       <r>  -10.2750    1.0000 </r>
       <r>  -10.1444    1.0000 </r>
       <r>  -10.1163    1.0000 </r>
       <r>  -10.0452    1.0000 </r>
       <r>   -9.9986    1.0000 </r>
       <r>   -9.9727    1.0000 </r>
       <r>   -9.9012    1.0000 </r>
       <r>   -9.8096    1.0000 </r>
       <r>   -9.7760    1.0000 </r>
       <r>   -9.6892    1.0000 </r>
       <r>   -9.6389    1.0000 </r>
       <r>   -9.6016    1.0000 </r>
       <r>   -9.5835    1.0000 </r>
       <r>   -9.5472    1.0000 </r>
       <r>   -9.5010    1.0000 </r>
       <r>   -9.4685    1.0000 </r>
       <r>   -9.4081    1.0000 </r>
       <r>   -9.3377    1.0000 </r>
       <r>   -9.2685    1.0000 </r>
       <r>   -9.2383    1.0000 </r>
       <r>   -9.0684    1.0000 </r>
       <r>   -8.9726    1.0000 </r>
       <r>   -8.9148    1.0000 </r>
       <r>   -8.8457    1.0000 </r>
       <r>   -8.7693    1.0000 </r>
       <r>   -8.7285    1.0000 </r>
       <r>   -8.6883    1.0000 </r>
       <r>   -8.6402    1.0000 </r>
       <r>   -8.5764    1.0000 </r>
       <r>   -8.5430    1.0000 </r>
       <r>   -8.4791    1.0000 </r>
       <r>   -8.4424    1.0000 </r>
       <r>   -8.3735    1.0000 </r>
       <r>   -8.3209    1.0000 </r>
       <r>   -8.2390    1.0000 </r>
       <r>   -8.1759    1.0000 </r>
       <r>   -8.1209    1.0000 </r>
       <r>   -8.0982    1.0000 </r>
       <r>   -8.0649    1.0000 </r>
       <r>   -7.9576    1.0000 </r>
       <r>   -7.9364    1.0000 </r>
       <r>   -7.8901    1.0000 </r>
       <r>   -7.8447    1.0000 </r>
       <r>   -7.7180    1.0000 </r>
       <r>   -7.6431    1.0000 </r>
       <r>   -7.5567    1.0000 </r>
       <r>   -7.4711    1.0000 </r>
       <r>   -7.4229    1.0000 </r>
       <r>   -7.3246    1.0000 </r>
       <r>   -7.2695    1.0000 </r>
       <r>   -7.1981    1.0000 </r>
       <r>   -6.9900    1.0000 </r>
       <r>   -6.9494    1.0000 </r>
       <r>   -6.8776    1.0000 </r>
       <r>   -6.7905    1.0000 </r>
       <r>   -6.7411    1.0000 </r>
       <r>   -6.6164    1.0000 </r>
       <r>   -6.5890    1.0000 </r>
       <r>   -6.4171    1.0000 </r>
       <r>   -6.3258    1.0000 </r>
       <r>   -6.2597    1.0000 </r>
       <r>   -6.1051    1.0000 </r>
       <r>   -6.0220    1.0000 </r>
       <r>   -5.9509    1.0000 </r>
       <r>   -5.9024    1.0000 </r>
       <r>   -5.8004    1.0000 </r>
       <r>   -5.7157    1.0000 </r>
       <r>   -5.6696    1.0000 </r>
       <r>   -5.5438    1.0000 </r>
       <r>   -5.4931    1.0000 </r>
       <r>   -5.1572    1.0000 </r>
       <r>   -5.0959    1.0000 </r>
       <r>   -4.7383    1.0000 </r>
       <r>   -4.6474    1.0000 </r>
       <r>   -4.5786    1.0000 </r>
       <r>   -4.4910    1.0000 </r>
       <r>   -4.4467    1.0000 </r>
       <r>   -3.5479    0.9970 </r>
       <r>   -2.9657    0.0856 </r>
       <r>   -2.3756    0.0000 </r>
       <r>   -2.1019    0.0000 </r>
       <r>   -2.0106    0.0000 </r>
       <r>   -1.5861    0.0000 </r>
       <r>   -1.4827    0.0000 </r>
       <r>   -1.4459    0.0000 </r>
       <r>   -1.3649    0.0000 </r>
       <r>   -1.3052    0.0000 </r>
       <r>   -1.2546    0.0000 </r>
       <r>   -1.0469    0.0000 </r>
       <r>   -1.0188    0.0000 </r>
       <r>   -0.9562    0.0000 </r>
       <r>   -0.9043    0.0000 </r>
       <r>   -0.7757    0.0000 </r>
       <r>   -0.5175    0.0000 </r>
       <r>   -0.1940    0.0000 </r>
       <r>   -0.1551    0.0000 </r>
       <r>   -0.0930    0.0000 </r>
       <r>    0.0228    0.0000 </r>
       <r>    0.1498    0.0000 </r>
       <r>    0.1801    0.0000 </r>
       <r>    0.2992    0.0000 </r>
       <r>    0.3565    0.0000 </r>
       <r>    0.3871    0.0000 </r>
       <r>    0.7697    0.0000 </r>
       <r>    0.8264    0.0000 </r>
       <r>    0.8385    0.0000 </r>
       <r>    1.0324    0.0000 </r>
       <r>    1.0531    0.0000 </r>
       <r>    1.0901    0.0000 </r>
       <r>    1.1206    0.0000 </r>
       <r>    1.1273    0.0000 </r>
       <r>    1.2324    0.0000 </r>
       <r>    1.2940    0.0000 </r>
       <r>    1.3016    0.0000 </r>
       <r>    1.3577    0.0000 </r>
       <r>    1.3603    0.0000 </r>
       <r>    1.4101    0.0000 </r>
       <r>    1.4538    0.0000 </r>
       <r>    1.4692    0.0000 </r>
       <r>    1.4775    0.0000 </r>
       <r>    1.5448    0.0000 </r>
       <r>    1.5693    0.0000 </r>
       <r>    1.6040    0.0000 </r>
       <r>    1.6592    0.0000 </r>
       <r>    1.6999    0.0000 </r>
       <r>    1.7422    0.0000 </r>
      </set>
      <set comment="kpoint 3">
       <r>  -22.9889    1.0000 </r>
       <r>  -22.8450    1.0000 </r>
       <r>  -22.7549    1.0000 </r>
       <r>  -22.7241    1.0000 </r>
       <r>  -22.6101    1.0000 </r>
       <r>  -22.5694    1.0000 </r>
       <r>  -22.3718    1.0000 </r>
       <r>  -22.3100    1.0000 </r>
       <r>  -22.2642    1.0000 </r>
       <r>  -22.1788    1.0000 </r>
       <r>  -21.7891    1.0000 </r>
       <r>  -21.7213    1.0000 </r>
       <r>  -21.5848    1.0000 </r>
       <r>  -21.5228    1.0000 </r>
       <r>  -20.9318    1.0000 </r>
       <r>  -20.8146    1.0000 </r>
       <r>  -20.7483    1.0000 </r>
       <r>  -20.6823    1.0000 </r>
       <r>  -19.9135    1.0000 </r>
       <r>  -19.8809    1.0000 </r>
       <r>  -19.6461    1.0000 </r>
       <r>  -19.6088    1.0000 </r>
       <r>  -19.5367    1.0000 </r>
       <r>  -19.5068    1.0000 </r>
       <r>  -19.4693    1.0000 </r>
       <r>  -19.3876    1.0000 </r>
       <r>  -19.3353    1.0000 </r>
       <r>  -19.3217    1.0000 </r>
       <r>  -19.1186    1.0000 </r>
       <r>  -19.0620    1.0000 </r>
       <r>  -18.9458    1.0000 </r>
       <r>  -18.9057    1.0000 </r>
       <r>  -18.6705    1.0000 </r>
       <r>  -18.5967    1.0000 </r>
       <r>  -18.5121    1.0000 </r>
       <r>  -18.4027    1.0000 </r>
       <r>  -18.2962    1.0000 </r>
       <r>  -18.2734    1.0000 </r>
       <r>  -18.1759    1.0000 </r>
       <r>  -18.0867    1.0000 </r>
       <r>  -17.7848    1.0000 </r>
       <r>  -17.7066    1.0000 </r>
       <r>  -17.6825    1.0000 </r>
       <r>  -17.6296    1.0000 </r>
       <r>  -16.9729    1.0000 </r>
       <r>  -16.8760    1.0000 </r>
       <r>  -16.3097    1.0000 </r>
       <r>  -16.2683    1.0000 </r>
       <r>  -16.0588    1.0000 </r>
       <r>  -16.0133    1.0000 </r>
       <r>  -15.9410    1.0000 </r>
       <r>  -15.8316    1.0000 </r>
       <r>  -15.3708    1.0000 </r>
       <r>  -15.2518    1.0000 </r>
       <r>  -15.0863    1.0000 </r>
       <r>  -15.0173    1.0000 </r>
       <r>  -14.8505    1.0000 </r>
       <r>  -14.8275    1.0000 </r>
       <r>  -14.6715    1.0000 </r>
       <r>  -14.6395    1.0000 </r>
       <r>  -14.0559    1.0000 </r>
       <r>  -13.9906    1.0000 </r>
       <r>  -13.7912    1.0000 </r>
       <r>  -13.7344    1.0000 </r>
       <r>  -13.7165    1.0000 </r>
       <r>  -13.6957    1.0000 </r>
       <r>  -13.6658    1.0000 </r>
       <r>  -13.6552    1.0000 </r>
       <r>  -13.5792    1.0000 </r>
       <r>  -13.5367    1.0000 </r>
       <r>  -13.4877    1.0000 </r>
       <r>  -13.4509    1.0000 </r>
       <r>  -13.4240    1.0000 </r>
       <r>  -13.3753    1.0000 </r>
       <r>  -13.2548    1.0000 </r>
       <r>  -13.2036    1.0000 </r>
       <r>  -12.4213    1.0000 </r>
       <r>  -12.3400    1.0000 </r>
       <r>  -12.1664    1.0000 </r>
       <r>  -12.1606    1.0000 </r>
       <r>  -12.1024    1.0000 </r>
       <r>  -12.1008    1.0000 </r>
       <r>  -11.9791    1.0000 </r>
       <r>  -11.9289    1.0000 </r>
       <r>  -11.8859    1.0000 </r>
       <r>  -11.8134    1.0000 </r>
       <r>  -11.7928    1.0000 </r>
       <r>  -11.7289    1.0000 </r>
       <r>  -11.7224    1.0000 </r>
       <r>  -11.6350    1.0000 </r>
       <r>  -11.3211    1.0000 </r>
       <r>  -11.2273    1.0000 </r>
       <r>  -11.2145    1.0000 </r>
       <r>  -11.1560    1.0000 </r>
       <r>  -11.0072    1.0000 </r>
       <r>  -10.9845    1.0000 </r>
       <r>  -10.8132    1.0000 </r>
       <r>  -10.7821    1.0000 </r>
       <r>  -10.6987    1.0000 </r>
       <r>  -10.6823    1.0000 </r>
       <r>  -10.6085    1.0000 </r>
       <r>  -10.5843    1.0000 </r>
       <r>  -10.5058    1.0000 </r>
       <r>  -10.4853    1.0000 </r>
       <r>  -10.4709    1.0000 </r>
       <r>  -10.4351    1.0000 </r>
       <r>  -10.3671    1.0000 </r>
       <r>  -10.3374    1.0000 </r>
       <r>  -10.3012    1.0000 </r>
       <r>  -10.2136    1.0000 </r>
       <r>  -10.1815    1.0000 </r>
       <r>  -10.1448    1.0000 </r>
       <r>  -10.1250    1.0000 </r>
       <r>  -10.0626    1.0000 </r>
       <r>  -10.0568    1.0000 </r>
[...]
       <r>   -22.7081    15.2335     7.2768 </r>
       <r>   -22.6112    16.5657     8.8817 </r>
       <r>   -22.5144    15.9157    10.4235 </r>
       <r>   -22.4175    13.6154    11.7425 </r>
       <r>   -22.3206    12.0287    12.9078 </r>
       <r>   -22.2237    12.3906    14.1082 </r>
       <r>   -22.1269    13.5527    15.4211 </r>
       <r>   -22.0300    14.1016    16.7872 </r>
       <r>   -21.9331    13.9874    18.1423 </r>
       <r>   -21.8362    13.6806    19.4676 </r>
       <r>   -21.7394    13.0928    20.7360 </r>
       <r>   -21.6425    12.1605    21.9141 </r>
       <r>   -21.5456    11.5266    23.0307 </r>
       <r>   -21.4487    11.6390    24.1583 </r>
       <r>   -21.3519    12.3027    25.3501 </r>
       <r>   -21.2550    13.4322    26.6514 </r>
       <r>   -21.1581    14.9804    28.1026 </r>
       <r>   -21.0612    16.0314    29.6557 </r>
       <r>   -20.9643    15.2483    31.1329 </r>
       <r>   -20.8675    13.1151    32.4034 </r>
       <r>   -20.7706    11.9295    33.5591 </r>
       <r>   -20.6737    12.5896    34.7788 </r>
       <r>   -20.5768    13.6577    36.1019 </r>
       <r>   -20.4800    13.8280    37.4415 </r>
       <r>   -20.3831    13.3536    38.7351 </r>
       <r>   -20.2862    13.1050    40.0047 </r>
       <r>   -20.1893    13.5264    41.3151 </r>
       <r>   -20.0925    14.3672    42.7069 </r>
       <r>   -19.9956    14.9793    44.1581 </r>
       <r>   -19.8987    14.7996    45.5918 </r>
       <r>   -19.8018    13.7125    46.9202 </r>
       <r>   -19.7050    13.1018    48.1895 </r>
       <r>   -19.6081    14.6362    49.6074 </r>
       <r>   -19.5112    16.8391    51.2387 </r>
       <r>   -19.4143    16.5269    52.8398 </r>
       <r>   -19.3174    13.7221    54.1691 </r>
       <r>   -19.2206    11.6648    55.2992 </r>
       <r>   -19.1237    12.2402    56.4849 </r>
       <r>   -19.0268    13.8865    57.8302 </r>
       <r>   -18.9299    14.4160    59.2268 </r>
       <r>   -18.8331    13.8602    60.5695 </r>
       <r>   -18.7362    13.8705    61.9132 </r>
       <r>   -18.6393    15.3359    63.3989 </r>
       <r>   -18.5424    17.0126    65.0470 </r>
       <r>   -18.4456    17.4041    66.7331 </r>
       <r>   -18.3487    17.2154    68.4009 </r>
       <r>   -18.2518    17.8076    70.1260 </r>
       <r>   -18.1549    18.3880    71.9074 </r>
       <r>   -18.0581    17.2514    73.5786 </r>
       <r>   -17.9612    14.5971    74.9928 </r>
       <r>   -17.8643    12.4567    76.1995 </r>
       <r>   -17.7674    12.0849    77.3702 </r>
       <r>   -17.6705    12.5609    78.5871 </r>
       <r>   -17.5737    12.6176    79.8095 </r>
       <r>   -17.4768    12.1562    80.9871 </r>
       <r>   -17.3799    11.4690    82.0982 </r>
       <r>   -17.2830    10.9916    83.1630 </r>
       <r>   -17.1862    11.4233    84.2697 </r>
       <r>   -17.0893    12.3616    85.4672 </r>
       <r>   -16.9924    12.2972    86.6585 </r>
       <r>   -16.8955    10.9824    87.7225 </r>
       <r>   -16.7987     9.9406    88.6855 </r>
       <r>   -16.7018    10.4984    89.7025 </r>
       <r>   -16.6049    12.4063    90.9044 </r>
       <r>   -16.5080    14.3976    92.2992 </r>
       <r>   -16.4111    15.7165    93.8217 </r>
       <r>   -16.3143    16.4840    95.4187 </r>
       <r>   -16.2174    16.9258    97.0584 </r>
       <r>   -16.1205    17.1696    98.7217 </r>
       <r>   -16.0236    17.0980   100.3781 </r>
       <r>   -15.9268    16.0935   101.9372 </r>
       <r>   -15.8299    14.0583   103.2991 </r>
       <r>   -15.7330    12.0183   104.4634 </r>
       <r>   -15.6361    10.9901   105.5281 </r>
       <r>   -15.5393    11.3863   106.6311 </r>
       <r>   -15.4424    13.6422   107.9527 </r>
       <r>   -15.3455    17.4914   109.6472 </r>
       <r>   -15.2486    20.9348   111.6753 </r>
       <r>   -15.1518    22.3740   113.8428 </r>
       <r>   -15.0549    22.0898   115.9828 </r>
       <r>   -14.9580    20.5310   117.9718 </r>
       <r>   -14.8611    17.8308   119.6992 </r>
       <r>   -14.7642    14.6053   121.1141 </r>
       <r>   -14.6674    11.8993   122.2669 </r>
       <r>   -14.5705    10.5017   123.2842 </r>
       <r>   -14.4736    10.1701   124.2695 </r>
       <r>   -14.3767    10.0539   125.2435 </r>
       <r>   -14.2799    10.1440   126.2262 </r>
       <r>   -14.1830    11.2490   127.3159 </r>
       <r>   -14.0861    13.3270   128.6070 </r>
       <r>   -13.9892    15.0664   130.0666 </r>
       <r>   -13.8924    15.7962   131.5969 </r>
       <r>   -13.7955    16.4073   133.1864 </r>
       <r>   -13.6986    17.3510   134.8673 </r>
       <r>   -13.6017    17.9062   136.6020 </r>
       <r>   -13.5049    18.2337   138.3684 </r>
       <r>   -13.4080    19.3304   140.2410 </r>
       <r>   -13.3111    20.7804   142.2542 </r>
       <r>   -13.2142    20.6291   144.2527 </r>
       <r>   -13.1173    17.6820   145.9656 </r>
       <r>   -13.0205    13.8371   147.3061 </r>
       <r>   -12.9236    12.3118   148.4988 </r>
       <r>   -12.8267    13.3923   149.7962 </r>
       <r>   -12.7298    14.7920   151.2292 </r>
       <r>   -12.6330    15.1213   152.6941 </r>
       <r>   -12.5361    14.8350   154.1313 </r>
       <r>   -12.4392    14.7417   155.5594 </r>
       <r>   -12.3423    15.2011   157.0321 </r>
       <r>   -12.2455    16.9798   158.6770 </r>
       <r>   -12.1486    20.6198   160.6746 </r>
       <r>   -12.0517    24.4448   163.0427 </r>
       <r>   -11.9548    26.0873   165.5699 </r>
       <r>   -11.8580    24.9627   167.9882 </r>
       <r>   -11.7611    21.8346   170.1035 </r>
       <r>   -11.6642    17.9970   171.8470 </r>
       <r>   -11.5673    15.0042   173.3005 </r>
       <r>   -11.4704    14.1557   174.6719 </r>
       <r>   -11.3736    15.6586   176.1888 </r>
       <r>   -11.2767    18.7303   178.0034 </r>
       <r>   -11.1798    22.6409   180.1967 </r>
       <r>   -11.0829    26.9957   182.8120 </r>
       <r>   -10.9861    31.2438   185.8388 </r>
       <r>   -10.8892    34.3902   189.1704 </r>
       <r>   -10.7923    35.6197   192.6211 </r>
       <r>   -10.6954    35.4075   196.0513 </r>
       <r>   -10.5986    35.6146   199.5015 </r>
       <r>   -10.5017    37.2335   203.1085 </r>
       <r>   -10.4048    38.6522   206.8530 </r>
       <r>   -10.3079    37.9729   210.5317 </r>
       <r>   -10.2110    35.9590   214.0153 </r>
       <r>   -10.1142    34.6032   217.3675 </r>
       <r>   -10.0173    33.9853   220.6599 </r>
       <r>    -9.9204    33.1693   223.8732 </r>
       <r>    -9.8235    32.8929   227.0598 </r>
       <r>    -9.7267    34.6315   230.4148 </r>
       <r>    -9.6298    37.9994   234.0960 </r>
       <r>    -9.5329    40.8478   238.0532 </r>
       <r>    -9.4360    41.5691   242.0803 </r>
       <r>    -9.3392    39.8279   245.9387 </r>
       <r>    -9.2423    35.8623   249.4129 </r>
       <r>    -9.1454    31.4074   252.4555 </r>
       <r>    -9.0485    29.3211   255.2961 </r>
       <r>    -8.9517    30.5407   258.2547 </r>
       <r>    -8.8548    33.4912   261.4993 </r>
       <r>    -8.7579    36.0840   264.9950 </r>
       <r>    -8.6610    36.9968   268.5791 </r>
       <r>    -8.5641    36.1036   272.0767 </r>
       <r>    -8.4673    34.0272   275.3731 </r>
       <r>    -8.3704    31.6424   278.4385 </r>
       <r>    -8.2735    29.9447   281.3395 </r>
       <r>    -8.1766    29.2089   284.1691 </r>
       <r>    -8.0798    28.7488   286.9542 </r>
       <r>    -7.9829    28.1363   289.6799 </r>
       <r>    -7.8860    27.3030   292.3250 </r>
       <r>    -7.7891    26.0911   294.8526 </r>
       <r>    -7.6923    25.4104   297.3143 </r>
       <r>    -7.5954    26.3949   299.8713 </r>
       <r>    -7.4985    28.2113   302.6043 </r>
       <r>    -7.4016    29.0268   305.4163 </r>
       <r>    -7.3048    28.1742   308.1458 </r>
       <r>    -7.2079    26.4231   310.7055 </r>
       <r>    -7.1110    25.1880   313.1457 </r>
       <r>    -7.0141    25.3427   315.6008 </r>
       <r>    -6.9172    26.1048   318.1297 </r>
       <r>    -6.8204    26.3624   320.6836 </r>
       <r>    -6.7235    26.1260   323.2146 </r>
       <r>    -6.6266    25.1640   325.6524 </r>
       <r>    -6.5297    22.9375   327.8745 </r>
       <r>    -6.4329    20.5599   329.8663 </r>
       <r>    -6.3360    19.7156   331.7763 </r>
       <r>    -6.2391    19.9895   333.7128 </r>
       <r>    -6.1422    20.4920   335.6980 </r>
       <r>    -6.0454    22.0534   337.8345 </r>
       <r>    -5.9485    24.7023   340.2275 </r>
       <r>    -5.8516    26.2399   342.7696 </r>
       <r>    -5.7547    25.1675   345.2077 </r>
       <r>    -5.6579    22.0850   347.3472 </r>
       <r>    -5.5610    18.0721   349.0980 </r>
       <r>    -5.4641    13.8288   350.4377 </r>
       <r>    -5.3672    10.6116   351.4657 </r>
       <r>    -5.2703    10.1178   352.4459 </r>
       <r>    -5.1735    11.7812   353.5872 </r>
       <r>    -5.0766    12.5457   354.8026 </r>
       <r>    -4.9797    11.0288   355.8710 </r>
       <r>    -4.8828     9.2059   356.7628 </r>
       <r>    -4.7860     9.2548   357.6594 </r>
       <r>    -4.6891    11.2485   358.7491 </r>
       <r>    -4.5922    13.9224   360.0979 </r>
       <r>    -4.4953    15.5483   361.6041 </r>
       <r>    -4.3985    14.3769   362.9969 </r>
       <r>    -4.3016    10.5937   364.0232 </r>
       <r>    -4.2047     6.7140   364.6736 </r>
       <r>    -4.1078     4.2715   365.0875 </r>
       <r>    -4.0109     2.7421   365.3531 </r>
       <r>    -3.9141     1.8836   365.5356 </r>
       <r>    -3.8172     2.1754   365.7463 </r>
       <r>    -3.7203     3.4219   366.0778 </r>
       <r>    -3.6234     4.5418   366.5178 </r>
       <r>    -3.5266     4.5478   366.9584 </r>
       <r>    -3.4297     3.4490   367.2925 </r>
       <r>    -3.3328     2.3464   367.5198 </r>
       <r>    -3.2359     2.3543   367.7479 </r>
       <r>    -3.1391     3.4233   368.0795 </r>
       <r>    -3.0422     4.5477   368.5201 </r>
       <r>    -2.9453     4.8739   368.9923 </r>
       <r>    -2.8484     4.6044   369.4383 </r>
       <r>    -2.7516     4.7884   369.9022 </r>
       <r>    -2.6547     5.6696   370.4515 </r>
       <r>    -2.5578     6.2382   371.0558 </r>
       <r>    -2.4609     6.2197   371.6583 </r>
       <r>    -2.3640     6.4586   372.2840 </r>
       <r>    -2.2672     7.2052   372.9820 </r>
       <r>    -2.1703     8.0740   373.7642 </r>
       <r>    -2.0734     8.4797   374.5857 </r>
       <r>    -1.9765     7.6606   375.3278 </r>
       <r>    -1.8797     6.2475   375.9331 </r>
       <r>    -1.7828     6.5881   376.5713 </r>
       <r>    -1.6859    10.1031   377.5500 </r>
       <r>    -1.5890    15.6770   379.0688 </r>
       <r>    -1.4922    20.6709   381.0713 </r>
       <r>    -1.3953    22.8056   383.2806 </r>
       <r>    -1.2984    21.8272   385.3952 </r>
       <r>    -1.2015    19.6324   387.2971 </r>
       <r>    -1.1047    18.4913   389.0885 </r>
       <r>    -1.0078    18.5705   390.8875 </r>
       <r>    -0.9109    17.8467   392.6165 </r>
       <r>    -0.8140    15.5354   394.1215 </r>
       <r>    -0.7171    13.3323   395.4131 </r>
       <r>    -0.6203    12.6016   396.6339 </r>
       <r>    -0.5234    12.5310   397.8478 </r>
       <r>    -0.4265    11.8084   398.9918 </r>
       <r>    -0.3296    11.3980   400.0960 </r>
       <r>    -0.2328    13.3134   401.3857 </r>
       <r>    -0.1359    16.6509   402.9988 </r>
       <r>    -0.0390    18.5405   404.7949 </r>
       <r>     0.0579    18.7060   406.6071 </r>
       <r>     0.1547    19.1333   408.4607 </r>
       <r>     0.2516    20.4320   410.4401 </r>
       <r>     0.3485    21.3253   412.5060 </r>
       <r>     0.4454    20.8023   414.5212 </r>
       <r>     0.5422    19.9125   416.4503 </r>
       <r>     0.6391    20.7652   418.4620 </r>
       <r>     0.7360    23.9273   420.7800 </r>
       <r>     0.8329    27.8214   423.4752 </r>
       <r>     0.9298    31.0385   426.4821 </r>
       <r>     1.0266    34.5844   429.8325 </r>
       <r>     1.1235    39.5951   433.6684 </r>
       <r>     1.2204    44.9485   438.0228 </r>
       <r>     1.3173    49.0770   442.7772 </r>
       <r>     1.4141    50.8713   447.7055 </r>
       <r>     1.5110    49.0730   452.4595 </r>
       <r>     1.6079    43.0727   456.6322 </r>
       <r>     1.7048    33.7362   459.9005 </r>
       <r>     1.8016    22.7716   462.1065 </r>
       <r>     1.8985    12.4486   463.3125 </r>
       <r>     1.9954     5.1614   463.8125 </r>
       <r>     2.0923     1.5515   463.9628 </r>
       <r>     2.1892     0.3299   463.9948 </r>
       <r>     2.2860     0.0488   463.9995 </r>
       <r>     2.3829     0.0050   464.0000 </r>
       <r>     2.4798     0.0003   464.0000 </r>
       <r>     2.5767     0.0000   464.0000 </r>
       <r>     2.6735     0.0000   464.0000 </r>
       <r>     2.7704     0.0000   464.0000 </r>
       <r>     2.8673     0.0000   464.0000 </r>
       <r>     2.9642     0.0000   464.0000 </r>
       <r>     3.0610     0.0000   464.0000 </r>
       <r>     3.1579     0.0000   464.0000 </r>
       <r>     3.2548     0.0000   464.0000 </r>
       <r>     3.3517     0.0000   464.0000 </r>
       <r>     3.4485     0.0000   464.0000 </r>
       <r>     3.5454     0.0000   464.0000 </r>
       <r>     3.6423     0.0000   464.0000 </r>
       <r>     3.7392     0.0000   464.0000 </r>
       <r>     3.8361     0.0000   464.0000 </r>
      </set>
     </set>
    </array>
   </total>
  </dos>
 </calculation>
 <structure name="finalpos" >
  <crystal>
   <varray name="basis" >
    <v>      28.05000000       0.00000000       0.00000000 </v>
    <v>       0.00000000       8.10000000       0.00000000 </v>
    <v>       0.00000000       0.00000000      33.50000000 </v>
   </varray>
   <i name="volume">   7611.36750000 </i>
   <varray name="rec_basis" >
    <v>       0.03565062       0.00000000       0.00000000 </v>
    <v>       0.00000000       0.12345679       0.00000000 </v>
    <v>       0.00000000       0.00000000       0.02985075 </v>
   </varray>
  </crystal>
  <varray name="positions" >
   <v>       0.00189846       0.09741790       0.48147761 </v>
   <v>       0.00328224       0.26787778       0.48445373 </v>
   <v>       0.04333369       0.01087091       0.47690746 </v>
   <v>       0.04559465       0.35342099       0.48057910 </v>
   <v>       0.08724955       0.09750160       0.46700896 </v>
   <v>       0.08846952       0.26668148       0.47011940 </v>
   <v>       0.13112478       0.01834889       0.45948657 </v>
   <v>       0.13235615       0.35598148       0.46708060 </v>
   <v>       0.17439037       0.09920123       0.45409254 </v>
   <v>       0.17541319       0.27115679       0.45590746 </v>
   <v>       0.22084029       0.02606481       0.45918209 </v>
   <v>       0.21910303       0.35705679       0.45478209 </v>
   <v>       0.26776970       0.10526901       0.45460597 </v>
   <v>       0.26425775       0.27546667       0.45458806 </v>
   <v>       0.31078111       0.02847037       0.45748955 </v>
   <v>       0.31121497       0.35696296       0.45992836 </v>
   <v>       0.35501676       0.10905309       0.46393433 </v>
   <v>       0.35459501       0.27439259       0.46434627 </v>
   <v>       0.39928699       0.02066185       0.47065075 </v>
   <v>       0.39802139       0.35864444       0.47660597 </v>
   <v>       0.44031373       0.10633802       0.48469552 </v>
   <v>       0.43863815       0.27696790       0.48964179 </v>
   <v>       0.48488414       0.02932827       0.49200597 </v>
   <v>       0.47979323       0.35611852       0.50399403 </v>
   <v>       0.52491622       0.10684346       0.50775821 </v>
   <v>       0.52310517       0.27317778       0.51053731 </v>
   <v>       0.56686631       0.02752914       0.51731045 </v>
   <v>       0.56660963       0.35435802       0.52017313 </v>
   <v>       0.61154367       0.10520383       0.52564478 </v>
   <v>       0.60827451       0.27138765       0.53217612 </v>
   <v>       0.65517647       0.02354642       0.53037015 </v>
   <v>       0.65402496       0.35351235       0.53475821 </v>
   <v>       0.69959715       0.10901519       0.53444776 </v>
   <v>       0.70056684       0.27385802       0.53699403 </v>
   <v>       0.74327986       0.02278407       0.53564179 </v>
   <v>       0.74334403       0.35340247       0.54402985 </v>
   <v>       0.78686631       0.10472716       0.53233731 </v>
   <v>       0.78795009       0.27473457       0.54001791 </v>
   <v>       0.83122638       0.01972704       0.53072239 </v>
   <v>       0.83094118       0.35731605       0.53236418 </v>
   <v>       0.87197504       0.10490185       0.51836119 </v>
   <v>       0.87082353       0.27440494       0.51846269 </v>
   <v>       0.91587522       0.02007309       0.51386866 </v>
   <v>       0.91394652       0.35823457       0.51372836 </v>
   <v>       0.95299109       0.11066975       0.49515522 </v>
   <v>       0.95296257       0.27960000       0.49452537 </v>
   <v>       0.01345048       0.60172840       0.51224179 </v>
   <v>       0.01096299       0.76997284       0.50877313 </v>
   <v>       0.04986631       0.51498765       0.49241194 </v>
   <v>       0.04778360       0.85038889       0.49071940 </v>
   <v>       0.09344670       0.59978642       0.48403881 </v>
   <v>       0.09059216       0.77235185       0.48416418 </v>
   <v>       0.13428235       0.52434815       0.47202388 </v>
   <v>       0.13297362       0.85379877       0.46889851 </v>
   <v>       0.17870588       0.60364198       0.46845075 </v>
   <v>       0.17818752       0.77273457       0.46550746 </v>
   <v>       0.22151765       0.52113951       0.46295522 </v>
   <v>       0.22064813       0.85604568       0.46152537 </v>
   <v>       0.26715401       0.60852346       0.46544776 </v>
   <v>       0.26650196       0.77392222       0.46167164 </v>
   <v>       0.31023244       0.52343210       0.46704776 </v>
   <v>       0.31065882       0.85790864       0.46142985 </v>
   <v>       0.35233012       0.60742099       0.47529851 </v>
   <v>       0.35329447       0.77116049       0.47038209 </v>
   <v>       0.39616756       0.52488765       0.47937910 </v>
   <v>       0.39804278       0.85142840       0.47265373 </v>
   <v>       0.43858467       0.60982346       0.48798806 </v>
   <v>       0.44121925       0.77809383       0.48593731 </v>
   <v>       0.48105882       0.52677284       0.50197313 </v>
   <v>       0.48538681       0.86118519       0.49018507 </v>
   <v>       0.52271658       0.60546173       0.51068358 </v>
   <v>       0.52502317       0.77417778       0.50466269 </v>
   <v>       0.56556150       0.52017284       0.51954627 </v>
   <v>       0.56894118       0.85449753       0.51408955 </v>
   <v>       0.61018182       0.59843580       0.52671940 </v>
   <v>       0.61242068       0.76870617       0.52260896 </v>
   <v>       0.65490196       0.51785802       0.53708657 </v>
   <v>       0.65664884       0.85453333       0.53305970 </v>
   <v>       0.69881640       0.60731728       0.54411940 </v>
   <v>       0.69967201       0.77193210       0.53763284 </v>
   <v>       0.74333333       0.51982346       0.54949851 </v>
   <v>       0.74472014       0.85467284       0.54143284 </v>
   <v>       0.79078075       0.60303086       0.54893731 </v>
   <v>       0.78886631       0.77130864       0.54556418 </v>
   <v>       0.83230303       0.52005185       0.54250448 </v>
   <v>       0.83258824       0.85253951       0.54168060 </v>
   <v>       0.87613191       0.60154321       0.53834030 </v>
   <v>       0.87693405       0.76760617       0.53724179 </v>
   <v>       0.91804635       0.51722716       0.52987761 </v>
   <v>       0.91843494       0.85361481       0.52513134 </v>
   <v>       0.96182175       0.59292840       0.52603284 </v>
   <v>       0.96052763       0.76686914       0.52040299 </v>
  </varray>
 </structure>
</modeling>
