  92  92   0   0
  0.8273226E+02  0.2805000E-08  0.8100000E-09  0.3350000E-08  0.5000000E-15
   1.0000000000000000E-004
  CAR 
 unknown system                          
      3.88184544    -25.16296109  301     -3.16474804      1.00000000
    -25.163  0.0000E+00  0.0000E+00
    -25.066  0.0000E+00  0.0000E+00
    -24.969  0.0000E+00  0.0000E+00
    -24.873  0.0000E+00  0.0000E+00
    -24.776  0.0000E+00  0.0000E+00
    -24.679  0.0000E+00  0.0000E+00
    -24.582  0.0000E+00  0.0000E+00
    -24.485  0.0000E+00  0.0000E+00
    -24.388  0.0000E+00  0.0000E+00
    -24.292  0.3727E-14  0.3608E-15
    -24.195  0.7718E-12  0.7508E-13
    -24.098  0.9970E-10  0.9727E-11
    -24.001  0.8163E-08  0.8001E-09
    -23.904  0.4253E-06  0.4198E-07
    -23.808  0.1418E-04  0.1415E-05
    -23.711  0.3046E-03  0.3091E-04
    -23.614  0.4263E-02  0.4437E-03
    -23.517  0.3940E-01  0.4258E-02
    -23.420  0.2445E+00  0.2793E-01
    -23.323  0.1040E+01  0.1286E+00
    -23.227  0.3094E+01  0.4282E+00
    -23.130  0.6598E+01  0.1067E+01
    -23.033  0.1038E+02  0.2072E+01
    -22.936  0.1265E+02  0.3297E+01
    -22.839  0.1315E+02  0.4570E+01
    -22.743  0.1356E+02  0.5883E+01
    -22.646  0.1485E+02  0.7320E+01
    -22.549  0.1556E+02  0.8827E+01
    -22.452  0.1466E+02  0.1025E+02
    -22.355  0.1371E+02  0.1157E+02
    -22.258  0.1409E+02  0.1294E+02
    -22.162  0.1497E+02  0.1439E+02
    -22.065  0.1519E+02  0.1586E+02
    -21.968  0.1473E+02  0.1728E+02
    -21.871  0.1411E+02  0.1865E+02
    -21.774  0.1370E+02  0.1998E+02
    -21.678  0.1335E+02  0.2127E+02
    -21.581  0.1260E+02  0.2249E+02
    -21.484  0.1165E+02  0.2362E+02
    -21.387  0.1140E+02  0.2472E+02
    -21.290  0.1231E+02  0.2591E+02
    -21.194  0.1400E+02  0.2727E+02
    -21.097  0.1564E+02  0.2878E+02
    -21.000  0.1610E+02  0.3034E+02
    -20.903  0.1473E+02  0.3177E+02
    -20.806  0.1266E+02  0.3299E+02
    -20.709  0.1186E+02  0.3414E+02
    -20.613  0.1287E+02  0.3539E+02
    -20.516  0.1405E+02  0.3675E+02
    -20.419  0.1385E+02  0.3809E+02
    -20.322  0.1280E+02  0.3933E+02
    -20.225  0.1260E+02  0.4055E+02
    -20.129  0.1387E+02  0.4189E+02
    -20.032  0.1549E+02  0.4339E+02
    -19.935  0.1593E+02  0.4493E+02
    -19.838  0.1486E+02  0.4637E+02
    -19.741  0.1354E+02  0.4768E+02
    -19.644  0.1384E+02  0.4902E+02
    -19.548  0.1566E+02  0.5054E+02
    -19.451  0.1637E+02  0.5212E+02
    -19.354  0.1468E+02  0.5354E+02
    -19.257  0.1262E+02  0.5477E+02
    -19.160  0.1244E+02  0.5597E+02
    -19.064  0.1363E+02  0.5729E+02
    -18.967  0.1429E+02  0.5867E+02
    -18.870  0.1371E+02  0.6000E+02
    -18.773  0.1335E+02  0.6129E+02
    -18.676  0.1499E+02  0.6274E+02
    -18.579  0.1746E+02  0.6443E+02
    -18.483  0.1790E+02  0.6617E+02
    -18.386  0.1630E+02  0.6775E+02
    -18.289  0.1534E+02  0.6923E+02
    -18.192  0.1633E+02  0.7081E+02
    -18.095  0.1751E+02  0.7251E+02
    -17.999  0.1666E+02  0.7412E+02
    -17.902  0.1441E+02  0.7552E+02
    -17.805  0.1297E+02  0.7677E+02
    -17.708  0.1252E+02  0.7798E+02
    -17.611  0.1177E+02  0.7912E+02
    -17.514  0.1085E+02  0.8017E+02
    -17.418  0.1091E+02  0.8123E+02
    -17.321  0.1192E+02  0.8238E+02
    -17.224  0.1254E+02  0.8360E+02
    -17.127  0.1216E+02  0.8477E+02
    -17.030  0.1146E+02  0.8588E+02
    -16.934  0.1086E+02  0.8694E+02
    -16.837  0.1049E+02  0.8795E+02
    -16.740  0.1089E+02  0.8900E+02
    -16.643  0.1215E+02  0.9018E+02
    -16.546  0.1331E+02  0.9147E+02
    -16.450  0.1389E+02  0.9281E+02
    -16.353  0.1477E+02  0.9424E+02
    -16.256  0.1631E+02  0.9582E+02
    -16.159  0.1772E+02  0.9754E+02
    -16.062  0.1812E+02  0.9929E+02
    -15.965  0.1727E+02  0.1010E+03
    -15.869  0.1580E+02  0.1025E+03
    -15.772  0.1429E+02  0.1039E+03
    -15.675  0.1274E+02  0.1051E+03
    -15.578  0.1147E+02  0.1062E+03
    -15.481  0.1148E+02  0.1073E+03
    -15.385  0.1391E+02  0.1087E+03
    -15.288  0.1833E+02  0.1105E+03
    -15.191  0.2230E+02  0.1126E+03
    -15.094  0.2388E+02  0.1149E+03
    -14.997  0.2288E+02  0.1171E+03
    -14.900  0.1980E+02  0.1191E+03
    -14.804  0.1593E+02  0.1206E+03
    -14.707  0.1274E+02  0.1218E+03
    -14.610  0.1053E+02  0.1229E+03
    -14.513  0.9331E+01  0.1238E+03
    -14.416  0.9508E+01  0.1247E+03
    -14.320  0.1066E+02  0.1257E+03
    -14.223  0.1180E+02  0.1269E+03
    -14.126  0.1271E+02  0.1281E+03
    -14.029  0.1368E+02  0.1294E+03
    -13.932  0.1467E+02  0.1308E+03
    -13.835  0.1568E+02  0.1323E+03
    -13.739  0.1707E+02  0.1340E+03
    -13.642  0.1855E+02  0.1358E+03
    -13.545  0.1918E+02  0.1376E+03
    -13.448  0.1898E+02  0.1395E+03
    -13.351  0.1881E+02  0.1413E+03
    -13.255  0.1881E+02  0.1431E+03
    -13.158  0.1801E+02  0.1449E+03
    -13.061  0.1612E+02  0.1464E+03
    -12.964  0.1465E+02  0.1479E+03
    -12.867  0.1485E+02  0.1493E+03
    -12.771  0.1559E+02  0.1508E+03
    -12.674  0.1503E+02  0.1523E+03
    -12.577  0.1330E+02  0.1535E+03
    -12.480  0.1256E+02  0.1548E+03
    -12.383  0.1401E+02  0.1561E+03
    -12.286  0.1693E+02  0.1578E+03
    -12.190  0.2059E+02  0.1597E+03
    -12.093  0.2407E+02  0.1621E+03
    -11.996  0.2554E+02  0.1645E+03
    -11.899  0.2441E+02  0.1669E+03
    -11.802  0.2199E+02  0.1690E+03
    -11.706  0.1935E+02  0.1709E+03
    -11.609  0.1686E+02  0.1725E+03
    -11.512  0.1517E+02  0.1740E+03
    -11.415  0.1514E+02  0.1755E+03
    -11.318  0.1699E+02  0.1771E+03
    -11.221  0.2025E+02  0.1791E+03
    -11.125  0.2460E+02  0.1815E+03
    -11.028  0.2939E+02  0.1843E+03
    -10.931  0.3292E+02  0.1875E+03
    -10.834  0.3416E+02  0.1908E+03
    -10.737  0.3395E+02  0.1941E+03
    -10.641  0.3412E+02  0.1974E+03
    -10.544  0.3597E+02  0.2009E+03
    -10.447  0.3832E+02  0.2046E+03
    -10.350  0.3841E+02  0.2083E+03
    -10.253  0.3629E+02  0.2118E+03
    -10.156  0.3479E+02  0.2152E+03
    -10.060  0.3465E+02  0.2185E+03
     -9.963  0.3397E+02  0.2218E+03
     -9.866  0.3257E+02  0.2250E+03
     -9.769  0.3277E+02  0.2282E+03
     -9.672  0.3577E+02  0.2316E+03
     -9.576  0.4013E+02  0.2355E+03
     -9.479  0.4351E+02  0.2397E+03
     -9.382  0.4404E+02  0.2440E+03
     -9.285  0.4077E+02  0.2479E+03
     -9.188  0.3473E+02  0.2513E+03
     -9.092  0.2940E+02  0.2541E+03
     -8.995  0.2805E+02  0.2569E+03
     -8.898  0.3089E+02  0.2599E+03
     -8.801  0.3545E+02  0.2633E+03
     -8.704  0.3835E+02  0.2670E+03
     -8.607  0.3771E+02  0.2706E+03
     -8.511  0.3454E+02  0.2740E+03
     -8.414  0.3145E+02  0.2770E+03
     -8.317  0.2999E+02  0.2799E+03
     -8.220  0.2937E+02  0.2828E+03
     -8.123  0.2827E+02  0.2855E+03
     -8.027  0.2704E+02  0.2881E+03
     -7.930  0.2657E+02  0.2907E+03
     -7.833  0.2696E+02  0.2933E+03
     -7.736  0.2766E+02  0.2960E+03
     -7.639  0.2830E+02  0.2987E+03
     -7.542  0.2906E+02  0.3016E+03
     -7.446  0.2980E+02  0.3044E+03
     -7.349  0.2952E+02  0.3073E+03
     -7.252  0.2777E+02  0.3100E+03
     -7.155  0.2552E+02  0.3125E+03
     -7.058  0.2394E+02  0.3148E+03
     -6.962  0.2350E+02  0.3170E+03
     -6.865  0.2450E+02  0.3194E+03
     -6.768  0.2660E+02  0.3220E+03
     -6.671  0.2784E+02  0.3247E+03
     -6.574  0.2610E+02  0.3272E+03
     -6.477  0.2231E+02  0.3294E+03
     -6.381  0.1969E+02  0.3313E+03
     -6.284  0.1971E+02  0.3332E+03
     -6.187  0.2118E+02  0.3352E+03
     -6.090  0.2288E+02  0.3375E+03
     -5.993  0.2463E+02  0.3398E+03
     -5.897  0.2569E+02  0.3423E+03
     -5.800  0.2456E+02  0.3447E+03
     -5.703  0.2130E+02  0.3468E+03
     -5.606  0.1767E+02  0.3485E+03
     -5.509  0.1451E+02  0.3499E+03
     -5.412  0.1176E+02  0.3510E+03
     -5.316  0.1042E+02  0.3520E+03
     -5.219  0.1122E+02  0.3531E+03
     -5.122  0.1220E+02  0.3543E+03
     -5.025  0.1116E+02  0.3554E+03
     -4.928  0.9007E+01  0.3563E+03
     -4.832  0.8118E+01  0.3570E+03
     -4.735  0.9278E+01  0.3579E+03
     -4.638  0.1174E+02  0.3591E+03
     -4.541  0.1422E+02  0.3605E+03
     -4.444  0.1517E+02  0.3619E+03
     -4.348  0.1349E+02  0.3632E+03
     -4.251  0.9624E+01  0.3642E+03
     -4.154  0.5405E+01  0.3647E+03
     -4.057  0.2460E+01  0.3649E+03
     -3.960  0.1323E+01  0.3650E+03
     -3.863  0.1820E+01  0.3652E+03
     -3.767  0.3224E+01  0.3655E+03
     -3.670  0.4276E+01  0.3659E+03
     -3.573  0.4335E+01  0.3664E+03
     -3.476  0.4060E+01  0.3668E+03
     -3.379  0.4000E+01  0.3671E+03
     -3.283  0.3928E+01  0.3675E+03
     -3.186  0.3954E+01  0.3679E+03
     -3.089  0.4514E+01  0.3683E+03
     -2.992  0.5365E+01  0.3689E+03
     -2.895  0.5919E+01  0.3694E+03
     -2.798  0.6471E+01  0.3701E+03
     -2.702  0.7629E+01  0.3708E+03
     -2.605  0.8491E+01  0.3716E+03
     -2.508  0.7457E+01  0.3724E+03
     -2.411  0.5062E+01  0.3728E+03
     -2.314  0.3803E+01  0.3732E+03
     -2.218  0.4992E+01  0.3737E+03
     -2.121  0.7177E+01  0.3744E+03
     -2.024  0.7739E+01  0.3751E+03
     -1.927  0.6233E+01  0.3757E+03
     -1.830  0.5397E+01  0.3763E+03
     -1.733  0.7878E+01  0.3770E+03
     -1.637  0.1314E+02  0.3783E+03
     -1.540  0.1846E+02  0.3801E+03
     -1.443  0.2188E+02  0.3822E+03
     -1.346  0.2302E+02  0.3844E+03
     -1.249  0.2226E+02  0.3866E+03
     -1.153  0.2069E+02  0.3886E+03
     -1.056  0.1916E+02  0.3904E+03
     -0.959  0.1741E+02  0.3921E+03
     -0.862  0.1543E+02  0.3936E+03
     -0.765  0.1397E+02  0.3950E+03
     -0.669  0.1342E+02  0.3963E+03
     -0.572  0.1311E+02  0.3975E+03
     -0.475  0.1204E+02  0.3987E+03
     -0.378  0.1060E+02  0.3997E+03
     -0.281  0.1101E+02  0.4008E+03
     -0.184  0.1418E+02  0.4022E+03
     -0.088  0.1771E+02  0.4039E+03
      0.009  0.1923E+02  0.4058E+03
      0.106  0.1956E+02  0.4076E+03
      0.203  0.2048E+02  0.4096E+03
      0.300  0.2155E+02  0.4117E+03
      0.396  0.2095E+02  0.4137E+03
      0.493  0.1916E+02  0.4156E+03
      0.590  0.1934E+02  0.4175E+03
      0.687  0.2296E+02  0.4197E+03
      0.784  0.2771E+02  0.4224E+03
      0.881  0.3104E+02  0.4254E+03
      0.977  0.3361E+02  0.4286E+03
      1.074  0.3695E+02  0.4322E+03
      1.171  0.4088E+02  0.4362E+03
      1.268  0.4501E+02  0.4405E+03
      1.365  0.4856E+02  0.4452E+03
      1.461  0.4943E+02  0.4500E+03
      1.558  0.4608E+02  0.4545E+03
      1.655  0.3875E+02  0.4582E+03
      1.752  0.2867E+02  0.4610E+03
      1.849  0.1774E+02  0.4627E+03
      1.946  0.8709E+01  0.4636E+03
      2.042  0.3298E+01  0.4639E+03
      2.139  0.9588E+00  0.4640E+03
      2.236  0.2110E+00  0.4640E+03
      2.333  0.3376E-01  0.4640E+03
      2.430  0.3741E-02  0.4640E+03
      2.526  0.2759E-03  0.4640E+03
      2.623  0.1321E-04  0.4640E+03
      2.720  0.4053E-06  0.4640E+03
      2.817  0.7905E-08  0.4640E+03
      2.914  0.9762E-10  0.4640E+03
      3.011  0.7609E-12  0.4640E+03
      3.107  0.3440E-14  0.4640E+03
      3.204  0.0000E+00  0.4640E+03
      3.301  0.0000E+00  0.4640E+03
      3.398  0.0000E+00  0.4640E+03
      3.495  0.0000E+00  0.4640E+03
      3.591  0.0000E+00  0.4640E+03
      3.688  0.0000E+00  0.4640E+03
      3.785  0.0000E+00  0.4640E+03
      3.882  0.0000E+00  0.4640E+03
