unknown system                          
            1
    28.050000    0.000000    0.000000
     0.000000    8.100000    0.000000
     0.000000    0.000000   33.500000
   C 
    92
Direct configuration=     1
   0.00690203  0.10694951  0.55524776
   0.00728745  0.27712593  0.55107761
   0.05027094  0.02421444  0.55164776
   0.05048592  0.35146790  0.53812836
   0.09664777  0.10352877  0.54575821
   0.09528485  0.27228272  0.54013731
   0.13901569  0.02455580  0.53513433
   0.13744813  0.35605309  0.52461194
   0.18207380  0.10516679  0.52564478
   0.17996720  0.27415556  0.51845672
   0.22537540  0.02472358  0.51614328
   0.22176078  0.35555802  0.50017015
   0.26812371  0.10568494  0.50426567
   0.26589875  0.27401605  0.49716119
   0.31256150  0.02620247  0.49894328
   0.30768734  0.35450864  0.48309254
   0.35371622  0.10997037  0.48812239
   0.35043494  0.26915309  0.47824179
   0.39786809  0.02489247  0.47886269
   0.39536185  0.35503333  0.46815522
   0.43847415  0.10534481  0.46868657
   0.43943672  0.27156049  0.46665075
   0.48263815  0.02424469  0.46351642
   0.48316221  0.34489136  0.46101493
   0.52773262  0.10136333  0.46269552
   0.52793226  0.26878765  0.46391940
   0.57129768  0.01456185  0.45887164
   0.57233512  0.35153704  0.45647164
   0.61678431  0.10119160  0.46050149
   0.61596791  0.26920370  0.45970149
   0.66075936  0.02260012  0.46414925
   0.66041355  0.35135802  0.46718209
   0.70192157  0.10262370  0.47680000
   0.70395722  0.27368889  0.47627463
   0.74125134  0.02459531  0.49242687
   0.74569340  0.35574568  0.48640299
   0.78392513  0.10698494  0.50506866
   0.78530481  0.27199259  0.50226866
   0.82518004  0.02798667  0.52292836
   0.82751515  0.35539012  0.51429552
   0.86613904  0.10784741  0.53768657
   0.86807130  0.27826790  0.53103284
   0.90963280  0.02884975  0.54799701
   0.91146168  0.36391235  0.53606269
   0.95294831  0.11242605  0.55270149
   0.95431016  0.28575432  0.54785373
   0.00520324  0.60266543  0.54146269
   0.00816759  0.77372099  0.55035821
   0.04975865  0.51952593  0.53329552
   0.05153333  0.85483580  0.54840000
   0.09203173  0.60585926  0.52975522
   0.09442353  0.77186914  0.53916119
   0.13446453  0.52725309  0.52014925
   0.13924635  0.85500988  0.53593433
   0.17805134  0.60542469  0.51069851
   0.18097112  0.77225185  0.52295522
   0.22070838  0.52592963  0.49708657
   0.22538253  0.85512840  0.51365970
   0.26219750  0.60627654  0.48893134
   0.26607879  0.76893951  0.50115821
   0.30611444  0.52287531  0.47883284
   0.30962389  0.85538148  0.49400299
   0.34930089  0.60348272  0.47080597
   0.35141783  0.76827531  0.48167463
   0.39349733  0.52358765  0.46424478
   0.39534403  0.85513951  0.47378806
   0.43766845  0.60416296  0.45691343
   0.43806417  0.77372963  0.45981493
   0.48292335  0.51399753  0.45361194
   0.48296970  0.85797778  0.45903284
   0.52577897  0.59763333  0.45097910
   0.52666310  0.76262963  0.45381194
   0.56990018  0.52198025  0.45269254
   0.56995009  0.84845556  0.45592537
   0.61387166  0.60191975  0.45569254
   0.61494831  0.76889753  0.45664478
   0.65989661  0.51894568  0.46460299
   0.65934403  0.85246914  0.46476418
   0.70135472  0.60485185  0.47526567
   0.70203565  0.77013086  0.47510746
   0.74573619  0.52297284  0.48696119
   0.74594652  0.85695062  0.48856418
   0.78718360  0.60611111  0.49854627
   0.78681640  0.77807654  0.50231642
   0.82956863  0.52663580  0.50919403
   0.82770053  0.85827531  0.51974925
   0.87170766  0.61083951  0.51777910
   0.87065954  0.77584198  0.52516119
   0.91430303  0.52363827  0.52526567
   0.91073797  0.85804691  0.54178209
   0.95629947  0.60680864  0.53635224
   0.95552228  0.77738395  0.54510149
