  1.9209975e+00   4.9002990e-03
  3.2100956e+00   3.1984507e-03
 -1.2773924e+00   1.8653497e-03
 -1.8717340e+00   1.2278581e-02
  2.9837629e-01   4.3788264e-03
  4.9051788e-01   2.5327070e-02
 -2.8062281e-01   2.7473601e-02
  5.1422596e-01   5.4694288e-03
 -3.2467851e-01   9.6833184e-03
 -7.8061038e-01   2.0276394e-02
 -8.9534074e-02   7.8695349e-04
 -1.7242064e+00   7.3126983e-04
 -1.0859246e+00   4.3988493e-03
  8.3093621e-02   6.0148276e-03
  1.7958336e+00   3.0686424e-04
 -6.5675181e-01   7.4100983e-04
 -1.3536028e+00   1.3495309e-03
 -1.0973192e+00   5.5702124e-03
  8.3499032e-01   2.8252346e-03
  1.8765455e+00   1.5919041e-03
 -6.5538329e-01   2.2151966e-03
 -6.5042162e-01   9.0298923e-03
  9.7029448e-01   1.1898990e-03
  1.4223146e+00   1.3408842e-02
 -6.3226902e-01   4.5260093e-03
  6.4069915e-01   9.7851465e-03
 -1.1696031e+00   6.8754875e-05
  8.2219131e-02   1.7319128e-03
  8.3048570e-01   1.3011804e-02
 -7.9006769e-02   1.5674790e-02
 -4.8089764e-01   4.4676070e-03
  2.5237465e-01   4.3429025e-03
  1.5435509e-01   3.9275622e-04
 -4.7632647e-01   1.4651502e-02
 -1.2721363e+00   1.2232566e-03
  1.5066071e+00   6.5843982e-04
  1.3282539e+00   2.9239518e-04
  2.7498674e+00   2.0233111e-03
 -1.0989093e+00   2.7067014e-03
  1.0458783e+00   8.5140964e-05
  2.1710858e+00   3.6360091e-03
  1.8212241e+00   2.0771027e-03
 -3.0339868e+00   4.1756252e-04
  5.1707047e-01   7.6705506e-03
 -1.2174271e+00   2.0897029e-04
  2.1722927e+00   1.2384323e-05
  9.4287848e-01   3.2520550e-04
 -1.1026568e+00   8.9827558e-04
  2.3259050e-01   9.3521381e-04
 -8.7011278e-01   2.8671251e-05
  2.0686271e+00   1.9264405e-04
 -2.7903898e+00   2.6252023e-05
 -1.7487988e+00   2.8446774e-04
 -1.8309503e+00   2.3680578e-03
 -4.0717214e-01   1.7758201e-04
  3.7107080e-01   3.9949108e-04
 -2.7114735e+00   1.8566463e-03
  1.7067980e+00   1.1315021e-03
  3.5623896e-01   3.8614459e-03
 -6.8650049e-01   6.0734974e-04
  9.1094905e-01   1.3937072e-04
  6.0106654e-02   4.5875213e-04
  3.2529101e+00   4.6645047e-05
  3.6829453e+00   2.7244549e-02
 -1.5236599e+00   2.2059015e-03
  3.5402811e-01   2.0302452e-04
 -6.9213653e-01   4.4019707e-04
  1.5190631e+00   1.2281119e-03
 -9.5546536e-02   1.4818661e-02
 -9.1388029e-01   1.6960686e-02
 -2.9884860e-02   3.0896042e-03
 -1.2871908e+00   6.3592906e-04
  3.1156167e-01   7.3637580e-04
 -1.6692104e+00   3.3148814e-03
  1.5011169e+00   1.9279781e-03
 -1.4363219e+00   7.4183539e-05
  2.2907946e+00   1.1367158e-02
  1.7515843e-01   2.9358547e-03
 -8.8561159e-01   1.4679700e-02
 -4.6518061e-02   5.0852657e-03
 -5.2173495e-01   1.1616516e-03
  5.9334791e-01   7.4555405e-04
  1.2896703e+00   1.3502765e-03
  1.2110320e+00   9.6775889e-03
  9.4112325e-01   4.3517817e-03
  1.4131355e+00   4.1043101e-04
 -1.9366014e-01   4.5336984e-04
 -1.2469137e+00   5.4875377e-04
  5.7987727e-02   2.3816687e-04
  2.6832547e+00   5.3491595e-04
  6.7990130e-01   2.7374311e-03
  1.9507602e+00   1.1456299e-03
  1.4763710e+00   2.9969118e-03
  1.1023901e+00   1.8888559e-02
 -4.8593342e-02   3.1518401e-03
 -8.6632244e-02   1.4935396e-04
 -3.5281034e+00   9.3971635e-04
  2.9831553e-01   1.1331872e-02
  1.5493702e+00   6.8432972e-02
  1.7062655e-01   7.4353539e-03
  1.1857016e-01   1.9121137e-02
 -3.6128926e-01   4.7856163e-02
 -9.2723578e-01   2.7456975e-02
  5.8354326e-02   2.4019049e-02
 -4.1798940e-01   1.4055826e-02
 -2.1290464e+00   3.0694278e-05
 -1.0666102e+00   1.0359427e-04
 -1.6723143e+00   6.8079520e-05
  1.3993157e+00   1.4819156e-03
  4.2325691e-03   2.5940718e-04
 -2.2252941e+00   6.4245251e-05
  2.1763128e-01   5.1271624e-04
  3.0255237e+00   1.3964198e-04
  3.8731846e-01   2.8221292e-04
  5.6501520e-01   2.4705210e-03
 -2.6301873e-01   4.0129479e-04
  2.5817373e+00   5.0155673e-04
  6.9004858e-01   5.3500070e-04
  3.5914239e-01   1.7945705e-03
 -2.3990107e-01   1.6971836e-04
 -2.7511194e-01   6.4964115e-05
  2.2665777e+00   3.3229560e-04
  2.3984430e+00   1.5120922e-05
  3.0401362e-02   8.6362241e-04
 -3.3543858e-01   2.6488002e-05
 -4.0846133e-01   7.2063570e-04
  1.2327331e+00   3.5681075e-04
  1.1006263e+00   6.2805373e-04
 -7.5810236e-01   1.2979130e-02
  3.3392879e-01   4.0405826e-04
  1.2422745e+00   1.0797685e-03
 -6.6940767e-01   5.0207425e-04
 -2.3472624e+00   3.9986224e-04
 -1.4411230e+00   4.7741691e-04
  2.9320684e-01   4.4574919e-03
  1.0130008e+00   7.2623915e-03
  5.0889397e-01   5.1444168e-03
 -7.9509616e-03   5.9955744e-03
  1.2163545e+00   5.1671761e-04
  1.8686117e-01   5.1985919e-03
  6.8342581e-02   1.4584278e-02
 -1.6384848e+00   9.2822742e-03
  3.5482358e-02   1.2706241e-03
 -1.3050966e-01   6.6679642e-03
  5.8251131e-01   7.0141517e-03
  3.0813858e-01   3.7966652e-03
  7.2952974e-01   1.7877862e-02
 -6.7960038e-03   1.9708183e-02
 -2.9557616e-01   3.0671515e-02
  6.8069333e-01   2.1847034e-02
 -2.8027868e-01   1.7573568e-03
 -1.4818389e+00   1.5213802e-04
 -4.8926333e-01   1.0081692e-02
 -1.3647085e-01   1.7746431e-03
  1.1338825e+00   2.9107211e-03
 -1.6023387e-01   7.5951946e-04
  7.2555721e-01   4.1235093e-04
  1.6111802e-01   8.6132875e-03
 -7.2645563e-01   7.6428451e-02
 -4.7549611e-01   1.0835477e-02
 -3.6360529e-01   1.0566150e-02
  3.9213508e-01   2.1402105e-03
  1.0814389e-02   4.7415718e-03
 -2.8967646e-01   1.8565751e-03
  4.5925042e-01   2.9975237e-02
  1.0580016e+00   6.8644015e-03
  4.3394208e-01   8.2673738e-04
  4.9764486e-03   1.9673649e-02
  5.2340412e-01   2.7472454e-03
 -2.8056014e-01   6.1697327e-03
  5.7405543e-02   2.2708217e-02
  2.3642622e-01   1.6277522e-02
 -2.2609822e-01   4.4223880e-03
  1.2843774e-01   3.1524908e-02
  5.1377362e-01   5.2323349e-02
 -1.7387209e+00   2.5179137e-03
 -2.5218840e+00   4.9625058e-04
  1.5426573e-02   1.6269143e-03
  1.1201797e-01   3.8154202e-04
  2.5175707e+00   5.3310236e-03
 -1.9088684e-01   9.3735923e-04
  1.1871625e+00   9.0256659e-03
  2.1435642e+00   2.1813794e-04
 -3.7216616e-01   9.8220166e-04
  3.6416841e+00   7.0885092e-04
 -2.0800221e+00   3.4392736e-04
 -8.4792972e-01   1.2499768e-03
  2.5728736e+00   6.4638181e-04
 -9.9974275e-01   9.8262809e-04
  1.6192871e+00   1.0988794e-03
 -6.3250870e-01   8.2267396e-04
  1.7829927e+00   5.4550156e-07
  2.9446530e+00   2.9526150e-04
 -5.5429637e-01   7.6202811e-03
  2.9506621e+00   2.9289085e-04
  4.0947804e-01   1.8555294e-04
 -9.6660042e-01   1.6845956e-03
 -3.3729509e-01   1.3143029e-03
  1.2582171e-01   5.9854360e-03
  1.8390195e+00   4.7422116e-04
 -3.0992143e+00   2.2826735e-03
  2.0771725e+00   2.9583713e-03
  3.6656046e-01   6.1241793e-03
  3.6272663e-01   5.2683353e-03
  6.4784122e-01   4.8552456e-04
  6.0717020e-02   1.5732495e-02
 -1.9554484e-01   7.6788833e-04
  9.5520413e-01   6.0312531e-04
 -1.1865155e-01   9.4142944e-02
 -1.3310809e+00   2.0085189e-03
 -1.1475122e+00   1.2919549e-03
 -4.0016598e-01   1.1978683e-04
  1.0512545e+00   7.9139153e-04
  1.3717991e+00   1.8767464e-04
  3.1819222e+00   3.0161466e-03
 -3.3195407e+00   5.6405994e-03
 -3.8514745e-01   1.4885677e-02
  4.2626882e-01   2.3206044e-03
 -2.1235822e-01   3.1089040e-02
  1.5110540e+00   2.2583045e-03
  2.3202944e-01   1.5516016e-03
 -1.7131392e+00   5.7029614e-04
 -1.1160822e+00   2.6830793e-03
  9.4019568e-01   3.5684882e-03
  2.1493621e+00   2.1093909e-03
 -1.2861800e-01   1.1213293e-03
 -1.3751507e+00   8.6257141e-04
 -9.6177018e-01   6.1752256e-03
  2.5928874e+00   1.8332420e-04
 -1.3891257e+00   7.1394211e-04
  1.4814714e+00   2.9585843e-03
 -2.6437938e+00   9.5238618e-05
 -1.4605999e+00   7.9989033e-03
  2.0028481e+00   2.2383111e-03
  1.4010491e+00   4.8383214e-03
  7.6435737e-02   2.6409663e-03
  8.2484031e-01   1.5555001e-03
  3.9911136e-01   5.2490528e-04
  6.3176060e-01   9.8665012e-03
 -6.3599598e-01   5.3808931e-03
 -6.2138788e-02   5.4828767e-02
  5.1126707e-01   1.3675500e-03
 -2.7580702e-01   5.3307135e-03
  9.3575485e-02   7.5798139e-02
 -8.2806367e-01   9.7169646e-04
 -4.8782711e+00   4.4986868e-05
 -8.3729577e-01   7.1818067e-04
 -3.0831468e-01   1.2388387e-03
  6.5424633e-01   2.2104224e-03
  5.1823297e+00   1.0835747e-03
 -3.1849990e+00   3.2589936e-03
 -2.7489350e+00   1.7310116e-04
  1.6443567e+00   5.1597008e-03
 -1.0528333e+00   4.5872621e-02
  3.1780258e-01   3.8593058e-03
  1.6057903e-01   3.1150805e-04
 -1.6891205e+00   6.6204584e-04
  1.1529434e+00   1.5341532e-03
 -9.0002075e-02   5.1877121e-03
  1.0747551e+00   1.4748587e-04
  4.4453719e-01   1.9725839e-04
 -2.0003719e+00   6.0702983e-04
 -9.9806148e-01   6.7614805e-04
  2.3564115e+00   7.0331572e-04
  1.4179455e+00   5.5625511e-04
  1.1174706e+00   7.3442882e-04
  6.3933229e-01   5.4126413e-04
 -1.3385247e+00   7.3291082e-04
 -8.9444041e-01   3.1890831e-04
  1.6676900e+00   2.3596868e-04
 -2.5985718e-01   7.5648783e-04
 -1.0300716e+00   2.2363598e-03
 -1.2299608e-01   5.2601192e-03
  1.0949298e-01   4.1641719e-03
 -4.7245845e-01   6.7791776e-03
 -4.8443413e-01   1.7428463e-02
 -1.4349487e-01   5.2124538e-02
 -6.1838228e-01   2.8995207e-02
 -3.1177357e-01   1.9516069e-02
 -7.6566882e-02   1.1971309e-02
 -1.3146306e+00   2.3594282e-03
  1.9208637e-01   6.0338347e-04
 -2.5762670e+00   3.2001152e-03
  2.5644710e+00   1.9186942e-04
  3.2948881e-01   1.3401560e-03
  5.7404675e+00   8.3139651e-03
  5.0892144e-01   1.8808108e-03
  1.9035577e+00   1.0945348e-02
 -6.3752061e-01   4.7113262e-02
  4.8654528e+00   8.9725070e-03
  6.0766500e-01   3.1051692e-04
  1.3901119e+00   1.1495898e-03
 -1.7572533e-01   2.6272847e-03
  1.4933541e+00   3.1006318e-02
 -2.2377743e-01   3.0772078e-03
 -6.7487383e-01   9.8871335e-04
 -6.7389792e-01   1.1331156e-03
  3.9913860e-01   2.2085540e-03
 -1.1813484e+00   1.2763544e-03
 -1.2127374e+00   1.4615436e-03
  1.6410362e+00   1.9748954e-03
 -5.1968002e-01   7.5077952e-04
  8.0205846e-01   1.1900943e-03
 -8.4536470e-02   3.2143496e-04
  9.7444448e+00   8.4255375e-03
 -6.3374263e-01   4.1267332e-03
  1.4737393e+00   1.2662812e-03
 -7.9007071e-01   1.0116675e-02
  9.1742551e-01   2.7596191e-04
  9.9450922e-01   7.6384963e-03
  3.6101207e-02   6.2431046e-03
 -1.1735329e-01   1.0548891e-02
  3.4823447e-01   1.3865233e-02
 -9.4355530e-01   6.2951762e-03
 -1.0322534e-01   2.5947040e-02
  3.5931058e+00   1.7820463e-04
 -3.1227618e-01   1.5092876e-03
 -7.0889920e-01   2.5423989e-03
 -2.0812933e-01   3.5904287e-03
 -2.0195527e+00   3.1621868e-03
 -5.9040165e-01   2.5450969e-03
  1.6371608e-01   2.9938805e-03
 -2.4363823e-01   1.7148638e-02
 -6.1283773e-01   6.9584906e-02
 -7.3491502e-01   9.4693163e-03
  6.1066097e-01   2.1258395e-03
 -1.5971634e+00   5.0851732e-04
 -3.4962660e-01   1.9177083e-03
  1.1693368e+00   5.0798414e-04
 -1.4320232e+00   2.4668532e-03
 -1.7044370e+00   3.9097671e-03
 -1.3762594e+00   1.6481378e-03
  6.5285504e-02   3.7625991e-03
 -2.1590526e+00   2.1618204e-04
  4.8938522e-01   1.4170339e-04
  1.2844976e+00   1.7540572e-02
 -9.6850610e-01   9.3771744e-04
  8.7852925e-01   3.7225835e-02
 -3.8171345e-01   3.2754845e-04
 -2.4738700e+00   2.4430621e-03
  1.5149509e+00   1.2160882e-02
  4.3458566e-01   2.4165859e-04
 -6.1924428e-01   6.1687053e-04
 -8.5462773e-01   7.1837661e-05
 -6.4239152e-02   2.3009824e-03
 -6.9266254e-01   1.5099699e-04
  5.9259170e-01   6.8947434e-04
 -2.8525662e-02   1.2990889e-02
  2.8550708e-01   2.8051712e-02
  9.0627812e-02   4.4180941e-02
  1.4825593e+00   3.0473107e-04
  2.0073891e+00   1.5835614e-03
  8.1944293e-01   6.0825679e-04
  1.5485993e-01   6.6654622e-03
  3.1033418e-01   1.2741982e-02
  1.7202239e+00   1.8350082e-03
  6.1363798e-02   1.6057335e-02
  3.7383142e+00   4.3308730e-03
  7.6178848e-03   1.0923194e-03
 -7.9580247e-01   2.1568330e-02
 -5.4863434e-02   1.9273402e-03
  8.2318693e-02   4.8483098e-03
  7.4657422e-01   5.6159487e-03
  7.9004610e-01   8.5593984e-03
  1.0241020e+00   2.5385059e-04
  8.5112542e-01   1.1097778e-04
  5.0129408e-01   5.0688763e-03
 -3.8858604e-01   3.4398199e-03
 -3.8926789e-01   5.1446753e-03
 -8.1831235e-01   4.2118798e-03
  3.2523074e+00   1.9086046e-03
 -9.5557950e-02   1.1905222e-03
  2.5355101e-01   1.2661998e-02
  4.4348758e-02   5.0631147e-03
  6.6167855e-01   1.1675276e-03
  1.3533076e+00   7.2768360e-04
  3.6903599e-01   5.1056582e-04
  5.2357590e-01   1.9619383e-02
  3.0614777e+00   6.0177841e-05
  1.7816195e+00   3.0654235e-02
  1.5770665e-01   2.2462038e-02
 -1.3734660e+00   1.8422739e-03
 -1.7346442e-01   5.0699238e-02
  7.0536637e-01   4.4874204e-03
  3.2100630e-01   5.6384288e-02
  1.5926182e+00   1.1273768e-02
 -2.9372340e-01   1.3250791e-03
 -1.2977464e+00   6.0810577e-03
  2.3553391e-01   2.2755012e-02
  1.1307961e+00   1.0325116e-02
 -6.5703332e-02   9.9384803e-03
  1.9962509e-01   1.2089625e-02
  7.0481658e-01   4.8510968e-03
  9.5609325e-01   1.0644364e-03
  1.1901803e+00   7.1235085e-03
  5.0301945e-01   4.4952490e-04
  2.8804168e-01   3.7228357e-04
  1.2103235e+00   1.0316607e-02
  4.3589509e-01   1.5951556e-04
  1.2200248e-01   4.3895282e-03
 -1.4180763e+00   9.9499557e-05
 -1.7916237e-01   1.3829343e-03
 -8.1906307e-01   2.8233794e-03
 -6.2000060e-01   4.4334522e-03
 -8.1195176e-01   2.0546839e-03
  1.8058913e+00   7.3835566e-03
 -1.3981193e+00   6.3939691e-03
  1.3566983e+00   5.3549552e-04
 -3.5468894e-01   4.6428494e-02
 -5.2502596e-01   2.1156529e-02
  7.0895737e-01   3.5541172e-03
  3.1964786e+00   1.2107832e-04
  1.7891933e-01   1.6630461e-02
  2.0409228e-01   1.6001221e-02
  8.6473495e-01   1.1204314e-02
 -2.7175233e-01   4.2951636e-02
 -4.2520666e-01   3.2723111e-03
  2.0756874e-02   1.0095625e-02
  2.3511639e-02   8.0664575e-02
 -1.8536775e-01   2.4880795e-02
  5.5428845e-01   2.1494848e-04
 -1.5159363e-01   7.1482430e-04
  2.7043827e+00   8.3710637e-04
  9.2259246e-01   4.6894224e-03
 -1.8966695e+00   1.9684823e-03
 -2.8298658e-01   4.1402510e-04
  1.4538481e+00   4.5027165e-03
 -1.7788180e+00   1.0800344e-03
 -1.4566182e+00   1.0993321e-03
  2.2091219e-01   7.6525955e-04
  6.0208428e-01   4.0898612e-04
 -2.5258142e-01   1.7044444e-05
  4.5745849e-04   9.0018497e-04
  1.7351191e+00   8.8118222e-03
  4.5072582e-01   6.2728906e-04
 -9.4247021e-02   9.3682786e-04
 -1.6228963e+00   3.3555456e-04
  4.3431455e-01   5.9947342e-04
 -5.2944314e-01   3.5298308e-03
 -5.5683118e-01   2.4923298e-04
  1.6470094e+00   9.0795575e-04
 -1.2665540e+00   4.7285599e-04
 -3.5016870e-01   4.9120147e-04
 -1.6133111e+00   1.8996421e-02
 -2.7927878e-01   2.6450523e-03
  8.1360012e-01   4.7921509e-04
 -1.6351231e+00   1.4571935e-03
  2.9973131e-01   5.3693824e-03
 -2.8391454e+00   8.2925342e-02
  3.4933734e-01   1.8394961e-03
 -2.0443158e-01   3.0484188e-02
  6.7498553e-01   3.8740315e-02
  3.8770533e-01   8.2267281e-03
  1.0906557e-01   4.5665082e-02
 -2.5739179e+00   6.3353507e-03
 -3.3599997e-01   9.7420119e-04
 -9.2257166e-01   1.0771271e-03
  1.2874810e+00   3.3707067e-03
  1.1651430e+00   3.8283423e-03
  1.9840106e+00   8.7125489e-04
 -1.3339396e+00   1.3361891e-02
  2.1407090e-01   6.4082090e-03
  4.4785544e-02   2.8671362e-03
 -3.0171579e-01   1.0118503e-03
  1.2382535e+00   1.1890229e-02
  9.9882138e-01   9.4933283e-05
  9.4785357e-01   5.6976220e-04
 -1.5336399e+00   3.2477928e-03
 -1.0927190e-01   1.4824954e-02
 -1.6698625e+00   1.3138429e-03
 -1.2328687e+00   2.4265696e-03
 -1.8822839e+00   2.8057629e-04
 -4.6807814e+00   1.0341852e-02
  1.5369954e+00   1.8859634e-02
 -1.5205314e+00   8.5155817e-04
  7.6750559e-01   1.9666334e-03
  9.1357183e-01   8.6723833e-04
 -7.4596323e-02   1.4562641e-02
 -2.7473372e-01   1.5952185e-03
  5.6846064e-01   2.5230129e-03
  1.4420670e-01   2.6183163e-03
 -2.9261293e+00   3.2146671e-04
 -3.3748012e-02   5.6158132e-03
  2.7706304e-01   5.2544203e-02
  4.3629757e-01   5.2063488e-03
 -4.1917598e-01   1.7279029e-02
 -4.1714787e-01   3.0923257e-02
  4.4631219e-01   1.2275768e-02
 -9.0454167e-01   2.9501731e-03
 -4.0241587e-01   2.7390867e-03
  2.4563232e-01   1.6551835e-02
 -8.8451964e-01   1.4679934e-02
 -1.6676597e-01   1.5770691e-02
 -3.4478027e-01   2.0908941e-02
 -1.9449998e-03   3.9014190e-02
 -5.2880919e-01   2.9540692e-02
  5.7320976e-01   1.2198962e-02
 -1.0618937e+00   2.0691566e-03
  6.2864894e-01   2.2088501e-03
 -4.3364668e-01   1.6484071e-03
 -1.3551083e+00   2.1718333e-03
 -1.2886947e+00   9.4070891e-04
 -2.8094646e-01   7.5707533e-03
  8.1733513e-01   1.8626397e-03
  6.3393074e-01   2.5884728e-03
 -2.1773390e-01   1.9247210e-02
 -1.7061324e-01   4.2178077e-03
  1.7614460e-01   1.8423479e-02
  1.0379055e+00   1.2004895e-02
  1.2596676e-01   4.2536249e-04
  7.4703270e-01   1.0206043e-02
 -9.6623844e-01   2.7746838e-04
 -2.2052026e-01   2.3630239e-02
 -1.0830095e+00   1.5683785e-02
  2.7748117e-01   6.0376432e-02
  1.5708651e-02   1.6282210e-02
 -9.2914253e-01   2.6550810e-04
 -2.0632818e-01   3.9227936e-02
  4.7548389e-01   8.4280595e-02
 -7.5374353e-01   1.9850388e-02
 -1.7090639e-01   9.9998988e-02
  1.0368570e+00   2.4987615e-03
 -2.0436192e-01   7.9665231e-03
 -1.0868286e-01   8.7850824e-02
 -9.1089809e-01   8.8945189e-03
  4.4066960e-01   1.8462250e-03
 -1.8418854e-01   4.9382291e-04
 -1.7666183e+00   1.4075686e-03
  5.7562119e-01   4.6676080e-04
  1.5285888e-01   1.3073885e-03
  2.2428967e-01   1.1245271e-03
 -1.2080972e+00   2.7567935e-03
 -1.3716036e+00   5.7236473e-03
  1.1525718e+00   1.0262627e-02
  3.1346563e-01   9.1934533e-05
  2.5822086e+00   7.7419623e-04
  3.0088873e+00   1.7683272e-03
 -3.3681905e+00   2.4976299e-04
  1.7287109e+00   1.1340039e-02
  3.4425175e-01   3.7593641e-03
 -2.4806747e+00   3.8935276e-04
  1.6260029e+00   1.0777302e-04
  3.3244392e-01   1.4938323e-03
  1.7930571e+00   1.8847142e-03
 -4.6104348e-01   4.5621011e-04
 -2.7009861e+00   9.8042050e-04
  1.7538519e+00   9.1537286e-04
 -9.7275698e-01   2.7959753e-04
 -6.2806505e-01   2.3565399e-03
 -7.5532657e-01   4.0350494e-04
  8.8756514e-01   1.2671298e-03
 -2.6344309e+00   2.4899759e-03
  1.3569596e+00   1.1220039e-03
  1.1773829e-01   2.8679851e-02
 -8.3052039e-01   3.7802323e-03
 -5.6836140e-01   9.3327006e-03
 -9.3707718e-02   1.7981345e-02
 -6.1925781e-01   6.3299487e-04
 -7.0130277e-01   3.1603428e-03
 -5.0218326e-01   1.7097949e-03
 -3.7765062e-01   1.4264401e-03
  1.9091479e+00   6.2544970e-04
 -2.7559242e+00   5.0230784e-04
 -2.4657741e+00   6.5201297e-03
  1.8169299e+00   4.5739817e-03
 -2.0928450e-01   4.9923686e-03
 -4.2037794e-01   8.4169945e-03
 -1.7884082e+00   3.4731945e-03
  1.7178206e-01   9.2848914e-04
  6.2120575e-01   3.5728458e-03
 -6.4648700e-01   1.7141880e-03
  1.3550898e+00   8.5609098e-04
 -7.5507629e-01   7.3235278e-04
 -1.8146603e-01   3.8492244e-02
 -3.9076361e-01   5.3292797e-03
 -1.1269646e-01   9.4758795e-04
  2.4441947e-01   4.3147532e-04
 -9.1819590e-01   9.5510978e-04
 -1.0640484e+00   1.1344992e-02
  6.0415494e-01   6.6540594e-04
  3.3353153e-01   1.5027419e-03
  1.3637090e+00   1.5756527e-04
 -1.6335346e-02   3.4043535e-03
  1.1543779e+00   2.2683572e-02
 -3.0963683e-01   2.0271773e-03
 -6.4236397e-01   8.5775176e-04
  1.4416051e+00   1.3633834e-03
 -4.9500376e-01   3.8469653e-03
  1.0741932e+00   5.6983519e-02
 -1.8470760e-01   6.7339917e-03
  2.6726195e-01   3.6566444e-02
 -3.6635309e-01   3.5315864e-02
 -9.9225497e-01   3.2638328e-04
  4.6830100e-01   4.3745216e-02
 -2.4870017e-01   4.6254519e-02
 -3.2779101e-01   1.1214450e-03
  1.1379023e+00   3.4263832e-03
 -2.3303003e+00   8.1825542e-04
  1.0286047e+00   1.4529215e-03
 -2.2380381e+00   4.0701046e-04
 -1.1987394e+00   8.5345954e-03
  4.1893774e-01   9.6518482e-04
  6.4539725e-01   1.6641997e-03
 -3.6647677e-01   2.9423230e-03
  8.2493240e-01   2.1743360e-03
 -3.6142170e+00   1.2434386e-03
  2.9762461e+00   1.2218696e-04
  1.0331103e+00   3.4409264e-04
 -1.7609033e-01   3.1752132e-02
  1.1547521e+00   3.2461323e-03
 -1.9984287e+00   5.7393120e-04
 -2.5176654e+00   3.9083301e-03
  4.8762044e-01   2.4917813e-03
 -4.7523722e-01   1.4993075e-02
 -2.5480950e+00   8.6252042e-04
 -2.6442101e+00   3.4953121e-04
 -8.9726800e-01   1.9030964e-03
  4.5399567e-01   5.4079788e-03
 -3.9956778e-01   3.3458397e-03
  5.7979149e-01   1.0118821e-02
 -8.0204785e-02   1.2173788e-02
  4.3625826e-01   5.6631491e-03
 -8.0910456e-01   1.5769545e-02
  3.8629240e-01   4.9044993e-02
  1.4200766e+00   1.4850794e-03
 -2.2568810e-01   1.2027506e-02
  3.3923799e-01   3.7432064e-03
 -3.7643496e-02   1.0594417e-02
  2.2509210e-01   2.4526713e-02
 -1.0337566e-02   8.9266393e-03
 -9.9708873e-01   5.8949860e-03
  4.6550846e-01   3.5033177e-04
  1.5785323e+00   3.4965482e-03
  6.9313890e-01   1.8630035e-02
 -2.6273468e+00   8.4511302e-03
  4.0134808e-01   7.1144155e-03
 -2.7868730e-01   1.0101516e-03
  1.4294167e+00   2.5319986e-04
 -1.0823168e+00   2.1837144e-03
 -9.2560583e-01   4.5554011e-04
 -1.7680842e-01   6.5423554e-04
  7.1689971e-02   2.5190811e-03
 -4.9175456e-02   9.4612455e-04
 -2.8182250e-01   8.7479195e-03
 -4.6553540e-01   1.7032435e-03
  4.3924850e-01   2.7201962e-04
 -6.4673305e-01   1.5370683e-03
  9.7066194e-01   2.2069414e-03
  2.6365926e-02   2.0856628e-02
 -1.0114887e+00   2.1037571e-03
  5.1518661e-01   2.0059377e-03
  2.4035777e-01   2.7070108e-03
  1.0019461e-01   6.8013440e-03
 -8.2459354e-01   3.6330768e-03
 -9.7315574e-01   1.2826817e-03
  9.1239460e-02   3.8360150e-03
 -5.4480189e-01   7.0909522e-03
 -3.3876508e-01   7.2095101e-04
 -1.0345657e+00   1.9497043e-02
  1.0366673e+00   1.1761725e-02
  3.2281496e-02   2.0600662e-02
  5.9325302e-01   6.4420898e-04
  8.0631006e-01   4.7407014e-04
  4.3924871e-01   5.2695770e-02
  1.6524118e-01   7.4564204e-02
 -3.8035503e-01   2.8848292e-03
  7.0779216e-01   9.7239419e-04
 -3.7241077e-01   8.9293713e-04
 -1.2457148e+00   1.0420355e-03
 -3.5787022e-01   1.4120481e-03
 -5.0190693e-01   3.0882668e-03
  3.6235099e+00   3.6356463e-03
 -3.0992129e-01   1.8600357e-03
 -7.0442331e-01   1.9806493e-02
 -1.4140026e-01   1.2827641e-03
 -5.6261841e-02   4.2583453e-04
 -3.2152060e-01   8.9402491e-04
 -1.6334643e+00   1.5492201e-03
 -5.5631781e-01   1.3548330e-02
 -8.1528759e-01   1.9837606e-03
 -5.1547706e-01   1.8139307e-03
  4.4103187e-01   8.0788007e-04
  1.1054399e+00   1.1774424e-03
 -1.2555946e-01   3.6159709e-02
  8.2781595e-01   4.9355318e-04
 -2.0419378e+00   1.2476032e-03
 -1.1538169e+00   1.5169596e-03
  1.3276496e+00   1.0454154e-03
  1.7367165e-01   8.8349301e-03
 -4.5149952e-01   9.8833011e-04
 -1.2336551e+00   1.0088878e-03
 -2.6423934e-01   7.9305033e-04
  3.0335173e-01   6.1007030e-03
  1.8408723e+00   1.4401073e-02
 -4.3439345e+00   5.6247758e-03
 -4.4349673e-01   7.9972651e-03
 -3.4589326e-01   8.3709769e-03
  1.6967098e+00   4.7501414e-03
 -5.3459957e-02   1.9347945e-02
  3.3045554e-01   6.0648763e-05
 -3.3010730e-01   9.4905850e-03
 -4.5388660e-01   8.8345958e-03
 -1.6382709e-01   8.6382283e-03
  5.8930755e-02   3.0288832e-02
  1.1521078e-02   3.1249430e-02
 -2.9756317e-01   8.4608300e-03
 -7.5434220e-01   1.5425413e-03
  2.3178880e-01   4.9709827e-02
 -1.8038228e-01   1.5991129e-02
 -6.3237202e-01   4.6299479e-04
 -3.0141819e-01   9.0264026e-03
  1.5929605e+00   1.3986744e-04
  1.7840679e+00   4.3652294e-04
  7.0137078e-01   2.7098469e-04
 -1.3018817e+00   6.8497728e-03
  6.6832595e-02   2.1118687e-03
 -5.5869889e-01   7.1261695e-04
 -1.0739230e-01   1.0591655e-02
  8.5495239e-01   1.6724557e-06
 -3.9019156e-01   1.7124558e-02
 -3.0236560e-01   5.2802316e-03
  1.6988374e+00   1.3931482e-03
  4.8040354e-01   2.6568962e-02
  7.8479493e-01   1.2874596e-02
 -3.6098647e-01   1.6093407e-02
  4.2140190e-02   1.6770149e-02
 -8.5087007e-01   1.6871738e-06
  1.6842599e-01   6.4962186e-02
 -1.8850565e-01   2.5450846e-02
  1.6174595e-01   6.7169450e-02
  5.4933572e-01   5.0803386e-03
  2.7407947e-01   2.6615494e-04
  5.4400367e-01   1.2159785e-03
 -1.0436498e+00   2.3067801e-03
 -2.4669780e-01   3.3900852e-04
  2.8316176e+00   1.4894635e-03
  7.9266685e-01   6.0880982e-04
 -9.0331012e-01   1.0007457e-03
 -1.0071814e+00   6.7837368e-04
  1.1409587e+00   1.5199532e-03
 -1.6597354e+00   2.5041544e-04
  1.3748268e+00   5.9676869e-03
  1.3936632e+00   6.1024735e-03
 -2.1960844e-01   9.2550144e-03
 -6.0075676e-01   5.0816950e-03
 -2.9725680e+00   2.4158384e-04
 -1.8634838e-01   1.5861609e-04
 -4.3030533e-01   1.1560123e-03
 -6.7667931e-01   1.9811336e-03
 -1.6947181e+00   4.1977220e-04
 -2.3548362e-01   3.9540391e-04
 -9.3321407e-01   3.3596708e-04
 -2.9108961e+00   2.7911048e-04
 -5.7539856e-01   8.9123519e-03
 -5.3419238e-01   7.7632008e-05
  1.2250082e+00   5.9553399e-04
 -5.8470863e-01   1.4973760e-03
 -1.2770854e-02   2.0185385e-03
 -7.9781508e-01   4.7593692e-04
 -2.7481115e+00   6.1102626e-05
  1.1789377e-01   1.8104215e-03
  2.1056606e-01   1.1008603e-03
  1.3311042e+00   2.5804797e-03
  6.5214112e-02   1.1320256e-02
  2.2674814e-01   2.9670470e-03
 -4.8997775e-02   4.4652306e-02
 -8.5239249e-01   2.1927029e-02
 -1.1435701e-01   6.5784037e-02
 -1.2500753e-01   3.2459211e-02
 -6.4286482e-01   3.0807201e-02
  8.1095707e-01   3.8654346e-03
  5.3214276e-01   9.6086686e-04
  2.1288559e+00   1.1921420e-03
 -8.0780077e-01   1.6031441e-03
 -2.9582045e+00   3.6930265e-03
 -5.8884627e-01   8.2249399e-03
  6.2218122e-02   2.1244909e-04
 -2.3614816e-01   1.6270083e-03
 -4.1183519e-01   5.6993024e-04
  8.7419587e-01   3.0761512e-03
 -2.5044948e-01   5.4667407e-04
  1.3071001e-01   9.0157468e-04
 -4.2424756e-01   1.3585143e-03
  8.0825150e-01   1.1701221e-02
 -3.1586472e-02   3.3560509e-04
  1.3546724e+00   9.2736050e-04
 -1.0064217e+00   7.5248053e-04
  9.2693287e-01   1.4315346e-03
  4.6867272e-01   1.6237668e-03
 -2.7967780e+00   8.1614620e-04
 -5.5747539e-01   9.7641168e-04
 -4.5193413e-01   2.3252342e-03
 -5.7685649e-01   1.8885387e-03
 -1.2026906e+00   1.4392851e-02
  1.1832089e+00   4.4562323e-03
 -2.6309249e-01   6.8500504e-04
  9.5819014e-01   1.3910179e-04
 -2.2694957e-01   1.4362697e-03
 -2.0188982e+00   7.0999269e-03
  3.4361967e-01   1.6601410e-03
 -5.0131029e-01   7.4780975e-03
 -2.1084650e-01   3.3015411e-02
  1.3073327e-01   3.9751746e-02
 -3.9562127e-01   8.3016790e-02
  1.5619491e-01   2.4526188e-02
  1.0647324e+00   2.5273743e-04
  2.2440417e-01   1.6870059e-05
 -3.6666954e+00   4.5575027e-04
 -1.8789920e+00   4.1231542e-04
  4.4070092e-01   5.6599304e-03
 -1.5508794e+00   1.5482942e-03
  1.0072604e+00   2.8678807e-04
  3.4274566e-01   5.0482427e-04
 -1.0404952e-01   1.5436158e-03
 -2.2486949e+00   3.2454572e-04
 -2.1320662e+00   6.3429594e-05
  6.2015784e-01   9.7960467e-04
 -9.1607314e-01   2.4262446e-04
 -3.8822556e-01   2.8612639e-04
 -8.4479183e-01   8.5177476e-04
 -1.3066891e+00   7.0794491e-04
 -8.7455377e-02   7.6712511e-04
  9.3085271e-01   2.1551789e-03
 -1.0853423e+00   3.3701577e-03
  3.8132736e-01   5.2223098e-04
 -5.1699173e-01   1.1718081e-03
 -5.0641710e-01   8.6881226e-04
  1.6536888e+00   1.5999245e-03
  2.8898714e+00   2.4257823e-04
  2.2559546e-01   2.6796630e-03
 -2.1354029e+00   2.8717413e-03
  1.7898402e+00   1.1023363e-04
  2.7817330e-01   5.5366219e-04
  1.5307425e+00   3.1942662e-02
 -2.5699878e-01   2.2236241e-03
 -4.7027969e-01   5.6494214e-03
  4.7807291e-01   8.1411265e-03
  4.1687372e-01   2.5897435e-04
  3.6839804e-01   5.3566195e-02
 -4.9886352e-01   2.5233533e-02
 -6.9486248e-01   2.0436945e-03
 -8.8014340e-01   2.9069727e-04
  2.1413603e+00   7.5766013e-04
  8.7165433e-01   4.7513777e-03
  2.1933140e-01   2.5418524e-03
 -2.6560769e+00   3.5220201e-03
 -3.1688671e+00   4.2276098e-03
  2.0151517e+00   3.7614554e-03
  2.8800225e-01   3.4565160e-03
 -5.6939664e+00   1.6973868e-02
 -2.2190452e-01   4.1070301e-04
  2.7414322e+00   2.7544977e-04
  1.1640860e+00   2.3325386e-03
 -9.2570245e-01   6.5855561e-03
 -4.2883797e+00   1.2816718e-03
  1.6175002e+00   4.6893390e-04
 -1.3903930e+00   2.5536271e-04
  1.4562236e+00   9.0775284e-04
  5.6872528e-02   6.3854987e-03
  1.1304001e+00   1.1026210e-04
  4.7961503e-02   1.3916212e-03
  9.2111427e-01   1.9977679e-03
 -3.5761926e-01   4.5664301e-03
 -6.5029120e-01   7.7771069e-04
  1.1096738e-01   2.6363964e-04
  1.9916489e+00   1.0463715e-04
 -3.6399272e-01   8.0009334e-04
 -4.4920722e-01   5.3480049e-03
  3.7660098e-01   7.4042887e-03
  2.6239104e+00   7.4239965e-03
 -2.2344138e-01   3.0502772e-02
  2.3273918e-01   7.9808515e-03
  1.0271511e-01   9.5163835e-03
  3.3746296e-01   6.0822652e-03
  3.2456616e-01   3.4622997e-03
  2.5410006e+00   2.3354867e-03
 -1.5278102e-01   5.0464016e-04
  3.0133765e+00   2.0171003e-04
  2.9633420e+00   1.3492124e-02
 -3.0854659e+00   7.2052691e-04
 -1.4712797e+00   1.9323848e-04
  9.4100952e-01   2.7718775e-02
 -6.6732354e-02   4.8273457e-03
 -5.9166737e-03   1.0440750e-02
  9.8854077e-01   2.7762661e-03
 -1.7134234e+00   4.1701831e-03
 -1.6828747e+00   8.4685173e-04
 -1.4563150e+00   3.0218072e-03
  1.3134662e+00   7.8319077e-04
 -1.5707310e+00   8.3424558e-04
 -2.3699483e-01   3.2703645e-04
  1.0940071e+00   4.2795655e-04
 -3.9529413e-01   4.1433894e-03
 -9.6997297e-01   1.9735498e-02
 -2.7283847e-01   3.0020109e-04
  9.2167920e-01   5.2174873e-04
  9.3840063e-01   2.4115343e-03
 -8.9267379e-01   9.8374337e-03
  1.8386830e-01   1.1642053e-02
 -2.4518845e+00   1.9898454e-03
 -1.9727249e+00   2.3994317e-02
  1.2437530e+00   8.0232527e-03
 -2.8114371e-02   6.1078025e-03
 -3.7650105e-01   3.5438534e-02
 -3.0482560e-01   1.1341135e-03
 -3.0276051e-01   2.7073725e-04
  2.6237810e-01   1.1968629e-02
 -3.5900921e-01   1.0283390e-02
 -1.6930647e-01   9.0397689e-03
 -1.8017466e+00   2.5103017e-04
 -2.3095136e+00   1.6386651e-03
  1.3688667e+00   8.9156791e-04
  7.3846036e-01   9.6118485e-04
 -1.9399139e+00   1.6610238e-03
  1.0539956e+00   1.0444394e-03
 -7.1399778e-01   3.6273000e-03
  1.0656965e+00   2.3603085e-03
  1.9809096e+00   1.8701234e-03
 -6.8655789e-01   1.8756004e-02
  3.5583299e-01   5.7105161e-03
 -1.2503369e+00   5.8291457e-04
  1.8607994e+00   1.8292892e-04
  3.8162697e-02   1.2026696e-04
  1.4624749e+00   1.1595627e-03
 -1.3600212e-01   2.4386109e-03
 -8.8478804e-01   3.1414730e-04
  1.6928492e+00   6.6605338e-04
  1.7250923e+00   1.1193320e-03
 -3.1886330e-01   9.2859048e-04
 -1.1708405e+00   7.3974038e-04
  1.9261205e+00   5.6501164e-04
  5.4580474e-01   5.7542580e-04
  6.4216268e-01   2.0492566e-03
  1.0765946e-01   7.0082736e-03
  1.1102787e+00   2.2037742e-03
 -7.8477240e-01   9.3286001e-04
 -8.9740431e-01   1.0344146e-03