  2.1434236e+00   6.1093634e-03
  3.3947265e+00   1.9901907e-03
 -1.1893710e+00   4.2315009e-03
 -1.6595461e+00   1.1922310e-02
  6.0362411e-01   8.9689028e-03
  2.3233029e-01   1.0769734e-02
 -1.4819736e+00   2.1026906e-02
  1.0271596e+00   1.4359633e-02
 -7.2211862e-01   8.5581830e-03
  1.2824075e-01   7.4576037e-03
 -2.5818203e-02   8.1518036e-04
 -1.6689447e+00   7.4427128e-03
 -1.1753418e+00   2.6427230e-03
  7.8954324e-02   2.9496544e-03
  1.7977959e+00   4.9694168e-04
 -7.0177883e-01   9.9378638e-04
 -1.2857766e+00   1.0102239e-03
 -1.3116452e+00   1.0343661e-02
  9.2497820e-01   3.0002045e-03
  1.7994827e+00   2.1669224e-03
 -7.0875406e-01   3.2001820e-03
  2.2779970e-01   8.1649385e-03
  1.0057092e+00   2.5398387e-03
  2.2659066e+00   6.8307254e-03
 -5.5303305e-01   4.0382599e-03
 -4.6015742e-01   9.5111746e-03
 -1.1729449e+00   2.3894918e-05
  9.6394867e-02   1.7885193e-03
  5.5630368e-01   1.8829687e-02
  1.2682735e+00   1.6976139e-02
 -5.3554839e-01   3.2187449e-03
  5.6613296e-02   6.1079641e-03
  1.6655353e-01   4.1261502e-04
  1.1372245e-01   5.4819129e-02
 -1.4193640e+00   5.6420448e-03
  1.5121778e+00   3.3851925e-04
  1.2412300e+00   8.1228843e-04
  2.9539855e+00   7.6766766e-04
 -1.2049850e+00   2.1761772e-03
  1.0414120e+00   1.1917888e-04
  2.0333586e+00   2.6096809e-03
  1.7704496e+00   2.4020381e-03
 -3.0515671e+00   1.1271377e-03
  1.3049877e+00   6.3069207e-03
 -1.2192900e+00   2.8925098e-04
  2.1729534e+00   1.9766736e-05
  9.4806087e-01   1.4297081e-04
 -1.1589404e+00   1.8569221e-03
  3.4552738e-01   2.5860092e-03
 -8.7338805e-01   1.2182011e-04
  2.0621152e+00   1.3393350e-04
 -2.7900796e+00   5.6568468e-05
 -1.7521443e+00   1.6120698e-04
 -1.8864255e+00   1.6642532e-03
 -4.0546581e-01   2.2929622e-04
  4.0413192e-01   4.3239025e-04
 -2.1932383e+00   1.4365398e-03
  1.6744201e+00   2.0025992e-03
  4.3978843e-01   1.5293891e-03
 -7.1204257e-01   5.0819194e-04
  9.1452885e-01   1.3439784e-04
  3.2763135e-02   6.3945539e-04
  3.2524068e+00   4.8847087e-05
  1.7995611e+00   1.3401419e-02
 -1.3847495e+00   4.9048043e-03
  3.5513490e-01   2.1946347e-04
 -6.9045502e-01   3.5835177e-04
  1.5263413e+00   2.6069535e-03
 -6.0152787e-01   2.6134351e-02
 -9.1862553e-01   2.2938944e-02
  1.3628423e-01   3.9254208e-03
 -1.2555577e+00   1.3521521e-03
  3.2824191e-01   5.3741335e-04
 -1.4677277e+00   7.1095768e-03
  1.4393003e+00   4.2210883e-03
 -1.4462013e+00   1.8250766e-04
  2.4046433e+00   3.2906539e-03
  3.6825401e-01   3.4392560e-03
 -5.8785117e-01   2.7049292e-02
  6.9064230e-01   1.2705614e-02
 -4.7197628e-01   2.2526474e-03
  5.4907048e-01   5.2468647e-04
  9.5791769e-01   4.8121447e-03
  1.6764973e+00   1.0858246e-02
  8.6630088e-01   4.7210595e-03
  1.4082819e+00   2.0987187e-03
 -2.3627171e-01   1.0177410e-03
 -1.2548066e+00   1.9526503e-03
  4.9427465e-02   2.6607656e-04
  2.5896158e+00   1.6579770e-03
  2.8628108e-01   2.7140195e-03
  2.0844648e+00   3.1754267e-03
  5.6718093e-01   6.9595757e-03
  5.6506222e-01   1.8449344e-02
  6.8293083e-01   5.0421706e-03
 -9.9956982e-02   1.4746117e-03
 -3.5378706e+00   9.9457428e-04
  5.0861073e-01   7.9043563e-03
  2.1228549e+00   8.0196112e-02
 -6.8662614e-01   1.1940481e-02
 -1.1753976e+00   2.6028074e-02
  9.2232423e-03   3.6596522e-02
  2.9513213e-01   1.7890939e-02
 -4.3062520e-01   7.5976111e-02
 -2.7096370e-01   3.2615375e-02
 -2.1285121e+00   4.7053927e-05
 -1.0608681e+00   8.6803033e-05
 -1.6748312e+00   8.2660546e-05
  1.0072455e+00   2.3448032e-03
 -1.1048178e-03   2.2420970e-04
 -2.2208238e+00   1.4311020e-04
  2.3201253e-01   7.3200121e-04
  3.0276246e+00   9.5033487e-05
  4.0040028e-01   7.2329433e-04
  5.3564751e-01   4.0198988e-03
 -2.9478654e-01   5.1575084e-04
  2.5885966e+00   5.8110646e-04
  7.1683377e-01   7.0084014e-04
  3.2581198e-01   1.7577696e-03
 -2.3857753e-01   2.1498793e-04
 -2.7502227e-01   3.1385531e-05
  2.2792835e+00   2.5312928e-04
  2.3974838e+00   3.7021829e-05
  6.2414978e-02   4.6637518e-04
 -3.3749959e-01   2.8300280e-04
 -3.4272030e-01   1.6629379e-03
  1.2221553e+00   4.2771429e-04
  1.1165581e+00   1.4505212e-04
 -1.3317941e+00   6.3214358e-03
  3.2752389e-01   1.3809084e-04
  1.3102614e+00   1.3063848e-03
 -6.5599358e-01   2.3625582e-03
 -2.3637125e+00   3.3180818e-03
 -1.4392031e+00   1.0670305e-03
  3.1816515e-01   6.6523845e-03
  1.0290169e+00   3.6229449e-03
  1.0079646e-02   1.3651465e-02
  2.1750490e-01   1.2222379e-02
  1.2219858e+00   9.1382780e-04
  2.4273427e-01   1.9062469e-03
 -6.2886304e-01   9.7256973e-03
 -1.4042004e+00   5.1781930e-02
  6.5367922e-02   6.4774958e-04
 -7.5378752e-01   4.0696751e-02
  4.5173058e-01   5.2690418e-03
  2.2621788e-01   1.7838742e-03
 -4.1129485e-01   1.5978713e-02
  4.2914796e-01   3.0986307e-02
 -1.1840097e+00   2.2553872e-02
  4.2326689e-01   7.4938737e-02
 -1.7579296e-01   1.5486027e-03
 -1.4768691e+00   2.4620691e-04
 -8.6608458e-01   5.7726935e-03
 -2.2196627e-01   2.7116365e-03
  1.1845908e+00   1.2772280e-03
 -1.8706101e-01   9.8155742e-04
  7.1927035e-01   4.6852231e-04
  3.1207126e-01   5.1304814e-03
  2.1344751e-01   8.0393910e-02
 -2.9096443e-02   3.1117830e-02
 -2.4059877e-02   1.5275194e-02
  4.2391369e-01   1.0138815e-03
  3.0917242e-01   4.7718785e-03
 -3.2955810e-01   1.9633654e-03
  1.2608104e+00   3.3842601e-02
  9.9003857e-01   2.5035609e-03
  4.3276650e-01   5.9129973e-04
 -2.4788320e-02   1.3917035e-02
  4.5541653e-01   8.7358421e-03
 -4.6320772e-01   7.2653228e-03
  3.3939967e-01   2.1873314e-02
  6.6879734e-02   7.9580180e-02
 -3.0164424e-01   8.5153189e-03
 -3.8063273e-01   4.4502977e-02
  3.6303866e-01   1.7797094e-02
 -1.7908068e+00   7.2228833e-04
 -2.4456158e+00   1.3340977e-03
  1.6647998e-02   1.3974566e-03
  8.9858785e-02   4.5553973e-04
  1.6862965e+00   2.8465658e-03
 -2.0570047e-01   7.0969266e-04
  2.3194230e-01   4.7458005e-03
  2.1491284e+00   1.8949600e-04
 -3.5729063e-01   8.9821656e-04
  3.5318141e+00   1.0610693e-03
 -2.0726795e+00   4.6521705e-04
 -8.5261899e-01   1.3628830e-03
  2.5468600e+00   2.7775436e-03
 -1.1666497e+00   3.2526674e-03
  1.5857695e+00   9.3892607e-04
 -6.0299134e-01   4.7574125e-04
  1.7830001e+00   1.2407936e-06
  2.9457798e+00   2.9482282e-04
  6.1854744e-01   3.6600712e-03
  2.9932699e+00   1.2740622e-03
  4.4662625e-01   5.8646832e-04
 -9.2516965e-01   8.9768070e-04
 -4.5145243e-01   5.1275059e-03
  1.7145549e-01   4.2459420e-03
  1.7093351e+00   1.8109728e-03
 -3.0977321e+00   4.7086538e-03
  1.7639580e+00   6.9097551e-03
  3.3457825e-01   9.4332490e-03
  2.1139131e-01   3.5844101e-03
  6.3499862e-01   1.3979782e-03
 -3.1508347e-01   2.5314262e-02
 -2.4025923e-01   8.3971000e-04
  9.1262841e-01   1.1864631e-03
 -6.9465595e-01   5.9601106e-02
 -1.4198363e+00   3.1257689e-03
 -1.0950736e+00   1.3209531e-03
 -3.9299253e-01   1.2489503e-04
  1.0290430e+00   4.9999851e-04
  1.3824005e+00   2.5252913e-04
  2.4823673e+00   3.6289825e-03
 -3.6949875e+00   6.8841400e-03
 -2.4573916e-01   8.5971802e-03
  3.6944801e-01   8.8411542e-03
 -3.7317395e-02   1.9762674e-02
  1.5841557e+00   3.0248458e-04
 -1.3863131e+00   1.8655960e-02
 -1.7299188e+00   1.8990085e-03
  7.3441178e-01   2.4560338e-02
  1.0128778e+00   2.8327925e-03
  1.8474934e+00   9.1762617e-03
 -4.8581126e-01   2.8150408e-03
 -1.6133790e+00   2.7381242e-03
 -1.1248512e+00   4.5496323e-03
  2.5977564e+00   1.8765366e-04
 -1.6499571e+00   3.5520168e-03
 -1.0156667e+00   1.4114672e-02
 -2.6520576e+00   3.4298882e-04
 -1.3380045e+00   5.3834184e-03
  1.9372761e+00   1.2294293e-03
  7.7241784e-01   3.5349643e-03
 -1.2125865e+00   4.1328724e-03
  7.5999594e-01   2.9435165e-03
  3.4600347e-01   2.2208856e-03
  3.8674459e-01   3.8276393e-02
 -2.2856265e-01   7.7740308e-03
  4.2257902e-01   7.5485870e-02
  4.2222729e-01   3.3635644e-03
  1.0402857e+00   2.5688836e-02
 -7.5409281e-01   7.6450244e-02
 -8.1310689e-01   2.3665992e-03
 -4.8777571e+00   6.4994587e-05
 -5.4621166e-01   1.1498819e-03
 -5.4059017e-01   2.5881433e-03
 -2.0260972e-01   8.9852940e-03
  4.1286645e+00   6.3530151e-03
 -3.5174036e+00   2.7090672e-03
 -2.7479153e+00   9.0622489e-05
  1.3416636e+00   2.6162507e-03
 -8.4157050e-01   5.1547546e-02
 -1.7790689e-01   3.8401519e-03
 -1.9011894e-02   1.0604289e-03
 -1.8188002e+00   1.0504064e-03
  1.3040310e+00   4.9727932e-03
  9.2135236e-02   6.6607515e-03
  1.0752256e+00   2.2854209e-04
  4.2102367e-01   1.3420379e-03
 -2.0807366e+00   4.8718241e-04
 -1.1044853e+00   4.5253331e-04
  2.3522167e+00   4.2684464e-04
  1.2798868e+00   2.2277914e-03
  1.0557768e+00   3.0644811e-04
  6.1889559e-01   5.0247874e-04
 -1.3538282e+00   1.9754516e-04
 -8.9187592e-01   6.0415856e-04
  1.6665628e+00   3.8717064e-04
 -8.0244756e-01   2.2245385e-03
 -1.6477809e+00   9.2976093e-03
 -5.3151888e-01   1.5785020e-02
 -3.8427266e-01   4.1037062e-03
  8.9962602e-02   1.0985075e-02
  2.6511651e-01   9.4739906e-03
 -2.2610304e-01   2.4615979e-02
  6.6962257e-02   5.4460566e-02
 -3.5400191e-01   9.6327793e-03
 -4.4281504e-01   1.3799833e-02
 -7.2415084e-01   3.5543714e-03
  2.0627472e-01   9.8550681e-04
 -1.6612473e+00   5.7901633e-03
  2.5726268e+00   1.5652936e-04
  2.2903417e-01   1.5646731e-03
  1.6414528e+00   1.5433103e-02
  4.6563333e-01   1.1868145e-03
  1.1679331e+00   1.4017927e-02
 -4.9976811e-01   2.3352684e-02
  4.3832421e+00   3.3880521e-02
  5.8809942e-01   7.9740223e-04
  1.2159830e+00   4.3292334e-03
  1.2676722e-01   6.4607761e-03
  1.4709365e+00   2.7218075e-02
 -7.3055369e-01   8.0746841e-03
 -4.3605998e-01   2.3880720e-03
 -2.4372010e-01   4.0751952e-03
  1.2668566e-01   3.2780685e-03
 -1.1348673e+00   6.3896608e-03
 -1.1139168e+00   4.1534472e-03
  1.9482268e+00   3.6761661e-03
 -2.6152474e-01   8.1079761e-03
  9.1531479e-01   3.6314132e-03
 -9.0588816e-02   2.2330222e-04
  8.6980324e+00   1.2589678e-02
  2.8163454e-01   8.5903443e-03
  1.4966310e+00   7.0568506e-04
 -8.5958636e-01   1.1503754e-02
  9.1870135e-01   5.6267402e-04
  1.3354453e+00   1.4977958e-03
 -8.9198627e-02   3.3061229e-02
 -7.0126969e-01   1.2074053e-02
  1.3721027e+00   8.2557127e-02
 -6.1748648e-01   7.1949502e-03
 -3.5905051e-01   7.6885246e-02
  3.5933695e+00   1.6485828e-04
 -3.1166422e-01   3.6204033e-04
 -7.9401791e-01   1.6877310e-03
 -1.4791924e-01   4.8007336e-03
 -2.0008531e+00   4.5268931e-03
 -8.7716448e-01   3.2183148e-03
  2.3365507e-01   6.8048006e-03
  8.9054644e-01   1.5929757e-02
 -8.5385311e-01   4.4198636e-02
 -9.2668945e-01   5.2853422e-03
  2.3231220e-01   3.8713661e-03
 -1.5903329e+00   3.0521347e-04
 -3.7492612e-01   8.3550479e-04
  1.1765261e+00   3.6207488e-04
 -1.7353655e+00   5.5046584e-03
 -1.8784044e+00   8.7220524e-04
 -1.3883950e+00   1.8840948e-03
 -1.5260293e-01   5.3100218e-03
 -2.1530628e+00   1.9586082e-03
  4.8611808e-01   5.4517458e-04
  8.2303590e-01   5.2164984e-03
 -9.4043314e-01   1.2308968e-03
  2.1836531e-01   1.5724117e-02
 -3.8028497e-01   4.8740112e-04
 -2.5414708e+00   1.4512219e-03
  2.7824550e+00   2.9159252e-02
  4.2955747e-01   6.4902636e-04
 -5.4812813e-01   8.4618162e-03
 -8.4997833e-01   1.3330978e-04
 -3.9504860e-02   3.4785077e-03
 -6.9219750e-01   3.4164326e-04
  5.6687450e-01   5.0584850e-04
 -8.1287986e-01   1.2177720e-02
  1.2595993e-01   1.5375811e-02
 -9.4190329e-01   3.8667880e-02
  1.4539430e+00   5.8392069e-04
  2.0023732e+00   1.5116780e-03
  7.5475788e-01   3.0091805e-03
 -8.0794968e-02   1.3818982e-02
 -2.9411338e-02   1.2751731e-02
  1.6847926e+00   2.2592067e-03
  3.8977617e-01   2.8589850e-02
  3.9058321e+00   3.3507594e-03
  6.9036007e-02   4.2385850e-03
 -3.4488299e-01   1.8840369e-02
 -4.6073765e-01   2.7696346e-03
  1.0835168e-01   1.4106258e-03
  7.0838094e-01   4.2550038e-03
  9.2159295e-01   3.7559839e-03
  1.0403588e+00   5.0643308e-04
  8.5230362e-01   7.6658202e-05
  6.0765260e-01   6.6385148e-03
 -3.2252818e-01   1.4866983e-03
 -5.5576140e-01   3.9736181e-03
 -9.9907297e-01   4.7667804e-03
  3.2348285e+00   2.5798304e-03
 -1.3690250e-01   9.6933544e-04
 -1.2603614e+00   2.4473645e-02
  7.7080332e-02   9.7229434e-03
  6.6177344e-01   1.5402783e-03
  1.3545699e+00   3.8955960e-04
  3.8894236e-01   1.4801613e-03
  9.3933288e-03   2.2855224e-02
  3.0654540e+00   1.7501878e-04
  9.9712247e-01   2.1622632e-02
 -1.6007461e-01   6.3995078e-02
 -1.3452817e+00   7.1194774e-04
  6.1965376e-01   4.7078524e-02
 -3.9655920e-02   4.9045548e-02
  4.0738335e-01   6.9012493e-02
  1.8414952e+00   7.4500064e-03
 -3.7457779e-01   1.6667919e-03
 -4.7034654e-01   1.8861804e-02
  6.9696099e-02   1.2840097e-02
  1.3307852e+00   1.5889412e-02
 -5.9276491e-01   1.7449306e-02
 -4.2122938e-02   1.0557905e-02
  1.0638173e+00   6.5822639e-03
  9.9141139e-01   1.0361990e-03
  1.0909486e+00   7.8595132e-03
  4.9426284e-01   3.6927080e-04
  2.8325653e-01   7.9130504e-04
 -1.7550628e-01   1.4717631e-02
  4.3637943e-01   6.6619890e-05
  9.4940120e-01   7.1694814e-03
 -1.4192952e+00   7.5034877e-05
 -7.4109949e-02   4.8521277e-03
 -2.1734679e-01   1.0526292e-02
 -6.0122305e-01   3.1781178e-02
 -1.0242441e+00   5.0666602e-03
  1.3116783e+00   2.7532471e-02
 -2.3873744e+00   3.8918879e-02
  1.3655263e+00   7.5247663e-04
  3.7085932e-01   5.9322421e-02
 -3.4190422e-01   1.6699679e-02
  7.4710071e-01   8.8986205e-03
  3.1966434e+00   1.3272058e-04
 -5.9737909e-01   3.7648396e-03
 -4.2108727e-01   3.1280462e-02
  7.0912147e-01   6.2860809e-02
  1.0869068e+00   1.1504753e-02
 -8.2728338e-01   1.9421615e-02
  5.4844117e-01   1.8113764e-02
 -7.1690567e-02   3.0251822e-02
 -5.6839085e-01   7.2166696e-02
  5.1160550e-01   1.7609702e-03
 -1.8062478e-01   5.6916596e-03
  1.8848032e+00   9.1698729e-03
  3.3745158e-01   3.8511772e-02
 -1.1588442e+00   2.1992477e-02
 -3.1234407e-01   2.1938654e-03
  6.2456477e-01   2.3381326e-02
 -1.0219123e+00   2.4025802e-02
 -1.3894899e+00   1.0755275e-03
  1.6157739e-01   8.6866861e-04
  4.3896475e-01   5.4115294e-03
 -2.5255007e-01   3.5849058e-05
 -3.3526662e-01   1.1397758e-02
  5.8101749e-01   1.1963522e-02
  4.5031822e-01   6.1794026e-03
 -3.9968336e-01   1.3787124e-02
 -1.6484351e+00   2.8165802e-03
  4.8880422e-01   4.6351249e-03
 -3.7747285e-01   3.5744698e-03
 -8.4645665e-01   9.2798285e-03
  1.6287543e+00   6.8558864e-03
 -1.2978343e+00   3.4118519e-04
 -3.6822912e-01   1.4078229e-03
 -1.1110506e+00   7.6316282e-02
 -1.2910110e+00   2.2109564e-02
  7.8034836e-01   1.0989805e-03
 -1.2590891e+00   1.1778316e-02
 -1.7389335e-01   1.1525883e-02
 -1.8105662e-01   2.7046999e-02
  2.1778727e-01   6.6081877e-03
  5.6657597e-02   2.6185220e-02
  6.6190177e-01   8.1162423e-02
 -2.6064134e-01   6.6116132e-02
  8.0767745e-01   8.3651915e-02
 -3.0954819e+00   4.8020864e-03
 -2.7260137e-01   9.5137092e-04
 -8.8165683e-01   3.1515320e-03
  1.3451837e+00   4.9976767e-03
  5.0152421e-01   6.6716257e-03
  1.9685837e+00   2.4663392e-03
 -1.7317877e+00   1.1766515e-02
  4.1557559e-01   7.7168187e-03
  2.2658221e-03   1.1635845e-03
 -4.2578387e-01   1.7154856e-03
  1.0890837e+00   3.1338811e-02
  9.9218005e-01   4.9577956e-04
  9.4472253e-01   3.9195764e-04
 -2.2236390e+00   1.2279742e-02
  3.2503226e-01   2.5956728e-02
 -1.6456022e+00   2.5242977e-03
 -1.2007430e+00   1.0684617e-03
 -1.8895550e+00   2.3483705e-04
 -7.6309376e+00   2.7620243e-02
  1.6970545e+00   2.2816960e-02
 -1.4844840e+00   3.0277569e-03
  8.6861563e-01   1.5431832e-03
  9.5425946e-01   4.5188476e-04
 -4.8798409e-01   2.2058317e-02
 -1.3051489e-01   5.6731943e-03
  5.2324623e-01   1.4395516e-03
  9.9497505e-02   4.1855955e-03
 -2.9661946e+00   1.9416874e-03
  1.0939465e+00   1.0968856e-02
  8.7187620e-04   5.0468307e-02
  6.1269659e-01   1.0571433e-03
 -4.7205725e-01   1.2717085e-02
 -9.3894809e-01   4.4670653e-02
  3.4417726e-02   2.7595159e-02
 -8.6706597e-01   1.3766533e-03
 -3.8873547e-01   3.3934340e-03
  1.3071629e+00   2.2068102e-02
 -1.0069450e+00   2.0848325e-02
 -4.0648881e-01   1.1131257e-02
  3.4717053e-01   1.3802193e-02
  6.3357842e-01   6.4875819e-02
 -5.9424508e-01   4.1406013e-02
 -3.2867411e-01   1.2053085e-02
 -1.0575529e+00   6.7518064e-04
  5.8769232e-01   1.1843572e-03
 -4.0082869e-01   2.0103529e-03
 -1.2982219e+00   3.6918293e-03
 -1.2924448e+00   9.9078263e-04
 -5.4074174e-01   1.2629331e-03
  7.7852213e-01   1.8754494e-03
  1.1139201e+00   1.2632518e-02
 -5.9041286e-01   4.4644777e-02
 -5.4092628e-01   2.3400526e-02
  5.8325720e-01   1.2288346e-02
  1.5071983e+00   9.5224688e-03
  1.3397169e-01   4.7998913e-04
  6.4169222e-01   8.5497722e-03
 -9.6719223e-01   8.4379094e-04
  8.9243367e-02   5.7245740e-03
 -7.4456286e-01   7.2249998e-03
  2.3231204e-01   2.3086000e-02
 -3.4228384e-01   3.7838757e-02
 -9.2412806e-01   5.4121925e-04
 -8.2536942e-01   2.7891681e-02
 -2.0112650e-01   2.1078205e-02
 -7.7205211e-01   2.3921439e-02
 -2.5473887e-01   6.0451884e-02
  1.1310993e+00   3.4267597e-03
 -1.0002995e-01   4.3121553e-03
 -4.6294042e-01   6.1437089e-02
 -1.0675863e+00   6.3310494e-03
  9.0459168e-01   5.2919080e-03
 -1.8241514e-01   1.1006685e-03
 -1.7095686e+00   2.7156242e-03
  5.9814316e-01   3.5699233e-04
  1.9836432e-01   1.3739527e-03
  1.9061562e-01   2.7258445e-03
 -1.5370778e+00   4.2806258e-03
 -1.2663226e+00   2.6295017e-03
  1.8543494e+00   4.2987238e-03
  3.1563768e-01   2.6766289e-04
  2.4175625e+00   2.5264542e-03
  3.0444615e+00   2.7123240e-03
 -3.3835537e+00   9.8063459e-04
  2.9493144e+00   4.3820906e-02
 -3.4562212e-01   5.8642183e-03
 -2.5172594e+00   8.8064419e-04
  1.6286401e+00   3.1464454e-04
  2.7769008e-01   9.6379063e-04
  1.7295773e+00   1.0939690e-03
 -4.6636254e-01   9.3156536e-04
 -2.7624466e+00   1.1910588e-03
  1.7960417e+00   6.5568235e-04
 -9.7692055e-01   3.9474759e-04
 -6.2111020e-01   1.1150925e-03
 -7.1727914e-01   6.3427683e-04
  7.6206732e-01   9.3187700e-04
 -2.5124662e+00   3.5099711e-03
  1.4336041e+00   3.2363329e-03
 -2.5933841e-01   1.4563438e-02
 -7.9883802e-01   2.3506647e-03
 -5.2661884e-01   2.1029217e-02
 -4.8815545e-01   1.0422287e-02
 -6.3190335e-01   6.3340133e-04
 -6.5146339e-01   1.4295891e-03
 -6.0131180e-01   9.1356039e-03
 -4.2438912e-01   1.2919680e-03
  1.8778090e+00   7.7842025e-04
 -2.7369387e+00   8.6479069e-04
 -2.6999986e+00   1.2176621e-02
  1.8982384e+00   1.6486620e-03
 -5.0464588e-01   1.9373210e-02
 -2.8545618e-01   7.0617045e-03
 -1.8818158e+00   8.9371651e-03
  1.5149207e-01   5.1443873e-04
  1.0039933e+00   3.7491715e-03
 -5.6381094e-01   2.6005062e-03
  1.3104448e+00   4.2769052e-03
 -7.5576711e-01   1.7626456e-03
  8.6907876e-01   7.5793206e-03
  2.5215471e-01   8.8533685e-03
 -8.2293618e-03   3.3397076e-03
  2.3314059e-01   1.7732392e-03
 -9.2054808e-01   1.1298929e-03
 -7.8257877e-01   1.0900564e-02
  5.9934205e-01   1.7228413e-03
  1.7512159e-01   4.5421948e-03
  1.3584402e+00   5.4552249e-04
 -2.9863152e-01   1.7422281e-02
  1.7409279e+00   4.8734434e-02
 -2.5988817e-01   5.8217514e-03
 -6.9397384e-01   1.7267452e-03
  1.2135576e+00   7.3988223e-03
 -2.8024402e-01   4.5609400e-03
 -8.8838540e-02   8.1242345e-02
 -8.8870674e-01   1.5987210e-02
 -5.1085305e-01   1.5762182e-02
  3.9856401e-01   3.0930217e-02
 -1.0002552e+00   4.6678048e-04
  8.8953506e-03   5.6636367e-02
 -1.0799379e+00   2.6025929e-02
 -3.1878126e-01   8.0239365e-04
  1.2321768e+00   2.0794538e-03
 -2.3356831e+00   1.5620387e-03
  1.0034690e+00   1.5138919e-03
 -2.2423840e+00   3.4478388e-04
 -2.0888872e+00   1.5265234e-02
  4.9678487e-01   6.8242429e-03
  6.6228771e-01   1.2062349e-03
 -1.6709810e-01   1.9712474e-03
  9.9203938e-01   3.5653322e-03
 -3.6992550e+00   2.0224233e-03
  2.9769461e+00   3.5559418e-04
  1.0358819e+00   2.6561241e-04
 -1.1896658e+00   3.0746743e-02
  1.6884418e+00   4.9176239e-03
 -2.0029953e+00   6.3104532e-04
 -2.0645511e+00   5.9927390e-03
  5.1899022e-01   5.8303582e-03
 -7.1883184e-01   1.4531139e-02
 -2.4841974e+00   3.8588804e-04
 -2.6197760e+00   3.5038043e-04
 -8.5154068e-01   2.6835671e-03
  1.4372066e-01   8.4902523e-03
 -5.9068298e-01   1.0800804e-02
 -7.7774948e-01   2.7211187e-02
 -2.2106893e+00   1.0227144e-02
  6.8359429e-01   4.5671272e-03
 -1.3490484e+00   2.1205844e-02
 -1.7773816e-01   5.9046581e-02
  1.4445732e+00   1.6174909e-03
 -7.9131472e-01   7.9136109e-03
  4.1957849e-01   3.0324915e-03
 -6.7873889e-01   3.1934038e-02
 -2.1213777e-01   3.8563333e-02
 -4.0071496e-01   9.6707372e-03
 -1.4222641e+00   1.6258182e-02
  4.7518077e-01   2.1362827e-04
  1.0961708e+00   7.2986428e-03
  2.0084107e-01   2.0900648e-02
 -1.2269471e+00   1.8828040e-02
 -3.0003574e-01   1.5377077e-02
 -1.0416252e-01   3.6007955e-03
  1.4288810e+00   4.6391858e-04
 -1.1250973e+00   1.1702114e-03
 -9.2750782e-01   1.1440081e-03
 -2.0340854e-01   1.4221666e-03
  1.8279508e-01   6.6516688e-03
 -6.3172624e-02   1.5075797e-03
 -5.5617642e-01   1.6169809e-02
 -3.6276636e-01   1.3789417e-03
  4.4118547e-01   2.6643978e-04
 -8.9919472e-01   4.3850676e-03
  7.6887596e-01   4.0289075e-03
 -4.8965666e-01   2.2980409e-02
 -8.0089366e-01   6.8439883e-03
  4.7989422e-01   5.6409272e-03
  1.1007386e-01   6.8645854e-03
 -5.5496997e-01   1.3191023e-02
 -8.8281268e-01   4.3468303e-03
 -1.0943797e+00   2.1180154e-03
  4.6144608e-01   1.0393288e-02
 -7.8906357e-02   2.0229945e-02
 -3.6593670e-01   9.2860695e-04
 -1.0651144e+00   3.1119160e-02
  9.8328459e-01   1.0811946e-02
  8.2975626e-01   1.5565136e-02
  6.1147797e-01   3.5805383e-03
  8.1824380e-01   7.3457818e-04
  3.3358023e-02   5.9300143e-02
  1.7752005e-01   8.8770188e-02
 -6.2978452e-01   8.9959009e-03
  5.6012052e-01   6.9325115e-03
  1.0190880e-01   1.4706944e-03
 -1.2612005e+00   2.4249824e-03
 -4.4253179e-01   5.2555492e-03
 -4.5571047e-01   1.2963015e-03
  7.7347475e-01   2.4164546e-02
 -4.7288039e-01   2.4348369e-03
 -6.1475921e-01   4.5285791e-02
 -2.0235506e-01   4.1903538e-04
  1.3382074e-01   7.1478686e-03
 -2.1450378e-01   7.9957058e-04
 -1.3095798e+00   3.4154106e-03
  1.8258967e-01   1.1557475e-02
 -8.1599039e-01   9.2168506e-03
 -1.3706553e-01   6.3954066e-03
  4.5345166e-01   3.4643267e-03
  7.2588462e-01   5.4287398e-03
  2.7824891e-01   4.0406406e-02
  1.6561784e+00   5.0359368e-03
 -8.8419145e-01   7.6823989e-03
 -9.9081177e-01   1.5003643e-03
  1.3529767e+00   1.9473132e-03
 -5.9781682e-02   3.2647504e-03
 -3.6166587e-01   5.2521899e-03
 -1.3450339e+00   4.1495594e-03
 -1.8428598e-01   1.8870289e-03
  3.6735985e-02   1.4279478e-03
  1.5698107e+00   4.6029561e-03
 -9.8115236e-01   2.0897400e-02
 -5.1101351e-01   1.6622547e-02
 -4.0336013e-01   8.6828740e-03
  1.7753644e+00   6.1754836e-03
 -1.9574200e-01   2.1835344e-02
  3.3060846e-01   1.1006278e-04
 -1.1073747e+00   1.4034933e-02
 -1.3068525e+00   1.8929144e-02
  3.8750350e-01   4.5476086e-03
 -6.0961765e-01   1.7509786e-02
 -7.0978075e-01   6.8876080e-02
 -5.8088517e-01   3.8422134e-03
 -8.2164001e-01   2.9593352e-03
 -3.4562111e-01   1.9818434e-02
 -3.8326272e-01   1.9314960e-02
 -6.2506580e-01   8.6277892e-04
 -4.0996575e-01   3.0159904e-03
  1.5896044e+00   1.2598658e-04
  1.8321384e+00   1.7879286e-03
  6.8813658e-01   3.8916568e-04
 -1.4195763e+00   5.3876243e-03
  3.7868403e-02   1.1915247e-03
 -5.5633622e-01   5.1678874e-04
  7.5559437e-01   1.0089843e-02
  8.5485506e-01   5.7593847e-06
 -6.5136510e-01   1.1874604e-02
 -2.2483106e-01   1.4828082e-02
  1.7331326e+00   8.1929396e-04
 -2.7198756e-01   2.4425972e-02
  6.2096626e-01   6.6287001e-03
 -8.8933969e-01   1.2121479e-02
  2.9744324e-01   1.6377971e-02
 -8.5082257e-01   4.0960886e-06
  2.4350345e-01   5.6377314e-02
 -5.2766484e-01   1.3285890e-02
  3.5483092e-01   9.2913814e-02
  6.8179911e-01   3.5985350e-03
  2.6033792e-01   1.3835836e-03
  5.5136412e-01   1.0850246e-03
 -1.0733832e+00   1.4776839e-03
 -2.4273169e-01   7.4639899e-04
  2.9313669e+00   2.9430515e-03
  7.7566421e-01   6.1511062e-04
 -8.7777835e-01   1.3569542e-03
 -1.0492363e+00   2.2696350e-03
  9.0005195e-01   3.0302864e-03
 -1.6841018e+00   3.9213635e-03
  2.2385904e-01   8.2065342e-03
  2.0742557e+00   7.9320716e-03
 -5.7456970e-01   2.0240020e-02
 -2.0531820e-01   1.0660307e-02
 -2.9645793e+00   6.5591105e-04
 -1.8022278e-01   1.9452703e-04
 -6.2493217e-01   3.5505744e-03
 -5.7374543e-01   2.0423608e-03
 -1.7130781e+00   1.2673293e-03
 -2.4014539e-01   2.3356735e-04
 -9.3076146e-01   3.6661557e-04
 -2.9016163e+00   1.5012991e-04
 -2.4440762e-01   5.3120656e-03
 -5.3811824e-01   2.8563070e-04
  1.2473550e+00   2.0525998e-03
 -5.0921458e-01   1.8975957e-03
 -1.9894259e-03   2.1328731e-03
 -8.0636066e-01   1.5155216e-03
 -2.7546904e+00   1.8556122e-04
 -1.2956358e-02   1.8514728e-03
  2.7299958e-01   2.1952556e-03
  1.3133503e+00   1.2299677e-02
 -5.2730024e-01   5.8567850e-03
  2.0562911e-01   2.8335548e-03
 -9.8427367e-01   1.4531092e-02
 -9.4227970e-01   1.9850630e-02
 -3.4075853e-01   4.7699563e-02
 -1.8968695e-01   3.0093970e-02
 -9.0362877e-01   4.1872945e-02
  9.7738934e-01   1.4624806e-03
  4.0132341e-01   1.2481373e-03
  2.0788465e+00   3.4884932e-03
 -9.9634755e-01   5.7864520e-03
 -2.0612807e+00   7.2839265e-03
  6.8347996e-01   1.0696472e-02
  6.1832990e-02   1.0267464e-04
 -4.9286243e-01   6.5503875e-03
 -4.0154815e-01   5.1174214e-04
  1.0624437e+00   7.1643004e-03
 -2.5905800e-01   1.2622891e-03
  1.4863680e-01   3.7787805e-04
 -1.9065735e-01   2.4189015e-03
 -3.8403249e-01   3.2683451e-02
 -1.2929376e-02   1.1801848e-03
  1.3483485e+00   9.2901918e-04
 -9.7567952e-01   1.3323494e-03
  8.6561990e-01   1.6775985e-03
  4.5699698e-01   1.5794653e-02
 -2.6905465e+00   1.3349719e-03
 -4.5588258e-01   2.1529070e-03
 -8.9161521e-01   3.9226096e-03
 -5.3388923e-01   6.0896361e-03
 -9.7262067e-01   2.3839364e-02
  1.1297956e+00   6.3779894e-03
 -1.8592605e-01   1.7302943e-03
  9.7566354e-01   1.6207770e-03
 -3.0763710e-01   5.2640853e-03
 -1.9947121e+00   2.5867701e-02
  3.5135102e-01   4.2287639e-04
 -1.1409815e-01   1.7646208e-02
  5.4229212e-01   3.2672480e-02
 -2.2910722e-01   6.1827168e-02
  4.3280262e-01   7.8683637e-02
  6.9676226e-01   5.4739803e-02
  1.0509977e+00   1.0270723e-03
  2.2460884e-01   1.7541322e-05
 -3.6688044e+00   1.4401303e-03
 -1.8626060e+00   3.8100043e-04
  4.0746856e-02   1.6921271e-03
 -1.6526804e+00   2.2588125e-03
  9.9563217e-01   4.2927283e-04
  3.4583408e-01   3.5734521e-04
 -9.1178603e-02   3.4882033e-03
 -2.2223041e+00   4.7280939e-04
 -2.1363001e+00   3.3742288e-04
  6.0574061e-01   9.7941130e-04
 -1.0001595e+00   1.5179061e-03
 -3.7929773e-01   4.8069819e-04
 -8.3681661e-01   9.6900214e-04
 -1.3139234e+00   3.9979644e-04
 -3.7332248e-02   1.0622990e-03
  9.8287833e-01   3.1722542e-03
 -9.8062956e-01   2.1785188e-03
  3.4603655e-01   3.3150180e-04
 -6.6663730e-01   2.3713226e-03
 -4.7341019e-01   1.8167697e-03
  1.7589428e+00   1.8546229e-03
  2.8971064e+00   1.1385452e-04
  1.5731744e-01   4.3349508e-03
 -2.5572069e+00   1.7148437e-03
  1.7745898e+00   6.7180773e-04
  2.7614883e-01   5.9278496e-04
  1.0751648e+00   1.7949395e-02
 -3.1309307e-01   2.1163102e-03
 -1.7188928e-01   2.3008421e-02
  1.0167749e+00   1.0087951e-02
  4.3152088e-01   2.3028804e-03
  1.9512109e-02   8.0590732e-02
 -1.1333915e+00   9.2749208e-02
 -3.7331432e-01   5.4398179e-03
 -8.6919934e-01   5.6090415e-04
  2.1045773e+00   1.4482178e-03
  1.0843732e+00   1.6180595e-02
  4.8454723e-01   6.0744169e-03
 -2.1146014e+00   1.6746677e-02
 -2.9117150e+00   1.5803404e-02
  2.5373986e+00   9.6190684e-03
  2.6026219e-01   5.7816417e-03
 -5.7705698e+00   3.1229608e-02
 -2.2250013e-01   9.5001544e-04
  2.7416971e+00   4.0289419e-04
  1.1747869e+00   3.0255509e-03
 -1.1944792e+00   4.3817400e-03
 -4.3366241e+00   6.4990637e-03
  1.6119114e+00   8.0262590e-04
 -1.3881484e+00   1.9011881e-04
  1.4579376e+00   7.0601440e-04
 -2.7890608e-01   4.0972005e-03
  1.1305463e+00   5.8829354e-04
 -3.2860741e-02   8.7657711e-04
  7.1306676e-01   1.9333186e-03
 -1.7407538e-01   6.7560445e-03
 -6.7478842e-01   8.0633053e-04
  1.1018752e-01   1.1456989e-03
  1.9925326e+00   2.0177948e-04
 -3.5462427e-01   2.0483581e-03
 -2.3866013e-01   1.3228395e-02
  6.8894076e-01   2.4946525e-03
  2.4608903e+00   1.5200069e-02
  1.4018144e-02   2.3989858e-02
  1.0614887e+00   1.2138983e-02
  3.2383251e-01   1.7903399e-02
  3.7819394e-01   3.6241575e-03
  3.9902705e-01   2.0844415e-03
  2.6293595e+00   4.2790510e-03
 -1.5577146e-01   1.1618839e-03
  3.0084684e+00   1.4139018e-04
  1.6007240e+00   1.0791549e-02
 -3.1193452e+00   7.0805411e-04
 -1.4749812e+00   1.6326387e-04
  2.5794034e+00   6.3918028e-03
 -8.3699077e-01   1.3783770e-02
  4.1459545e-01   1.4168665e-02
  7.3406243e-01   4.0082228e-03
 -2.2686234e+00   2.0264268e-03
 -1.7238735e+00   1.0169197e-03
 -1.5269743e+00   9.0512767e-04
  1.3365324e+00   1.6447381e-03
 -1.5659589e+00   1.1673478e-03
 -2.3028567e-01   7.6516002e-04
  1.0840809e+00   6.9570786e-04
 -6.4841449e-01   9.7013713e-04
 -6.7386299e-01   1.6944749e-02
 -2.6612809e-01   1.0023951e-03
  9.2306894e-01   3.5876574e-04
  9.2297125e-01   1.4718935e-03
 -1.1971481e+00   6.4957645e-03
  1.2757763e-01   1.2603997e-02
 -2.6762247e+00   2.7948215e-03
  2.0331980e-01   5.7668351e-03
  1.7665260e+00   5.7705655e-03
 -1.5156253e-01   2.8602129e-03
  2.1505441e-01   5.4967962e-03
 -2.8757727e-01   2.7271779e-03
 -3.2734028e-01   2.6847344e-04
  2.2093624e-01   6.5147718e-03
 -4.8283798e-01   1.7156331e-02
  2.0173953e-01   5.4471469e-03
 -1.7826778e+00   6.2117248e-04
 -2.3060834e+00   3.5541276e-03
  1.5992968e+00   2.0745336e-03
  4.2887864e-01   2.2838993e-03
 -2.0549092e+00   2.0300359e-03
  1.0400425e+00   9.7444700e-04
 -3.9651867e-02   1.1498328e-02
  1.1971099e+00   1.8273416e-03
  1.9517664e+00   1.1599977e-03
 -2.4754970e+00   4.2553064e-03
  7.1466190e-01   7.2265239e-03
 -1.3555080e+00   1.9273143e-03
  1.7820846e+00   6.9162878e-04
  3.5892900e-02   2.3211174e-04
  1.4263508e+00   4.3662800e-04
 -2.9747656e-01   2.2681789e-03
 -8.8476491e-01   1.4816637e-03
  1.7026109e+00   1.0532240e-03
  1.6968889e+00   1.2080889e-03
 -2.8455755e-01   6.2083121e-04
 -1.0381713e+00   2.4942104e-03
  1.7080879e+00   5.2508269e-03
  5.3316420e-01   6.6703296e-04
  6.0888475e-01   1.5129512e-03
 -1.1775545e-01   1.0695821e-03
  1.0709757e+00   4.6612006e-03
 -7.5715125e-01   2.2432432e-03
 -9.0110725e-01   1.8933610e-03