  2.0404723e+00   4.8341500e-03
  3.4094656e+00   2.5867042e-03
 -1.4529340e+00   4.5448635e-03
 -1.9165169e+00   9.7196791e-03
  3.8513383e-01   4.7580577e-03
  3.9720458e-01   2.7823273e-02
 -6.7598766e-01   2.3636917e-02
  9.3968821e-01   8.0665182e-03
 -4.8170444e-01   1.4354740e-02
  5.7263196e-02   1.0429162e-02
 -8.9045450e-02   6.9153577e-04
 -1.7365116e+00   1.3363472e-03
 -1.0938843e+00   1.9253804e-03
  1.9829021e-01   3.7187927e-03
  1.8001418e+00   3.5712903e-04
 -6.7588013e-01   9.8552578e-04
 -1.3020889e+00   1.6896416e-03
 -1.1710368e+00   1.0068837e-02
  9.1144568e-01   2.3386437e-03
  1.8231612e+00   8.8549894e-04
 -6.9358909e-01   1.7176864e-03
 -3.2376811e-01   8.2920678e-03
  9.7431332e-01   1.5586112e-03
  1.9460653e+00   8.9080762e-03
 -5.4230320e-01   3.7009676e-03
  3.5310259e-01   9.1583813e-03
 -1.1702814e+00   6.7199464e-05
  7.6334082e-02   2.3327370e-03
  6.5902764e-01   1.7006829e-02
  4.4202113e-01   2.1664698e-02
 -4.6769980e-01   5.4040719e-03
  3.0551592e-01   7.7768662e-03
  1.6520388e-01   4.2766964e-04
 -3.0806068e-01   2.3888221e-02
 -1.2368666e+00   2.4552527e-03
  1.5191399e+00   6.1468896e-04
  1.3243225e+00   5.3284946e-04
  2.8660364e+00   6.9267408e-04
 -1.1328621e+00   2.5836716e-03
  1.0444363e+00   7.1240225e-05
  2.1407642e+00   2.6473487e-03
  1.7827590e+00   2.9359236e-03
 -3.0291502e+00   5.1279052e-04
  6.8750787e-01   1.0183470e-02
 -1.2167372e+00   2.8343467e-04
  2.1723125e+00   1.3908653e-05
  9.4335264e-01   2.0623754e-04
 -1.0860249e+00   9.0376468e-04
  2.3089807e-01   1.7976798e-03
 -8.7074214e-01   4.3551976e-05
  2.0655079e+00   1.2667428e-04
 -2.7905009e+00   2.6910462e-05
 -1.7498568e+00   2.5039772e-04
 -1.9072533e+00   2.0283721e-03
 -4.0874276e-01   3.0247786e-04
  3.7309772e-01   5.2686391e-04
 -2.5336428e+00   2.0152025e-03
  1.7129239e+00   7.1509683e-04
  3.8701242e-01   3.7235883e-03
 -7.0891953e-01   8.4501144e-04
  9.1220665e-01   9.0558933e-05
  4.7537215e-02   8.6002756e-04
  3.2526305e+00   3.0049821e-05
  3.4069266e+00   3.4397837e-02
 -1.4804296e+00   4.2107315e-03
  3.5575232e-01   2.1762394e-04
 -6.8416971e-01   3.6138471e-04
  1.5193180e+00   1.2152217e-03
 -4.3454340e-01   8.4549626e-03
 -1.2255867e+00   2.0442288e-02
  3.3692181e-02   1.8296710e-03
 -1.2755340e+00   7.7188993e-04
  3.0582586e-01   6.2478089e-04
 -1.5032024e+00   2.7872531e-03
  1.4984708e+00   1.4811968e-03
 -1.4374226e+00   1.8481865e-04
  2.3842700e+00   6.8836082e-03
  3.2656389e-01   6.0078166e-03
 -7.6066452e-01   1.5764982e-02
 -1.1460738e-02   1.0516840e-02
 -5.2757406e-01   1.1689237e-03
  5.7772636e-01   6.7642756e-04
  1.2429910e+00   2.4292893e-03
  1.3758520e+00   8.8343201e-03
  1.0296779e+00   3.5033696e-03
  1.4085389e+00   6.9459766e-04
 -2.1095683e-01   3.6809198e-04
 -1.2274348e+00   1.2368568e-03
  6.0850941e-02   3.0524540e-04
  2.6516075e+00   8.3773769e-04
  5.8461374e-01   2.9960726e-03
  2.0335095e+00   2.5552490e-03
  1.2969601e+00   6.2674214e-03
  1.3497992e+00   2.4593957e-02
  2.1344422e-01   5.7828072e-03
 -9.1618918e-02   2.9948924e-04
 -3.5311310e+00   7.4769463e-04
  3.4826645e-01   6.2783766e-03
  1.3541523e+00   8.4142096e-02
  7.9177596e-02   1.2540942e-02
 -3.8455653e-01   3.0850297e-02
 -2.4004070e-01   2.9400431e-02
 -8.6538941e-01   2.7147086e-02
  3.4968928e-01   2.9751740e-02
 -6.6484325e-02   2.2867022e-02
 -2.1289520e+00   4.9822222e-05
 -1.0618041e+00   9.4678224e-05
 -1.6740605e+00   4.9646711e-05
  1.2714893e+00   2.4343382e-03
 -7.4912718e-04   2.2924591e-04
 -2.2225900e+00   1.3633273e-04
  2.3600987e-01   8.0027815e-04
  3.0247591e+00   5.9407204e-05
  3.7604144e-01   5.8324035e-04
  6.2462574e-01   4.7141858e-03
 -2.9052922e-01   5.2208372e-04
  2.5905070e+00   2.9960499e-04
  7.1326882e-01   2.9880513e-04
  3.6365515e-01   8.0147584e-04
 -2.4102329e-01   1.6828405e-04
 -2.7494434e-01   2.4420240e-05
  2.2719712e+00   3.2355430e-04
  2.3982933e+00   2.4447607e-05
  4.6759177e-02   4.2778009e-04
 -3.3542341e-01   5.5021188e-05
 -3.8576946e-01   9.4608346e-04
  1.2302935e+00   2.7596441e-04
  1.1129053e+00   2.6626396e-04
 -8.3973420e-01   1.3906903e-02
  3.3229837e-01   2.1735941e-04
  1.2525481e+00   1.0647903e-03
 -6.5671396e-01   5.4486014e-04
 -2.3505745e+00   4.4180450e-04
 -1.4522887e+00   5.1650446e-04
  3.9849633e-01   4.3798634e-03
  9.3364877e-01   3.0285213e-03
  5.1988727e-01   6.1335890e-03
  1.5374628e-02   7.8853937e-03
  1.2123276e+00   8.8484195e-04
  2.0723754e-01   4.3855193e-03
 -4.3411696e-01   1.7544519e-02
 -1.7331997e+00   8.2636653e-03
  3.6852662e-02   1.2047193e-03
  6.5999649e-02   1.0497161e-02
  5.5563647e-01   4.8794840e-03
  2.5004917e-01   5.8838711e-03
  1.2424220e+00   4.7183737e-02
  2.7860612e-01   3.7957013e-02
  1.1379476e-01   4.9479779e-02
  3.0610022e-01   4.2986620e-02
 -2.2815202e-01   1.6200026e-03
 -1.4768087e+00   2.1432206e-04
 -7.6169825e-01   5.4760184e-03
 -1.5289937e-01   3.7672946e-03
  1.1786115e+00   1.4546622e-03
 -1.6392632e-01   7.4550172e-04
  7.2296143e-01   7.5389893e-04
  1.0975882e-01   1.0086836e-02
 -3.1301525e-01   8.8983290e-02
 -1.3235673e-01   1.8116668e-02
 -1.4907923e-01   2.3066355e-02
  4.1632223e-01   1.1563901e-03
  1.2131517e-01   8.0797821e-03
 -2.8995857e-01   9.1665966e-04
  5.9540933e-01   5.1731333e-02
  1.0228359e+00   3.5669119e-03
  4.3873188e-01   7.6006842e-04
  4.5016390e-01   1.9613057e-02
  5.6058460e-01   2.9341576e-03
 -5.3916770e-01   9.7879535e-03
  4.1072589e-01   2.9377654e-02
  2.7197987e-01   2.9144907e-02
 -1.4244993e-01   5.2119116e-03
 -1.2410063e-01   1.9848362e-02
 -1.1196224e-01   3.6741134e-02
 -1.8008246e+00   9.8146044e-04
 -2.4835591e+00   1.1721334e-03
 -1.8798981e-02   1.2882797e-03
  9.9872112e-02   4.1689948e-04
  1.9325191e+00   4.8341253e-03
 -1.9013417e-01   8.5189828e-04
  4.7477576e-01   7.4843531e-03
  2.1470523e+00   3.0895590e-04
 -3.4994063e-01   8.9329673e-04
  3.6247754e+00   1.7309551e-03
 -2.0832124e+00   3.4467387e-04
 -8.4845906e-01   8.1707642e-04
  2.5663488e+00   1.4862885e-03
 -1.0986669e+00   4.3383245e-03
  1.5996029e+00   8.2026061e-04
 -6.1274010e-01   7.9127436e-04
  1.7829881e+00   6.6074864e-07
  2.9482853e+00   3.0831646e-04
  1.4349125e-01   8.6058341e-03
  2.9504695e+00   2.9952583e-04
  4.1073883e-01   2.9223139e-04
 -9.6123934e-01   7.8725559e-04
 -3.6458102e-01   1.9696555e-03
  1.4919347e-01   4.5497739e-03
  1.8236477e+00   1.0627566e-03
 -3.1222007e+00   2.7443236e-03
  2.0443475e+00   2.2306754e-03
  4.4955906e-01   5.7111918e-03
  2.9949912e-01   2.8424526e-03
  6.4465427e-01   1.0276078e-03
 -4.7425434e-01   2.2485627e-02
 -2.0952015e-01   1.8058317e-03
  9.3607181e-01   8.6239609e-04
 -1.4842968e-02   4.2984355e-02
 -1.3134935e+00   1.4192802e-03
 -1.1234910e+00   9.3896914e-04
 -3.9476886e-01   2.4247874e-04
  1.0342777e+00   4.9773027e-04
  1.3732722e+00   1.0598831e-04
  2.7136345e+00   5.4102442e-03
 -3.4224713e+00   4.0927245e-03
 -2.0344806e-01   1.9385835e-02
  3.5648194e-01   5.1830383e-03
  3.2117745e-01   2.4105420e-02
  1.5557736e+00   1.5935034e-03
  1.7306845e-01   2.4158121e-03
 -1.7069148e+00   8.7024854e-04
 -1.0332991e+00   6.6835126e-03
  9.7158325e-01   2.9785836e-03
  2.1280551e+00   3.1357466e-03
 -2.1091697e-01   2.5101847e-03
 -1.4151075e+00   3.3233734e-03
 -9.1694826e-01   8.8547580e-03
  2.5934770e+00   9.8861608e-05
 -1.4707128e+00   1.9624452e-03
  1.2457839e+00   3.3040147e-03
 -2.6451480e+00   1.5754534e-04
 -1.2869617e+00   1.7046394e-02
  1.9609243e+00   1.8018561e-03
  1.0121338e+00   5.3697382e-03
 -6.5617955e-01   8.2302568e-03
  7.8396821e-01   2.2697211e-03
  3.8866916e-01   1.1988002e-03
  1.6910554e-01   2.4814535e-02
 -3.3103788e-01   5.2963565e-03
 -3.9117098e-01   6.2278185e-02
  5.2053624e-01   1.3569969e-03
 -7.1306559e-03   6.2697115e-03
 -1.5339635e-01   7.2938599e-02
 -8.2831597e-01   1.2763148e-03
 -4.8779888e+00   9.9701392e-05
 -7.7366793e-01   8.3695486e-04
 -3.3231702e-01   1.0904453e-03
  4.6437150e-01   4.6647261e-03
  4.9760461e+00   2.3483867e-03
 -3.4327099e+00   2.3363335e-03
 -2.7498510e+00   7.9392521e-05
  1.5213383e+00   3.4060448e-03
 -1.1495844e+00   5.4765951e-02
  1.5988517e-01   3.9379392e-03
  1.2574519e-01   6.4192823e-04
 -1.7469405e+00   9.3659281e-04
  1.1412749e+00   2.6959132e-03
 -2.0935823e-01   6.1924350e-03
  1.0741374e+00   1.2920801e-04
  4.2771852e-01   7.5626944e-04
 -2.0435212e+00   7.0554146e-04
 -1.0827630e+00   8.6672080e-04
  2.3559115e+00   8.6612423e-04
  1.4179653e+00   7.2925037e-04
  1.0815610e+00   6.3532498e-04
  6.2043256e-01   9.4710308e-04
 -1.3508118e+00   4.4834695e-04
 -8.7975764e-01   4.1720076e-04
  1.6654422e+00   2.1167764e-04
 -4.0919688e-01   2.4510468e-03
 -1.1076822e+00   3.4971060e-03
 -5.6082215e-02   9.6633807e-03
  5.2625094e-02   5.5487193e-03
 -5.3751737e-01   1.1318863e-02
  2.6720455e-01   1.6434094e-02
 -7.6637602e-01   2.7150661e-02
 -4.6487480e-01   2.8707428e-02
 -2.3341931e-01   9.9301543e-03
 -3.0461067e-01   8.5387090e-03
 -1.0914600e+00   5.7152044e-03
  1.9923326e-01   6.4782315e-04
 -2.1494029e+00   4.5809536e-03
  2.5699868e+00   9.8239580e-05
  3.0790693e-01   8.7424100e-04
  5.3020368e+00   1.8529978e-02
  4.8428291e-01   1.1536510e-03
  1.7271014e+00   1.6776692e-02
 -4.6841410e-01   3.2204535e-02
  4.7939272e+00   1.2969642e-02
  6.1073136e-01   5.6489324e-04
  1.3227038e+00   1.8520077e-03
 -1.6690408e-01   1.9731745e-03
  1.6073120e+00   2.0115452e-02
 -4.9224675e-01   5.5565881e-03
 -5.9597212e-01   1.8574276e-03
 -5.4092008e-01   4.0486692e-03
  2.5494283e-01   5.0541339e-03
 -1.2282894e+00   3.6457640e-03
 -1.1737790e+00   2.0580399e-03
  1.7696960e+00   2.7500850e-03
 -5.1684731e-01   2.6204132e-03
  8.0888325e-01   1.7406056e-03
 -9.2234917e-02   2.5485895e-04
  9.3668604e+00   7.2872406e-03
 -2.6576942e-01   5.1072640e-03
  1.4742991e+00   8.4861275e-04
 -1.0475916e+00   1.6156649e-02
  9.1604489e-01   3.2991439e-04
  1.3075924e+00   4.2344462e-03
  1.6328354e-01   8.2794726e-03
 -5.4423475e-01   1.1398561e-02
  6.5586603e-01   3.8887925e-02
 -9.3243748e-01   1.5759747e-02
  2.3928426e-01   7.3134236e-02
  3.5931542e+00   1.9421175e-04
 -3.2877085e-01   1.3826641e-03
 -7.5174999e-01   7.9593639e-04
 -2.2981824e-01   4.0320521e-03
 -2.0192263e+00   2.0649978e-03
 -7.0917231e-01   4.6359021e-03
  2.1740040e-01   3.4814756e-03
  1.9268265e-01   1.7747013e-02
  2.0817722e-01   3.8196679e-02
 -5.5952740e-01   8.9492025e-03
  4.3624136e-01   2.8836597e-03
 -1.5987250e+00   7.0850039e-04
 -3.8510394e-01   1.5918561e-03
  1.1772262e+00   8.4607519e-04
 -1.5382788e+00   5.1070484e-03
 -1.7948889e+00   3.6968412e-03
 -1.3244315e+00   2.2515990e-03
 -8.2468212e-02   9.5584635e-03
 -2.1504257e+00   4.8562343e-04
  4.8958597e-01   2.6326522e-04
  1.2614383e+00   1.1194507e-02
 -9.5694751e-01   8.2010392e-04
  5.8238137e-01   8.8562891e-03
 -3.8239479e-01   6.8658753e-04
 -2.4971454e+00   1.6537856e-03
  2.2143426e+00   1.6668394e-02
  4.3368012e-01   2.9987044e-04
 -6.1749613e-01   1.1105833e-03
 -8.5411650e-01   1.0469979e-04
 -1.8903545e-01   3.2563969e-03
 -6.9481528e-01   1.9896378e-04
  5.6411391e-01   9.7250042e-04
 -3.6661458e-01   1.6590236e-02
  4.3083677e-01   2.1715585e-02
 -1.1796883e-01   1.7820546e-02
  1.4775108e+00   7.0325105e-04
  2.0032840e+00   3.8057670e-03
  8.2579410e-01   9.0687000e-04
 -1.2248186e-01   8.6317100e-03
  3.3364555e-01   1.5292107e-02
  1.7386209e+00   1.6440860e-03
 -4.2070287e-01   2.5416113e-02
  3.8819368e+00   2.2459950e-03
  3.2266930e-02   1.9770421e-03
 -1.3958050e-01   1.5752941e-02
 -1.6477519e-01   3.9789295e-03
  1.0606048e-01   2.4480755e-03
  6.4846611e-01   4.8435903e-03
  1.1412742e+00   1.6688213e-02
  1.0397346e+00   4.0915085e-04
  8.5191798e-01   1.1839227e-04
  4.9141628e-01   3.9947787e-03
 -3.5850561e-01   2.0717215e-03
 -4.9031091e-01   4.0215282e-03
 -8.9964020e-01   5.1360815e-03
  3.2370436e+00   2.2437279e-03
 -1.1252757e-01   1.3245542e-03
 -2.0565461e-01   1.0814517e-02
  1.5342852e-01   9.7496295e-03
  6.5046418e-01   4.8749810e-04
  1.3420265e+00   4.4838464e-04
  3.7704322e-01   7.0819160e-04
  1.5201250e-01   2.4553958e-02
  3.0628128e+00   9.6290729e-05
  2.2823608e+00   4.3291051e-02
  3.2114241e-01   3.3269338e-02
 -1.3759615e+00   2.3412942e-03
  2.7269620e-02   3.6116295e-02
  5.8431429e-01   1.4436571e-02
 -1.4856671e-01   7.9432502e-02
  1.8440228e+00   7.8369034e-03
 -3.1413808e-01   2.7014769e-03
 -1.2277488e+00   9.9480441e-03
  4.5116124e-01   1.4591869e-02
  1.2212496e+00   1.3592654e-02
 -2.2671358e-01   6.6108736e-03
  1.9349135e-01   7.4836267e-03
  8.9016521e-01   7.6183858e-03
  9.7946298e-01   1.3479476e-03
  1.2596239e+00   8.2546128e-03
  5.0233525e-01   4.5648898e-04
  3.0331221e-01   6.0417317e-04
  5.4592967e-01   1.1098213e-02
  4.3863332e-01   8.6879554e-05
  1.7877772e-01   1.1953602e-02
 -1.4188956e+00   8.0915452e-05
  1.9562633e-03   3.9977371e-03
 -4.1416934e-01   8.7301144e-03
 -5.0678939e-01   1.0457702e-02
 -8.1860137e-01   2.4873095e-03
  1.5690024e+00   1.8375965e-02
 -1.6017805e+00   1.7113727e-02
  1.3668486e+00   3.4809543e-04
 -3.2226551e-01   3.2055441e-02
 -7.3719144e-01   1.7003769e-02
  7.1915615e-01   6.2796804e-03
  3.1997075e+00   2.4741387e-04
 -2.3508786e-01   1.5165930e-02
  2.4899743e-01   1.2723560e-02
  8.8171685e-01   2.9956143e-02
  1.1709975e+00   1.2745953e-02
 -3.1129831e-01   5.0260210e-03
  2.6247671e-01   8.9879492e-03
  2.0532098e-02   5.2458763e-02
 -2.1100244e-01   4.1925434e-02
  5.5931902e-01   8.4543979e-04
 -9.4873801e-02   1.2286528e-03
  2.6079597e+00   2.0810433e-03
  7.9980952e-01   7.0144595e-03
 -1.8754492e+00   4.1655805e-03
 -2.8475502e-01   7.4883614e-04
  1.4922136e+00   1.4277156e-02
 -1.7117275e+00   4.7280383e-03
 -1.4187310e+00   6.3739571e-04
  2.0350213e-01   1.0304142e-03
  5.8500648e-01   3.6336351e-04
 -2.5284499e-01   3.8516642e-05
 -3.3262026e-02   2.2248598e-03
  1.5185672e+00   2.0491019e-02
  4.4921544e-01   7.5608166e-04
 -2.0679982e-01   3.8457161e-03
 -1.6216743e+00   8.3342229e-04
  4.2111138e-01   1.0460747e-03
 -5.0539982e-01   1.4795056e-03
 -5.7570195e-01   9.7480236e-04
  1.6486003e+00   2.6355858e-03
 -1.2773782e+00   6.4094545e-04
 -3.6473864e-01   5.6382758e-04
 -9.8012519e-01   2.6676457e-02
 -4.6332642e-01   6.3829073e-03
  7.9231119e-01   7.3906279e-04
 -1.4852248e+00   3.7776800e-03
  2.4323191e-01   9.3385624e-03
 -2.1265483e+00   8.4702507e-02
  3.1451026e-01   3.0705032e-03
  2.4677984e-01   4.8473984e-02
  1.3473431e+00   5.0545767e-02
  1.0011723e-01   3.2140773e-02
 -1.4718132e-01   6.7759156e-02
 -2.8397124e+00   5.9135864e-03
 -3.2825416e-01   1.2465453e-03
 -9.0719974e-01   1.7486417e-03
  1.3644336e+00   3.0470511e-03
  8.5331601e-01   3.7955355e-03
  1.9904253e+00   1.8104557e-03
 -1.2315249e+00   2.1715978e-02
  2.2704671e-01   2.2193266e-03
  5.1450048e-02   2.0794098e-03
 -3.2427105e-01   2.1677623e-03
  1.0016366e+00   1.9417409e-02
  9.9723363e-01   1.0142159e-04
  9.5101845e-01   3.8217768e-04
 -1.8823965e+00   1.5062917e-02
 -5.1093418e-03   2.6329067e-02
 -1.6812135e+00   1.5018673e-03
 -1.2348468e+00   3.6884348e-03
 -1.8795631e+00   2.9818769e-04
 -5.5538244e+00   1.3709371e-02
  1.0119220e+00   1.5768426e-02
 -1.5174161e+00   1.1431031e-03
  7.9031277e-01   1.9826677e-03
  9.2637008e-01   1.5715226e-03
 -6.1416801e-02   6.6044587e-03
 -2.2840741e-01   1.9948699e-03
  5.3069055e-01   1.7448067e-03
  1.7594554e-01   2.4263801e-03
 -2.9799738e+00   1.6621959e-03
  3.1059182e-01   1.0799005e-02
  4.9754900e-01   8.0444664e-02
  4.8375809e-01   3.1234943e-03
 -2.6301026e-02   3.0279929e-02
 -4.6391450e-02   3.7478045e-02
 -3.6294330e-02   9.2241885e-03
 -8.9984924e-01   1.2249871e-03
 -3.9715269e-01   3.3353937e-03
  2.1864821e-01   1.0108345e-02
 -1.2119364e+00   2.1673549e-02
 -3.4283724e-01   1.3856272e-02
  1.4593464e-01   1.3685415e-02
 -2.3239408e-01   5.2661002e-02
 -2.2708692e-01   2.8332327e-02
 -1.3401376e-01   1.7040707e-02
 -1.0599642e+00   1.1307304e-03
  5.9203833e-01   1.8804336e-03
 -4.0447995e-01   2.1824245e-03
 -1.3385901e+00   3.9512231e-03
 -1.2726499e+00   7.3174550e-04
 -4.6018779e-01   5.3740349e-03
  8.0538458e-01   3.0545124e-03
  7.9752910e-01   6.4567453e-03
 -4.2586613e-01   3.3657685e-02
 -4.0181044e-01   1.3970063e-02
  2.5709474e-01   4.3595079e-02
  1.3202317e+00   9.2293611e-03
  1.2999910e-01   3.5313674e-04
  7.3614269e-01   3.0013984e-02
 -9.6601057e-01   7.1190862e-04
 -9.1079931e-04   1.2529485e-02
 -8.3455497e-01   7.1447506e-03
  2.4224669e-01   7.8238100e-02
 -2.1344140e-01   4.5251738e-02
 -9.2630213e-01   3.1432547e-04
 -9.2564844e-02   7.8460149e-02
  2.4631351e-01   6.2979035e-02
 -9.1710240e-01   1.8690221e-02
 -6.5757617e-02   7.1643457e-02
  1.0816963e+00   2.9450797e-03
 -1.3873297e-01   7.9711406e-03
  3.7731233e-01   3.7375465e-02
 -1.1277425e+00   5.4524182e-03
  4.7965658e-01   1.9714986e-03
 -1.8112583e-01   1.0683471e-03
 -1.7582979e+00   2.2391640e-03
  5.7709271e-01   7.2481489e-04
  1.4172925e-01   1.4539094e-03
  2.0077030e-01   1.5415188e-03
 -1.2489796e+00   4.7994419e-03
 -1.4211973e+00   5.4946886e-03
  1.3661803e+00   1.5697118e-02
  3.1486714e-01   1.2526580e-04
  2.5265801e+00   1.6950947e-03
  2.9908762e+00   2.2018750e-03
 -3.3723435e+00   4.8036571e-04
  1.8729045e+00   1.2289888e-02
  1.4412327e-01   5.5433763e-03
 -2.4866011e+00   4.0601561e-04
  1.6266803e+00   9.2725997e-05
  3.1169599e-01   1.0035263e-03
  1.7420318e+00   1.2070922e-03
 -4.6732202e-01   5.7172985e-04
 -2.7309859e+00   1.1069624e-03
  1.7965878e+00   9.2208327e-04
 -9.6953869e-01   4.4334616e-04
 -6.1742145e-01   1.0741634e-03
 -7.1694642e-01   4.2478213e-04
  8.1315535e-01   1.4401054e-03
 -2.5365770e+00   2.0064041e-03
  1.3494794e+00   1.5039858e-03
  1.2380774e-01   1.6497239e-02
 -8.0108082e-01   1.7631411e-03
 -6.6148746e-01   7.3326263e-03
 -3.8431010e-01   5.7265600e-03
 -6.3224232e-01   5.1646086e-04
 -6.1511391e-01   1.4847411e-03
 -5.1857615e-01   3.6851268e-03
 -3.9814550e-01   1.2679155e-03
  1.9023277e+00   1.0840567e-03
 -2.7599833e+00   6.2350323e-04
 -2.5280931e+00   3.1763557e-03
  1.7924427e+00   5.2346154e-03
 -2.1052881e-01   1.9711530e-02
 -3.8229296e-01   7.4273138e-03
 -1.9180098e+00   3.1622159e-03
  1.5759164e-01   6.4692489e-04
  9.5328295e-01   6.2065576e-03
 -5.9904951e-01   1.6700280e-03
  1.3990409e+00   2.7430642e-03
 -7.3256058e-01   9.3629427e-04
  5.7351649e-01   1.8009724e-02
 -6.4470142e-02   3.6985443e-03
 -8.3207294e-02   2.1568537e-03
  2.3507461e-01   5.5504421e-04
 -9.0121794e-01   1.6777028e-03
 -1.2211742e+00   9.2541594e-03
  6.1385375e-01   9.7896019e-04
  3.2727972e-01   2.6425591e-03
  1.3618186e+00   1.5295424e-04
  5.0271647e-03   6.9285217e-03
  7.7793938e-01   6.2440593e-02
 -2.9444879e-01   3.3235182e-03
 -6.3460010e-01   1.4527068e-03
  1.2877734e+00   4.6225018e-03
 -3.8926557e-01   7.4168807e-03
  1.0316771e+00   1.0000000e-01
 -2.4477425e-01   6.5261149e-03
  1.6789219e-01   3.0900603e-02
 -3.0280173e-01   2.9960770e-02
 -9.8758900e-01   1.9654624e-04
  8.9030594e-02   6.3399382e-02
 -4.7845754e-01   3.4415893e-02
 -3.1684449e-01   1.4124404e-03
  1.2756191e+00   1.8027461e-03
 -2.3496926e+00   8.7128376e-04
  1.0194769e+00   1.1257544e-03
 -2.2343049e+00   2.5739576e-04
 -1.3898022e+00   8.0326498e-03
  4.2389068e-01   1.8703812e-03
  6.3706106e-01   1.1715321e-03
 -1.9523008e-01   3.7752104e-03
  9.6015781e-01   2.3939935e-03
 -3.6474650e+00   1.5010682e-03
  2.9739974e+00   1.8532309e-04
  1.0363764e+00   2.0008770e-04
  2.5301620e-01   3.7198957e-02
  1.4023297e+00   5.1066196e-03
 -1.9926413e+00   4.2048679e-04
 -2.4629815e+00   5.4380451e-03
  5.4756349e-01   2.3111817e-03
 -8.3559257e-01   1.4319826e-02
 -2.5300050e+00   9.1963809e-04
 -2.6401358e+00   3.8798683e-04
 -9.1550243e-01   2.2754639e-03
  3.3537328e-01   4.6078102e-03
 -2.9211614e-01   5.6402786e-03
  4.5531598e-01   1.0368940e-02
 -1.1372690e+00   1.4762728e-02
  5.2950090e-01   2.9030780e-03
 -9.8633987e-01   2.5131214e-02
 -1.8393381e-01   6.2154107e-02
  1.4290777e+00   1.4162250e-03
 -5.3604704e-01   1.4664283e-02
  3.7356120e-01   4.6380828e-03
  3.5356969e-01   1.2379657e-02
 -1.0775007e-01   6.1885361e-02
 -2.6142651e-01   2.7936257e-02
 -1.1719512e+00   4.7491696e-03
  4.7279897e-01   3.0663906e-04
  1.6093622e+00   6.5065697e-03
  6.4900273e-01   2.0067235e-02
 -2.5903776e+00   2.8179612e-02
  2.1356508e-01   7.7488231e-03
 -2.6173779e-01   2.2905152e-03
  1.4262478e+00   1.5159408e-04
 -1.0912380e+00   3.5723562e-03
 -9.3040162e-01   5.5141503e-04
 -1.6177359e-01   8.0564216e-04
  3.5035107e-02   2.0001908e-03
 -9.0492517e-02   1.3117746e-03
 -1.7479551e-01   1.0647215e-02
 -3.7751368e-01   1.7602068e-03
  4.3553680e-01   1.7448394e-04
 -7.1269876e-01   2.7480281e-03
  8.8220996e-01   3.3159361e-03
 -2.2180315e-02   2.5599901e-02
 -8.9218700e-01   4.7666137e-03
  4.3359569e-01   3.3538016e-03
  1.6153678e-01   5.4445439e-03
 -8.2444146e-02   1.3358752e-02
 -8.2335961e-01   3.9672898e-03
 -1.0181670e+00   3.0451219e-03
  1.3906538e-01   4.4113928e-03
 -5.2969807e-01   7.7472255e-03
 -3.4528780e-01   6.8225648e-04
 -1.3174136e+00   9.2782266e-03
  1.1375462e+00   7.7046137e-03
  2.6626015e-01   2.7712278e-02
  5.8452255e-01   7.3325913e-04
  8.0691475e-01   4.3436032e-04
  2.7427385e-02   9.8239973e-02
  5.0689650e-01   7.8029431e-02
 -3.7141591e-01   6.6427090e-03
  6.6456300e-01   1.9206640e-03
 -1.9473673e-01   2.8901761e-03
 -1.2223326e+00   6.9347228e-04
 -4.3073729e-01   2.4501462e-03
 -4.0340176e-01   6.7757163e-04
  3.0596697e+00   1.4952688e-02
 -3.8790083e-01   2.4221002e-03
 -4.4178966e-01   4.0625229e-02
 -2.0553496e-01   9.1285614e-04
 -6.3964474e-04   7.4143801e-04
 -2.9127318e-01   1.1714913e-03
 -1.5019214e+00   3.0684571e-03
 -3.8991141e-01   1.0787135e-02
 -8.2271767e-01   1.7056968e-03
 -3.4520051e-01   3.6559347e-03
  4.8077583e-01   2.4065105e-03
  1.0982583e+00   2.0487926e-03
 -3.2254341e-01   3.5140488e-02
  8.5023397e-01   1.5556605e-03
 -1.9356222e+00   2.1264900e-03
 -1.0731403e+00   1.0490692e-03
  1.3414401e+00   1.2239957e-03
 -2.3368685e-02   7.3072221e-03
 -4.0650120e-01   1.9171380e-03
 -1.2570742e+00   1.5093386e-03
 -2.0528443e-01   1.2949185e-03
  1.8615462e-01   3.4577411e-03
  1.3943323e+00   7.9909293e-03
 -3.2404552e+00   1.1392683e-02
 -3.8049099e-01   5.3398008e-03
 -3.4551400e-01   1.0106289e-02
  1.7372236e+00   5.1156436e-03
 -2.0700191e-01   2.3276720e-02
  3.2943204e-01   7.0450245e-05
 -1.0548690e-01   1.8144229e-02
 -6.7237699e-01   4.1932194e-03
  4.7060493e-02   1.4941734e-02
 -5.6993973e-01   2.1377493e-02
  1.0963591e-01   4.4619203e-02
 -7.3129189e-01   6.3567609e-03
 -7.5468045e-01   9.8373438e-04
 -4.4823411e-01   1.2726940e-02
 -1.4803393e-01   2.1734880e-02
 -6.2848276e-01   3.5272609e-04
 -4.4494838e-01   6.3456250e-03
  1.5942427e+00   1.4492795e-04
  1.7834044e+00   4.5313186e-04
  6.9886053e-01   2.2272566e-04
 -1.3119177e+00   4.5422600e-03
  4.8359115e-02   8.7807910e-04
 -5.4789990e-01   6.5580197e-04
 -5.9011646e-02   1.1186080e-02
  8.5490847e-01   2.8066504e-06
 -6.9584811e-01   2.0617016e-02
 -4.2047197e-01   1.1677422e-02
  1.7166486e+00   2.1674267e-03
 -2.8710672e-01   3.4219809e-02
  6.3727695e-01   5.1597352e-03
 -3.0937853e-01   1.2870194e-02
  1.7680705e-01   1.2279955e-02
 -8.5084337e-01   1.5733086e-06
  1.6378595e-01   6.3301727e-02
 -3.1284246e-01   1.9901823e-02
 -2.9639238e-01   8.3187863e-02
  6.1696970e-01   3.1203220e-03
  2.7592641e-01   2.9296771e-04
  5.3752559e-01   6.2281050e-04
 -1.0597377e+00   2.9606023e-03
 -2.4450000e-01   2.4742624e-04
  2.8801281e+00   1.9017253e-03
  7.6802981e-01   4.0886647e-04
 -8.7405217e-01   8.4650598e-04
 -1.0322767e+00   9.1118627e-04
  1.0872717e+00   2.0627519e-03
 -1.6529288e+00   6.2816130e-04
  1.2977176e+00   5.0412309e-03
  1.9481356e+00   7.9043508e-03
 -9.3024977e-02   2.7012527e-02
 -3.9169928e-01   6.0612964e-03
 -2.9700632e+00   2.9146374e-04
 -1.8470073e-01   1.0628024e-04
 -4.5925999e-01   2.6459326e-03
 -5.9208173e-01   3.0972853e-03
 -1.6923399e+00   7.6324749e-04
 -2.2581978e-01   3.1422469e-04
 -9.3401051e-01   3.0686651e-04
 -2.9071739e+00   1.9262469e-04
 -3.9556700e-01   7.3661827e-03
 -5.3330946e-01   1.0787944e-04
  1.2227859e+00   8.8140398e-04
 -5.8225709e-01   1.9507698e-03
  4.5476377e-02   3.0724520e-03
 -7.8815722e-01   5.6771876e-04
 -2.7476842e+00   9.6434444e-05
  6.4707369e-02   2.3908494e-03
  2.3418204e-01   1.5441276e-03
  1.2625802e+00   2.2108951e-03
 -9.1620006e-02   1.1332738e-02
  2.0577276e-01   1.3291925e-03
 -3.9945367e-01   1.3554677e-02
 -8.0833966e-01   1.8790379e-02
 -7.2148092e-02   5.7599120e-02
 -1.2317123e-01   4.2375300e-02
 -8.1519270e-01   3.1968366e-02
  8.8599044e-01   4.3730368e-03
  4.8903030e-01   1.4549656e-03
  2.1656630e+00   8.4916077e-04
 -8.4379822e-01   1.3092897e-03
 -2.6976538e+00   7.3742694e-03
  2.2639751e-02   1.0762984e-02
  5.9559744e-02   1.3605108e-04
 -1.4917426e-01   4.8151566e-03
 -4.1377068e-01   2.4536601e-04
  8.3422565e-01   3.0319649e-03
 -2.4952219e-01   6.8613311e-04
  1.4601895e-01   9.0631144e-04
 -3.8555685e-01   2.8484452e-03
  5.6299514e-01   1.5584264e-02
 -2.1496171e-02   4.6505212e-04
  1.3307058e+00   8.7862165e-04
 -9.9743736e-01   9.4025111e-04
  8.9125818e-01   9.8313484e-04
  4.5715648e-01   3.4743538e-03
 -2.7455909e+00   1.6019680e-03
 -5.2024823e-01   1.9664392e-03
 -4.9930018e-01   2.5351869e-03
 -5.9827924e-01   2.3216666e-03
 -1.2444177e+00   1.5153281e-02
  1.1279434e+00   4.2296881e-03
 -2.6774034e-01   7.1679597e-04
  9.6352243e-01   6.5670401e-04
 -2.6181489e-01   1.5970772e-03
 -1.9220562e+00   1.9586323e-02
  3.4669945e-01   4.1660308e-04
 -4.1662565e-01   7.6709245e-03
  2.0458889e-01   4.8761688e-02
 -7.6746814e-02   3.2599546e-02
 -6.1035329e-01   9.5018052e-02
  7.0059210e-01   2.9737318e-02
  1.0619528e+00   6.0018129e-04
  2.2456969e-01   1.0997011e-05
 -3.6677701e+00   3.7186476e-04
 -1.8675998e+00   3.0437610e-04
  9.0349920e-02   4.9144644e-03
 -1.6312615e+00   2.3046813e-03
  1.0079477e+00   2.0236155e-04
  3.3915445e-01   4.4059652e-04
 -5.9681077e-02   1.9681186e-03
 -2.2548499e+00   3.5659570e-04
 -2.1333609e+00   9.1749753e-05
  6.4288425e-01   8.5144542e-04
 -9.2270333e-01   3.4067847e-04
 -3.7694439e-01   3.2865704e-04
 -8.4210253e-01   6.1924045e-04
 -1.3083727e+00   4.4403030e-04
 -7.4773781e-02   7.7806169e-04
  9.0141666e-01   9.9076214e-04
 -1.0104976e+00   2.1270106e-03
  3.7262323e-01   3.9728385e-04
 -4.9110827e-01   1.8782923e-03
 -5.1298976e-01   1.0125021e-03
  1.6951096e+00   1.5765695e-03
  2.8903399e+00   1.7593151e-04
  2.4164318e-01   2.0730444e-03
 -2.3094547e+00   4.3072938e-03
  1.7814614e+00   2.8425359e-04
  2.7847996e-01   7.2411366e-04
  1.6296781e+00   1.3950411e-02
 -2.4618201e-01   2.5117090e-03
 -6.4102650e-01   1.7548660e-02
  6.6441727e-01   1.6395392e-02
  4.2607200e-01   6.7585870e-04
 -1.8037686e-01   5.3437021e-02
 -8.1422949e-01   3.8737584e-02
 -5.6266415e-01   1.6853580e-03
 -8.7626684e-01   5.9619930e-04
  2.1168845e+00   7.5699354e-04
  6.8739533e-01   6.3557290e-03
  3.1638655e-01   2.9825128e-03
 -2.5016747e+00   5.1046708e-03
 -3.2496982e+00   4.6679289e-03
  2.5405719e+00   5.2120504e-03
  3.4214872e-01   4.6361974e-03
 -5.7684426e+00   1.2703982e-02
 -2.2274064e-01   3.7803198e-04
  2.7466738e+00   5.0612114e-04
  1.1587182e+00   2.4853025e-03
 -8.7972552e-01   8.1827100e-03
 -4.3511410e+00   3.5164885e-03
  1.6235162e+00   5.3499767e-04
 -1.3893179e+00   2.2570600e-04
  1.4485976e+00   5.5875094e-04
 -1.9464345e-01   7.7574295e-03
  1.1314113e+00   2.1420031e-04
 -1.9989325e-02   8.3066995e-04
  8.6998725e-01   1.7603472e-03
 -3.3676329e-01   4.5650410e-03
 -6.7561787e-01   7.2578562e-04
  1.0878985e-01   2.7333281e-04
  1.9912628e+00   1.0555112e-04
 -3.4987906e-01   1.0181887e-03
 -5.6314510e-01   3.9968076e-03
  5.9371746e-01   2.5283687e-03
  2.6272340e+00   7.2837765e-03
  2.3653047e-01   2.1326454e-02
  4.1435072e-01   1.2924091e-02
  1.9395089e-01   1.4640260e-02
  3.7158707e-01   3.8787979e-03
  3.9080876e-01   3.1161539e-03
  2.5332468e+00   3.5276061e-03
 -1.4655510e-01   1.3664220e-03
  3.0073085e+00   1.6379383e-04
  3.0523002e+00   1.2768593e-02
 -3.1125841e+00   1.0025932e-03
 -1.4743091e+00   2.2349395e-04
  2.3471823e+00   1.6755654e-02
 -3.8063538e-01   1.1959953e-02
  1.7612003e-01   6.2586777e-03
  8.8919729e-01   4.5365570e-03
 -2.1470289e+00   3.1865633e-03
 -1.7185575e+00   1.1129623e-03
 -1.4958042e+00   2.2814688e-03
  1.3270184e+00   1.4242467e-03
 -1.5629964e+00   8.0880866e-04
 -2.4102376e-01   7.4893027e-04
  1.0875466e+00   1.9737955e-03
 -5.8858842e-01   1.8563028e-03
 -5.8024383e-01   4.4404902e-02
 -2.8154925e-01   4.5142241e-04
  9.2421496e-01   4.6716488e-04
  9.0706718e-01   1.8029170e-03
 -9.5125765e-01   3.3159847e-03
  4.8534680e-02   5.2058841e-03
 -2.5057480e+00   1.1121647e-03
 -5.8939254e-01   1.7336827e-02
  1.5794427e+00   6.8975142e-03
 -1.4309055e-02   3.8088670e-03
  2.4435003e-01   1.1074477e-02
 -3.0756217e-01   1.1641688e-03
 -3.1911263e-01   2.5323051e-04
  1.3251342e-01   4.4795913e-03
 -3.0277258e-01   9.9962084e-03
  9.5813014e-02   9.7102439e-03
 -1.8021814e+00   2.9336486e-04
 -2.3285303e+00   1.2813437e-03
  1.3994950e+00   7.2586775e-04
  7.1075964e-01   1.4525058e-03
 -1.9739498e+00   1.5596013e-03
  1.0316377e+00   5.2906742e-04
 -6.9668883e-01   4.3902774e-03
  1.1354543e+00   2.2531899e-03
  1.9759073e+00   8.7700551e-04
 -1.5443186e+00   2.0479895e-02
  3.9926216e-01   1.2753403e-02
 -1.2712073e+00   9.0564729e-04
  1.8340305e+00   5.8218220e-04
  3.7304934e-02   2.4385210e-04
  1.4172999e+00   1.7888309e-03
 -2.3242781e-01   1.2658659e-03
 -8.8533562e-01   3.6325742e-04
  1.6981738e+00   8.0333062e-04
  1.7076783e+00   6.8527792e-04
 -2.9527432e-01   8.7926100e-04
 -1.1347450e+00   1.1435456e-03
  1.8950666e+00   1.0906433e-03
  5.4456025e-01   4.3479423e-04
  6.4505941e-01   1.1239912e-03
 -2.0380162e-02   4.2479564e-03
  1.1972669e+00   3.5307670e-03
 -7.9781979e-01   1.6591359e-03
 -9.3317491e-01   1.1560946e-03