  2.3187399e+00   6.6228118e-03
  3.3749945e+00   2.2918060e-03
 -6.6001821e-01   1.1407881e-02
 -1.3560997e+00   2.0914143e-02
  8.8268942e-01   8.4841857e-03
  2.0453744e-01   3.9203498e-03
 -2.0421145e+00   3.2311544e-02
  7.7778614e-01   9.1346288e-03
 -8.0410707e-01   1.1415745e-02
  2.1084195e-01   7.3072282e-03
  8.3390791e-03   1.4913558e-03
 -1.4918365e+00   8.2507208e-03
 -1.1426466e+00   1.6766028e-03
  1.7040372e-01   2.1106265e-03
  1.7896886e+00   7.8049954e-04
 -6.7630774e-01   6.7451282e-04
 -1.2630395e+00   1.3114501e-03
 -1.5777088e+00   7.9039587e-03
  9.7155625e-01   8.5104792e-04
  1.8215652e+00   2.2044745e-03
 -7.0335037e-01   2.7203476e-03
  5.5492496e-01   5.4029408e-03
  1.0039210e+00   4.0834807e-03
  2.5069680e+00   7.9694651e-03
 -5.6472641e-01   1.5024416e-03
 -7.5382489e-01   4.4565820e-03
 -1.1733365e+00   1.7514993e-05
  5.1415257e-02   2.2204674e-03
  3.7683281e-01   1.3063092e-02
  1.2959396e+00   8.4220190e-03
 -4.9990958e-01   2.6531147e-03
  1.5275083e-01   7.0235631e-03
  1.6807435e-01   3.7810323e-04
 -1.2934097e-03   9.6533075e-02
 -1.4532475e+00   1.0265234e-02
  1.5085357e+00   5.1998592e-04
  1.1756347e+00   6.7792652e-04
  3.0445952e+00   9.1433182e-04
 -1.0813875e+00   2.8563370e-03
  1.0425031e+00   1.2149283e-04
  1.9326358e+00   3.7878647e-03
  1.8085314e+00   3.0281693e-03
 -3.0426345e+00   1.2972521e-03
  1.4359926e+00   5.3488421e-03
 -1.2085469e+00   5.0555984e-04
  2.1733122e+00   3.7219444e-05
  9.5007193e-01   1.4255088e-04
 -1.2518536e+00   2.5535678e-03
  3.9853621e-01   3.6493130e-03
 -8.7372571e-01   5.3026200e-05
  2.0662954e+00   2.7359719e-04
 -2.7904673e+00   6.8620757e-05
 -1.7518718e+00   1.3270647e-04
 -1.8506078e+00   2.3185513e-03
 -3.9563751e-01   4.0401952e-04
  4.1444254e-01   2.0762013e-04
 -1.9275517e+00   1.2757262e-03
  1.6784420e+00   1.1100847e-03
  4.6392232e-01   1.4841147e-03
 -7.0964891e-01   7.3461694e-04
  9.1693145e-01   2.9649943e-04
  3.1683400e-02   3.9931765e-04
  3.2525163e+00   1.1721109e-04
  7.7421552e-01   1.7276049e-02
 -1.1901357e+00   4.0297066e-03
  3.5190922e-01   3.6402172e-04
 -6.8649501e-01   4.5845227e-04
  1.6333108e+00   2.3365957e-03
 -3.0968764e-01   3.1000702e-02
 -9.5063019e-01   1.2500447e-02
  3.3320603e-01   8.7909428e-03
 -1.2128400e+00   1.6612450e-03
  3.1731156e-01   5.1057158e-04
 -1.0817480e+00   4.7013559e-03
  1.2955232e+00   3.6589871e-03
 -1.4451040e+00   7.5902419e-05
  2.5365343e+00   5.7795644e-03
  3.5364383e-01   7.0912838e-03
  1.2704134e-01   1.5939377e-02
  9.2633057e-01   1.1534288e-02
 -5.0361681e-01   2.2725544e-03
  5.4321212e-01   1.0216048e-03
  1.2717657e-01   8.8017369e-03
  1.4150220e+00   1.9899331e-02
  8.1074727e-01   8.4683597e-03
  1.2668810e+00   3.3749654e-03
 -2.5555021e-01   1.1801156e-03
 -1.2683215e+00   4.2208671e-03
  4.5474481e-02   1.6329576e-04
  2.3922060e+00   3.4631633e-03
  1.1586416e-01   3.8994756e-03
  2.3491025e+00   9.4300229e-03
  1.0222061e-01   1.4111732e-02
  6.2147504e-01   1.3373455e-02
  8.6329722e-01   6.1793569e-03
 -1.1016741e-01   1.4254882e-03
 -3.5259857e+00   2.7367068e-03
  6.0533494e-01   7.6108160e-03
  9.5158690e-01   2.7329322e-02
 -8.6237675e-01   1.7312400e-02
 -1.0586390e+00   3.8477618e-02
  1.9671291e-02   2.8920883e-02
  5.9440500e-01   2.0536097e-02
 -1.2716907e+00   8.0396704e-02
  1.2827149e-02   3.2323711e-02
 -2.1294127e+00   5.3892727e-05
 -1.0589343e+00   8.4967454e-05
 -1.6769191e+00   6.3049287e-05
  5.7819086e-01   4.5254207e-03
  4.0683472e-03   1.0061175e-04
 -2.2200360e+00   1.0699860e-04
  2.2772127e-01   3.2891397e-04
  3.0298169e+00   8.4507854e-05
  4.0208071e-01   4.9438881e-04
  4.7472245e-01   2.1471367e-03
 -2.9060337e-01   6.7691837e-04
  2.6015542e+00   7.3021837e-04
  7.7837694e-01   1.0559560e-03
  3.4589770e-01   1.7943196e-03
 -2.2998352e-01   2.1541635e-04
 -2.7453226e-01   4.6325440e-05
  2.2899725e+00   3.3383540e-04
  2.3974535e+00   6.8726447e-05
  6.7972846e-02   5.4031186e-04
 -3.3733043e-01   2.8962491e-04
 -2.9580736e-01   9.6194074e-04
  1.2053503e+00   7.8261475e-04
  1.1227375e+00   2.3767968e-04
 -6.5994245e-01   6.9705239e-03
  3.2802266e-01   1.3426332e-04
  1.3815793e+00   1.0277706e-03
 -7.7150434e-01   3.7594859e-03
 -2.3623440e+00   3.5410947e-03
 -1.4514475e+00   1.1418347e-03
  2.7786197e-02   8.8574328e-03
  1.0081309e+00   2.5379502e-03
 -5.0830901e-01   1.9377856e-02
 -3.9045107e-01   1.5007682e-02
  1.1787698e+00   1.1313180e-03
  3.6254624e-01   3.4550156e-03
 -1.0971640e+00   6.5339357e-03
  4.8153672e-02   2.4026856e-02
  1.3313468e-01   4.5408001e-03
 -1.9567047e+00   2.6130201e-02
  4.4626194e-01   5.3017852e-03
  2.5699127e-01   7.6287123e-04
 -3.3864227e-01   2.4606090e-02
  4.8419353e-01   1.4970693e-02
 -1.6375666e+00   2.0321624e-02
  8.3888119e-01   6.4493120e-02
 -2.3175994e-01   1.9188460e-03
 -1.4762800e+00   5.9382868e-04
 -8.2024568e-01   1.0476066e-02
 -1.0552024e-01   2.2772923e-03
  1.1500759e+00   2.4005682e-03
 -1.8452629e-01   5.4095004e-04
  7.2276777e-01   9.8564010e-04
  2.6277900e-01   4.9212324e-03
  6.0169888e-01   3.7911549e-02
  2.2891793e-01   3.7072022e-02
  3.1862217e-01   9.6622128e-03
  4.0677518e-01   1.0202492e-03
  3.9191353e-01   9.9771749e-03
 -3.3517721e-01   2.0530215e-03
  1.0289723e+00   3.1431179e-02
  1.0260566e+00   1.5955167e-03
  4.2085445e-01   7.8900979e-04
  1.8921461e-02   2.4601955e-02
  3.7899268e-01   1.7882155e-02
 -7.4075669e-01   1.0549711e-02
  7.4187553e-01   2.2755984e-02
 -6.7963310e-02   7.3912472e-02
 -3.6378357e-01   3.4844998e-02
 -5.8294076e-01   5.6560405e-02
 -4.3325536e-03   3.7869971e-02
 -1.7826385e+00   6.4757047e-04
 -2.5612781e+00   1.9671058e-03
  5.3571278e-01   2.9738429e-03
  1.0612697e-01   1.5780248e-03
  1.7513970e+00   1.3700916e-03
 -2.1724331e-01   9.5620041e-04
  9.0617456e-02   1.7271463e-03
  2.1484289e+00   1.6434850e-04
 -3.5988075e-01   7.0432015e-04
  3.5537820e+00   1.3831975e-03
 -2.0599306e+00   1.6750528e-04
 -4.8403588e-01   3.5802093e-03
  2.6315932e+00   3.1254198e-03
 -1.2983650e+00   3.1725436e-03
  1.5601816e+00   1.0477210e-03
 -5.8146518e-01   6.3755357e-04
  1.7829623e+00   4.1789503e-06
  2.9500360e+00   4.2394493e-04
  6.6593534e-01   3.0105079e-03
  3.0417655e+00   1.0950865e-03
  4.5562503e-01   7.8552199e-04
 -8.6464065e-01   2.4524704e-03
 -5.1209629e-01   4.9672537e-03
  1.2464549e-01   1.2177878e-02
  1.6524801e+00   1.8440780e-03
 -1.8441796e+00   1.5281472e-02
  3.2356784e-01   7.3422408e-03
  3.4647495e-01   1.4420261e-02
  5.4176409e-02   1.5115596e-02
  6.5266961e-01   1.2028002e-03
 -7.2901160e-01   2.9471373e-02
 -2.2547653e-01   3.5435383e-04
  9.3719214e-01   1.4459894e-03
 -1.0455028e-01   8.6146779e-02
 -1.3992651e+00   1.6864088e-03
 -1.1394790e+00   2.4091424e-03
 -3.9402097e-01   1.5574333e-04
  1.0284696e+00   3.0428937e-04
  1.3774658e+00   3.0424466e-04
  2.3979204e+00   2.9601306e-03
 -3.7492955e+00   1.3103144e-02
 -5.1569569e-01   1.3030016e-02
  4.3755737e-01   1.4537925e-02
  2.2353098e-01   1.9133324e-02
  1.5777782e+00   3.2145937e-04
 -2.7754989e+00   1.7582469e-02
 -1.7810428e+00   3.2799717e-03
  1.8739811e+00   2.9027959e-02
  9.6193188e-01   1.4809036e-03
  1.5269237e+00   6.7240298e-03
 -5.3903365e-01   1.3919621e-03
 -1.6770570e+00   5.6021228e-03
 -1.1155562e+00   2.6318750e-03
  2.5974209e+00   1.7830823e-04
 -1.7243557e+00   3.8235432e-03
 -1.7337487e+00   1.5475309e-02
 -2.6490247e+00   3.7525079e-04
 -1.3824688e+00   3.6284621e-03
  1.9217635e+00   8.7147229e-04
  6.7263979e-01   2.8635941e-03
 -1.2979330e+00   1.0752268e-02
  8.9688736e-01   3.1576823e-03
  2.5443721e-01   3.8182409e-03
 -8.4008828e-02   3.4611583e-02
  5.8247365e-02   9.4474489e-03
  2.9583621e-01   8.0398321e-02
  4.0806979e-01   2.1422233e-03
  6.0859436e-01   1.9575959e-02
 -1.6182566e-01   8.7883726e-02
 -8.0428666e-01   5.9082089e-03
 -4.8754325e+00   1.5646251e-04
 -4.9480194e-01   1.0889906e-03
 -6.8697906e-01   2.5548576e-03
 -3.5940313e-01   4.1435771e-03
  2.5321114e+00   5.2960636e-03
 -3.6057789e+00   2.5884965e-03
 -2.7478645e+00   8.3110455e-05
  1.3191524e+00   1.7569395e-03
 -2.4760246e-01   2.4308000e-02
 -1.8543404e-01   3.6957227e-03
 -6.3480534e-02   6.9455500e-04
 -1.8284143e+00   6.7067565e-04
  1.1476033e+00   7.2228392e-03
  4.7742971e-03   4.3475810e-03
  1.0791088e+00   2.4611689e-04
  3.5758084e-01   1.1523390e-03
 -2.1010442e+00   3.5107174e-04
 -1.0783992e+00   1.4893985e-03
  2.3541176e+00   4.6030831e-04
  1.1329478e+00   2.4345357e-03
  1.0482491e+00   3.0000391e-04
  6.2414497e-01   6.4298348e-04
 -1.3632721e+00   3.7350305e-04
 -9.0617090e-01   4.6706683e-04
  1.6631440e+00   2.7513303e-04
 -8.1613368e-01   2.5103807e-03
 -1.9091446e+00   5.3576948e-03
 -1.2619128e+00   1.9245857e-02
 -4.6454236e-01   3.1311631e-03
  1.7746039e-01   1.6107084e-02
  1.8667164e-01   6.7686131e-03
 -2.8139433e-01   1.2338855e-02
  8.2576925e-01   3.2655645e-02
 -7.4585342e-01   1.5108456e-02
 -1.3418097e+00   1.7952763e-02
 -6.2981510e-01   4.3909885e-03
  1.8730801e-01   9.3648612e-04
 -1.4344344e+00   8.6310059e-03
  2.5740097e+00   1.9828965e-04
  1.9357374e-01   1.9437588e-03
 -1.9070233e+00   2.0672305e-02
  4.4768956e-01   1.2672456e-03
  3.0538353e-01   2.3935426e-02
 -2.3600033e-01   1.5304614e-02
  6.6052818e-01   2.8865971e-02
  5.9188890e-01   8.2493748e-04
  1.2104840e+00   9.8223761e-03
  6.2225389e-01   6.3996990e-03
  2.7725050e-01   3.0164044e-02
 -6.8482590e-01   9.2223398e-03
 -4.5631820e-01   3.3634219e-03
 -4.4193450e-02   1.3949823e-02
  3.2830112e-02   8.6130723e-03
 -9.9898034e-01   4.6975687e-03
 -1.5276313e+00   1.3291809e-02
  1.9724287e+00   5.7452498e-03
  2.7698666e-01   1.1212546e-02
  9.5167357e-01   3.0064029e-03
 -8.9021504e-02   3.6270701e-04
  3.8315401e+00   2.5949452e-02
  8.5957634e-01   1.8394083e-02
  1.5082710e+00   1.6366479e-03
 -1.0234580e+00   1.0469367e-02
  9.1426933e-01   6.0382485e-04
  1.3359392e+00   1.5284378e-03
  4.3876740e-01   6.7819990e-02
 -6.7250943e-01   6.3305600e-03
  1.2978105e-01   8.7029614e-02
 -8.6614895e-01   1.3276522e-02
 -6.7726582e-01   9.1910906e-02
  3.5965059e+00   2.3077687e-04
 -3.0821776e-01   7.2651630e-04
 -7.9069185e-01   1.7655735e-03
 -2.3218063e-01   1.0279203e-02
 -2.0219576e+00   4.5550950e-03
 -8.8587081e-01   3.4625165e-03
  1.6544218e-01   9.1828499e-03
  9.3569517e-01   1.0246348e-02
  1.5156892e-01   3.3704702e-02
 -1.1075007e+00   1.7562697e-02
 -4.8328921e-02   4.3532983e-03
 -1.5901000e+00   3.2130809e-04
 -3.9091641e-01   1.1409672e-03
  1.1933084e+00   5.9204944e-04
 -1.8233632e+00   4.3835086e-03
 -1.8496290e+00   1.1435599e-03
 -1.4162220e+00   1.4936172e-03
 -3.1811375e-02   5.4244143e-03
 -2.1333437e+00   1.8116822e-03
  5.0451654e-01   6.3437811e-04
  7.3235905e-01   5.0585321e-03
 -9.3883842e-01   1.9781976e-03
 -4.9639317e-01   1.7110517e-02
 -3.7459138e-01   6.2387605e-04
 -2.5856836e+00   4.5131953e-03
  3.2223125e+00   3.2669693e-02
  4.3521339e-01   3.6670221e-04
 -2.2488682e-01   9.7513953e-03
 -8.5023803e-01   1.0493820e-04
 -1.9813737e-01   5.6922226e-03
 -6.7975855e-01   1.1863702e-03
  5.6875384e-01   9.6856046e-04
 -9.4627678e-01   5.9320368e-03
  2.5147086e-01   1.6132364e-02
 -1.2717183e+00   2.0606084e-02
  1.4499115e+00   4.7810699e-04
  2.0217364e+00   8.5735263e-04
  7.2989094e-01   1.3362296e-03
 -7.1365041e-01   9.2257662e-03
 -2.2129852e-01   8.1891483e-03
  1.6718769e+00   4.0123020e-03
  7.0205224e-01   9.0014366e-03
  4.1273551e+00   6.4214384e-03
  1.7492047e-02   5.2314163e-03
 -1.5080231e-01   9.1702789e-03
 -4.4832259e-01   2.2986715e-03
  9.7458579e-02   1.4360031e-03
  6.9952822e-01   5.7313866e-03
  1.0083171e+00   5.7138703e-03
  1.0475304e+00   7.6337409e-04
  8.5267776e-01   6.5607841e-05
  8.2531840e-01   4.4835275e-03
 -3.1590652e-01   1.4406764e-03
 -5.8177602e-01   2.1160732e-03
 -1.0038612e+00   9.9160075e-03
  3.2370996e+00   4.2802035e-03
 -1.5350056e-01   7.9500675e-04
 -1.2132967e+00   1.7581612e-02
  6.0924672e-02   3.3785587e-03
  6.6640610e-01   2.3844496e-03
  1.3645322e+00   4.2257641e-04
  4.0486473e-01   2.3254140e-03
  5.3532261e-01   1.7254647e-02
  3.0663419e+00   1.3143315e-04
 -2.6454106e-03   1.2064567e-02
  1.3309592e-01   8.8574871e-02
 -1.3449763e+00   9.7176252e-04
  6.4043969e-01   6.9648072e-02
  6.6413552e-01   5.1001240e-02
  8.2323924e-02   4.4092920e-02
  1.8436551e+00   1.2658855e-02
 -3.4007058e-01   1.5846146e-03
  1.4550963e-01   1.4498552e-02
  2.0069155e-01   1.9651905e-02
  1.2458200e+00   1.2600351e-02
 -1.1004965e+00   1.3831112e-02
 -3.1667095e-02   7.2780824e-03
  1.1645061e+00   3.1952625e-03
  1.0255182e+00   1.1749188e-03
  1.4451284e+00   2.0946851e-02
  5.1454467e-01   6.6293590e-04
  2.7354038e-01   5.9226848e-04
 -6.7085195e-01   1.6043352e-02
  4.3685144e-01   8.4650237e-05
  1.1575013e+00   5.1411404e-03
 -1.4208592e+00   1.3964322e-04
  2.2526622e-02   6.2770243e-03
  7.7935213e-01   1.6768079e-02
 -8.7344396e-01   2.1124369e-02
 -9.5535493e-01   8.8926945e-03
 -2.4488658e-01   3.3751443e-02
  8.4831424e-02   3.9151754e-02
  1.3577693e+00   1.2213305e-03
 -7.3316336e-02   3.0147146e-02
 -2.5924096e-01   2.2236355e-02
  4.8164728e-01   2.4429020e-02
  3.1980360e+00   1.2580708e-04
 -5.1356936e-01   8.9725396e-03
 -2.3411770e-01   4.7740143e-02
  4.5830790e-02   6.5871328e-02
  9.4947070e-01   1.9685527e-02
 -1.3300487e+00   1.9523665e-02
  5.6436162e-02   1.2487967e-02
  4.4541591e-01   7.1112327e-02
 -1.2988969e+00   8.5587762e-02
  5.5825108e-01   2.6285681e-03
 -5.9399355e-02   1.7288266e-02
  4.8120782e-01   1.2816328e-02
  3.0250219e-01   5.2810114e-02
 -5.7905614e-02   4.1293085e-02
 -2.2462946e-01   3.5969741e-03
  1.0373300e+00   4.5728654e-02
 -1.2510310e+00   5.0145607e-02
 -1.4165491e+00   1.0131714e-03
  1.3632394e-01   2.0336506e-03
 -2.9031399e-01   1.6228501e-02
 -2.5394943e-01   5.6374985e-05
 -1.3317050e+00   3.3299796e-02
  5.7328653e-01   4.2018242e-02
  5.7205480e-01   2.5505840e-03
 -5.5159831e-01   1.2138020e-02
 -1.6090425e+00   2.0919451e-03
  1.2745816e+00   3.5673101e-02
 -3.7770715e-01   1.8056140e-03
 -1.4053047e+00   8.7969592e-03
  1.6488054e+00   4.7943788e-03
 -1.2997210e+00   1.7431384e-04
 -3.4732413e-01   2.6010971e-03
 -1.9832656e+00   2.9188963e-02
 -1.0142235e+00   3.0434752e-02
  7.8957349e-01   9.7987149e-04
 -7.2507405e-01   3.9645553e-02
 -1.8189657e-01   2.7002827e-03
  4.5192406e-01   1.9270135e-02
  2.0769218e-02   3.6500932e-03
  1.3316520e-01   1.3088498e-02
  8.1892051e-02   6.9855638e-02
 -9.1438413e-02   6.3823357e-02
 -3.3314791e-01   9.0450540e-02
 -3.1435747e+00   2.6989323e-03
 -2.3823786e-01   1.5788396e-03
 -8.3960176e-01   4.3269875e-03
  7.4872345e-01   7.0287581e-03
  9.9612474e-02   1.1714456e-02
  1.9667726e+00   1.7832454e-03
 -2.1477010e+00   8.8774636e-03
  4.2749944e-01   1.3969267e-02
 -1.8647544e-02   8.8958198e-04
 -4.0280059e-01   2.5192357e-03
  8.7105054e-01   1.7350554e-02
  9.8509693e-01   4.9960846e-04
  9.4499582e-01   2.1529326e-04
 -2.0689151e+00   8.3351843e-03
  7.6011801e-01   1.3835008e-02
 -1.3633837e+00   5.7585766e-03
 -1.2662419e+00   2.3718134e-03
 -1.8877661e+00   2.7216264e-04
 -6.3362832e+00   4.1887574e-02
  1.9310042e+00   1.7517276e-02
 -1.5088125e+00   3.9434796e-03
  8.6221302e-01   1.9185795e-03
  9.5311475e-01   3.3056882e-04
 -4.3789944e-01   1.5178028e-02
 -2.0321410e-02   9.7790761e-03
  5.5469370e-01   3.3211731e-03
 -1.5441549e-01   9.7695915e-03
 -2.9319813e+00   1.7100099e-03
  1.1842815e+00   2.9086084e-03
  3.1936678e-01   3.9325241e-02
  6.1776596e-01   1.2629657e-03
 -4.2572477e-01   1.2725254e-02
 -9.6062827e-01   3.0198514e-02
  6.7269665e-01   2.0740910e-02
 -8.7085527e-01   1.9577804e-03
 -3.3578137e-01   1.8446078e-03
  9.8268819e-01   2.2841305e-02
 -4.6262658e-01   1.7571190e-02
  1.9866067e-01   1.7526787e-02
  1.1139437e-01   1.7704545e-02
 -4.4369039e-01   6.4569265e-02
 -9.0081072e-01   1.2423282e-02
  9.5429383e-03   1.3339726e-02
 -1.0480082e+00   6.4287189e-04
  5.9072030e-01   7.5801188e-04
 -4.7467408e-01   1.6777572e-03
 -1.1224625e+00   3.6994915e-03
 -1.3002285e+00   4.7116037e-04
 -5.3169847e-01   9.5016533e-04
  7.6577979e-01   1.9862587e-03
  1.1780818e+00   1.4031558e-02
  3.7348714e-01   8.8324852e-02
  4.0408966e-01   3.6838472e-02
  6.7622483e-01   1.2216900e-02
  1.4033790e+00   1.4416715e-02
  1.3232680e-01   6.9125596e-04
  6.5896326e-01   8.6949384e-03
 -9.5660710e-01   1.5749233e-03
  2.7661813e-02   8.7603936e-03
 -8.8653678e-01   1.1009496e-02
  2.9854593e-01   3.5713375e-02
 -3.8646156e-01   5.1917430e-02
 -9.3055665e-01   3.9057809e-04
 -4.1287971e-01   2.2712193e-02
 -7.7035844e-01   2.1961788e-02
 -5.4457670e-01   2.2384407e-02
  7.5245164e-02   6.2640108e-02
  1.2071770e+00   4.9275886e-03
 -8.1751578e-02   7.6207840e-03
  8.8335973e-01   4.8620477e-02
 -1.1517239e+00   4.6860040e-03
  1.8526558e+00   9.1099879e-03
 -1.4674784e-01   1.8822403e-03
 -1.7655894e+00   3.2598861e-03
  6.0323763e-01   4.1779378e-04
  1.6048574e-01   2.7104730e-03
  1.8888897e-01   2.4807102e-03
 -1.5917745e+00   3.2846823e-03
 -1.2712134e+00   3.6031429e-03
  1.8474162e+00   1.6792420e-03
  3.1999698e-01   2.5306136e-04
  2.3216112e+00   3.2553135e-03
  3.0481322e+00   1.3515912e-03
 -3.3612494e+00   1.5866465e-03
  1.0960457e+00   1.9018933e-02
 -7.4353409e-01   7.5320993e-03
 -2.5224407e+00   1.2817750e-03
  1.6318902e+00   3.9073644e-04
  2.5524580e-01   7.8439771e-04
  1.7355865e+00   1.6273647e-03
 -5.1685822e-01   1.2831708e-03
 -2.8948026e+00   1.7976919e-03
  1.7856694e+00   5.3767709e-04
 -9.7719169e-01   7.2580628e-04
 -5.7967168e-01   2.3171972e-03
 -7.3459321e-01   1.0010304e-03
  7.4621385e-01   1.6812042e-03
 -2.3178337e+00   3.4849213e-03
  1.4519677e+00   1.3769093e-03
 -2.6616392e-01   9.1670034e-03
 -7.8507733e-01   1.8585739e-03
 -1.0391570e+00   3.8058199e-02
 -3.9078763e-01   7.0010037e-03
 -6.4528859e-01   7.7837158e-04
 -6.4781666e-01   1.9537339e-03
 -4.6387306e-01   7.0587560e-03
 -4.3974173e-01   3.3955888e-03
  1.8794805e+00   7.6412503e-04
 -2.6974566e+00   2.4532808e-03
 -2.1268668e+00   1.6434867e-02
  1.7975589e+00   4.4562700e-03
  1.6171730e+00   3.6554370e-02
 -3.6130935e-01   1.5284314e-02
 -1.7534338e+00   8.3268080e-03
  1.6005675e-01   1.1675952e-03
  9.7825652e-01   3.2051455e-03
  1.2191787e-01   9.6026985e-03
  1.6268197e+00   1.3118387e-02
 -7.5961363e-01   1.5981641e-03
  7.1413839e-01   1.5790729e-02
  4.5884311e-01   6.9604367e-03
  9.5464267e-02   4.9483627e-03
  2.0447978e-01   1.7311579e-03
 -8.8360053e-01   1.5087961e-03
 -6.4075321e-01   2.4298919e-02
  6.3847136e-01   2.0118791e-03
  1.3394658e-01   4.3138023e-03
  1.3774576e+00   6.6603499e-04
 -2.3336627e+00   4.5548126e-02
  2.0468280e+00   7.7495493e-02
 -3.6850986e-01   1.2116791e-02
 -6.9263089e-01   1.0821784e-03
  7.6273561e-01   2.5247924e-02
 -2.3904407e-01   5.3765681e-03
  6.9348228e-01   6.7607038e-02
 -1.4520729e-01   6.6893354e-02
 -4.1699076e-01   2.2442909e-02
  8.1763542e-01   2.8090421e-02
 -9.7611004e-01   1.0865456e-03
  1.1959647e+00   6.5907948e-02
 -7.2171170e-01   4.8581354e-02
 -3.0836171e-01   8.9575432e-04
  1.2057619e+00   1.9242277e-03
 -2.3329384e+00   1.1397456e-03
  1.0706190e+00   3.2069974e-03
 -2.2377586e+00   3.0549453e-04
 -1.6768746e+00   1.6379338e-02
  4.3963638e-01   1.0636017e-02
  7.1177888e-01   2.3144607e-03
 -2.0013559e-01   3.7302335e-03
  9.9099684e-01   4.2718812e-03
 -3.6559551e+00   2.3622217e-03
  2.9828241e+00   1.0649202e-04
  1.0254607e+00   4.8632329e-04
 -2.1826017e+00   1.2469318e-02
  2.0867019e+00   6.8764137e-03
 -1.9909869e+00   8.8015519e-04
 -1.6541744e+00   3.7818169e-03
  2.0019685e-01   1.0416041e-02
 -5.9610778e-01   7.0931939e-03
 -2.4603245e+00   5.9645023e-04
 -2.6247191e+00   2.7112622e-04
 -7.3574942e-01   5.5631399e-03
  1.1386822e-01   1.1368212e-02
 -4.9995208e-01   1.2201562e-02
 -1.6142833e+00   1.8042944e-02
 -2.2382019e+00   1.1340003e-02
  7.8120887e-01   8.1251552e-03
 -1.1024587e+00   2.4435423e-02
  4.2648518e-01   4.0547207e-02
  1.4586364e+00   7.8616926e-04
 -6.4003611e-01   1.5582220e-02
  4.0843323e-01   6.1891470e-03
 -1.3642647e+00   3.1798322e-02
  2.7770492e-01   4.5059264e-02
 -6.6670936e-01   1.5201634e-02
 -1.2985046e+00   1.4942724e-02
  4.7127432e-01   2.9945193e-04
  7.3786896e-01   7.5638168e-03
 -2.9846033e-01   1.6656566e-02
 -8.9063519e-01   1.7431164e-02
 -4.2322406e-01   9.2547536e-03
 -9.7771704e-02   5.1798709e-03
  1.4326735e+00   4.0690761e-04
 -1.1029218e+00   9.8010583e-04
 -9.4698799e-01   1.0488501e-03
 -1.9466786e-01   7.7544386e-04
  1.1813458e-02   1.0811895e-02
 -1.0436720e-01   2.9112375e-03
 -2.7500871e-01   3.8008802e-02
 -3.7086838e-01   1.2385513e-03
  4.4702861e-01   4.2062323e-04
 -1.0380616e+00   4.4192160e-03
  8.1337696e-01   6.0922578e-03
 -7.2501934e-01   2.1525899e-02
 -7.0265025e-01   4.6778768e-03
  1.4219255e+00   1.7344242e-02
 -6.2011814e-01   1.1510022e-02
 -9.4127923e-01   2.2089969e-02
 -8.6484152e-01   5.3949715e-03
 -1.1324939e+00   4.3249261e-03
  5.8367300e-01   1.8754151e-02
  1.9418329e-02   1.5600337e-02
 -3.7557939e-01   4.5416440e-04
  6.7972070e-01   3.4166757e-02
  2.6735967e-01   2.1289593e-02
  7.7731907e-01   1.7250504e-02
  5.8255529e-01   4.7064507e-03
  8.0944848e-01   2.1373017e-03
  1.2626553e-01   3.3701696e-02
 -4.8146102e-01   7.8515030e-02
 -5.2977031e-01   2.1254018e-02
  6.8034410e-01   4.8754546e-03
  7.7696249e-02   1.7993021e-03
 -1.2044001e+00   3.1168987e-03
 -4.9827215e-01   7.8650275e-03
 -4.9658978e-01   1.0468039e-03
 -4.3684113e-01   1.7292421e-02
 -4.2374858e-01   2.4841863e-03
  1.8630734e-01   3.2074381e-02
 -2.0023561e-01   4.3455503e-04
  3.9775845e-01   6.0815266e-03
 -2.1832094e-01   9.1986090e-04
 -1.3480240e+00   7.3155551e-03
  4.4637632e-01   7.2396980e-03
 -8.6275870e-01   6.7251809e-03
 -2.7845377e-01   7.7373963e-03
  4.8633566e-01   4.8519727e-03
  3.9133573e-01   6.6856225e-03
  9.9607550e-02   4.0460080e-02
  1.7709391e+00   4.4052545e-03
 -5.1752853e-01   7.3086424e-03
 -9.7342891e-01   1.4639010e-03
  1.3461241e+00   1.7264675e-03
 -1.8093012e-02   3.4348164e-03
 -4.3893072e-01   1.0141801e-02
 -1.1002924e+00   1.1522742e-02
 -2.2511367e-01   2.2517669e-03
  3.5653576e-02   1.5101815e-03
  1.4731590e+00   1.0588420e-02
 -7.8842891e-03   2.5320254e-02
 -8.8311625e-01   1.7460806e-02
 -5.5935569e-02   1.6776560e-02
  1.6985813e+00   8.7891910e-03
 -1.1967492e+00   3.3994664e-02
  3.3399644e-01   1.6336907e-04
 -1.0750140e+00   1.2192707e-02
 -1.6192060e+00   2.5184020e-02
  7.7125174e-01   1.1212473e-02
  4.9124259e-01   3.5148326e-02
  1.3262876e+00   5.5867389e-02
 -6.2570858e-01   1.1600033e-02
 -7.7070439e-01   2.1053269e-03
  6.7107633e-02   2.0801188e-02
 -8.2763922e-01   2.9720627e-02
 -6.2298822e-01   5.1829475e-04
 -3.7487516e-01   2.6519231e-03
  1.5891140e+00   2.9216448e-04
  1.8309991e+00   3.2762038e-03
  6.6425574e-01   7.6195947e-04
 -1.4934264e+00   3.1623030e-03
  2.0487230e-02   1.0333821e-03
 -5.6737751e-01   2.8624412e-04
  5.0235909e-01   1.3335011e-02
  8.5477805e-01   8.8710367e-06
 -8.6321557e-01   8.8091269e-03
 -1.9721419e-01   2.6790949e-02
  1.7522085e+00   5.9235137e-04
 -1.6902949e-01   1.4297507e-02
  5.9530568e-01   2.4460922e-03
 -1.3349680e+00   8.6572152e-03
  1.3328941e-01   9.2565157e-03
 -8.5086668e-01   2.4454512e-06
 -3.8536376e-01   6.7487799e-02
  1.7106223e-01   3.1289559e-02
 -1.7688909e-01   3.6850240e-02
  7.5776196e-01   3.4690185e-03
  2.4582893e-01   1.2790946e-03
  5.3890008e-01   1.2068823e-03
 -1.0596538e+00   2.1704643e-03
 -2.2304532e-01   7.0379674e-04
  2.9966049e+00   5.3549898e-03
  7.5484502e-01   1.5282563e-03
 -8.6856180e-01   1.4707545e-03
 -1.1898718e+00   2.6245282e-03
  3.4947389e-01   5.4692286e-03
 -1.7224607e+00   5.6582480e-03
  3.8461886e-02   3.8775722e-03
  2.2918773e+00   1.5291832e-02
 -5.0767487e-01   1.7547142e-02
  4.0447220e-01   7.5070532e-03
 -2.9870675e+00   7.6865172e-04
 -1.7675021e-01   1.9258189e-04
 -7.4659652e-01   4.1212598e-03
 -5.8837068e-01   3.0948732e-03
 -1.7083677e+00   2.0086714e-03
 -2.3920080e-01   4.5783399e-04
 -9.1616851e-01   8.0101192e-04
 -2.9048367e+00   1.5113324e-04
 -3.4130067e-01   4.9948846e-03
 -5.3471750e-01   2.3884411e-04
  1.2542714e+00   1.6214007e-03
 -4.4542950e-01   2.9378878e-03
 -2.0989425e-01   7.2390866e-03
 -7.8469557e-01   1.3490666e-03
 -2.7531626e+00   3.5272283e-04
 -3.1579316e-02   3.6973685e-03
  2.9184666e-01   7.5305561e-03
  1.6231598e+00   7.8674387e-03
 -5.1679987e-01   8.4230201e-03
  1.0698185e-01   2.4592499e-03
 -9.1823488e-01   1.0031475e-02
 -7.8173786e-01   4.7125649e-02
 -1.3384671e+00   4.0010989e-02
 -2.3086457e-01   3.9513905e-02
 -5.3829402e-01   3.4716159e-02
  1.0481960e+00   3.2984414e-03
  3.6246404e-01   1.6191059e-03
  1.7782044e+00   4.9127620e-03
 -1.0561503e+00   1.9932389e-03
 -1.8929076e+00   6.1705885e-03
  8.0571091e-01   6.2314002e-03
  5.6857448e-02   3.5458128e-04
 -5.0839806e-01   1.2901368e-02
 -3.9517602e-01   4.8429714e-04
  9.3873161e-01   1.2244869e-02
 -2.8162757e-01   1.3538345e-03
  1.6412009e-01   7.2484300e-04
 -1.6187222e-01   2.0200161e-03
 -1.4197770e+00   2.0122925e-02
  1.3832116e-02   2.5869985e-03
  1.3792744e+00   1.0099554e-03
 -1.0001918e+00   2.1693194e-03
  8.0855095e-01   2.3288473e-03
 -1.6087152e-01   2.7695797e-02
 -2.6959641e+00   2.7898212e-03
 -4.2558542e-01   1.9473385e-03
 -1.1326883e+00   2.6656736e-03
 -5.6661594e-01   1.5838200e-02
 -8.2177854e-01   1.0389927e-02
  1.0857048e+00   9.2874365e-03
 -1.2243567e-01   1.7467309e-03
  9.1424209e-01   2.1991027e-03
 -3.1592044e-01   8.9627821e-03
 -1.0375403e+00   3.6968879e-02
  3.4193441e-01   4.2099890e-04
 -3.6409852e-01   1.7899934e-02
  3.0325216e-01   4.1607805e-02
 -2.1341296e-03   3.7945721e-02
 -1.2746210e-01   7.5462662e-02
  5.5628663e-01   9.8124243e-02
  1.0403244e+00   1.2854694e-03
  2.2471960e-01   2.5638597e-05
 -3.6903331e+00   8.7939866e-04
 -1.8728782e+00   2.0855803e-04
 -4.9084490e-03   1.7395815e-03
 -1.5496510e+00   1.6964090e-03
  1.0000306e+00   6.5876782e-04
  3.4681767e-01   3.5113838e-04
 -5.1446155e-02   2.7420849e-03
 -2.2116611e+00   9.0161379e-04
 -2.1462045e+00   6.4247660e-04
  5.7457632e-01   8.3630037e-04
 -1.0125157e+00   9.6511637e-04
 -3.8511530e-01   3.4682229e-04
 -8.2608205e-01   1.0321786e-03
 -1.3072625e+00   4.2634972e-04
 -3.5506979e-02   1.9199047e-03
  9.6559739e-01   4.2940723e-03
 -9.8800480e-01   2.4239239e-03
  3.6281937e-01   3.3292983e-04
 -1.1066482e+00   5.8195717e-03
 -4.1276076e-01   2.0278944e-03
  1.7618127e+00   1.8914415e-03
  2.8961570e+00   3.4278882e-04
  1.3070192e-02   4.2629912e-03
 -2.6062729e+00   8.0443290e-04
  1.7593188e+00   6.0781016e-04
  2.7597415e-01   8.4129319e-04
  6.6784477e-01   1.0902080e-02
 -2.5962633e-01   2.3031987e-03
 -1.1010618e+00   3.5586134e-02
  1.1470834e+00   9.0704141e-03
  3.4620485e-01   6.4975335e-03
 -4.0727976e-01   5.7638552e-02
  6.8276471e-01   3.6923498e-02
  3.6709699e-01   1.0482046e-02
 -8.8249993e-01   5.4425019e-04
  1.9290450e+00   2.5167693e-03
  1.9004089e+00   2.8812135e-02
  4.0078264e-01   9.4292760e-03
 -1.8025788e+00   2.2820124e-02
 -1.3212736e+00   3.0975766e-02
  2.6444340e+00   2.2142833e-02
  4.7601029e-02   6.9217482e-03
 -7.3442817e+00   5.2071296e-02
 -2.5509852e-01   1.5811269e-03
  2.7321303e+00   8.2464522e-04
  8.7017208e-01   5.4342221e-03
 -1.2123314e+00   3.5676009e-03
 -4.2425299e+00   7.7358685e-03
  1.6060818e+00   3.9472239e-04
 -1.3918592e+00   4.0312490e-04
  1.4556708e+00   1.2815828e-03
 -1.9361019e-01   2.4875426e-03
  1.1326041e+00   8.3214475e-04
 -5.8508545e-02   2.0064677e-03
  5.8027381e-01   2.2727400e-03
 -1.4494725e-01   7.8214388e-03
 -6.7913270e-01   1.0050420e-03
  8.7073155e-02   1.5731456e-03
  2.0011892e+00   2.8124894e-04
 -4.5108277e-01   3.0596657e-03
  3.9064605e-02   1.4311274e-02
  7.3678011e-01   2.4176079e-03
  1.8681792e+00   1.0494985e-02
  1.6875644e-01   2.1495018e-02
  1.2341087e+00   1.4953652e-02
  8.0508107e-01   1.3036764e-02
  3.8662422e-01   1.4628314e-03
  4.0809578e-01   2.3302734e-03
  2.6973867e+00   7.5134966e-03
 -1.4224510e-01   1.8443522e-03
  3.0043769e+00   2.5128399e-04
  1.1282707e+00   1.5262973e-02
 -3.1268280e+00   3.7049665e-04
 -1.4772186e+00   3.6448953e-04
  2.6215312e+00   7.1865777e-03
 -1.6137513e+00   2.3958880e-02
  5.3297156e-01   1.2647760e-02
  7.4194050e-01   2.3085410e-03
 -2.3731782e+00   2.3464230e-03
 -1.7114775e+00   7.7818672e-04
 -1.5335106e+00   1.0544397e-03
  1.3477914e+00   2.9359017e-03
 -1.5502715e+00   3.5066805e-03
 -2.1147981e-01   6.7873520e-04
  1.0853654e+00   8.2936417e-04
 -6.3167828e-01   1.0902545e-03
 -4.8512849e-01   7.4861925e-03
 -2.7751839e-01   1.2478863e-03
  9.2561543e-01   2.4900559e-04
  9.1548622e-01   2.1250241e-03
 -1.1513025e+00   3.8304043e-03
  2.4344692e-02   6.7884666e-03
 -2.8304522e+00   3.4606543e-03
  4.9153408e-01   5.3552776e-03
  1.7078340e+00   3.5636963e-03
 -1.1938042e-01   6.7307106e-03
  1.7215271e-01   8.6154323e-03
 -3.1149074e-01   4.3742149e-03
 -3.2948136e-01   4.1524722e-04
  3.8589752e-01   1.1811633e-02
 -3.7992534e-01   8.4443986e-03
  1.6468218e-01   3.3339376e-03
 -1.7649033e+00   5.8656954e-04
 -2.2856364e+00   2.2354501e-03
  1.7254578e+00   1.6159613e-03
  2.8191504e-01   3.3874728e-03
 -2.0309482e+00   1.3853351e-03
  1.0275245e+00   5.3642184e-04
  2.6358464e-01   9.2746522e-03
  1.1544789e+00   9.2811213e-04
  1.9522715e+00   7.9903397e-04
 -2.4404464e+00   4.1498621e-03
  7.4265945e-01   1.0035548e-02
 -1.4439987e+00   8.0390100e-04
  1.7397553e+00   1.0653776e-03
  3.2649856e-02   2.0271800e-04
  1.4283546e+00   3.3855805e-04
 -2.2556062e-01   2.9771440e-03
 -9.0493757e-01   1.1264840e-03
  1.6766533e+00   6.0959463e-04
  1.6800247e+00   1.1113624e-03
 -2.8320879e-01   5.0681416e-04
 -1.1095729e+00   2.8203952e-03
  2.0532226e-02   6.9206059e-03
  5.5041093e-01   5.8139756e-04
  5.4900086e-01   2.4600974e-03
 -1.1594054e-01   6.1096268e-04
  8.5545671e-01   6.3808453e-03
 -7.8761864e-01   2.1265049e-03
 -8.9944488e-01   2.1229442e-03