  2.2666593e+00   6.0385810e-03
  3.3703091e+00   1.7058736e-03
 -1.1666315e+00   4.7826963e-03
 -1.6123459e+00   1.8354017e-02
  7.9111159e-01   1.0805924e-02
  1.7377302e-01   7.4139875e-03
 -1.9677790e+00   2.5313022e-02
  9.6912038e-01   1.0727049e-02
 -8.3508635e-01   1.0372255e-02
  1.0442465e-01   6.6194921e-03
 -1.9510914e-02   8.0452848e-04
 -1.4688152e+00   7.6972274e-03
 -1.1559099e+00   2.5894057e-03
  1.3855287e-01   2.0227865e-03
  1.7946743e+00   4.3722018e-04
 -6.8193132e-01   9.7007793e-04
 -1.2765411e+00   1.0972919e-03
 -1.3751775e+00   7.9916306e-03
  9.5206213e-01   2.4737257e-03
  1.7983057e+00   1.9616745e-03
 -7.1469724e-01   3.5441825e-03
  2.5085935e-01   7.6406524e-03
  9.9647665e-01   3.0608638e-03
  2.3283923e+00   7.0746616e-03
 -5.7770735e-01   2.2848549e-03
 -7.2354299e-01   7.6126638e-03
 -1.1727979e+00   1.5968189e-05
  1.1027521e-01   1.7081116e-03
  3.4156865e-01   2.0956321e-02
  1.4406767e+00   1.7649984e-02
 -5.4171938e-01   2.3456686e-03
  2.0249055e-01   6.6921581e-03
  1.6850615e-01   3.9846631e-04
 -2.8327230e-01   8.0966555e-02
 -1.3759311e+00   7.8789685e-03
  1.5104879e+00   3.3468875e-04
  1.2281563e+00   1.2060872e-03
  2.9704728e+00   8.6058915e-04
 -1.1726215e+00   3.1280837e-03
  1.0417042e+00   1.4785091e-04
  2.0236232e+00   3.3166823e-03
  1.7604234e+00   3.5553384e-03
 -3.0406561e+00   1.2293205e-03
  1.3032907e+00   6.3476055e-03
 -1.2207793e+00   4.4212534e-04
  2.1727648e+00   2.2012942e-05
  9.4780666e-01   1.6640908e-04
 -1.1711836e+00   2.0694949e-03
  4.0910825e-01   2.9704790e-03
 -8.7544650e-01   1.2285427e-04
  2.0633056e+00   1.8458092e-04
 -2.7907889e+00   5.8051432e-05
 -1.7516038e+00   2.0181660e-04
 -1.8817625e+00   9.7580528e-04
 -4.0131024e-01   3.9098409e-04
  4.0401438e-01   3.4012483e-04
 -2.1293962e+00   2.0247225e-03
  1.6757880e+00   1.8598831e-03
  4.4727764e-01   1.3924344e-03
 -7.0572108e-01   4.1740999e-04
  9.1478181e-01   1.8941305e-04
  3.6259927e-02   9.8288304e-04
  3.2519982e+00   6.7325775e-05
  1.7236042e+00   1.5289739e-02
 -1.2763221e+00   5.0517889e-03
  3.5669541e-01   4.4166658e-04
 -6.8865031e-01   4.0579663e-04
  1.5674319e+00   2.3623940e-03
 -7.9984611e-01   2.7417464e-02
 -1.0703065e+00   2.9139368e-02
  2.2716309e-01   8.0920020e-03
 -1.2539598e+00   1.6909004e-03
  3.1703383e-01   4.0458670e-04
 -1.1979192e+00   7.1372651e-03
  1.3436925e+00   4.5489888e-03
 -1.4446689e+00   1.5072757e-04
  2.4520936e+00   3.6710303e-03
  3.8531259e-01   3.5929594e-03
  5.3612228e-02   2.4273057e-02
  7.4052179e-01   7.1226782e-03
 -4.8863596e-01   2.5240341e-03
  5.3958571e-01   4.3170745e-04
  7.4125230e-01   6.0660825e-03
  1.9931206e+00   1.5525282e-02
  9.1621065e-01   5.2346024e-03
  1.3955110e+00   3.0211806e-03
 -2.3315446e-01   9.8815071e-04
 -1.2576978e+00   2.2699009e-03
  4.9896792e-02   2.1523453e-04
  2.5466177e+00   3.0612422e-03
  2.4224839e-01   2.2341853e-03
  2.1386149e+00   5.2667293e-03
  4.5254615e-01   1.0387496e-02
  4.4328582e-01   1.4557747e-02
  7.7413154e-01   6.8192901e-03
 -1.1819481e-01   1.0018008e-03
 -3.5303607e+00   1.2965264e-03
  5.6246108e-01   7.0192325e-03
  1.5600474e+00   7.5850911e-02
 -6.2729239e-01   8.4825512e-03
 -6.2303305e-01   3.5869904e-02
 -4.4690412e-01   2.4174053e-02
  3.2362962e-01   1.9317329e-02
 -6.3985741e-01   8.8515557e-02
  5.4647511e-01   2.7584700e-02
 -2.1285474e+00   5.2754636e-05
 -1.0590978e+00   8.4246421e-05
 -1.6747842e+00   9.4861178e-05
  9.7687584e-01   4.0208455e-03
  1.9650382e-03   1.7335263e-04
 -2.2195716e+00   1.9003516e-04
  2.3037721e-01   4.5220641e-04
  3.0272579e+00   6.5659304e-05
  4.0372911e-01   5.3691433e-04
  5.2598536e-01   3.3297574e-03
 -3.0384195e-01   7.5049180e-04
  2.5894361e+00   5.4525124e-04
  7.3173088e-01   8.0514426e-04
  3.0411768e-01   2.1739521e-03
 -2.3446374e-01   2.9061170e-04
 -2.7490103e-01   4.3417112e-05
  2.2816012e+00   2.6715489e-04
  2.3976591e+00   4.7560698e-05
  6.6804796e-02   4.3000971e-04
 -3.3741778e-01   2.7194698e-04
 -3.0995971e-01   1.3238761e-03
  1.2134873e+00   5.4811768e-04
  1.1172969e+00   1.3709361e-04
 -1.2549515e+00   8.0947801e-03
  3.2776788e-01   1.4060111e-04
  1.3373402e+00   1.1385917e-03
 -6.5424699e-01   3.9147283e-03
 -2.3597088e+00   3.7578782e-03
 -1.4502951e+00   8.7200187e-04
  1.9445255e-01   6.6519128e-03
  1.0119644e+00   3.2404859e-03
  7.9835095e-02   1.2756806e-02
 -1.3923204e-02   1.5847972e-02
  1.2185881e+00   1.1211927e-03
  2.4566029e-01   2.7227108e-03
 -7.3125368e-01   9.3702842e-03
 -1.0944210e+00   5.1295850e-02
  1.0460008e-01   1.7264358e-03
 -1.5242164e+00   2.7442416e-02
  4.4171518e-01   4.7375276e-03
  2.4657829e-01   1.3201551e-03
 -4.5614365e-01   1.5875537e-02
  5.3152132e-01   1.8061021e-02
 -1.5061533e+00   2.2896420e-02
  8.3749974e-01   5.0323073e-02
 -1.9569553e-01   2.2052175e-03
 -1.4781581e+00   4.4275384e-04
 -7.8361934e-01   7.3744901e-03
 -1.3356681e-01   2.4178815e-03
  1.1798788e+00   1.9347997e-03
 -1.9076930e-01   8.4456318e-04
  7.2470790e-01   4.0509304e-04
  3.0401474e-01   4.0144934e-03
  9.3051350e-01   4.6046738e-02
  7.3137784e-01   2.5092429e-02
  5.3181320e-02   1.6412480e-02
  4.2027590e-01   1.2768795e-03
  3.3380872e-01   6.9152419e-03
 -3.5758194e-01   1.6539604e-03
  1.3480126e+00   2.4120891e-02
  1.0179154e+00   2.5767165e-03
  4.2758191e-01   5.1202159e-04
  1.5385035e-01   1.7946193e-02
  4.8564988e-01   1.5737357e-02
 -5.3385282e-01   7.6996395e-03
  4.2893237e-01   1.7295796e-02
  1.9766590e-01   8.7507956e-02
 -2.4261679e-01   1.5031242e-02
 -6.4186096e-02   4.1395061e-02
  2.2853382e-01   4.2138688e-02
 -1.7869533e+00   9.3340722e-04
 -2.4461462e+00   1.8523480e-03
  8.9410134e-02   2.8306460e-03
  9.9248417e-02   7.0126337e-04
  1.7192621e+00   2.1835731e-03
 -2.0845033e-01   9.7526493e-04
  1.1531325e-01   3.7541392e-03
  2.1487215e+00   1.9007124e-04
 -3.5415184e-01   9.0903125e-04
  3.5248120e+00   9.8098686e-04
 -2.0676892e+00   3.6145654e-04
 -8.2927907e-01   1.8073533e-03
  2.5719917e+00   4.3333382e-03
 -1.1948274e+00   2.7075561e-03
  1.5782969e+00   8.5982424e-04
 -5.9812486e-01   4.9818459e-04
  1.7830216e+00   1.6816749e-06
  2.9426520e+00   3.1045554e-04
  5.4746205e-01   3.9577461e-03
  2.9909043e+00   9.7293616e-04
  4.4915259e-01   8.2285766e-04
 -9.2290193e-01   1.4330136e-03
 -4.5960811e-01   3.1866587e-03
  2.0434743e-01   6.1787469e-03
  1.7142646e+00   1.6338732e-03
 -2.9631193e+00   6.0647181e-03
  1.5189747e+00   7.3861601e-03
  1.8569186e-01   1.0409839e-02
  2.0173492e-01   3.8321558e-03
  6.3265699e-01   1.5658758e-03
 -3.0099055e-01   3.1038091e-02
 -2.3536533e-01   5.0357624e-04
  9.3212146e-01   8.6469908e-04
 -5.2219218e-01   6.6121027e-02
 -1.4151809e+00   2.8742694e-03
 -1.1061264e+00   1.3951620e-03
 -3.9189854e-01   1.4140525e-04
  1.0314007e+00   4.6596251e-04
  1.3817534e+00   2.8530427e-04
  2.4391551e+00   5.3818990e-03
 -3.8003283e+00   9.6325856e-03
 -2.5426221e-01   1.3354356e-02
  4.3701404e-01   1.2350026e-02
  7.8247420e-02   1.2872295e-02
  1.5790141e+00   2.7799330e-04
 -2.2356899e+00   2.4015361e-02
 -1.7502950e+00   2.8141886e-03
  1.7137890e+00   2.8204080e-02
  9.7323769e-01   3.1418987e-03
  1.6547989e+00   8.9822952e-03
 -5.0241745e-01   2.2322014e-03
 -1.6125604e+00   3.7806721e-03
 -1.0785826e+00   2.8855819e-03
  2.5967405e+00   1.6895293e-04
 -1.6468107e+00   3.2749465e-03
 -1.3033657e+00   2.1621557e-02
 -2.6552355e+00   3.2663968e-04
 -1.3312751e+00   4.8924563e-03
  1.9256746e+00   1.0794380e-03
  7.5304973e-01   2.7176540e-03
 -1.2896866e+00   8.9246817e-03
  8.1061733e-01   2.2430914e-03
  3.2025662e-01   2.9598335e-03
  4.4836015e-02   4.1069515e-02
 -1.0173419e-01   8.3085019e-03
  3.5263368e-01   5.7166640e-02
  3.7066254e-01   3.1701503e-03
  6.5631956e-01   2.0386023e-02
 -6.8444863e-02   1.0000000e-01
 -8.5587817e-01   4.5083500e-03
 -4.8768916e+00   6.8868329e-05
 -5.4831034e-01   1.1801126e-03
 -5.9948015e-01   2.1655832e-03
 -2.6364785e-01   5.1496136e-03
  3.6808922e+00   8.4609147e-03
 -3.5366130e+00   2.9091402e-03
 -2.7483964e+00   1.0641943e-04
  1.3475034e+00   1.7502760e-03
 -4.3278930e-01   3.0865323e-02
 -1.4121649e-01   4.7672354e-03
 -3.6753587e-02   8.1538677e-04
 -1.8352824e+00   8.5645582e-04
  1.2733474e+00   5.1357243e-03
  6.5130070e-02   4.8660464e-03
  1.0779699e+00   1.9815742e-04
  3.9801806e-01   1.1117788e-03
 -2.0943131e+00   6.5191393e-04
 -1.1038092e+00   6.1884389e-04
  2.3502684e+00   4.2309536e-04
  1.2241864e+00   1.9388779e-03
  1.0547894e+00   4.0834458e-04
  6.1982667e-01   4.7821095e-04
 -1.3579984e+00   2.6150947e-04
 -8.8989663e-01   8.5021066e-04
  1.6665275e+00   4.0688796e-04
 -8.1724429e-01   1.9582829e-03
 -1.7364124e+00   6.7919544e-03
 -9.6146595e-01   1.3905600e-02
 -3.9508170e-01   3.1012141e-03
  3.2145360e-01   1.6180418e-02
  1.7557172e-01   8.7571479e-03
 -1.7345963e-01   3.1002734e-02
  1.1778147e-01   4.3100983e-02
 -3.0261490e-01   1.1590684e-02
 -6.1436784e-01   2.3968181e-02
 -6.7321700e-01   4.0890668e-03
  2.0361440e-01   1.3556880e-03
 -1.6418922e+00   8.7363422e-03
  2.5763190e+00   1.9902475e-04
  2.3841409e-01   2.0020895e-03
  1.0785774e+00   2.0513708e-02
  4.5761982e-01   9.4850169e-04
  8.4850144e-01   1.3092624e-02
 -4.4638789e-01   1.8047839e-02
  3.5353184e+00   4.6570655e-02
  5.9310478e-01   9.0852281e-04
  1.2239377e+00   4.4891327e-03
  2.9349920e-01   7.2316593e-03
  1.4550627e+00   3.1630639e-02
 -6.6714948e-01   8.7871943e-03
 -4.5405129e-01   2.1380340e-03
 -1.2150396e-01   7.1769105e-03
  9.5693402e-02   4.4171750e-03
 -1.0807776e+00   5.6525911e-03
 -1.1956325e+00   4.9304073e-03
  1.9933783e+00   4.0074554e-03
 -1.1571147e-01   9.1809258e-03
  9.1066855e-01   2.7419215e-03
 -9.0413444e-02   1.4029707e-04
  8.3710823e+00   1.2998351e-02
  3.4391353e-01   1.1479985e-02
  1.5012977e+00   9.7978220e-04
 -1.2132099e+00   1.6073272e-02
  9.1832453e-01   4.6055077e-04
  1.3354322e+00   1.0756872e-03
  3.5244262e-01   3.8360205e-02
 -7.0596009e-01   8.8506406e-03
  8.4845322e-01   8.5470900e-02
 -7.4508202e-01   1.0145155e-02
  2.4079306e-01   7.8582257e-02
  3.5924399e+00   1.5881333e-04
 -3.1617796e-01   6.1043433e-04
 -7.8889370e-01   1.4958797e-03
 -2.1684091e-01   4.8053046e-03
 -2.0414233e+00   5.9887222e-03
 -8.9573497e-01   2.7881383e-03
  2.5929716e-01   6.7134020e-03
  1.0064993e+00   1.1342744e-02
 -6.2925828e-01   4.4125963e-02
 -9.2222929e-01   6.7001027e-03
  1.5655892e-01   4.1455179e-03
 -1.5903493e+00   3.1588963e-04
 -3.9443967e-01   9.6683559e-04
  1.1828544e+00   3.2794941e-04
 -1.8489554e+00   3.9905296e-03
 -1.8635594e+00   9.8256755e-04
 -1.3905292e+00   1.3120687e-03
 -9.4051071e-02   5.2787107e-03
 -2.1445513e+00   2.2153982e-03
  4.8434606e-01   4.7848816e-04
  7.8530085e-01   3.6161791e-03
 -9.2866302e-01   1.2049350e-03
  1.8866301e-01   1.8558875e-02
 -3.7702596e-01   3.8575320e-04
 -2.5750284e+00   1.6156479e-03
  2.9390433e+00   2.5524251e-02
  4.3492103e-01   4.5984727e-04
 -5.1138365e-01   1.0966682e-02
 -8.4933001e-01   1.2580147e-04
 -3.7331663e-02   4.7123865e-03
 -6.9526643e-01   5.6945480e-04
  5.6735861e-01   4.5363299e-04
 -9.5975405e-01   9.0068299e-03
  3.4682840e-02   1.1133364e-02
 -1.0349444e+00   1.8961571e-02
  1.4543648e+00   6.0274452e-04
  2.0064371e+00   1.2911053e-03
  7.3052758e-01   1.7144098e-03
 -4.1316909e-01   1.0302970e-02
 -2.5748038e-01   1.2413394e-02
  1.7096223e+00   3.0677461e-03
  3.3910361e-01   1.7675517e-02
  4.0295057e+00   6.2534539e-03
  2.1453409e-02   6.4465678e-03
 -2.5197300e-01   1.2255504e-02
 -4.5459524e-01   2.2400757e-03
  9.5780902e-02   1.9865932e-03
  7.5112760e-01   5.8275936e-03
  9.3968892e-01   4.2394358e-03
  1.0452776e+00   5.6822138e-04
  8.5261834e-01   7.5312215e-05
  6.0407400e-01   6.8019843e-03
 -3.2468951e-01   1.8554310e-03
 -6.0306829e-01   2.9545911e-03
 -1.0754836e+00   5.6733568e-03
  3.2785082e+00   3.4229863e-03
 -1.4668424e-01   6.2790798e-04
 -1.5269294e+00   2.2014054e-02
  8.3283834e-02   7.3267738e-03
  6.8105620e-01   1.2054218e-03
  1.3579657e+00   5.9043046e-04
  3.7780759e-01   1.3305430e-03
  1.8239476e-01   2.0718513e-02
  3.0661917e+00   2.1743363e-04
  5.6662327e-01   2.3358183e-02
  6.1385155e-01   9.8364301e-02
 -1.3399150e+00   4.8786352e-04
 -1.2562193e-01   4.3269843e-02
 -6.3965149e-04   6.6084884e-02
  2.6613194e-01   8.2159512e-02
  1.8716079e+00   6.8294704e-03
 -3.4524551e-01   1.5287929e-03
 -5.1900059e-01   1.9637160e-02
  4.2675946e-02   1.4949288e-02
  1.4345315e+00   1.3657420e-02
 -8.8552421e-01   2.3265945e-02
 -8.4417462e-02   7.4443286e-03
  1.0893310e+00   7.9794452e-03
  1.0026964e+00   8.8799611e-04
  9.8917454e-01   1.3252727e-02
  4.9662465e-01   2.6579679e-04
  2.7654523e-01   8.3196739e-04
 -3.2483980e-01   1.0435872e-02
  4.3708038e-01   7.2896291e-05
  1.0368317e+00   6.1594038e-03
 -1.4186192e+00   9.2272174e-05
 -5.0412659e-02   4.8907842e-03
  1.7258465e-01   1.8464394e-02
 -3.7075052e-01   2.0185543e-02
 -1.0605733e+00   4.9974839e-03
  9.4830793e-01   2.7760705e-02
 -1.7598928e+00   6.0853783e-02
  1.3478148e+00   1.3234466e-03
  7.3941559e-01   5.8607608e-02
 -1.3405302e-01   2.1481948e-02
  7.7529138e-01   9.0241442e-03
  3.1977975e+00   1.6782548e-04
 -5.6617689e-01   6.6873664e-03
 -4.1556507e-01   4.3575358e-02
  7.3035735e-01   8.1927724e-02
  1.0042558e+00   1.5277533e-02
 -1.1752446e+00   2.2927551e-02
  2.4962457e-01   1.4134180e-02
  2.0154127e-01   3.2066360e-02
 -4.0953085e-03   5.8061328e-02
  5.1338947e-01   1.6672534e-03
 -1.4152481e-01   7.5342921e-03
  1.5539336e+00   1.4988291e-02
  8.6664504e-01   3.4879107e-02
 -8.9508533e-01   1.9427771e-02
 -2.7551952e-01   2.6471184e-03
  5.9721893e-01   3.1638425e-02
 -6.0963994e-01   4.3044679e-02
 -1.4132879e+00   8.6254376e-04
  1.4670792e-01   8.4379426e-04
  3.6272234e-01   7.4714511e-03
 -2.5259632e-01   4.6446236e-05
 -7.5007093e-01   1.6709572e-02
  2.8825006e-01   2.7562084e-02
  5.0656575e-01   6.0129417e-03
 -4.8592979e-01   1.4668400e-02
 -1.6695033e+00   2.9583939e-03
  5.2744716e-01   9.3657458e-03
 -3.3237344e-01   3.3111447e-03
 -1.1313906e+00   8.4254844e-03
  1.5879974e+00   3.8312292e-03
 -1.2968736e+00   2.4030397e-04
 -3.8453519e-01   1.7043516e-03
 -1.3799887e+00   7.6561123e-02
 -1.3273617e+00   2.8815504e-02
  7.8615582e-01   1.3222530e-03
 -9.8936927e-01   2.1901418e-02
 -2.3735236e-01   5.3864829e-03
 -1.0461213e-01   2.0494338e-02
  7.9535440e-02   7.4888282e-03
  1.4133111e-01   2.0949706e-02
  4.9829313e-01   8.8954881e-02
 -2.3175146e-01   6.2201429e-02
 -4.6186432e-01   9.7139224e-02
 -3.0687180e+00   3.1172377e-03
 -2.6560640e-01   1.0781233e-03
 -8.5935813e-01   2.3082742e-03
  1.1242229e+00   6.5850713e-03
  4.3618608e-01   1.3539231e-02
  1.9834191e+00   1.9107459e-03
 -1.9296631e+00   9.8398970e-03
  3.9532006e-01   6.3731577e-03
  2.4030614e-03   1.3315735e-03
 -4.1218197e-01   2.2919418e-03
  1.0730801e+00   1.7783944e-02
  9.9112260e-01   4.0160556e-04
  9.4396609e-01   2.2795553e-04
 -2.2128618e+00   7.4118655e-03
  5.9669137e-01   2.6332485e-02
 -1.6654274e+00   4.0232600e-03
 -1.2083112e+00   1.1606980e-03
 -1.8883157e+00   2.1180473e-04
 -7.9215364e+00   3.9753310e-02
  1.9373467e+00   1.6373286e-02
 -1.5439755e+00   1.8607723e-03
  8.6202967e-01   1.3624250e-03
  9.5549804e-01   5.6582555e-04
 -5.6109214e-01   2.1504128e-02
 -1.7319247e-01   6.7089535e-03
  5.3143674e-01   1.5472779e-03
  1.0942820e-01   6.6124834e-03
 -2.9333372e+00   1.9743850e-03
  1.2568928e+00   7.7831135e-03
 -2.1336895e-01   3.5435289e-02
  5.9697509e-01   1.2644483e-03
 -4.8563820e-01   9.4296355e-03
 -6.1104518e-01   3.3014283e-02
  2.8286073e-01   2.9389109e-02
 -8.7677056e-01   1.5390448e-03
 -3.5972095e-01   3.3155738e-03
  1.0432894e+00   1.5911464e-02
 -7.5844359e-01   1.8451983e-02
 -3.3177412e-01   1.3149202e-02
  3.9999437e-01   1.4007474e-02
  4.3572780e-01   7.2048903e-02
 -5.7869780e-01   1.7371269e-02
 -2.4813482e-01   1.3040154e-02
 -1.0557809e+00   9.4404852e-04
  5.7301217e-01   1.0836483e-03
 -4.5645481e-01   2.4524406e-03
 -1.2726086e+00   5.9262915e-03
 -1.3004993e+00   5.3263502e-04
 -5.1858199e-01   1.1545368e-03
  7.7537650e-01   2.1684740e-03
  1.1470977e+00   1.6517589e-02
 -3.6556143e-01   4.6018533e-02
  1.9246563e-01   4.3650668e-02
  6.4073116e-01   1.3592864e-02
  1.4811432e+00   7.0494204e-03
  1.2858036e-01   8.2478113e-04
  7.1187657e-01   1.0354995e-02
 -9.7007245e-01   9.3672314e-04
  9.9052250e-02   7.4373577e-03
 -8.7653887e-01   9.8858159e-03
  6.0068780e-01   3.4024954e-02
  2.5022340e-01   3.5950292e-02
 -9.2351192e-01   4.7148118e-04
 -5.7853770e-01   1.6184980e-02
 -7.7237290e-01   2.6078662e-02
 -8.8207817e-01   2.5119275e-02
  1.1948175e-01   5.1337499e-02
  1.1819233e+00   3.8978679e-03
 -6.7981742e-02   3.4649088e-03
  3.0777624e-01   6.6150323e-02
 -1.1465926e+00   6.5236264e-03
  1.0962402e+00   7.4970275e-03
 -1.7322651e-01   9.9514774e-04
 -1.7208376e+00   1.9661398e-03
  5.9387195e-01   3.8670687e-04
  1.7096072e-01   1.3335237e-03
  1.8736015e-01   2.1300237e-03
 -1.5048107e+00   4.4516739e-03
 -1.2406296e+00   2.7664835e-03
  1.8427550e+00   5.5333320e-03
  3.1638563e-01   2.5580713e-04
  2.4016042e+00   1.6097410e-03
  3.0467429e+00   2.1509654e-03
 -3.3793271e+00   1.4736225e-03
  2.5590427e+00   3.2897569e-02
 -5.2765769e-01   7.4649127e-03
 -2.5276132e+00   7.6208101e-04
  1.6293366e+00   3.7878862e-04
  2.4464613e-01   7.1565947e-04
  1.7253591e+00   7.4496574e-04
 -4.6635643e-01   9.1211387e-04
 -2.7838759e+00   1.1526127e-03
  1.7981747e+00   4.3698822e-04
 -9.8244941e-01   3.4146290e-04
 -6.4393222e-01   1.8017997e-03
 -7.2013855e-01   5.4049969e-04
  7.6145977e-01   1.0735245e-03
 -2.5006349e+00   4.0434645e-03
  1.4101901e+00   2.4355708e-03
 -3.8517246e-01   1.4699535e-02
 -8.2109803e-01   2.4596145e-03
 -5.2317649e-01   3.4180801e-02
 -5.0913942e-01   7.6152133e-03
 -6.3406265e-01   8.2900625e-04
 -6.5612459e-01   1.5245007e-03
 -6.5472257e-01   9.1645876e-03
 -3.9522314e-01   1.3677975e-03
  1.8863299e+00   4.6324861e-04
 -2.7160158e+00   1.1475512e-03
 -2.5351930e+00   1.1097317e-02
  1.8837539e+00   3.0944510e-03
 -4.1925138e-01   2.8739925e-02
 -1.6085048e-01   8.3896955e-03
 -1.8323885e+00   8.5898889e-03
  1.5070006e-01   5.2399217e-04
  1.0081571e+00   3.6190567e-03
 -5.1243174e-01   5.2451761e-03
  1.2797115e+00   5.4513495e-03
 -7.7441305e-01   1.8795651e-03
  9.2126131e-01   7.0530945e-03
  2.4469170e-01   8.9407889e-03
 -1.8144244e-02   3.5003626e-03
  2.4715818e-01   1.8599096e-03
 -9.0151709e-01   1.2805356e-03
 -7.5643951e-01   1.2642469e-02
  6.1242002e-01   2.0602643e-03
  1.0323000e-01   5.6500314e-03
  1.3579946e+00   4.4481369e-04
 -2.0833158e-01   2.4492636e-02
  1.3880657e+00   5.1238317e-02
 -2.4501580e-01   9.8756710e-03
 -6.9645530e-01   1.5675601e-03
  9.7860366e-01   1.2181299e-02
 -2.5260359e-01   5.8865855e-03
  5.3426248e-01   9.3493305e-02
 -7.8532171e-01   2.1943741e-02
 -3.1038287e-01   1.8565865e-02
  3.2913479e-01   2.1822160e-02
 -9.9874061e-01   7.8191748e-04
  1.0833069e-01   5.1369041e-02
 -6.7686677e-01   4.3735366e-02
 -3.2351154e-01   7.2734617e-04
  1.2244363e+00   1.5196757e-03
 -2.3276916e+00   1.0011332e-03
  1.0131332e+00   2.4988893e-03
 -2.2439129e+00   2.7462744e-04
 -1.9699931e+00   1.4107199e-02
  5.3989351e-01   8.3517712e-03
  6.6002464e-01   2.2677290e-03
 -1.8622842e-01   2.1870085e-03
  1.0063211e+00   2.1416785e-03
 -3.6985030e+00   2.6031092e-03
  2.9818218e+00   2.0464294e-04
  1.0368315e+00   4.2421740e-04
 -1.4803625e+00   3.0798161e-02
  1.7521085e+00   5.0821253e-03
 -1.9953753e+00   6.4622209e-04
 -1.9467301e+00   4.3812529e-03
  4.9333760e-01   7.3930491e-03
 -5.3027683e-01   1.0692636e-02
 -2.4793332e+00   5.2429538e-04
 -2.6236241e+00   3.2607545e-04
 -8.8254470e-01   3.8156572e-03
  2.6915616e-01   1.1947940e-02
 -5.2181518e-01   1.0916571e-02
 -8.0999625e-01   2.1965750e-02
 -2.2095520e+00   7.4953474e-03
  6.6934526e-01   4.6475627e-03
 -1.3996580e+00   2.9586988e-02
 -4.8143798e-01   4.7774468e-02
  1.4624876e+00   1.0300056e-03
 -7.4833232e-01   8.4492844e-03
  4.1578799e-01   3.6988510e-03
 -8.4510446e-01   3.3555523e-02
 -5.5454280e-02   2.8490074e-02
 -6.1106527e-01   1.6038194e-02
 -1.2119559e+00   2.5921155e-02
  4.7320855e-01   2.0255921e-04
  1.0297645e+00   5.6877146e-03
  6.1452318e-02   1.8003728e-02
 -1.1166900e+00   2.0784002e-02
 -1.2179975e-01   9.2487335e-03
 -1.2101604e-01   3.7368182e-03
  1.4334886e+00   3.7365837e-04
 -1.1168638e+00   1.1955715e-03
 -9.3695486e-01   6.8485370e-04
 -2.1058591e-01   1.6181796e-03
  1.1605055e-01   7.5210636e-03
 -5.6854453e-02   3.2162929e-03
 -8.4795469e-01   2.0615241e-02
 -3.5282713e-01   1.3094862e-03
  4.4336861e-01   3.9912033e-04
 -9.5898628e-01   5.0128456e-03
  7.8890198e-01   5.5386736e-03
 -7.8444225e-01   3.4999922e-02
 -7.4517351e-01   5.5720317e-03
  6.4138448e-01   9.2726685e-03
 -7.1184337e-02   9.9209519e-03
 -6.3554120e-01   1.9857205e-02
 -9.5061570e-01   5.9235869e-03
 -1.0994407e+00   2.1936828e-03
  5.2522177e-01   7.9971747e-03
  1.0060105e-02   1.5325835e-02
 -3.7395644e-01   7.4803625e-04
 -3.4154826e-01   3.9513931e-02
  8.5873985e-01   2.0409258e-02
  7.0127141e-01   1.1766141e-02
  5.3423101e-01   5.7880515e-03
  8.2461852e-01   9.1024983e-04
 -1.8850754e-01   4.6259683e-02
  2.9910555e-01   9.0990253e-02
 -5.7010734e-01   1.7661385e-02
  5.7898712e-01   5.3685871e-03
  1.0418607e-01   1.6916574e-03
 -1.2198943e+00   2.4167276e-03
 -4.5495999e-01   6.6375542e-03
 -4.9810895e-01   2.2632680e-03
  3.7914401e-01   1.7496077e-02
 -4.4221434e-01   2.7427629e-03
 -6.3194549e-01   4.0431399e-02
 -1.9972734e-01   3.4861913e-04
  2.4430935e-01   5.5442774e-03
 -2.1683604e-01   6.0480053e-04
 -1.3578310e+00   4.1402048e-03
  2.8782398e-01   9.0058371e-03
 -7.4322283e-01   1.0885193e-02
 -6.8983279e-02   8.9828027e-03
  4.4492191e-01   2.5688470e-03
  6.9806987e-01   7.1931318e-03
 -6.7770161e-02   3.4585547e-02
  1.7416974e+00   5.5216569e-03
 -8.2976931e-01   1.0657011e-02
 -9.9104142e-01   1.6424259e-03
  1.3557670e+00   2.1446180e-03
 -6.6855803e-02   4.2617735e-03
 -3.1520540e-01   5.5253874e-03
 -1.3084958e+00   7.9294536e-03
 -2.0731978e-01   1.6013838e-03
  4.5886770e-02   1.0702185e-03
  1.5941256e+00   5.3988607e-03
 -4.7888461e-01   2.2532623e-02
 -4.7179914e-01   1.9009164e-02
 -3.1229171e-01   1.1125774e-02
  1.7272081e+00   7.1736458e-03
 -4.9518284e-01   2.6726386e-02
  3.3198673e-01   1.3076418e-04
 -1.1365647e+00   1.3751077e-02
 -1.4891354e+00   1.3539364e-02
  4.2749032e-01   8.0792774e-03
 -4.7328937e-01   2.2707105e-02
 -4.1640350e-01   9.7722933e-02
 -5.4322928e-01   6.7356424e-03
 -7.9660869e-01   3.0514791e-03
 -7.9843871e-02   3.2342810e-02
 -7.0195156e-01   2.5095142e-02
 -6.2494612e-01   5.5423612e-04
 -3.9714479e-01   3.0952115e-03
  1.5878192e+00   2.0891429e-04
  1.8362939e+00   1.6820848e-03
  6.8513739e-01   5.7896954e-04
 -1.4317901e+00   4.3859440e-03
  2.7593158e-02   9.4307383e-04
 -5.6184894e-01   3.2290106e-04
  8.0446488e-01   8.2810316e-03
  8.5491890e-01   7.7941104e-06
 -6.7671061e-01   1.0745150e-02
 -3.0116788e-01   2.1029841e-02
  1.7453051e+00   1.1910017e-03
 -3.2545051e-01   2.4908183e-02
  5.8010125e-01   4.3355050e-03
 -1.0182120e+00   1.0677240e-02
  3.1281343e-01   1.8767606e-02
 -8.5083890e-01   3.2402102e-06
 -2.0640850e-01   5.9303030e-02
 -4.1989288e-01   1.3873213e-02
 -6.6087745e-02   6.4105175e-02
  7.1994829e-01   3.0120111e-03
  2.6465693e-01   1.3904088e-03
  5.4194373e-01   7.4006239e-04
 -1.0582504e+00   1.6691166e-03
 -2.4215315e-01   9.1705279e-04
  2.9632621e+00   2.5308954e-03
  7.6506150e-01   5.1419978e-04
 -8.7908620e-01   6.8710354e-04
 -1.0937847e+00   1.8208091e-03
  7.8500485e-01   4.8352308e-03
 -1.6634194e+00   4.8467456e-03
  1.8762971e-01   5.4134391e-03
  2.1131825e+00   9.2920912e-03
 -5.2134407e-01   1.6535845e-02
  5.0162572e-02   1.0940683e-02
 -2.9743638e+00   7.6009845e-04
 -1.7906159e-01   2.0068111e-04
 -6.6896272e-01   2.2517375e-03
 -5.7141298e-01   2.0712873e-03
 -1.7213837e+00   1.2502521e-03
 -2.3983820e-01   2.2136576e-04
 -9.2934084e-01   5.3694542e-04
 -2.9023664e+00   1.3363083e-04
 -2.7276513e-01   6.1477758e-03
 -5.3622711e-01   1.7142911e-04
  1.2406018e+00   2.3789844e-03
 -5.4736477e-01   1.9861688e-03
 -3.9418243e-02   4.5392751e-03
 -7.8977299e-01   1.9796232e-03
 -2.7505121e+00   2.6495618e-04
  1.7759848e-03   2.7379254e-03
  2.2827254e-01   3.3740532e-03
  1.4913280e+00   9.8598422e-03
 -5.6968492e-01   1.0002106e-02
  1.4800189e-01   2.3270606e-03
 -8.6033618e-01   1.4602491e-02
 -1.1227958e+00   2.7146682e-02
 -5.1113826e-01   4.2590220e-02
 -3.2964966e-01   3.7851166e-02
 -7.2899359e-01   3.4198176e-02
  9.7281462e-01   2.8560697e-03
  4.0130460e-01   2.4291261e-03
  2.0498662e+00   4.8860442e-03
 -9.9407130e-01   3.3425856e-03
 -1.9985896e+00   5.8436738e-03
  7.9158843e-01   1.2422682e-02
  6.1585274e-02   1.9016358e-04
 -5.2967530e-01   9.3781548e-03
 -4.0332630e-01   5.0837523e-04
  9.3324047e-01   7.7224537e-03
 -2.5709701e-01   1.1482701e-03
  1.5056109e-01   5.3926557e-04
 -2.1231166e-01   1.6590335e-03
 -1.2408929e+00   3.7074886e-02
  1.9370936e-02   2.5886318e-03
  1.3599329e+00   1.2064326e-03
 -9.7939622e-01   1.2684958e-03
  8.3949751e-01   2.9334305e-03
  2.8785926e-01   2.8985297e-02
 -2.6605284e+00   1.7669291e-03
 -4.1549656e-01   3.7420816e-03
 -9.7655231e-01   3.2905249e-03
 -5.3793097e-01   6.6108229e-03
 -9.0237361e-01   2.0540776e-02
  9.9504691e-01   6.8250955e-03
 -1.5942566e-01   2.1124221e-03
  9.6903151e-01   1.7708135e-03
 -3.8481069e-01   5.8647664e-03
 -2.3022070e+00   2.5455678e-02
  3.4705022e-01   3.8728915e-04
 -2.0591691e-01   1.6226906e-02
  8.3840632e-01   3.6579564e-02
 -2.1453309e-01   5.2978255e-02
  1.2923913e-01   7.1213201e-02
  5.9030235e-01   6.5444469e-02
  1.0560105e+00   1.3277252e-03
  2.2488080e-01   1.9897570e-05
 -3.6955686e+00   9.5450424e-04
 -1.8699456e+00   4.3944438e-04
  4.1411933e-02   1.2674121e-03
 -1.6587954e+00   1.9584047e-03
  9.9392784e-01   5.1812676e-04
  3.4812123e-01   3.9672878e-04
 -1.1519296e-01   4.0728436e-03
 -2.2199099e+00   6.1621942e-04
 -2.1401916e+00   3.8120209e-04
  5.9591001e-01   9.2598249e-04
 -9.9334460e-01   1.2844026e-03
 -3.7804887e-01   5.3684314e-04
 -8.2725906e-01   7.6022255e-04
 -1.3080699e+00   5.3605385e-04
 -2.0772174e-02   1.1947145e-03
  1.0069742e+00   3.2504757e-03
 -9.7537690e-01   2.3143524e-03
  3.4874558e-01   3.4782870e-04
 -7.0047534e-01   1.9262473e-03
 -4.6794894e-01   2.2455968e-03
  1.7664614e+00   2.5278262e-03
  2.8976161e+00   2.0615982e-04
  1.2972328e-01   4.5307162e-03
 -2.5698977e+00   1.6564371e-03
  1.7696891e+00   5.2895519e-04
  2.7532059e-01   5.7594117e-04
  7.0448834e-01   1.1372636e-02
 -3.1180242e-01   2.2919646e-03
 -5.9302477e-03   3.4608640e-02
  1.0182486e+00   8.0378624e-03
  4.1595110e-01   2.6135021e-03
 -5.5205774e-02   5.8987800e-02
  5.9919333e-01   7.2464466e-02
 -2.4935508e-01   4.8176521e-03
 -8.7701946e-01   3.0478410e-04
  2.0935981e+00   2.3231015e-03
  1.2119685e+00   2.1497410e-02
  5.3188533e-01   5.7022478e-03
 -2.0752974e+00   1.6765710e-02
 -2.3834152e+00   1.9236587e-02
  2.5820107e+00   8.1005683e-03
  2.0887683e-01   5.8430163e-03
 -5.7325325e+00   5.3590991e-02
 -2.0642225e-01   1.0790274e-03
  2.7379775e+00   4.7284932e-04
  1.0628245e+00   4.0819207e-03
 -1.2488388e+00   3.0008079e-03
 -4.4280643e+00   1.0899264e-02
  1.6139374e+00   4.6462746e-04
 -1.3911418e+00   2.5323845e-04
  1.4477551e+00   1.1180486e-03
 -2.0410053e-01   4.4338498e-03
  1.1260232e+00   5.5963098e-04
 -4.0720478e-02   1.0635887e-03
  7.2240740e-01   2.5085956e-03
 -1.7366302e-01   6.1684111e-03
 -6.6891748e-01   8.8602130e-04
  1.0729544e-01   8.6927525e-04
  1.9967721e+00   2.4907780e-04
 -4.0823123e-01   2.8053166e-03
 -1.5787239e-01   8.4079802e-03
  7.0611459e-01   2.1889904e-03
  2.3156259e+00   1.9527076e-02
  2.5648355e-01   2.3494946e-02
  1.1467537e+00   1.9751918e-02
  5.4614258e-01   2.2720197e-02
  3.6768368e-01   1.4658711e-03
  4.0846857e-01   2.6285674e-03
  2.6857705e+00   5.9952084e-03
 -1.4838307e-01   1.5846617e-03
  3.0078938e+00   2.0092212e-04
  1.4981629e+00   9.1057792e-03
 -3.1275458e+00   9.3800342e-04
 -1.4774815e+00   2.8558110e-04
  2.5697923e+00   6.1312378e-03
 -1.2778171e+00   1.9692022e-02
  2.6436087e-01   1.2237801e-02
  7.5448436e-01   2.7042769e-03
 -2.2730446e+00   1.9733782e-03
 -1.7319747e+00   1.3072535e-03
 -1.5231425e+00   1.0693306e-03
  1.3244631e+00   2.4219747e-03
 -1.5724059e+00   1.4131523e-03
 -2.3376913e-01   6.4576138e-04
  1.0761378e+00   8.1110268e-04
 -6.5343404e-01   1.1515296e-03
 -5.1724368e-01   1.5066339e-02
 -2.6313940e-01   8.3309063e-04
  9.2484450e-01   3.9740096e-04
  9.2703623e-01   1.5920217e-03
 -1.0956401e+00   6.9002416e-03
  7.4747711e-02   1.1813062e-02
 -2.6865120e+00   4.2726658e-03
  3.4156963e-01   5.7023168e-03
  1.7113457e+00   4.2236708e-03
 -1.5149909e-01   4.4871052e-03
  2.0740524e-01   5.8543812e-03
 -2.7433020e-01   3.5869875e-03
 -3.2172835e-01   3.9676361e-04
  3.4271294e-01   1.0437209e-02
 -4.3756208e-01   1.6325625e-02
  1.3977580e-01   4.9583772e-03
 -1.7781441e+00   5.6824618e-04
 -2.2222061e+00   3.0618648e-03
  1.6365601e+00   2.1341061e-03
  3.9201215e-01   2.5785586e-03
 -2.0331557e+00   1.8810262e-03
  1.0292668e+00   5.5895909e-04
  2.8075498e-02   1.0707919e-02
  1.1497731e+00   1.5271771e-03
  1.9546336e+00   1.0044639e-03
 -2.4353187e+00   3.3407304e-03
  7.7859151e-01   5.8207945e-03
 -1.3752431e+00   1.5379575e-03
  1.7730640e+00   1.1306930e-03
  3.5717689e-02   2.7287190e-04
  1.4267714e+00   3.5919901e-04
 -2.6937091e-01   3.1594096e-03
 -8.8500869e-01   1.6647282e-03
  1.6872264e+00   8.8387006e-04
  1.7169141e+00   2.1770454e-03
 -2.8690192e-01   4.6470389e-04
 -1.0488926e+00   3.0811380e-03
  1.4652593e+00   6.6136546e-03
  5.4136693e-01   7.0808851e-04
  5.8933938e-01   1.4476003e-03
 -1.0883483e-01   5.3839519e-04
  1.0811366e+00   6.9899419e-03
 -7.5975722e-01   1.8581451e-03
 -8.9731234e-01   2.7407715e-03