  2.2584555e+00   6.9426568e-03
  3.3669615e+00   1.6158526e-03
 -1.0464789e+00   7.7795102e-03
 -1.2448560e+00   1.8063890e-02
  8.8511992e-01   1.1355845e-02
  2.1692050e-01   4.4662305e-03
 -2.3411288e+00   1.9841883e-02
  1.0186340e+00   1.1761440e-02
 -8.4989125e-01   1.0428764e-02
  1.9850375e-01   6.9990158e-03
 -1.0875472e-02   8.8095566e-04
 -1.4247758e+00   8.9322226e-03
 -1.1450784e+00   2.0719417e-03
  1.6508046e-01   1.7238172e-03
  1.7934655e+00   4.9454602e-04
 -6.6974229e-01   1.0327563e-03
 -1.2681782e+00   1.0947940e-03
 -1.6267837e+00   9.8850420e-03
  9.7492206e-01   2.0797467e-03
  1.7926581e+00   1.8557265e-03
 -7.3570520e-01   3.0781042e-03
  4.4345328e-01   5.4080440e-03
  9.9667394e-01   3.3559415e-03
  2.4334209e+00   5.9359251e-03
 -5.6442153e-01   1.4759206e-03
 -7.7016854e-01   3.7651507e-03
 -1.1729251e+00   2.2136895e-05
  9.2774920e-02   1.0605014e-03
  3.1870639e-01   1.4890191e-02
  1.3965517e+00   9.2586055e-03
 -5.3609222e-01   3.5516592e-03
  1.9806507e-01   6.5153018e-03
  1.7032668e-01   5.0627295e-04
  1.5100008e-01   9.8098889e-02
 -1.4460425e+00   8.6312722e-03
  1.5076993e+00   3.3758642e-04
  1.1916033e+00   8.3046616e-04
  2.9958372e+00   9.3609461e-04
 -1.1909783e+00   4.2893644e-03
  1.0424590e+00   8.9507477e-05
  1.9930092e+00   3.9066738e-03
  1.7299463e+00   3.4775063e-03
 -3.0291667e+00   8.0394221e-04
  1.3692794e+00   6.1101634e-03
 -1.2156740e+00   4.4005929e-04
  2.1732395e+00   3.0449726e-05
  9.4820344e-01   1.0636762e-04
 -1.2077630e+00   2.2549559e-03
  4.0840250e-01   4.9090977e-03
 -8.7492752e-01   6.5926964e-05
  2.0626009e+00   2.1048523e-04
 -2.7901616e+00   4.4192639e-05
 -1.7512324e+00   1.7099602e-04
 -1.8723458e+00   1.1512208e-03
 -4.0037963e-01   3.5566109e-04
  4.1126442e-01   2.7860908e-04
 -2.0204260e+00   1.9564517e-03
  1.6585007e+00   1.4873439e-03
  4.6629012e-01   1.7176900e-03
 -7.1275467e-01   4.3364766e-04
  9.1587585e-01   1.4810503e-04
  3.3244357e-02   5.1122648e-04
  3.2514422e+00   8.1937818e-05
  1.1650815e+00   1.7691202e-02
 -1.2628727e+00   3.2963846e-03
  3.5396078e-01   4.4360512e-04
 -6.8643016e-01   4.7565333e-04
  1.6147853e+00   2.6765454e-03
 -7.2212076e-01   2.1924138e-02
 -1.1850294e+00   2.1329079e-02
  4.9151710e-01   1.1659892e-02
 -1.2206178e+00   1.6684287e-03
  3.1632936e-01   5.1182811e-04
 -1.0710802e+00   5.1281722e-03
  1.3445748e+00   3.6630931e-03
 -1.4454824e+00   7.7494027e-05
  2.4849303e+00   3.4835504e-03
  3.4577483e-01   5.0125229e-03
  2.5499657e-01   2.0952472e-02
  7.8575498e-01   9.7012687e-03
 -4.8040661e-01   1.9147482e-03
  5.3985131e-01   8.9867588e-04
  4.8009419e-01   8.5808216e-03
  2.0330317e+00   1.2274239e-02
  8.4336931e-01   5.2521313e-03
  1.3500822e+00   3.4869846e-03
 -2.3356558e-01   8.5886085e-04
 -1.2833062e+00   4.5281039e-03
  4.5805018e-02   1.8080145e-04
  2.4883935e+00   2.8074752e-03
  2.0263985e-01   3.3383053e-03
  2.1592324e+00   7.3058479e-03
  2.0393173e-01   1.0735788e-02
  2.9839635e-01   1.7436391e-02
  8.8988960e-01   1.1918177e-02
 -1.2099685e-01   1.2669560e-03
 -3.5293236e+00   1.6591898e-03
  6.1650395e-01   8.8190380e-03
  1.7692488e+00   3.5311192e-02
 -8.0907506e-01   1.2019224e-02
 -7.5134355e-01   4.6502601e-02
 -3.9509061e-01   2.1150064e-02
  2.2652459e-01   1.8242801e-02
 -1.3204806e+00   8.7375067e-02
  2.0389879e-01   3.0376405e-02
 -2.1288555e+00   5.0864492e-05
 -1.0597607e+00   1.0516681e-04
 -1.6763915e+00   5.8199221e-05
  8.3688754e-01   3.0977454e-03
  4.7240052e-03   1.8528450e-04
 -2.2174873e+00   1.2727091e-04
  2.3116772e-01   4.0326640e-04
  3.0286536e+00   9.2131922e-05
  4.0103418e-01   4.3995009e-04
  4.8040724e-01   2.3872403e-03
 -2.9649815e-01   9.4588409e-04
  2.5983946e+00   5.9247034e-04
  7.5801694e-01   1.2198724e-03
  3.0883700e-01   1.5908047e-03
 -2.3410977e-01   1.6644661e-04
 -2.7488849e-01   2.8128839e-05
  2.2824020e+00   3.1769447e-04
  2.3973093e+00   4.8058679e-05
  6.9900133e-02   4.9348664e-04
 -3.3502245e-01   3.4423859e-04
 -2.9874206e-01   1.1894597e-03
  1.2175117e+00   8.2018378e-04
  1.1193380e+00   3.0669311e-04
 -1.0443907e+00   9.8729078e-03
  3.2681593e-01   1.6935628e-04
  1.3487536e+00   1.0173331e-03
 -7.5242621e-01   5.0242702e-03
 -2.3146610e+00   3.4839350e-03
 -1.4492478e+00   7.4134878e-04
  9.9164724e-02   1.1940115e-02
  1.0418245e+00   4.1928170e-03
 -1.0252427e-01   1.9487543e-02
  6.4885505e-02   1.6694142e-02
  1.1959841e+00   9.8957261e-04
  3.0549222e-01   2.9615937e-03
 -9.3852282e-01   6.7068515e-03
 -5.6211358e-01   3.7686724e-02
  1.0542853e-01   2.7441522e-03
 -1.6115133e+00   3.5632983e-02
  4.4996655e-01   5.0037517e-03
  2.6012391e-01   8.0363033e-04
 -4.1112038e-01   2.1166673e-02
  5.0495756e-01   1.7191807e-02
 -1.7257783e+00   2.7793167e-02
  1.5810953e+00   4.4811606e-02
 -2.2289094e-01   1.4138810e-03
 -1.4804761e+00   4.8023174e-04
 -8.4166312e-01   8.4823100e-03
 -1.3024569e-01   2.5905364e-03
  1.1933724e+00   2.0050993e-03
 -1.9219455e-01   7.0280244e-04
  7.1948248e-01   5.5336294e-04
  2.9607165e-01   4.0818476e-03
  5.4479128e-01   4.0937867e-02
  5.2881145e-01   3.2688867e-02
  1.4846383e-01   9.9132461e-03
  4.3610635e-01   1.1422730e-03
  3.0456114e-01   9.2690401e-03
 -3.2835904e-01   2.6824581e-03
  1.0855473e+00   2.4781920e-02
  1.0325853e+00   1.7674932e-03
  4.2346266e-01   7.6897565e-04
  1.8394454e-01   1.7202267e-02
  3.4972543e-01   1.4784644e-02
 -5.7137567e-01   9.2272358e-03
  5.0243431e-01   1.7272066e-02
  8.3707047e-01   7.8316934e-02
 -3.5911816e-01   2.3758056e-02
  4.5774692e-01   4.8366673e-02
  7.8956343e-02   3.1075962e-02
 -1.7878354e+00   5.7835242e-04
 -2.4667988e+00   1.6327507e-03
  2.2652468e-01   3.4080234e-03
  9.8621279e-02   9.7812305e-04
  1.7358625e+00   1.5140704e-03
 -2.2102164e-01   8.9245732e-04
  9.7636923e-02   1.7175184e-03
  2.1511412e+00   2.2618059e-04
 -3.5555667e-01   9.4359863e-04
  3.5519314e+00   1.2356896e-03
 -2.0606441e+00   2.1897184e-04
 -7.4739999e-01   2.8112023e-03
  2.6188884e+00   2.8546066e-03
 -1.2439759e+00   3.1084991e-03
  1.5733966e+00   7.9831487e-04
 -5.9271312e-01   6.2973436e-04
  1.7830271e+00   2.3332632e-06
  2.9438028e+00   3.2140684e-04
  5.6470913e-01   4.7420347e-03
  3.0086148e+00   1.1187958e-03
  4.5028242e-01   5.9523160e-04
 -9.1128534e-01   1.8954368e-03
 -4.8409587e-01   4.0871142e-03
  1.5213300e-01   8.6681386e-03
  1.6679733e+00   2.4659075e-03
 -2.5261347e+00   1.0527557e-02
  7.6993650e-01   1.1267092e-02
  1.9561809e-01   1.1111742e-02
  1.5522979e-01   7.7354410e-03
  6.3033038e-01   1.5473751e-03
 -6.4968467e-01   2.9229373e-02
 -2.2986068e-01   5.1695545e-04
  9.3281013e-01   1.2559051e-03
 -1.5281656e-01   6.5840401e-02
 -1.3888946e+00   2.1615406e-03
 -1.1474077e+00   2.2982324e-03
 -3.9595148e-01   1.4634972e-04
  1.0292799e+00   4.3733360e-04
  1.3817379e+00   2.2394887e-04
  2.4191818e+00   5.6433016e-03
 -3.6668098e+00   1.0941823e-02
 -3.9118093e-01   1.6705319e-02
  3.7065092e-01   1.0712623e-02
  1.2696464e-01   1.1731890e-02
  1.5786133e+00   2.2194209e-04
 -2.9216602e+00   2.7093722e-02
 -1.7668426e+00   2.4917107e-03
  2.0379047e+00   3.0862890e-02
  9.6099454e-01   2.4504380e-03
  1.5685493e+00   6.2871459e-03
 -5.3327280e-01   1.3499868e-03
 -1.6167293e+00   3.4297479e-03
 -1.1023842e+00   3.2665795e-03
  2.5969639e+00   1.8407768e-04
 -1.6724356e+00   4.4720382e-03
 -1.7099787e+00   1.9852987e-02
 -2.6531882e+00   3.7443146e-04
 -1.3592190e+00   5.1821456e-03
  1.9252805e+00   8.9786429e-04
  7.3959577e-01   3.1032914e-03
 -1.3687217e+00   9.3592294e-03
  8.6862534e-01   3.0795797e-03
  3.5439688e-01   3.5893300e-03
 -2.1883560e-02   3.8522128e-02
 -1.3480256e-01   8.1754206e-03
  9.5179394e-02   6.2690876e-02
  3.8038266e-01   1.6246514e-03
  4.3942621e-01   1.8276032e-02
  3.6009181e-01   8.7445006e-02
 -8.3409172e-01   5.1243152e-03
 -4.8771987e+00   1.1054082e-04
 -5.1195687e-01   1.1472596e-03
 -6.5078956e-01   2.4312604e-03
 -3.0762500e-01   3.8880359e-03
  2.9306307e+00   8.5645076e-03
 -3.5875146e+00   2.3376311e-03
 -2.7468352e+00   1.2081418e-04
  1.2959934e+00   1.7463191e-03
 -4.2523229e-01   2.4718467e-02
 -1.4212275e-01   3.6444131e-03
 -5.6598861e-02   8.6256227e-04
 -1.8311332e+00   5.6656532e-04
  1.2703608e+00   6.5004970e-03
  6.6314846e-02   4.7343047e-03
  1.0765158e+00   2.8509067e-04
  3.8367656e-01   1.1619991e-03
 -2.0984712e+00   5.9472921e-04
 -1.0902213e+00   1.1905390e-03
  2.3538351e+00   4.5136778e-04
  1.1868027e+00   2.6310126e-03
  1.0508996e+00   4.3103291e-04
  6.1662233e-01   5.2519049e-04
 -1.3594033e+00   2.4991695e-04
 -9.0331477e-01   6.0069299e-04
  1.6627684e+00   3.6004127e-04
 -8.4771430e-01   1.3466611e-03
 -1.8200707e+00   5.9837443e-03
 -1.1954269e+00   2.2718880e-02
 -4.2644086e-01   3.2256318e-03
  3.4049827e-01   1.2835896e-02
  2.5543261e-01   7.7659953e-03
 -1.9265078e-01   1.6924150e-02
  6.4462757e-01   3.6397111e-02
 -4.3702850e-01   1.2263152e-02
 -1.0284169e+00   2.6466371e-02
 -6.2190241e-01   3.9552697e-03
  1.8916595e-01   1.1559131e-03
 -1.4949870e+00   1.1172200e-02
  2.5739369e+00   2.1030098e-04
  2.2440852e-01   2.2326806e-03
  8.1643775e-02   2.5172561e-02
  4.5232269e-01   1.1408252e-03
  6.8808150e-01   2.0904742e-02
 -3.5515276e-01   1.6949171e-02
  1.6232674e+00   3.0967323e-02
  5.9138441e-01   6.0496660e-04
  1.2614735e+00   6.0916650e-03
  5.1900876e-01   5.4883952e-03
  7.8512454e-01   3.3214297e-02
 -6.4924723e-01   7.4215648e-03
 -4.5691994e-01   2.9672787e-03
  1.6049346e-02   7.2609968e-03
  4.7146432e-02   5.4061194e-03
 -9.7696096e-01   3.6500650e-03
 -1.3337245e+00   8.2064914e-03
  2.0273740e+00   4.8940191e-03
  6.6942431e-02   1.3227550e-02
  9.1734540e-01   2.6891869e-03
 -8.5061595e-02   3.2397607e-04
  6.9951668e+00   3.0861050e-02
  4.5547348e-01   1.4813119e-02
  1.5121043e+00   9.1736752e-04
 -1.1889693e+00   1.1468655e-02
  9.0990740e-01   5.7592773e-04
  1.3268903e+00   9.2132780e-04
  5.6060982e-01   6.2983513e-02
 -6.6471857e-01   8.2229832e-03
  9.0871251e-01   8.0549158e-02
 -6.8551028e-01   1.1580884e-02
 -3.2863909e-01   9.8093137e-02
  3.5958736e+00   2.3031481e-04
 -3.0767718e-01   5.6305347e-04
 -7.7043682e-01   2.4118444e-03
 -1.5242925e-01   7.2209323e-03
 -2.0828016e+00   5.3278343e-03
 -8.6444145e-01   2.3725326e-03
  1.6916695e-01   8.6552110e-03
  9.7827965e-01   1.3054146e-02
 -1.0955372e+00   3.8582057e-02
 -1.0336181e+00   8.9539606e-03
  8.4495567e-02   4.0145461e-03
 -1.5872096e+00   3.8218312e-04
 -4.1913053e-01   1.0444726e-03
  1.1810068e+00   3.7294810e-04
 -1.8574706e+00   3.2272602e-03
 -1.8687834e+00   9.0634602e-04
 -1.3977194e+00   1.2198554e-03
 -3.2764986e-02   7.0092231e-03
 -2.1360254e+00   1.6439871e-03
  4.9260202e-01   5.8785680e-04
  7.6162159e-01   3.7185634e-03
 -9.4042861e-01   1.6287449e-03
 -2.0171256e-01   1.6104944e-02
 -3.7255502e-01   5.3903327e-04
 -2.5702786e+00   2.4395878e-03
  3.0740595e+00   3.2905642e-02
  4.3267146e-01   5.6150358e-04
 -4.4119972e-01   1.2230675e-02
 -8.4803224e-01   1.9578981e-04
 -9.6062109e-02   5.0151194e-03
 -6.8671644e-01   8.9996727e-04
  5.6296778e-01   6.3091313e-04
 -9.8193008e-01   5.8883685e-03
  1.6571045e-01   1.6473249e-02
 -1.0514697e+00   1.7549999e-02
  1.4544010e+00   4.3426224e-04
  2.0128624e+00   9.0594805e-04
  7.3263437e-01   1.5703257e-03
 -5.0866991e-01   8.9550558e-03
 -3.1046209e-01   8.5531631e-03
  1.7551308e+00   4.3968228e-03
  7.0171160e-01   1.4672656e-02
  4.0454311e+00   5.3790915e-03
  2.2021489e-02   6.2841005e-03
 -5.0656758e-02   9.1013154e-03
 -4.2263886e-01   2.0878811e-03
  1.0408576e-01   1.6835595e-03
  7.2468245e-01   5.2271350e-03
  9.7073364e-01   4.8439084e-03
  1.0478697e+00   1.0356143e-03
  8.5223067e-01   8.4720101e-05
  7.3321086e-01   5.2998639e-03
 -3.1942773e-01   1.2450062e-03
 -6.0105538e-01   2.0269451e-03
 -1.1149297e+00   6.0752113e-03
  3.2584624e+00   2.9690438e-03
 -1.6155232e-01   7.8837300e-04
 -1.4881972e+00   2.2890842e-02
  2.2488862e-02   2.3083189e-03
  6.8302453e-01   1.9838701e-03
  1.3569149e+00   4.5581386e-04
  4.0935060e-01   1.8068677e-03
  2.8837278e-01   1.6471477e-02
  3.0674038e+00   1.2087029e-04
 -9.8149486e-02   2.9371666e-02
  9.2439985e-01   9.6324958e-02
 -1.3413635e+00   6.6672836e-04
  2.2245334e-01   6.2319931e-02
 -4.0893346e-01   6.7245908e-02
  1.5819434e-02   4.7392365e-02
  1.7550198e+00   7.0233746e-03
 -3.4276283e-01   1.3649157e-03
  2.4407782e-01   1.6742209e-02
 -2.0662559e-02   2.0992747e-02
  1.4470326e+00   1.1246950e-02
 -1.0149353e+00   1.1771945e-02
 -5.5811543e-02   8.2337717e-03
  1.1215599e+00   5.6970757e-03
  1.0110954e+00   7.3285308e-04
  1.2621642e+00   2.0609956e-02
  5.0273407e-01   3.3297553e-04
  2.8238919e-01   6.8280136e-04
 -4.2778066e-01   1.6925126e-02
  4.3739301e-01   7.7534482e-05
  1.0754681e+00   5.1535447e-03
 -1.4199374e+00   1.4371359e-04
  3.3268105e-02   5.6849443e-03
  4.4651940e-01   1.9044448e-02
 -6.7341828e-01   2.1917215e-02
 -9.0809095e-01   7.3246649e-03
  9.6667421e-01   2.8279940e-02
 -9.2774278e-01   4.0840995e-02
  1.3556805e+00   1.0455057e-03
 -6.2368888e-02   3.2607514e-02
 -1.6749144e-01   1.7380347e-02
  7.8996527e-01   1.4428538e-02
  3.1993642e+00   1.9164423e-04
 -5.3538668e-01   6.0998732e-03
  1.8224712e-01   5.3044301e-02
  1.1126571e+00   8.9313753e-02
  8.8689888e-01   2.0246908e-02
 -1.1606897e+00   1.5133451e-02
 -4.1347099e-03   1.4558555e-02
  1.2746722e-01   4.8034105e-02
 -4.3525711e-01   7.9052165e-02
  5.1370877e-01   2.2196115e-03
 -1.4265536e-01   1.1214467e-02
  1.0699401e+00   1.4692489e-02
  1.9258511e-01   4.4755310e-02
 -6.9600290e-01   3.4382198e-02
 -2.4712299e-01   3.2069755e-03
  9.0654194e-01   3.2608792e-02
 -5.3042513e-01   5.6163296e-02
 -1.4089923e+00   1.5148955e-03
  1.3238993e-01   1.4510009e-03
  1.4035469e-01   1.4963362e-02
 -2.5273877e-01   4.8152830e-05
 -1.1758550e+00   2.6482271e-02
  4.2050579e-01   3.3979919e-02
  5.8252579e-01   4.1933358e-03
 -5.9163851e-01   1.2770312e-02
 -1.6433545e+00   2.0446696e-03
  6.8601352e-01   1.6608624e-02
 -3.9381880e-01   2.0303151e-03
 -1.2939550e+00   1.0300633e-02
  1.5555093e+00   5.6872438e-03
 -1.2984135e+00   1.7678663e-04
 -3.7552795e-01   2.4061522e-03
 -2.0346990e+00   5.1114064e-02
 -1.0202948e+00   2.9631644e-02
  7.9883945e-01   1.2415593e-03
 -1.0610744e+00   3.9685890e-02
 -1.9989283e-01   3.3955351e-03
  2.3384416e-01   2.1800810e-02
 -5.6083980e-03   6.4630718e-03
  1.8252812e-01   1.5005025e-02
  6.6827840e-01   9.4786882e-02
 -2.3471278e-01   7.1711928e-02
 -4.3785286e-01   8.3983108e-02
 -3.1044228e+00   3.0148504e-03
 -2.4701460e-01   1.5144686e-03
 -8.3332998e-01   2.8800091e-03
  9.2015833e-01   9.3317553e-03
  4.1603857e-01   1.1236150e-02
  1.9649813e+00   1.2784781e-03
 -2.0862963e+00   8.7540122e-03
  3.5955727e-01   1.1895119e-02
 -1.6905339e-02   1.0064314e-03
 -4.0347534e-01   1.2751238e-03
  7.3424941e-01   2.1695726e-02
  9.8977083e-01   3.9020710e-04
  9.4503307e-01   2.1524378e-04
 -2.2115529e+00   1.0880504e-02
  7.3071456e-01   2.0771606e-02
 -1.5313227e+00   5.4014921e-03
 -1.2235899e+00   1.1821922e-03
 -1.8888974e+00   2.6327715e-04
 -7.5773106e+00   2.9658044e-02
  1.6167802e+00   1.4729154e-02
 -1.5489438e+00   2.3130742e-03
  8.6946130e-01   1.0516004e-03
  9.5257115e-01   4.1536416e-04
 -6.1232924e-01   1.9585986e-02
 -1.6435207e-01   9.7453324e-03
  5.3229362e-01   2.0692870e-03
  1.6206214e-02   7.6813474e-03
 -2.9325953e+00   1.9042437e-03
  1.1747767e+00   4.6577556e-03
 -1.7472586e-01   3.8852140e-02
  6.2326026e-01   1.1979783e-03
 -4.0022880e-01   1.2652416e-02
 -4.7343984e-01   2.8667042e-02
  6.8150818e-01   1.8316621e-02
 -8.6922967e-01   1.7100627e-03
 -3.5727894e-01   2.7919423e-03
  8.4551960e-01   2.1388358e-02
 -5.8421403e-01   1.5321541e-02
 -8.6349942e-02   2.4616463e-02
  3.7012410e-01   1.6065728e-02
  4.6010986e-01   7.9876795e-02
 -8.3231193e-01   1.7411295e-02
  5.5978086e-02   1.5025223e-02
 -1.0560907e+00   6.1563484e-04
  5.7878846e-01   6.6534395e-04
 -4.7091168e-01   1.8530529e-03
 -1.1418628e+00   4.8582507e-03
 -1.3078505e+00   5.7366531e-04
 -5.2416366e-01   1.3726591e-03
  7.8556156e-01   1.8683905e-03
  1.2182432e+00   1.4707952e-02
 -1.5293894e-02   5.4332715e-02
 -7.5809278e-02   4.1994028e-02
  4.9544635e-01   1.2459663e-02
  1.3489672e+00   9.2613902e-03
  1.1973228e-01   7.6030346e-04
  5.6252766e-01   9.6979216e-03
 -9.7936362e-01   1.2871663e-03
  1.6790350e-01   1.0990935e-02
 -9.1713589e-01   8.4194997e-03
  3.8909647e-01   3.1284571e-02
  6.4894491e-01   5.4884043e-02
 -9.2212445e-01   3.3036209e-04
 -5.1819521e-01   2.3763748e-02
 -6.5476656e-01   2.7595827e-02
 -5.5047154e-01   2.3489049e-02
 -2.9108417e-01   6.9755502e-02
  1.1936327e+00   4.6792761e-03
 -9.5568307e-02   3.8126172e-03
  9.0563053e-01   4.9100544e-02
 -1.1389802e+00   5.1961779e-03
  1.4479047e+00   8.0740741e-03
 -1.7278798e-01   1.5025762e-03
 -1.7296929e+00   1.7745938e-03
  5.9538502e-01   4.6908337e-04
  1.5144227e-01   1.9661104e-03
  1.9364659e-01   2.2329069e-03
 -1.6466024e+00   5.6683258e-03
 -1.2833084e+00   3.6516539e-03
  1.8348075e+00   1.7436564e-03
  3.2132196e-01   2.6291303e-04
  2.4040360e+00   1.7534529e-03
  3.0330513e+00   1.5213239e-03
 -3.3785920e+00   1.7372817e-03
  1.5654647e+00   1.9561585e-02
 -6.6437978e-01   6.8319351e-03
 -2.5446172e+00   9.4789005e-04
  1.6290122e+00   3.4165249e-04
  2.5257233e-01   5.5013073e-04
  1.7363204e+00   8.9860300e-04
 -5.0823611e-01   1.5265219e-03
 -2.8095903e+00   1.7800069e-03
  1.7923970e+00   3.7558589e-04
 -9.7744191e-01   4.8134467e-04
 -6.0964084e-01   1.9288814e-03
 -7.3045594e-01   8.3187607e-04
  7.7090615e-01   1.0185253e-03
 -2.3818355e+00   4.6143332e-03
  1.4127748e+00   2.2312903e-03
 -3.5156307e-01   1.2577273e-02
 -7.8372049e-01   2.0382276e-03
 -9.8561418e-01   3.9584707e-02
 -3.5205764e-01   5.4378342e-03
 -6.3916433e-01   8.5088494e-04
 -6.9831043e-01   1.9826160e-03
 -5.8933103e-01   6.8767774e-03
 -3.8502035e-01   2.2299876e-03
  1.8818222e+00   6.9546816e-04
 -2.7128739e+00   1.7779809e-03
 -2.3278775e+00   1.1171498e-02
  1.8658580e+00   4.3441746e-03
  6.5236914e-01   3.1147428e-02
 -1.9865409e-01   1.0680272e-02
 -1.7186043e+00   7.5875199e-03
  1.5355110e-01   6.4411777e-04
  1.0012783e+00   5.2723535e-03
 -4.4142142e-01   5.1684189e-03
  1.2997652e+00   6.4728055e-03
 -7.5280309e-01   2.2248828e-03
  8.3308923e-01   9.5969196e-03
  4.8759216e-01   7.7091954e-03
 -9.5342193e-03   3.4469878e-03
  2.2570087e-01   1.3745396e-03
 -9.0412539e-01   1.6097774e-03
 -8.8007551e-01   2.5649050e-02
  6.2754744e-01   1.3607363e-03
  1.4762013e-01   4.9187285e-03
  1.3668072e+00   5.5492943e-04
 -1.0231797e+00   3.1944487e-02
  2.3813434e+00   9.6869946e-02
 -2.7676553e-01   7.4391491e-03
 -6.9780755e-01   1.3311434e-03
  7.7426124e-01   1.8146055e-02
 -2.0957950e-01   5.3028427e-03
  6.3380706e-01   8.4501669e-02
 -8.7981749e-01   3.9516125e-02
 -3.2002100e-01   2.0625690e-02
  5.1014894e-01   3.2817911e-02
 -9.8550093e-01   9.6320017e-04
  2.6968655e-01   5.8851298e-02
  7.3173463e-02   6.5607518e-02
 -3.1479889e-01   7.1295805e-04
  1.2247415e+00   1.4627188e-03
 -2.3361578e+00   1.0640137e-03
  1.0849551e+00   4.4958876e-03
 -2.2388737e+00   3.2864427e-04
 -1.6968025e+00   1.5034853e-02
  4.6158373e-01   1.0185303e-02
  6.9825929e-01   2.6417635e-03
 -1.4905186e-01   2.0871731e-03
  9.5942795e-01   3.6456091e-03
 -3.7077978e+00   2.0711974e-03
  2.9818351e+00   1.2071620e-04
  1.0310550e+00   4.4242755e-04
 -1.7532295e+00   2.3423126e-02
  1.8201292e+00   4.2354376e-03
 -1.9964406e+00   8.2759419e-04
 -1.7880011e+00   2.7289677e-03
  5.1889545e-01   1.1503718e-02
 -6.5338063e-01   7.3033208e-03
 -2.4698842e+00   6.7620713e-04
 -2.6241417e+00   3.2487453e-04
 -8.5687762e-01   4.5542601e-03
  2.2058706e-01   9.6061854e-03
 -4.9999443e-01   9.7621884e-03
 -1.1712519e+00   2.0680323e-02
 -2.2707937e+00   1.0303264e-02
  7.5438368e-01   6.7568864e-03
 -1.1201544e+00   2.4382945e-02
  3.6260556e-02   5.0078213e-02
  1.4706755e+00   6.3675747e-04
 -6.9000286e-01   7.8512821e-03
  4.1056284e-01   6.8182983e-03
 -1.3195413e+00   2.4804780e-02
  3.5598457e-01   4.5880221e-02
 -6.2883168e-01   1.2777978e-02
 -1.2130842e+00   3.0740481e-02
  4.7222367e-01   2.7074764e-04
  9.9215120e-01   7.0075928e-03
 -1.5065236e-01   2.0999789e-02
 -9.0873766e-01   2.1764763e-02
 -1.1090765e-01   8.8130347e-03
 -1.3980022e-01   5.3569032e-03
  1.4277214e+00   3.8559589e-04
 -1.1092621e+00   1.0481470e-03
 -9.4464195e-01   7.8986899e-04
 -2.0792785e-01   1.1761737e-03
  2.0036465e-02   6.5825870e-03
 -1.0108440e-01   2.1930214e-03
 -7.1145850e-01   2.7333451e-02
 -3.4666893e-01   1.3911165e-03
  4.4649047e-01   3.7408550e-04
 -1.0080532e+00   4.0832236e-03
  7.9089123e-01   4.8979633e-03
 -7.0157826e-01   2.6521772e-02
 -7.1507072e-01   5.8367779e-03
  7.6121557e-01   1.6170746e-02
 -3.7025410e-01   9.0674376e-03
 -8.7806326e-01   2.0277822e-02
 -8.9771950e-01   6.0173562e-03
 -1.1056956e+00   2.6627511e-03
  5.5196041e-01   1.2337879e-02
  2.5041920e-01   1.5496172e-02
 -3.6961097e-01   4.1555709e-04
  2.3183945e-01   3.7740178e-02
  3.9202711e-01   2.3369284e-02
  7.8534949e-01   1.5671039e-02
  5.8276778e-01   5.8473768e-03
  8.4081948e-01   1.5561250e-03
 -5.0327163e-02   2.8420677e-02
 -1.6039816e-01   8.9719251e-02
 -6.5007955e-01   2.2065694e-02
  6.4044857e-01   8.4546944e-03
  9.2097439e-02   1.8657093e-03
 -1.2049097e+00   3.8118386e-03
 -4.6891236e-01   6.7026466e-03
 -5.0106144e-01   1.5081730e-03
  1.8289551e-01   2.8438423e-02
 -4.2688215e-01   3.3416615e-03
 -2.9802939e-01   3.5308078e-02
 -1.9876851e-01   3.8125459e-04
  3.3005175e-01   4.9904124e-03
 -2.1452102e-01   7.7080703e-04
 -1.3219466e+00   6.2499917e-03
  5.4687917e-01   5.8446047e-03
 -8.4225404e-01   8.4251426e-03
 -1.7990738e-01   7.2715362e-03
  4.5433429e-01   3.5141648e-03
  5.1640397e-01   9.2678573e-03
 -1.1041930e-01   3.7239630e-02
  1.7738485e+00   5.4123863e-03
 -5.5361170e-01   9.1821160e-03
 -9.7702891e-01   8.7059895e-04
  1.3571630e+00   2.8376137e-03
 -6.1160948e-02   4.2036464e-03
 -3.3353391e-01   7.2072945e-03
 -1.1762465e+00   1.1057082e-02
 -2.0736130e-01   2.0755930e-03
  3.8237412e-02   1.2950778e-03
  1.5687865e+00   5.1079593e-03
 -3.2245868e-01   2.0953292e-02
 -6.7072725e-01   1.4356708e-02
 -3.4522495e-01   1.0696685e-02
  1.7230220e+00   8.7711010e-03
 -8.1598043e-01   3.5340838e-02
  3.2989115e-01   1.6383313e-04
 -9.8639685e-01   1.2536325e-02
 -1.5645171e+00   1.0739257e-02
  6.3271922e-01   1.4683915e-02
  1.0118729e-02   2.1462977e-02
  1.1108108e+00   8.5903868e-02
 -5.8478642e-01   6.7662881e-03
 -7.9111344e-01   2.8569715e-03
  4.1104157e-02   1.7875567e-02
 -4.8245433e-01   2.2575520e-02
 -6.2204540e-01   5.3163292e-04
 -3.9259300e-01   3.1033217e-03
  1.5856973e+00   2.7427115e-04
  1.8218843e+00   2.3018802e-03
  6.7188984e-01   8.8249455e-04
 -1.4764887e+00   4.5575411e-03
  1.7499603e-02   1.1170884e-03
 -5.6969959e-01   3.8814053e-04
  6.7731088e-01   1.0391214e-02
  8.5490042e-01   6.7732558e-06
 -7.5964701e-01   8.7668300e-03
 -3.0077359e-01   2.2362405e-02
  1.7484641e+00   6.8345515e-04
 -3.1593397e-01   1.8670475e-02
  6.1237860e-01   3.0256573e-03
 -1.0976998e+00   1.2155809e-02
  1.4769611e-01   8.9374445e-03
 -8.5086960e-01   2.8190971e-06
  3.3569825e-01   8.4688924e-02
 -2.1748975e-01   1.6822064e-02
 -5.1878948e-02   4.5783184e-02
  7.8656048e-01   3.0817720e-03
  2.4646787e-01   1.0743658e-03
  5.4013264e-01   1.2058959e-03
 -1.0584769e+00   1.9598992e-03
 -2.3037334e-01   6.1752315e-04
  2.9617722e+00   4.3604919e-03
  7.6281977e-01   6.5635046e-04
 -8.8119638e-01   1.1757220e-03
 -1.1389755e+00   2.2706697e-03
  6.4126605e-01   4.7610528e-03
 -1.6277529e+00   6.3184290e-03
  1.0051170e-01   4.3046768e-03
  2.2565582e+00   1.5246494e-02
 -5.3123319e-01   1.3761098e-02
  3.0350268e-01   7.5209979e-03
 -2.9817035e+00   6.6500105e-04
 -1.7779991e-01   2.1730740e-04
 -7.0592511e-01   3.2247198e-03
 -5.6813937e-01   2.3071375e-03
 -1.7305735e+00   1.5421076e-03
 -2.3759077e-01   3.2761734e-04
 -9.3284297e-01   6.3285837e-04
 -2.9012234e+00   1.3185818e-04
 -3.3642262e-01   6.4083282e-03
 -5.3295207e-01   2.3279608e-04
  1.2334472e+00   1.8528952e-03
 -5.6445038e-01   2.1752114e-03
 -1.4089409e-01   5.8782515e-03
 -7.9252154e-01   1.9972520e-03
 -2.7524991e+00   3.1598879e-04
 -3.6001394e-03   2.4210839e-03
  2.3550086e-01   4.4714878e-03
  1.6044266e+00   7.2775735e-03
 -4.8193559e-01   1.3688029e-02
  1.1892676e-01   2.1233545e-03
 -7.6563311e-01   1.3192290e-02
 -1.1163231e+00   4.0876031e-02
 -1.0273060e+00   5.0861917e-02
 -5.7326943e-01   3.5896413e-02
 -1.0159001e+00   3.0588115e-02
  9.8903626e-01   2.7454316e-03
  3.7140277e-01   2.0509392e-03
  1.9940872e+00   4.1599236e-03
 -9.9154270e-01   3.0896685e-03
 -2.0016167e+00   7.0961583e-03
  7.4937463e-01   8.5854298e-03
  5.7428487e-02   1.8174463e-04
 -5.7614297e-01   8.9165634e-03
 -3.9799681e-01   5.5389234e-04
  8.5641962e-01   8.9395549e-03
 -2.5215125e-01   1.1586339e-03
  1.6602708e-01   5.5895967e-04
 -1.7211369e-01   2.5001043e-03
 -1.9519316e+00   3.4842469e-02
  3.9716829e-02   1.8656661e-03
  1.3833536e+00   9.8486908e-04
 -9.6260273e-01   1.8123819e-03
  8.2224917e-01   2.8217717e-03
  1.9631007e-01   3.6367003e-02
 -2.6700342e+00   2.6333614e-03
 -4.3356937e-01   2.3575278e-03
 -1.0357606e+00   2.8848369e-03
 -6.2540346e-01   1.0084046e-02
 -8.1201398e-01   1.7302206e-02
  9.4203115e-01   7.4265553e-03
 -1.3225925e-01   1.7671583e-03
  9.4303894e-01   1.3549770e-03
 -3.9658937e-01   6.5176738e-03
 -2.0015411e+00   3.0777434e-02
  3.4247401e-01   2.7290342e-04
 -3.0075672e-01   1.6509663e-02
  7.5357109e-01   5.7518184e-02
 -3.5667503e-01   5.1242691e-02
  4.9703359e-03   9.3113758e-02
  1.2710882e+00   9.6097089e-02
  1.0517120e+00   1.0339308e-03
  2.2479755e-01   2.1006437e-05
 -3.6910653e+00   9.3328807e-04
 -1.8713881e+00   4.1727678e-04
  3.8807731e-02   1.7017886e-03
 -1.6032785e+00   2.3305935e-03
  9.8572409e-01   8.2499720e-04
  3.5099888e-01   3.7004973e-04
 -9.1357939e-02   2.4616513e-03
 -2.2136908e+00   7.7851349e-04
 -2.1450038e+00   4.7342773e-04
  5.7836491e-01   8.0288033e-04
 -1.0029651e+00   9.2674367e-04
 -3.8066539e-01   4.2027413e-04
 -8.2918257e-01   8.6390733e-04
 -1.3106809e+00   4.8785019e-04
 -1.3181303e-02   9.9268742e-04
  1.0261730e+00   4.2595384e-03
 -9.7787976e-01   1.3682584e-03
  3.5485318e-01   3.2907713e-04
 -7.7837110e-01   3.5381031e-03
 -4.4444099e-01   1.7289699e-03
  1.7724768e+00   2.6731805e-03
  2.8969014e+00   2.5885506e-04
  2.8534174e-02   3.9276830e-03
 -2.6121619e+00   1.5378242e-03
  1.7695601e+00   6.2110077e-04
  2.7850077e-01   6.1113387e-04
  7.4042904e-01   1.4952845e-02
 -2.8956124e-01   2.3600617e-03
 -7.5071412e-01   3.3685464e-02
  1.1451062e+00   8.6990520e-03
  3.8786963e-01   4.5400625e-03
 -1.6197686e-01   6.9015317e-02
  1.0426742e-01   5.1611003e-02
 -1.9064385e-01   8.2056476e-03
 -8.7782365e-01   4.6648647e-04
  2.0705655e+00   2.6740832e-03
  1.7143762e+00   2.2008970e-02
  4.4717461e-01   7.5934548e-03
 -2.0442426e+00   2.3279710e-02
 -1.6455522e+00   2.3136789e-02
  2.6697783e+00   1.2644709e-02
  1.3068774e-01   5.8632437e-03
 -6.9374924e+00   6.0811285e-02
 -2.0384476e-01   1.2587839e-03
  2.7268629e+00   8.0642919e-04
  9.7348225e-01   3.9895419e-03
 -1.2946706e+00   4.6500526e-03
 -4.3871050e+00   8.6153513e-03
  1.6092159e+00   4.8645816e-04
 -1.3910577e+00   2.6735733e-04
  1.4454255e+00   1.6063178e-03
 -1.7132993e-01   3.1739820e-03
  1.1269120e+00   8.1125728e-04
 -5.4393858e-02   1.0935641e-03
  6.5496469e-01   2.2471431e-03
 -1.7219794e-01   7.2309002e-03
 -6.8231148e-01   8.7961595e-04
  1.0661747e-01   1.2794374e-03
  1.9973593e+00   3.0992585e-04
 -4.1566145e-01   2.4982039e-03
 -2.5857285e-01   1.0157697e-02
  7.1156490e-01   2.0659494e-03
  2.0435491e+00   1.8051544e-02
  3.7023711e-01   2.4319761e-02
  1.1054785e+00   1.3327800e-02
  7.6597393e-01   1.8183636e-02
  3.8510117e-01   1.5173968e-03
  3.8575494e-01   2.4824624e-03
  2.6336663e+00   6.6991537e-03
 -1.3023983e-01   1.2805071e-03
  3.0035090e+00   2.2783963e-04
  1.4403210e+00   1.2519076e-02
 -3.1295857e+00   5.5380026e-04
 -1.4781718e+00   4.6067208e-04
  2.6478002e+00   4.6413480e-03
 -1.5147375e+00   2.1338118e-02
  4.4634894e-01   1.0170384e-02
  7.4392414e-01   2.7810638e-03
 -2.3194628e+00   2.4237391e-03
 -1.7080660e+00   1.0244505e-03
 -1.5291533e+00   1.0095928e-03
  1.3266953e+00   2.5845706e-03
 -1.5765852e+00   1.8746516e-03
 -2.2068088e-01   6.7436410e-04
  1.0724050e+00   4.8965536e-04
 -6.3817245e-01   1.2423703e-03
 -4.4650221e-01   8.7886071e-03
 -2.6546559e-01   8.8134827e-04
  9.2513895e-01   2.8934583e-04
  9.2188114e-01   1.8952170e-03
 -1.0584878e+00   5.9075947e-03
  1.2090480e-01   8.4494464e-03
 -2.8130066e+00   4.0208944e-03
  3.6465865e-01   5.6261453e-03
  1.7479790e+00   3.4057852e-03
 -1.4761060e-01   5.5946819e-03
  1.6825357e-01   4.2704442e-03
 -2.6085079e-01   4.1186227e-03
 -3.2594520e-01   4.3492872e-04
  4.3180022e-01   1.1762464e-02
 -4.7729281e-01   1.4440279e-02
  1.4908078e-01   4.6565123e-03
 -1.7717777e+00   6.0586934e-04
 -2.2613060e+00   2.5546700e-03
  1.7006805e+00   1.5622554e-03
  3.3138323e-01   2.6134052e-03
 -2.0588410e+00   2.0025850e-03
  1.0211558e+00   6.0194556e-04
 -7.0083775e-02   1.3246085e-02
  1.1504806e+00   1.1101983e-03
  1.9548781e+00   1.2523056e-03
 -2.4609466e+00   4.2798137e-03
  7.6494235e-01   9.5289396e-03
 -1.4160269e+00   1.5148241e-03
  1.7537372e+00   1.0573165e-03
  3.3374421e-02   2.6868898e-04
  1.4236006e+00   3.6288772e-04
 -2.5508729e-01   2.9276125e-03
 -8.9184958e-01   1.4103211e-03
  1.6929058e+00   9.7239221e-04
  1.7114693e+00   1.3025744e-03
 -2.8474340e-01   4.4439177e-04
 -1.0571662e+00   2.6727179e-03
  8.6242616e-01   9.7149704e-03
  5.3763425e-01   5.9125083e-04
  5.5994350e-01   1.6874390e-03
 -1.1014096e-01   5.3998182e-04
  9.2146617e-01   6.9716061e-03
 -7.4719006e-01   3.4249660e-03
 -9.2097443e-01   2.2986303e-03