  2.1164069e+00   4.2420975e-03
  3.4084935e+00   1.1939188e-03
 -1.2410744e+00   5.5826176e-03
 -1.8659309e+00   9.4769392e-03
  2.2897059e-01   1.2094063e-02
  1.3438740e-01   1.0687937e-02
 -1.3359598e+00   1.8154373e-02
  9.1421729e-01   7.1733673e-03
 -6.4389884e-01   1.1484928e-02
  7.1674421e-02   6.4486149e-03
 -4.2402666e-02   9.0435625e-04
 -1.7505075e+00   5.3864936e-03
 -1.1552860e+00   1.8235819e-03
  1.2078515e-01   2.2778604e-03
  1.7931585e+00   8.2137663e-04
 -7.0525312e-01   8.5710664e-04
 -1.2983904e+00   9.2013885e-04
 -1.3242153e+00   9.4379764e-03
  9.3172210e-01   3.1387231e-03
  1.8155155e+00   1.1872159e-03
 -6.6881126e-01   2.4385999e-03
  6.5501705e-02   8.9269327e-03
  9.8802811e-01   2.5681893e-03
  2.2848914e+00   7.1746167e-03
 -5.6207436e-01   3.2238404e-03
 -2.3807533e-01   1.0784167e-02
 -1.1731380e+00   3.2575808e-05
  1.3187391e-01   1.6671791e-03
  6.7304659e-01   3.2724068e-02
  9.3035179e-01   1.6530152e-02
 -5.4676741e-01   2.7413499e-03
  1.4441166e-03   5.2181534e-03
  1.6691490e-01   4.8821824e-04
 -1.9888952e-01   5.0972883e-02
 -1.3486942e+00   4.0593902e-03
  1.5146766e+00   4.3829679e-04
  1.2616093e+00   1.2286718e-03
  2.9329200e+00   8.8523683e-04
 -1.1928316e+00   2.6975733e-03
  1.0422802e+00   1.1317088e-04
  2.0755842e+00   1.4850060e-03
  1.8098161e+00   2.9610370e-03
 -3.0331061e+00   1.2807722e-03
  1.2667385e+00   9.2335735e-03
 -1.2190399e+00   2.4518828e-04
  2.1724706e+00   2.5348352e-05
  9.4715029e-01   1.7310868e-04
 -1.1331024e+00   1.3707327e-03
  2.8621870e-01   2.5037506e-03
 -8.7313056e-01   1.1698830e-04
  2.0630205e+00   1.4554690e-04
 -2.7907343e+00   3.8445014e-05
 -1.7522525e+00   1.3927733e-04
 -1.9078602e+00   1.1389673e-03
 -4.0799531e-01   1.7564895e-04
  3.9898640e-01   5.2221824e-04
 -2.2026014e+00   2.0235926e-03
  1.6717019e+00   1.2312685e-03
  4.3861860e-01   2.8807379e-03
 -7.0801860e-01   4.8853352e-04
  9.0972733e-01   2.6144608e-04
  3.1399298e-02   5.9722248e-04
  3.2523775e+00   5.3433650e-05
  1.8612282e+00   9.5431823e-03
 -1.4704514e+00   4.7592656e-03
  3.5394108e-01   1.8643294e-04
 -6.8937594e-01   2.8867030e-04
  1.5233023e+00   1.7173967e-03
 -6.5370083e-01   2.1271411e-02
 -1.0436677e+00   2.8492311e-02
  1.6071865e-01   4.4392743e-03
 -1.2739960e+00   1.6524640e-03
  3.1987053e-01   4.6970218e-04
 -1.4720017e+00   4.1820430e-03
  1.4658529e+00   2.6594664e-03
 -1.4446315e+00   1.8061718e-04
  2.4345043e+00   4.0745530e-03
  3.6593735e-01   4.1005579e-03
 -5.0534135e-01   2.3463473e-02
  4.0588117e-01   1.5902394e-02
 -4.4369110e-01   2.8556031e-03
  5.5684352e-01   6.1850192e-04
  1.0328244e+00   3.2562974e-03
  1.4768127e+00   8.2489280e-03
  9.4067150e-01   6.3867574e-03
  1.4057775e+00   1.3757885e-03
 -2.2592396e-01   1.2272112e-03
 -1.2119159e+00   2.3994711e-03
  5.2755583e-02   3.1373787e-04
  2.5987849e+00   1.3263081e-03
  3.9122036e-01   3.6171267e-03
  2.0586243e+00   3.0610603e-03
  6.1845714e-01   8.0967620e-03
  8.6489213e-01   3.1344611e-02
  7.0621741e-01   5.0284797e-03
 -9.9910401e-02   8.5709768e-04
 -3.5465956e+00   6.4494996e-04
  3.9949313e-01   1.1083110e-02
  2.1367257e+00   8.4920704e-02
 -6.8553191e-01   1.5308115e-02
 -1.0429246e+00   2.9738823e-02
 -9.1801345e-01   5.5152010e-02
 -4.8229933e-02   1.5503603e-02
 -3.5001123e-01   5.4433733e-02
 -3.2540399e-01   3.2268405e-02
 -2.1284163e+00   4.8690163e-05
 -1.0612756e+00   9.5735639e-05
 -1.6745955e+00   4.3538392e-05
  1.0867898e+00   2.5586521e-03
 -2.9247489e-03   3.0021765e-04
 -2.2237620e+00   1.8809091e-04
  2.3839071e-01   8.0517784e-04
  3.0267785e+00   7.6359334e-05
  3.9958861e-01   7.2913856e-04
  5.6152529e-01   5.1685693e-03
 -2.9959711e-01   4.9595383e-04
  2.5831625e+00   5.5413757e-04
  7.1536899e-01   4.8830657e-04
  3.5092148e-01   1.6572748e-03
 -2.3796624e-01   2.7090142e-04
 -2.7496648e-01   2.4826670e-05
  2.2764614e+00   2.5745784e-04
  2.3975854e+00   3.7080939e-05
  6.2539324e-02   8.6550036e-04
 -3.3573291e-01   1.7796009e-04
 -3.5996473e-01   1.3240321e-03
  1.2209910e+00   3.5258962e-04
  1.1147875e+00   2.5989435e-04
 -1.2870686e+00   1.2214723e-02
  3.2863018e-01   1.2810920e-04
  1.2827152e+00   1.0472885e-03
 -6.4735830e-01   1.3662771e-03
 -2.3955801e+00   3.6304304e-03
 -1.4493221e+00   7.4442138e-04
  4.3441939e-01   4.4420287e-03
  1.0165676e+00   2.8190655e-03
  1.6822486e-01   9.9324370e-03
  2.9347816e-01   1.6895408e-02
  1.2118526e+00   1.2487154e-03
  2.5732315e-01   1.8641830e-03
 -5.0864458e-01   1.0150215e-02
 -1.2311072e+00   3.9194807e-02
  6.0205709e-02   5.4584473e-04
 -8.1416100e-01   3.6657270e-02
  4.8120722e-01   4.6504750e-03
  2.0989667e-01   1.9423037e-03
 -3.9908338e-01   2.6329344e-02
  9.4335032e-01   4.4113968e-02
 -1.0059986e+00   2.1596944e-02
 -5.7485545e-01   7.8523248e-02
 -1.9076905e-01   2.5640219e-03
 -1.4760728e+00   2.3471536e-04
 -8.4030676e-01   5.1557417e-03
 -2.3385611e-01   2.8203747e-03
  1.1857780e+00   1.3477600e-03
 -1.8253042e-01   7.6764170e-04
  7.1670872e-01   3.9568302e-04
  2.5837812e-01   6.2259776e-03
 -4.6262118e-01   8.3244093e-02
  7.9630345e-02   2.3715541e-02
  8.8388108e-02   1.4585697e-02
  4.3417367e-01   7.0546410e-04
  2.6314443e-01   4.7801994e-03
 -3.1834939e-01   2.0638974e-03
  8.4780312e-01   3.9463796e-02
  9.9109107e-01   2.9536383e-03
  4.2978367e-01   5.7851954e-04
 -8.0710612e-02   1.1621719e-02
  4.0585589e-01   6.8143620e-03
 -4.7493154e-01   6.9581489e-03
  1.7901388e-01   2.8491534e-02
  1.3728423e-01   4.7173265e-02
 -1.6635811e-01   1.0063394e-02
 -2.2506045e-01   2.8140849e-02
  5.7994604e-01   2.2393350e-02
 -1.7866739e+00   7.2129688e-04
 -2.4346085e+00   1.3784615e-03
 -7.5848191e-04   1.2674569e-03
  9.4710305e-02   4.6457798e-04
  1.7493029e+00   2.0935803e-03
 -2.0338683e-01   4.8878265e-04
  3.1952420e-01   5.3418363e-03
  2.1494596e+00   2.4141777e-04
 -3.5877550e-01   8.4206124e-04
  3.5545549e+00   1.0007744e-03
 -2.0671849e+00   3.6570383e-04
 -8.5208142e-01   1.4459422e-03
  2.5601182e+00   2.0078539e-03
 -1.1652597e+00   5.3483360e-03
  1.5919040e+00   6.8183406e-04
 -6.0933268e-01   7.5538433e-04
  1.7829937e+00   1.5448541e-06
  2.9481487e+00   5.1325961e-04
  6.5000767e-01   4.5398036e-03
  2.9859025e+00   1.2541767e-03
  4.3350616e-01   7.0420949e-04
 -9.2345560e-01   9.7820361e-04
 -3.7654698e-01   4.3600472e-03
  1.5026976e-01   2.3542719e-03
  1.7131082e+00   1.6284868e-03
 -3.0785644e+00   3.4898319e-03
  1.9528286e+00   5.8619985e-03
  3.8369185e-01   1.0370976e-02
  1.6369320e-01   2.5123721e-03
  6.2666303e-01   1.1231789e-03
 -4.6896556e-01   2.0396015e-02
 -2.3768041e-01   7.2740793e-04
  9.1534781e-01   1.2900213e-03
  1.9300559e-01   5.5502091e-02
 -1.3501822e+00   2.5276747e-03
 -1.0841004e+00   1.3507404e-03
 -3.9303148e-01   1.2568796e-04
  1.0366830e+00   4.2637254e-04
  1.3842895e+00   2.0256678e-04
  2.4330974e+00   3.4995552e-03
 -3.6335080e+00   6.0734875e-03
 -2.2824651e-01   7.9024294e-03
  3.1526908e-01   1.2500130e-02
  2.6399031e-01   1.6699236e-02
  1.5862519e+00   4.7923115e-04
 -6.8556523e-01   1.1717061e-02
 -1.7511618e+00   2.6728176e-03
  1.6062371e-01   2.8096624e-02
  1.0094463e+00   1.7424963e-03
  1.8797516e+00   9.3490202e-03
 -4.3256453e-01   3.2395911e-03
 -1.5348591e+00   2.3271784e-03
 -1.2317932e+00   8.6219916e-03
  2.5993519e+00   1.5914052e-04
 -1.6429225e+00   3.1235013e-03
 -3.4786880e-01   1.5347701e-02
 -2.6540461e+00   2.9135024e-04
 -1.3435086e+00   5.7957377e-03
  1.9470197e+00   1.0389900e-03
  8.2133645e-01   5.1852493e-03
 -1.1197631e+00   4.4945003e-03
  7.5385374e-01   2.4701108e-03
  3.4522018e-01   1.8847240e-03
  3.0144477e-02   3.8557597e-02
 -9.2971839e-02   9.0421895e-03
 -2.1638814e-03   4.7168951e-02
  4.6681932e-01   2.1966831e-03
 -9.2085160e-02   2.5150212e-02
 -1.7186356e-01   5.1097963e-02
 -8.2208925e-01   1.2823050e-03
 -4.8780942e+00   8.3446772e-05
 -5.6410879e-01   1.6047615e-03
 -4.5208362e-01   3.0282226e-03
  2.0574759e-01   1.2318205e-02
  4.2909079e+00   4.4391123e-03
 -3.4655025e+00   2.4390093e-03
 -2.7503335e+00   8.2950297e-05
  1.3861730e+00   3.3868314e-03
 -7.4305600e-01   5.2538976e-02
 -2.0778543e-01   6.0958248e-03
  1.7955493e-02   9.8514720e-04
 -1.8109574e+00   1.2089693e-03
  1.2878501e+00   4.4868025e-03
  7.5401694e-02   5.0087646e-03
  1.0732396e+00   2.2876222e-04
  4.2178312e-01   1.3234779e-03
 -2.0716665e+00   7.2807760e-04
 -1.1084604e+00   7.3732197e-04
  2.3563838e+00   3.8690926e-04
  1.3347245e+00   2.0070719e-03
  1.0543587e+00   4.9353001e-04
  6.2852281e-01   5.0721574e-04
 -1.3550121e+00   2.4971948e-04
 -8.8233763e-01   5.9876445e-04
  1.6668082e+00   4.0816379e-04
 -7.0078605e-01   2.8489963e-03
 -1.5024625e+00   5.4158070e-03
 -2.1360019e-01   1.6169971e-02
 -2.9645982e-01   7.1355700e-03
 -1.6148996e-01   1.3180667e-02
  2.5931156e-01   7.1790586e-03
 -1.8885279e-01   2.3233574e-02
 -2.3067228e-01   4.2478453e-02
 -2.3229875e-01   1.0222072e-02
 -3.3745596e-01   1.5338287e-02
 -7.1513009e-01   3.9035752e-03
  2.0804088e-01   6.5895024e-04
 -1.9140015e+00   7.4009290e-03
  2.5707288e+00   1.1895385e-04
  2.3261914e-01   1.9108406e-03
  2.3489258e+00   1.8219529e-02
  4.7011152e-01   1.0955684e-03
  1.2920598e+00   1.5496375e-02
 -7.1263331e-01   2.2930035e-02
  4.6801019e+00   1.2952454e-02
  5.9428084e-01   1.0371850e-03
  1.2696061e+00   2.6934904e-03
 -4.6386635e-03   4.2637624e-03
  1.6145378e+00   3.3398494e-02
 -8.3337188e-01   5.7902029e-03
 -4.4594294e-01   2.9161619e-03
 -2.3809484e-01   3.0803804e-03
  1.1006151e-01   2.9026603e-03
 -1.1362518e+00   6.9245049e-03
 -1.1549711e+00   4.0900256e-03
  1.8925248e+00   2.2284677e-03
 -3.3264840e-01   5.7555260e-03
  8.9009863e-01   4.6089548e-03
 -9.1750577e-02   2.3430776e-04
  8.9408817e+00   1.2200491e-02
  8.6114854e-02   6.6340291e-03
  1.4942604e+00   4.7069628e-04
 -8.7690622e-01   1.4950970e-02
  9.0443772e-01   4.3642547e-04
  1.3195593e+00   2.3883341e-03
 -6.3378647e-02   3.2139294e-02
 -5.9465176e-01   1.0882427e-02
  2.3096408e-01   5.8758702e-02
 -7.0311612e-01   1.0219084e-02
  6.5642333e-01   6.9794126e-02
  3.5934258e+00   1.4381761e-04
 -3.1297901e-01   3.7092488e-04
 -7.7475727e-01   1.6466008e-03
 -1.3210824e-01   3.2074135e-03
 -1.9688900e+00   4.7084130e-03
 -8.5628253e-01   2.9869596e-03
  1.6203026e-01   9.4148079e-03
  7.2917259e-01   8.9710653e-03
  7.4387252e-02   4.4415314e-02
 -9.9698102e-01   5.1663732e-03
  3.0787337e-01   2.8386237e-03
 -1.5870851e+00   3.3452542e-04
 -3.6552814e-01   6.1498047e-04
  1.1771652e+00   3.6756779e-04
 -1.7570958e+00   5.7855416e-03
 -1.8663199e+00   1.1146128e-03
 -1.3922946e+00   1.5077435e-03
 -1.7247026e-01   7.5430856e-03
 -2.1428225e+00   9.6901431e-04
  4.8781720e-01   2.9492649e-04
  8.4625983e-01   7.0474250e-03
 -9.4260341e-01   1.0433395e-03
  2.9455304e-01   1.3864268e-02
 -3.7210363e-01   3.3133780e-04
 -2.5532272e+00   1.6960119e-03
  2.5710866e+00   2.3236135e-02
  4.3091711e-01   7.8314886e-04
 -5.5361122e-01   6.0693030e-03
 -8.5229796e-01   1.5058472e-04
 -9.0133257e-02   3.6727430e-03
 -6.9250560e-01   2.3137202e-04
  5.7083887e-01   4.4885735e-04
 -5.9867692e-01   1.3972852e-02
 -1.4486547e-01   1.7911961e-02
  2.3021699e-01   5.7126820e-02
  1.4595063e+00   4.7846310e-04
  2.0140760e+00   2.0185034e-03
  7.4308252e-01   2.6037996e-03
 -2.0109195e-01   1.0064461e-02
  7.1586236e-02   2.0534320e-02
  1.6865902e+00   1.8000107e-03
  3.8717487e-01   2.8341576e-02
  3.8890591e+00   2.5143740e-03
  7.1519941e-02   4.0294533e-03
 -2.7946070e-01   1.5762860e-02
 -4.3767658e-01   3.3732257e-03
  1.1064771e-01   1.6930244e-03
  6.8042386e-01   4.1308650e-03
  9.1754407e-01   3.7674604e-03
  1.0469280e+00   4.4178529e-04
  8.5159403e-01   6.5836866e-05
  5.9978926e-01   6.2192292e-03
 -3.4399620e-01   1.9440795e-03
 -5.7449490e-01   3.4609688e-03
 -9.4407785e-01   4.1848212e-03
  3.2003636e+00   2.4855484e-03
 -1.0790631e-01   1.1618274e-03
 -9.1769695e-01   2.2678310e-02
 -2.6989305e-02   1.2120743e-02
  6.5358973e-01   8.1097271e-04
  1.3561311e+00   4.3070581e-04
  3.9863878e-01   1.4018863e-03
  1.2931995e-01   2.2817949e-02
  3.0659387e+00   1.6647020e-04
  1.1317749e+00   2.8029853e-02
  5.2588481e-01   5.3866852e-02
 -1.3354820e+00   6.6960638e-04
  2.9008833e-01   3.1673696e-02
 -1.8320431e-01   3.0932134e-02
  2.7115515e-01   7.4487276e-02
  1.8916122e+00   6.3540051e-03
 -3.3442587e-01   2.0693638e-03
 -7.8491473e-01   1.6461631e-02
  3.7745867e-02   1.2172813e-02
  1.2112627e+00   2.1983270e-02
 -4.3933773e-01   1.0393418e-02
 -1.0636576e-02   8.7681096e-03
  1.0186542e+00   4.4696210e-03
  9.9579537e-01   7.4865628e-04
  1.0731860e+00   9.4828606e-03
  4.9755988e-01   2.8955442e-04
  2.9410198e-01   9.9017681e-04
  8.8278838e-02   1.2727635e-02
  4.3650216e-01   6.7902642e-05
  8.0381441e-01   8.5523250e-03
 -1.4187533e+00   1.0175141e-04
  2.1691485e-03   5.5155447e-03
 -3.2504514e-01   7.6479488e-03
 -5.7241797e-01   2.7918216e-02
 -9.9498355e-01   5.0811036e-03
  1.1795864e+00   2.6889212e-02
 -2.2732139e+00   3.2376837e-02
  1.3612436e+00   8.2772080e-04
  5.3994343e-02   5.0255779e-02
 -4.1293240e-01   1.2456810e-02
  7.9016328e-01   7.6513300e-03
  3.1981382e+00   1.3623456e-04
 -5.7183784e-01   7.6145744e-03
  5.4427102e-02   3.8472228e-02
  6.1809206e-01   6.3748047e-02
  1.1251062e+00   1.2224091e-02
 -4.4290265e-01   1.5862223e-02
  3.2128456e-01   1.5542978e-02
 -3.7074047e-01   2.9540617e-02
  2.3194447e-02   5.0418265e-02
  5.2488756e-01   1.0832108e-03
 -8.0565229e-02   2.5185642e-03
  2.2541928e+00   5.6135990e-03
  4.5942542e-01   3.0543962e-02
 -1.5447801e+00   1.4357024e-02
 -2.9050419e-01   1.7814355e-03
  5.6412530e-01   1.8473845e-02
 -1.2882377e+00   1.5055034e-02
 -1.4069381e+00   1.2466520e-03
  1.7517044e-01   1.1462936e-03
  5.1774871e-01   2.5145239e-03
 -2.5271487e-01   5.6895373e-05
 -1.6369255e-01   7.2968230e-03
  6.8955708e-01   1.1853466e-02
  3.9191449e-01   3.1919985e-03
 -3.0917692e-01   6.5236106e-03
 -1.6286110e+00   2.3320671e-03
  4.5286337e-01   3.6533487e-03
 -4.4690144e-01   3.4907763e-03
 -6.2330931e-01   4.2585032e-03
  1.6484523e+00   5.9257713e-03
 -1.2980140e+00   3.8770741e-04
 -3.5212967e-01   1.1224096e-03
 -1.3803343e+00   5.2194342e-02
 -1.0574832e+00   1.4980816e-02
  7.7229929e-01   1.2818759e-03
 -1.3300174e+00   7.0604389e-03
 -1.8372354e-01   8.5481638e-03
 -5.4146481e-01   3.8819890e-02
  3.5101500e-01   4.0753526e-03
  2.3114884e-01   2.2384644e-02
  1.0058478e-01   6.5290280e-02
 -1.6487481e-01   3.6833283e-02
  3.1081140e-01   8.4605165e-02
 -2.9903471e+00   4.3642814e-03
 -2.8955406e-01   1.0905467e-03
 -9.1517866e-01   2.3637363e-03
  1.3230478e+00   5.5505284e-03
  5.9817529e-01   8.2297046e-03
  1.9815613e+00   2.0197625e-03
 -1.8140041e+00   2.0591021e-02
  3.4567636e-01   7.1470984e-03
  4.8206113e-03   1.2347568e-03
 -4.1652048e-01   2.0597237e-03
  8.1055403e-01   1.9823179e-02
  9.9255472e-01   2.5051378e-04
  9.4309169e-01   3.7211637e-04
 -2.2481680e+00   1.2654506e-02
  1.1160810e-01   2.8640946e-02
 -1.6533715e+00   1.9563169e-03
 -1.1808926e+00   1.0370427e-03
 -1.8915433e+00   2.2863342e-04
 -7.2926445e+00   2.9450681e-02
  1.1984639e+00   2.3912070e-02
 -1.4525908e+00   3.3638433e-03
  8.5492438e-01   2.5884723e-03
  9.5015329e-01   5.6814629e-04
 -6.6831863e-01   3.4815256e-02
 -2.2067031e-01   5.3352076e-03
  5.4344875e-01   1.4882581e-03
  1.6355982e-01   3.0783787e-03
 -2.9567065e+00   1.7865000e-03
  1.0579832e+00   1.2802488e-02
  8.1940256e-02   6.4263925e-02
  6.2075621e-01   1.1170058e-03
 -6.8305790e-01   1.6908366e-02
 -2.0038182e-01   6.2685393e-02
  4.0053657e-01   2.5768103e-02
 -8.8348669e-01   1.3744433e-03
 -4.3584299e-01   4.5067053e-03
  1.1621203e+00   2.0167874e-02
 -8.0281043e-01   1.8585520e-02
 -4.8734024e-01   1.1461593e-02
  2.9157659e-01   9.5670698e-03
 -9.1013230e-02   5.3107783e-02
 -2.4661207e-01   4.4438027e-02
 -3.9486045e-01   1.4025435e-02
 -1.0605783e+00   6.0600275e-04
  5.9066188e-01   1.2749672e-03
 -3.7775430e-01   1.9097666e-03
 -1.2885286e+00   3.8128495e-03
 -1.2967896e+00   7.6395681e-04
 -5.6918943e-01   2.3184773e-03
  7.5975347e-01   2.5897289e-03
  9.7118986e-01   1.8796245e-02
 -1.4434086e-01   5.7882402e-02
 -4.3099377e-01   1.6454352e-02
  3.1709439e-01   1.6672239e-02
  1.4714313e+00   1.0300348e-02
  1.3029346e-01   3.6746755e-04
  6.0177183e-01   8.0998102e-03
 -9.7639942e-01   1.2079504e-03
 -1.8567460e-02   1.0837569e-02
 -7.3483664e-01   8.8282553e-03
  7.4487694e-02   2.7064702e-02
 -1.1491386e+00   3.7294909e-02
 -9.2170167e-01   4.2828280e-04
 -2.9156363e-01   3.8985692e-02
 -3.5398316e-01   1.9982286e-02
 -8.1320441e-01   2.9254440e-02
 -1.9284301e-01   5.4415509e-02
  1.1198127e+00   2.3626864e-03
 -3.3807099e-02   3.8859290e-03
 -8.5518193e-01   4.3891996e-02
 -1.1115552e+00   5.6213979e-03
  7.3698479e-01   5.3382809e-03
 -1.7809068e-01   1.1033531e-03
 -1.7410477e+00   2.2692182e-03
  5.9030348e-01   3.2226622e-04
  1.8820550e-01   1.1775520e-03
  2.1007706e-01   2.5024540e-03
 -1.5369358e+00   4.6507069e-03
 -1.3369173e+00   5.1909555e-03
  1.8576927e+00   3.0967686e-03
  3.1485334e-01   2.2781518e-04
  2.4635050e+00   2.0848766e-03
  3.0229669e+00   3.0949262e-03
 -3.3772116e+00   9.0657425e-04
  2.7496490e+00   2.9567366e-02
 -1.1701892e-01   7.7147796e-03
 -2.5159950e+00   9.1012474e-04
  1.6274085e+00   2.5860430e-04
  2.8010002e-01   7.2069262e-04
  1.7378994e+00   8.8032021e-04
 -4.6906909e-01   4.5288625e-04
 -2.7700272e+00   1.2508107e-03
  1.7923785e+00   6.1707955e-04
 -9.7106999e-01   2.9229434e-04
 -6.0707057e-01   1.2867728e-03
 -7.2268355e-01   5.5056601e-04
  7.6121479e-01   8.5164153e-04
 -2.5429027e+00   3.2436061e-03
  1.3806762e+00   2.4222205e-03
 -2.9077142e-01   1.5040682e-02
 -8.1648058e-01   2.4101648e-03
 -4.9504191e-01   1.7857432e-02
 -5.6690812e-01   1.0025109e-02
 -6.2798005e-01   7.5917784e-04
 -6.2039405e-01   2.4454412e-03
 -5.0097001e-01   8.1328359e-03
 -4.0345716e-01   1.9805795e-03
  1.8772430e+00   7.3891215e-04
 -2.7327118e+00   9.8683790e-04
 -2.5560901e+00   1.1645826e-02
  1.9071383e+00   1.6758036e-03
 -4.4786856e-01   2.0460105e-02
 -3.1978506e-01   5.0743707e-03
 -1.8704692e+00   7.4210139e-03
  1.5344901e-01   6.7828991e-04
  1.0106368e+00   4.5112339e-03
 -5.9130865e-01   2.1562385e-03
  1.3506873e+00   2.5248248e-03
 -7.3561692e-01   1.7920939e-03
  6.5026760e-01   1.2352426e-02
  1.7335568e-01   5.5051474e-03
 -3.0953569e-02   3.6751823e-03
  2.3636805e-01   1.3711870e-03
 -9.4479924e-01   1.8900190e-03
 -8.5986680e-01   1.2496842e-02
  5.9513617e-01   1.1718919e-03
  1.9581793e-01   3.4890680e-03
  1.3624946e+00   3.9689822e-04
 -2.6204824e-01   1.6824432e-02
  1.1725888e+00   7.5735182e-02
 -3.2102966e-01   4.9545146e-03
 -6.7334890e-01   1.4197689e-03
  1.2871275e+00   1.1607486e-02
 -2.3498872e-01   5.1803379e-03
  3.8502237e-01   9.3416244e-02
 -8.7658173e-01   1.3919123e-02
 -5.5917990e-01   1.8498672e-02
  4.3967387e-01   4.2730901e-02
 -9.9385619e-01   2.6534052e-04
  5.2294540e-01   8.5094795e-02
 -6.5593070e-01   2.4371646e-02
 -3.1898847e-01   7.5797655e-04
  1.2360415e+00   2.5764811e-03
 -2.3366044e+00   1.8498275e-03
  9.9798596e-01   1.2836972e-03
 -2.2375400e+00   2.3762518e-04
 -2.4517412e+00   1.4597840e-02
  4.4523183e-01   4.5543700e-03
  6.7330277e-01   1.5904100e-03
 -1.8586670e-01   1.6668178e-03
  9.6802151e-01   5.7131094e-03
 -3.6895678e+00   2.7576424e-03
  2.9777105e+00   3.2778436e-04
  1.0353140e+00   2.4974626e-04
 -6.2979072e-01   3.8121965e-02
  1.6299046e+00   4.7759064e-03
 -2.0024040e+00   6.1718246e-04
 -2.2222915e+00   5.9507419e-03
  5.4664135e-01   4.8874579e-03
 -6.2502158e-01   1.7971944e-02
 -2.4938779e+00   7.0855278e-04
 -2.6300137e+00   4.4597080e-04
 -9.0808696e-01   2.3252994e-03
  8.4892236e-02   6.6524614e-03
 -5.7613713e-01   6.4595155e-03
 -5.6990087e-01   2.0122390e-02
 -2.0693662e+00   1.2683569e-02
  6.3130343e-01   4.1854368e-03
 -1.3705457e+00   2.2742437e-02
 -5.1004326e-01   6.1821342e-02
  1.4498156e+00   1.2269007e-03
 -8.3773589e-01   1.1423131e-02
  4.4022986e-01   2.1925261e-03
 -3.9320949e-01   2.4598759e-02
 -4.1422583e-02   3.1861398e-02
 -2.6826611e-01   9.1790026e-03
 -1.3232956e+00   1.1349294e-02
  4.7400054e-01   2.8905761e-04
  1.1463810e+00   8.5080499e-03
  6.2933743e-01   2.4937149e-02
 -1.2598523e+00   2.4329284e-02
  1.2348206e-01   1.8724471e-02
 -1.4537388e-01   2.6628058e-03
  1.4279720e+00   4.4808097e-04
 -1.1280080e+00   1.4103659e-03
 -9.3212914e-01   1.1484383e-03
 -1.8414393e-01   1.6791855e-03
  5.4082833e-02   6.7124660e-03
 -7.5916804e-02   2.1422929e-03
 -5.9947371e-01   1.6481783e-02
 -3.6666608e-01   1.2808457e-03
  4.3829653e-01   1.8183784e-04
 -8.3058369e-01   7.4649076e-03
  7.8008395e-01   2.2234519e-03
 -3.5772541e-01   2.5351062e-02
 -8.0657262e-01   4.4407616e-03
  4.0835157e-01   6.0018986e-03
  1.6687354e-01   4.5333360e-03
 -7.1392757e-01   1.5895825e-02
 -8.9708656e-01   4.0352922e-03
 -1.0860198e+00   2.7024285e-03
  4.0737441e-01   1.0931190e-02
 -5.0699764e-01   1.2443884e-02
 -3.5304284e-01   1.2237871e-03
 -1.2996331e+00   1.8637575e-02
  1.1992410e+00   9.3422914e-03
  5.1423955e-01   1.6830303e-02
  5.8476633e-01   2.0479984e-03
  8.1815428e-01   5.6403491e-04
 -2.9250062e-01   7.0192054e-02
  1.6457400e-01   5.1718418e-02
 -5.7843012e-01   8.6519187e-03
  6.0288340e-01   7.7799298e-03
  6.4709894e-02   1.7872379e-03
 -1.2700121e+00   2.1043762e-03
 -4.5559043e-01   4.4106958e-03
 -4.3774903e-01   1.5875380e-03
  1.4065630e+00   1.9851152e-02
 -4.4674212e-01   2.5976459e-03
  6.7258902e-02   4.9902365e-02
 -2.0430897e-01   3.9010122e-04
  1.1054406e-01   4.5588831e-03
 -2.4009961e-01   9.7248697e-04
 -1.2893230e+00   3.9776056e-03
 -1.5080281e-01   9.0589467e-03
 -8.1169778e-01   7.8652594e-03
 -1.6885956e-01   5.0995569e-03
  4.3948033e-01   3.3044254e-03
  8.8159114e-01   5.0126640e-03
  3.4547997e-01   3.2755878e-02
  1.5266675e+00   8.3292937e-03
 -1.2442138e+00   6.4328467e-03
 -9.8047787e-01   1.1458168e-03
  1.3407407e+00   2.0993846e-03
 -1.0250094e-01   3.7662697e-03
 -3.6562541e-01   5.5262507e-03
 -1.3039341e+00   2.8391227e-03
 -1.8344109e-01   1.2920683e-03
  5.1501762e-02   2.2929008e-03
  1.5921146e+00   4.2951358e-03
 -1.7300080e+00   1.6236495e-02
 -3.5005441e-01   2.0593857e-02
 -2.3460771e-01   1.0534672e-02
  1.9103304e+00   3.4524782e-03
  3.7094984e-02   2.4678415e-02
  3.3018559e-01   1.2668136e-04
 -9.1315025e-01   1.7645126e-02
 -9.0275735e-01   1.1835828e-02
  3.5652751e-01   5.3732591e-03
 -6.1900729e-01   1.0510476e-02
 -6.5330189e-01   4.6711925e-02
 -6.2667483e-01   3.8456081e-03
 -7.6112777e-01   1.6206176e-03
 -7.0506018e-01   2.6062507e-02
 -4.9906772e-01   1.5447432e-02
 -6.3109922e-01   8.5499784e-04
 -3.8286883e-01   5.3414293e-03
  1.5894392e+00   1.3410048e-04
  1.8195212e+00   1.5369288e-03
  6.9333392e-01   2.7266220e-04
 -1.4522406e+00   6.4604813e-03
  5.0621394e-02   8.8145817e-04
 -5.5139440e-01   4.2970889e-04
  4.6130821e-01   1.1501261e-02
  8.5487378e-01   6.6569355e-06
 -5.1212466e-01   1.7764764e-02
 -1.3760687e-01   9.3408627e-03
  1.7306347e+00   7.6153257e-04
 -2.6883239e-01   2.4861410e-02
  6.2950861e-01   4.8357439e-03
 -7.5974077e-01   1.2018475e-02
  2.6086393e-01   1.4004859e-02
 -8.5079157e-01   5.4392285e-06
  2.6526800e-01   7.7678241e-02
 -4.5021689e-01   1.5875306e-02
 -5.3246015e-01   9.9545158e-02
  6.5981966e-01   3.7333092e-03
  2.6935723e-01   9.5737132e-04
  5.5407602e-01   5.8787712e-04
 -1.0667413e+00   1.5661056e-03
 -2.4554414e-01   8.5163931e-04
  2.9515748e+00   2.9703714e-03
  7.7246159e-01   9.8780426e-04
 -8.8232666e-01   1.1402621e-03
 -1.0390414e+00   2.2770446e-03
  9.7056234e-01   2.9090273e-03
 -1.6905150e+00   3.5631096e-03
  4.4877481e-01   1.1994361e-02
  2.0093532e+00   6.1061746e-03
 -4.6604273e-01   3.1110171e-02
 -3.1841153e-01   1.0302344e-02
 -2.9716291e+00   3.8977488e-04
 -1.7965251e-01   2.3702417e-04
 -5.8532763e-01   2.8080870e-03
 -5.5456138e-01   2.2021770e-03
 -1.7050889e+00   1.2065447e-03
 -2.3724757e-01   2.3275091e-04
 -9.2812246e-01   2.3891342e-04
 -2.9046056e+00   1.8011236e-04
 -2.5154328e-01   4.4377260e-03
 -5.3868049e-01   2.3574874e-04
  1.2279809e+00   2.0480843e-03
 -5.1735085e-01   1.7910866e-03
  4.6981767e-02   2.0404155e-03
 -8.1466526e-01   1.3744676e-03
 -2.7549012e+00   2.2231574e-04
  2.3190672e-02   1.7617499e-03
  2.7001807e-01   1.3928091e-03
  1.3314031e+00   8.5247010e-03
 -5.3907865e-01   6.5634297e-03
  2.1241942e-01   2.5970242e-03
 -6.6589367e-01   1.4284226e-02
 -9.3458402e-01   2.4350032e-02
  5.2470434e-01   3.9003804e-02
 -3.6236957e-01   3.2759633e-02
 -6.9473594e-01   3.0072793e-02
  9.5383269e-01   2.0858429e-03
  4.2084694e-01   1.0911296e-03
  2.1258745e+00   2.3425119e-03
 -9.2939532e-01   4.8207589e-03
 -2.3544135e+00   7.1786824e-03
  5.7858688e-01   1.2562499e-02
  6.2128767e-02   1.3565899e-04
 -3.8347226e-01   7.9226065e-03
 -4.0735260e-01   3.5838602e-04
  9.7076124e-01   5.9671369e-03
 -2.6329508e-01   1.2331354e-03
  1.4751206e-01   3.7720101e-04
 -1.9137785e-01   2.7615048e-03
  3.4316111e-01   2.5762195e-02
 -1.8189728e-02   9.3332573e-04
  1.3425063e+00   8.9121517e-04
 -9.7084194e-01   1.0128452e-03
  8.8410389e-01   1.3611905e-03
  2.0721424e-01   1.8211765e-02
 -2.6941378e+00   8.8845828e-04
 -4.6590734e-01   3.9267619e-03
 -8.6333817e-01   4.0526409e-03
 -5.2453232e-01   6.2404387e-03
 -1.0111352e+00   2.2011528e-02
  1.1136519e+00   5.9184111e-03
 -2.4077836e-01   3.0419827e-03
  9.7204936e-01   1.9093012e-03
 -3.0714652e-01   6.8552895e-03
 -1.9238992e+00   2.5765454e-02
  3.4996745e-01   3.2462805e-04
 -4.7516767e-02   1.2293968e-02
  7.9696155e-01   3.9705887e-02
  3.1797150e-01   5.3740866e-02
  6.4861590e-01   7.8999415e-02
  9.6868032e-01   3.2320861e-02
  1.0437912e+00   9.3234703e-04
  2.2465038e-01   1.2826039e-05
 -3.6618958e+00   1.1450407e-03
 -1.8628918e+00   3.7132227e-04
  3.6639489e-02   1.6465272e-03
 -1.6453818e+00   1.6588678e-03
  9.9828374e-01   4.7967955e-04
  3.4773707e-01   3.4648422e-04
 -1.2764159e-01   3.7014242e-03
 -2.2250543e+00   6.1559142e-04
 -2.1330421e+00   5.3735101e-04
  6.1730564e-01   8.7092083e-04
 -9.8973066e-01   1.4462873e-03
 -3.8171205e-01   3.6913407e-04
 -8.3691585e-01   1.2812325e-03
 -1.3112434e+00   4.0440145e-04
 -5.8858637e-02   1.2112197e-03
  9.6326083e-01   2.4886567e-03
 -1.0169189e+00   2.6793925e-03
  3.5272765e-01   3.0092979e-04
 -5.9396440e-01   2.2698015e-03
 -4.8677522e-01   1.1417753e-03
  1.7488905e+00   1.3262676e-03
  2.8967977e+00   1.5054819e-04
  2.4124946e-01   4.1977544e-03
 -2.5433776e+00   1.9100145e-03
  1.7697293e+00   6.1770045e-04
  2.8732696e-01   7.0059695e-04
  1.1499714e+00   1.7237548e-02
 -3.1840482e-01   2.9958489e-03
 -3.7225261e-01   1.5579293e-02
  7.8745270e-01   1.1773246e-02
  4.1923657e-01   1.6237333e-03
  5.3570712e-01   7.5975820e-02
 -6.6055703e-01   7.5184718e-02
 -4.2278641e-01   5.2919700e-03
 -8.7303293e-01   6.0161046e-04
  2.1198251e+00   6.8992819e-04
  8.1307667e-01   1.6035099e-02
  3.4246081e-01   5.0245617e-03
 -2.3113296e+00   1.7968608e-02
 -2.9607217e+00   1.0939013e-02
  2.4520271e+00   6.5502995e-03
  2.4889182e-01   7.2296998e-03
 -5.3188329e+00   3.1300161e-02
 -2.2473273e-01   6.5710692e-04
  2.7411475e+00   4.0097142e-04
  1.2013054e+00   1.9883038e-03
 -1.0441517e+00   4.7366079e-03
 -4.3077068e+00   7.2387173e-03
  1.6282024e+00   7.8973576e-04
 -1.3871378e+00   1.4776953e-04
  1.4640590e+00   5.7489547e-04
 -2.7569219e-01   4.0030237e-03
  1.1261723e+00   4.5065390e-04
 -1.5904797e-02   5.8830163e-04
  7.8574812e-01   1.6753448e-03
 -2.4705048e-01   5.9182909e-03
 -6.6929942e-01   6.8913650e-04
  1.2165869e-01   8.9584879e-04
  1.9910165e+00   1.3088313e-04
 -3.7420684e-01   1.4167654e-03
 -4.0141928e-01   1.2071777e-02
  6.8153012e-01   2.4526282e-03
  2.4981172e+00   8.6566564e-03
  3.1306583e-02   1.4608103e-02
  1.0194454e+00   1.6227592e-02
  7.0447665e-01   1.4480848e-02
  3.7659213e-01   4.9310327e-03
  4.1972920e-01   2.2145507e-03
  2.6559296e+00   2.5092133e-03
 -1.4337258e-01   1.0026783e-03
  3.0062399e+00   1.5784061e-04
  2.2143323e+00   1.5837068e-02
 -3.1145892e+00   9.1139192e-04
 -1.4750055e+00   2.2542063e-04
  2.5837617e+00   5.3934879e-03
 -6.5288520e-01   1.3717748e-02
  4.6566284e-01   1.3421080e-02
  7.0630473e-01   5.0118389e-03
 -2.2464159e+00   2.3397405e-03
 -1.7325202e+00   9.0453489e-04
 -1.5185516e+00   1.2078610e-03
  1.3363138e+00   2.1236285e-03
 -1.5658916e+00   8.2109019e-04
 -2.2951727e-01   6.8753836e-04
  1.0765836e+00   8.3128753e-04
 -6.3672942e-01   6.6248002e-04
 -9.4938183e-01   2.3174070e-02
 -2.7839321e-01   8.1658649e-04
  9.2840093e-01   4.4841963e-04
  9.2191994e-01   1.1846268e-03
 -1.2260571e+00   5.7923193e-03
  5.6931738e-02   7.0323050e-03
 -2.6471503e+00   3.9284648e-03
  9.8131031e-02   5.1815636e-03
  1.7531985e+00   6.1295293e-03
 -1.2880035e-01   2.8522837e-03
  1.9583246e-01   5.5726585e-03
 -2.7387157e-01   1.5408968e-03
 -3.2615292e-01   3.5103617e-04
  2.8088075e-01   7.3877936e-03
 -4.1275758e-01   1.6472612e-02
  1.4515951e-01   6.0349251e-03
 -1.7878232e+00   7.2462688e-04
 -2.3151536e+00   1.9075059e-03
  1.5292325e+00   2.3093366e-03
  4.8518410e-01   5.0423015e-03
 -2.0198793e+00   1.8386458e-03
  1.0448962e+00   7.9243694e-04
 -4.3390206e-01   1.5983222e-02
  1.2067546e+00   1.7031835e-03
  1.9506710e+00   1.0853222e-03
 -2.5016236e+00   6.6972794e-03
  6.0296386e-01   1.0309715e-02
 -1.3181626e+00   1.6440706e-03
  1.7833885e+00   9.3162752e-04
  3.7573025e-02   2.6116977e-04
  1.4227129e+00   3.1769389e-04
 -2.5075963e-01   1.4692914e-03
 -8.9295620e-01   7.1635249e-04
  1.7070054e+00   1.1033098e-03
  1.7157345e+00   1.1798602e-03
 -2.7904797e-01   8.0213149e-04
 -1.0471433e+00   1.7132625e-03
  1.7745512e+00   2.8102056e-03
  5.2972245e-01   6.4450665e-04
  6.1799824e-01   1.6612585e-03
 -1.0570344e-01   1.3949876e-03
  1.1033216e+00   4.9112109e-03
 -7.8146482e-01   1.3586907e-03
 -9.1181368e-01   1.9167392e-03