  1.9271947e+00   4.0041236e-03
  3.3013968e+00   5.2372403e-03
 -1.3223475e+00   3.4916385e-03
 -1.8470693e+00   9.9980971e-03
  3.6856288e-01   6.5270732e-03
  1.8118323e-01   3.0605366e-02
  5.3072363e-02   2.7333179e-02
  7.1845663e-01   7.7445260e-03
 -3.2120189e-01   8.1681386e-03
 -4.9754170e-01   2.6493598e-02
 -8.1731685e-02   8.4640848e-04
 -1.7275307e+00   6.8515824e-04
 -1.1047591e+00   2.0943519e-03
  1.4425792e-01   3.6593848e-03
  1.7933474e+00   3.4942600e-04
 -6.6979808e-01   9.0969261e-04
 -1.3142596e+00   2.0776666e-03
 -1.0747352e+00   6.5462575e-03
  8.6556321e-01   1.8833418e-03
  1.8413461e+00   1.3781639e-03
 -6.9010627e-01   1.9952226e-03
 -4.0202063e-01   5.0594169e-03
  9.8342872e-01   1.1095742e-03
  1.8013602e+00   7.1717380e-03
 -5.9237778e-01   5.8648014e-03
  4.3459430e-01   1.0230986e-02
 -1.1695466e+00   1.0035643e-04
  1.0642931e-01   2.4526543e-03
  6.7643851e-01   1.3737708e-02
  3.2333705e-01   2.5101261e-02
 -4.6255088e-01   4.7198711e-03
  2.9636443e-01   4.8085777e-03
  1.5794808e-01   2.7210065e-04
 -2.5196874e-01   2.7155254e-02
 -1.2397661e+00   1.3981392e-03
  1.5152158e+00   6.0043571e-04
  1.3283343e+00   3.7540868e-04
  2.8166463e+00   9.9938258e-04
 -1.0853611e+00   3.0429212e-03
  1.0467290e+00   1.0015953e-04
  2.2158468e+00   2.7336054e-03
  1.8150302e+00   1.6370829e-03
 -3.0399008e+00   6.3433632e-04
  4.6804103e-01   6.7717321e-03
 -1.2149075e+00   2.0251071e-04
  2.1724987e+00   1.2243086e-05
  9.4636977e-01   3.8398398e-04
 -1.0828249e+00   8.4360101e-04
  2.4111353e-01   1.1957348e-03
 -8.7078565e-01   5.2158728e-05
  2.0676625e+00   1.5478044e-04
 -2.7903268e+00   2.6572132e-05
 -1.7487994e+00   2.4803707e-04
 -1.8563758e+00   1.7124523e-03
 -4.0432417e-01   1.8484960e-04
  3.6657903e-01   5.4837862e-04
 -2.6749761e+00   3.2860243e-03
  1.7042711e+00   6.5866590e-04
  3.8432682e-01   3.1539681e-03
 -6.9091600e-01   5.2196922e-04
  9.0967476e-01   1.4455475e-04
  6.2946223e-02   6.5022131e-04
  3.2526422e+00   4.6904952e-05
  3.4614553e+00   2.4265468e-02
 -1.4829673e+00   4.2184195e-03
  3.5408556e-01   1.8911407e-04
 -6.8969470e-01   6.1516854e-04
  1.5216819e+00   1.2981480e-03
 -1.5647808e-01   9.4416309e-03
 -1.0292357e+00   2.3927931e-02
  1.9267673e-02   3.0254389e-03
 -1.2846142e+00   9.0949849e-04
  3.0722317e-01   5.5199245e-04
 -1.6412815e+00   3.3243923e-03
  1.5009263e+00   2.0143962e-03
 -1.4356279e+00   1.3758554e-04
  2.2388699e+00   1.2372447e-02
  2.1395688e-01   3.6767088e-03
 -7.7716982e-01   2.4143612e-02
  1.3129584e-02   6.4742113e-03
 -5.1956999e-01   9.6342328e-04
  5.8721089e-01   6.0611602e-04
  1.3115754e+00   1.7465007e-03
  1.1610544e+00   1.1501988e-02
  1.0049616e+00   4.3967166e-03
  1.4223120e+00   6.7701505e-04
 -2.0176618e-01   4.4129934e-04
 -1.2339600e+00   1.0835163e-03
  5.7561018e-02   2.0446880e-04
  2.6816804e+00   5.5590156e-04
  6.3705081e-01   1.9080972e-03
  1.9495980e+00   1.4965289e-03
  1.3912470e+00   7.1738968e-03
  1.2855678e+00   1.2934385e-02
  1.1452200e-01   3.7153666e-03
 -8.6612806e-02   2.0092673e-04
 -3.5240927e+00   1.0688176e-03
  1.9473390e-01   1.0287862e-02
  1.4952636e+00   8.1441723e-02
  1.5802291e-01   9.3495036e-03
  2.1036954e-01   3.7330337e-02
 -4.1609362e-01   4.5459110e-02
 -9.8829162e-01   1.9997681e-02
  4.6552849e-01   2.5997207e-02
 -2.8742510e-01   2.2797612e-02
 -2.1284492e+00   3.6047375e-05
 -1.0618210e+00   1.3041348e-04
 -1.6736509e+00   6.8831418e-05
  1.3697804e+00   1.7892261e-03
  1.5689754e-03   3.6575628e-04
 -2.2239876e+00   9.3820046e-05
  2.1642491e-01   9.5891190e-04
  3.0240417e+00   8.4589541e-05
  3.8363522e-01   5.1613094e-04
  5.8349836e-01   3.5293535e-03
 -2.7561787e-01   4.8544363e-04
  2.5916767e+00   2.7201322e-04
  7.0409852e-01   4.6796643e-04
  3.6240673e-01   1.2567856e-03
 -2.3997667e-01   1.3901344e-04
 -2.7462876e-01   2.6006317e-05
  2.2688982e+00   3.4985092e-04
  2.3985786e+00   1.8140254e-05
  4.3740589e-02   6.3522777e-04
 -3.3580112e-01   2.8159182e-05
 -4.0003365e-01   7.6197606e-04
  1.2296040e+00   4.0939590e-04
  1.1046369e+00   5.7011761e-04
 -7.1226317e-01   7.5126910e-03
  3.2923928e-01   2.6446552e-04
  1.2499802e+00   1.2757683e-03
 -6.6264313e-01   5.4032513e-04
 -2.3438272e+00   4.5249920e-04
 -1.4468977e+00   4.1475738e-04
  3.3242592e-01   3.7283648e-03
  9.0139842e-01   5.6607677e-03
  5.4183197e-01   4.7553992e-03
  4.5115035e-02   8.2890959e-03
  1.2036363e+00   5.5731344e-04
  2.4608691e-01   5.7139983e-03
 -1.8162851e-01   1.5905917e-02
 -1.5566996e+00   1.0513227e-02
  3.2467477e-02   1.1702842e-03
 -1.1347510e-01   1.0150614e-02
  5.5327398e-01   5.6630452e-03
  3.0250049e-01   8.6027104e-03
  8.5411203e-01   4.0473897e-02
  2.4915880e-01   3.4613479e-02
  2.0734598e-01   2.6288822e-02
  5.3740686e-01   2.8210605e-02
 -2.5314322e-01   1.5156415e-03
 -1.4812992e+00   2.3925609e-04
 -4.9422535e-01   7.7848975e-03
 -1.6009283e-01   1.6198353e-03
  1.1112204e+00   2.4482438e-03
 -1.6109948e-01   6.5294688e-04
  7.2789961e-01   7.0237205e-04
  8.4790781e-02   6.8799634e-03
 -4.9136516e-02   8.0484249e-02
 -3.1344095e-01   1.7062571e-02
 -3.9702967e-02   1.9847667e-02
  4.1523394e-01   2.0003570e-03
  7.6519676e-02   1.0057109e-02
 -2.9484177e-01   1.5613727e-03
  6.2706518e-01   3.1133370e-02
  1.1349158e+00   5.3899004e-03
  4.3783110e-01   5.6004187e-04
  1.9881944e-01   1.5041055e-02
  5.3174549e-01   3.3283667e-03
 -2.9106992e-01   5.4794229e-03
  1.7988101e-01   2.3402764e-02
  2.1816516e-01   1.5191688e-02
 -1.3026135e-01   6.2687267e-03
  3.0054169e-02   2.5345936e-02
 -2.1265194e-01   4.4092894e-02
 -1.7859546e+00   1.6944314e-03
 -2.5199602e+00   1.0747894e-03
 -1.0428994e-02   1.2850093e-03
  1.0956781e-01   3.8387725e-04
  2.2289059e+00   6.3677765e-03
 -2.0038024e-01   8.1975758e-04
  8.1258357e-01   7.5055328e-03
  2.1432970e+00   1.6952030e-04
 -3.5714579e-01   1.0742533e-03
  3.6425793e+00   5.5123557e-04
 -2.0806220e+00   3.2920577e-04
 -8.4610492e-01   8.9312566e-04
  2.5689442e+00   1.4240204e-03
 -1.0266609e+00   2.3337500e-03
  1.6048169e+00   8.6379779e-04
 -6.2132889e-01   9.9167763e-04
  1.7829876e+00   4.9761189e-07
  2.9443221e+00   2.4527527e-04
 -1.7500940e-01   1.1426533e-02
  2.9467013e+00   2.0893912e-04
  4.0976110e-01   2.0307930e-04
 -9.5433992e-01   1.5890569e-03
 -3.2872298e-01   1.9152997e-03
  1.4637561e-01   5.0070952e-03
  1.8284814e+00   5.0996069e-04
 -3.1092708e+00   2.8007862e-03
  2.0863698e+00   2.3656483e-03
  3.1231982e-01   5.2675800e-03
  3.0786976e-01   4.6050050e-03
  6.4171416e-01   5.7351816e-04
 -2.8631568e-01   2.3836179e-02
 -1.9878392e-01   1.3506239e-03
  9.5357400e-01   1.0117455e-03
  4.0588543e-01   6.9950454e-02
 -1.3579983e+00   1.8266772e-03
 -1.1384679e+00   1.0471452e-03
 -3.9881364e-01   3.0398177e-04
  1.0356174e+00   4.9402734e-04
  1.3725865e+00   1.5143276e-04
  3.0254581e+00   4.6528694e-03
 -3.4415703e+00   6.0516279e-03
 -5.9908944e-01   2.3819273e-02
  4.0428343e-01   3.5969382e-03
 -4.0755149e-02   2.3444772e-02
  1.5351958e+00   1.9425469e-03
  2.1315779e-01   1.5877461e-03
 -1.7020180e+00   6.5379194e-04
 -1.1149645e+00   5.3512137e-03
  9.9615228e-01   2.7521153e-03
  2.1523333e+00   2.4198554e-03
 -1.5030006e-01   1.5001585e-03
 -1.3918799e+00   1.4188502e-03
 -7.8782207e-01   9.9741146e-03
  2.5936704e+00   1.2123059e-04
 -1.4079131e+00   1.0994400e-03
  1.4186896e+00   2.1841635e-03
 -2.6447389e+00   1.0127338e-04
 -1.5841004e+00   1.3236749e-02
  1.9943711e+00   1.7919492e-03
  1.2328838e+00   5.8562201e-03
 -7.8934722e-02   6.5153344e-03
  8.0189747e-01   3.2692265e-03
  3.9623597e-01   1.1667876e-03
  5.9876841e-01   1.7678587e-02
 -3.6935672e-01   6.8844445e-03
  4.4036809e-02   6.8138175e-02
  5.0566691e-01   7.7836984e-04
 -1.7831166e-01   7.4438825e-03
  5.4768175e-02   9.9677615e-02
 -8.2904398e-01   8.3797239e-04
 -4.8781533e+00   3.5540568e-05
 -8.1600380e-01   8.6385419e-04
 -3.2653952e-01   5.5489870e-04
  6.0701013e-01   2.6234381e-03
  5.1444693e+00   1.6635109e-03
 -3.2966573e+00   3.1825944e-03
 -2.7507074e+00   1.0207574e-04
  1.6478564e+00   4.3982142e-03
 -7.2263116e-01   3.6792301e-02
  2.4095383e-01   3.4552687e-03
  1.5289626e-01   4.5763643e-04
 -1.7176826e+00   1.0035166e-03
  1.1502858e+00   1.3220299e-03
 -1.2079788e-01   3.6987513e-03
  1.0747507e+00   1.2248004e-04
  4.3917704e-01   3.7704193e-04
 -2.0142019e+00   6.4025784e-04
 -1.0431061e+00   9.4708207e-04
  2.3687189e+00   1.0002182e-03
  1.4242258e+00   4.9974408e-04
  1.0998688e+00   5.2594231e-04
  6.2536371e-01   7.9685071e-04
 -1.3467801e+00   3.0477575e-04
 -8.8790476e-01   3.0688097e-04
  1.6646249e+00   2.9215316e-04
 -2.8035966e-01   1.3989781e-03
 -1.0237119e+00   2.5611760e-03
 -1.0648719e-01   8.1566749e-03
  8.4602885e-02   4.2280187e-03
 -4.8306003e-01   7.8421542e-03
 -4.1636329e-02   1.8002978e-02
 -3.3311555e-01   3.3382948e-02
  2.2444496e-01   3.4928996e-02
 -1.8889619e-01   1.2726567e-02
 -1.3345435e-01   9.4455108e-03
 -1.3054478e+00   3.2899026e-03
  2.0049825e-01   5.3959049e-04
 -2.4185548e+00   4.8745614e-03
  2.5647593e+00   2.2368813e-04
  3.2766268e-01   9.2126400e-04
  5.6491933e+00   1.2640775e-02
  5.0269818e-01   1.4165298e-03
  1.8177606e+00   1.6332589e-02
 -4.8417446e-01   2.4999663e-02
  4.8623743e+00   1.4823787e-02
  6.0889906e-01   4.2693989e-04
  1.3511183e+00   1.7663239e-03
 -1.6099003e-01   1.7210325e-03
  1.5905731e+00   2.5910202e-02
 -2.6407939e-01   3.8536671e-03
 -6.5281081e-01   1.1261116e-03
 -6.7364061e-01   1.4198541e-03
  3.8068825e-01   3.9635776e-03
 -1.1956388e+00   1.5493712e-03
 -1.2038133e+00   1.5802282e-03
  1.6662725e+00   2.4503642e-03
 -5.2870524e-01   1.1510300e-03
  8.2390541e-01   1.4976424e-03
 -8.6791456e-02   2.6435120e-04
  9.4829836e+00   8.5215699e-03
 -5.3453678e-01   5.9182267e-03
  1.4865201e+00   1.6168329e-03
 -8.0869228e-01   1.1252511e-02
  9.1678953e-01   1.3420806e-04
  1.2034382e+00   7.4604452e-03
  1.9107907e-01   4.5568864e-03
 -3.1909934e-01   1.6261233e-02
  3.1852293e-01   2.0653058e-02
 -9.8175162e-01   1.0045527e-02
 -7.5597703e-01   3.0730145e-02
  3.5919926e+00   1.4943306e-04
 -3.2519758e-01   1.5977205e-03
 -7.1678901e-01   1.3363542e-03
 -2.6173916e-01   4.1354797e-03
 -2.0085063e+00   2.1557801e-03
 -6.7798644e-01   3.2173954e-03
  1.4521192e-01   3.0723410e-03
 -2.4477098e-02   1.1557424e-02
  1.6876343e-01   5.3598471e-02
 -6.2492537e-01   1.2739038e-02
  5.7115406e-01   3.8065212e-03
 -1.5876232e+00   5.3186750e-04
 -3.4686860e-01   2.4126500e-03
  1.1729639e+00   6.3253543e-04
 -1.4928966e+00   2.9978591e-03
 -1.7183434e+00   4.8416960e-03
 -1.3862231e+00   1.6492634e-03
  7.5540140e-02   6.7407573e-03
 -2.1587017e+00   2.6336688e-04
  4.8914966e-01   2.6584647e-04
  1.3144088e+00   1.0410238e-02
 -9.7998059e-01   9.9059939e-04
  6.3469213e-01   1.3422572e-02
 -3.7920710e-01   4.6338828e-04
 -2.5017247e+00   2.3671333e-03
  1.7118894e+00   1.5956892e-02
  4.3477431e-01   3.6243998e-04
 -6.1955518e-01   8.1644679e-04
 -8.5528374e-01   7.5930388e-05
 -8.2971185e-02   4.2632991e-03
 -6.9360429e-01   3.0533932e-04
  5.8684474e-01   7.7420974e-04
 -9.1633506e-02   1.7760940e-02
  3.7908992e-01   2.6397713e-02
 -4.2664045e-01   2.0372981e-02
  1.4804032e+00   3.9961305e-04
  2.0171125e+00   3.4331561e-03
  8.1513250e-01   6.0176942e-04
  2.3056148e-01   9.0972455e-03
  2.0006830e-01   1.5059107e-02
  1.7348945e+00   1.3453111e-03
 -1.7454740e-01   1.6269173e-02
  3.7581608e+00   4.5290557e-03
 -2.8275550e-04   1.3393407e-03
 -2.3688492e-01   1.4580730e-02
 -7.1718335e-02   1.9278617e-03
  6.8683565e-02   3.6315112e-03
  6.6190255e-01   5.3555807e-03
  6.2940830e-01   1.3744803e-02
  1.0308769e+00   4.3680146e-04
  8.5098177e-01   1.3700844e-04
  5.2283514e-01   6.0510021e-03
 -3.9043084e-01   4.2927708e-03
 -3.8191566e-01   6.7014019e-03
 -8.5192424e-01   4.1283411e-03
  3.2421589e+00   1.8717858e-03
 -1.1808005e-01   1.6022051e-03
  1.5225627e-02   1.5378573e-02
  3.1804729e-02   6.9164443e-03
  6.6446972e-01   8.8171271e-04
  1.3396962e+00   9.5517782e-04
  3.7057135e-01   4.5785971e-04
  7.1249086e-01   3.0297803e-02
  3.0633359e+00   8.5196159e-05
  2.3667274e+00   6.2882192e-02
  4.7859251e-01   3.3837423e-02
 -1.3568112e+00   2.0667606e-03
  2.1005966e-01   5.4299228e-02
  6.3218439e-01   1.0907906e-02
  6.8356282e-01   6.1444383e-02
  1.8590682e+00   1.2496352e-02
 -2.9579079e-01   1.2141103e-03
 -1.2233536e+00   8.8085691e-03
  1.7864595e-01   1.5008041e-02
  1.0769515e+00   1.2029902e-02
 -1.7889024e-01   1.1112239e-02
  2.1713156e-01   5.2989088e-03
  8.5736775e-01   6.8445574e-03
  9.6291286e-01   1.1832740e-03
  1.3416400e+00   7.5346516e-03
  5.0137872e-01   4.3027275e-04
  2.9915172e-01   4.9190607e-04
  7.3205101e-01   1.1977973e-02
  4.3979198e-01   1.4851207e-04
  3.1425801e-01   7.8883627e-03
 -1.4176482e+00   7.9023768e-05
 -1.1083868e-01   2.3745759e-03
 -7.3756087e-01   5.4533561e-03
 -5.7106769e-01   6.6273059e-03
 -8.0314910e-01   1.9742758e-03
  1.7142614e+00   9.5479889e-03
 -1.5855327e+00   1.0802479e-02
  1.3548310e+00   4.9420662e-04
  3.3659294e-01   4.0162042e-02
 -7.8488451e-01   1.7716102e-02
  6.5825546e-01   5.4446608e-03
  3.1976769e+00   1.4525019e-04
  7.3202024e-03   2.1625994e-02
  1.6184129e-01   2.3083052e-02
  7.0577103e-01   1.4247378e-02
  1.0013616e+00   2.3221720e-02
 -3.1729966e-01   3.6222676e-03
  7.4972831e-02   1.4367140e-02
  9.0124421e-02   7.7230006e-02
  2.1239655e-02   2.4886308e-02
  5.4968554e-01   4.2816935e-04
 -1.2406739e-01   1.2434797e-03
  2.6737008e+00   1.1941061e-03
  8.8532710e-01   5.0032213e-03
 -1.9167930e+00   2.3630220e-03
 -2.9647890e-01   6.5666018e-04
  1.4627168e+00   5.9495028e-03
 -1.7808850e+00   2.2431633e-03
 -1.4345968e+00   7.5630605e-04
  2.1260414e-01   1.5541277e-03
  5.8973658e-01   4.0030296e-04
 -2.5265303e-01   2.6906533e-05
 -2.1712700e-02   1.2732033e-03
  1.6994522e+00   1.0763290e-02
  4.5149168e-01   7.2459836e-04
 -1.1854392e-01   2.3593802e-03
 -1.6212988e+00   4.9762771e-04
  4.3313652e-01   9.4981509e-04
 -5.2093107e-01   2.2401172e-03
 -5.5939728e-01   5.9623981e-04
  1.6513090e+00   1.2112719e-03
 -1.2596627e+00   4.2980796e-04
 -3.5260874e-01   3.2830669e-04
 -1.1115937e+00   2.2998510e-02
 -3.2972077e-01   5.2996315e-03
  8.0508709e-01   4.2444069e-04
 -1.6279378e+00   1.5376897e-03
  2.4217239e-01   6.3250456e-03
 -2.6462276e+00   9.7224079e-02
  3.6229664e-01   4.0422492e-03
  2.2111040e-01   3.7759233e-02
  1.1364772e+00   4.7777373e-02
  3.9665785e-01   1.4966260e-02
 -2.3726800e-01   4.3340012e-02
 -2.7339604e+00   6.3599385e-03
 -3.3022901e-01   1.3748457e-03
 -9.4387519e-01   2.0147716e-03
  1.3312619e+00   4.6257344e-03
  1.0127833e+00   6.6425116e-03
  1.9814670e+00   8.8213140e-04
 -1.2075669e+00   1.4028285e-02
  2.3463026e-01   4.9440749e-03
  5.5708785e-02   2.6980478e-03
 -3.3202356e-01   1.3271123e-03
  1.2012899e+00   1.3378144e-02
  9.9870098e-01   1.1481522e-04
  9.5633978e-01   3.5726067e-04
 -1.4597992e+00   9.2446581e-03
 -1.5504214e-01   1.6157316e-02
 -1.6709216e+00   9.0235035e-04
 -1.2353308e+00   3.5984225e-03
 -1.8835988e+00   2.9415090e-04
 -4.9405375e+00   1.0884038e-02
  1.1852517e+00   1.8927695e-02
 -1.5249072e+00   8.4512745e-04
  7.5619459e-01   1.7868889e-03
  9.1733360e-01   7.5285806e-04
 -5.1037051e-02   8.7569710e-03
 -2.7041030e-01   1.9000645e-03
  5.3394663e-01   2.7512312e-03
  1.7532969e-01   2.4152126e-03
 -2.9422202e+00   9.5776038e-04
  4.3022460e-03   8.4649017e-03
  3.7091368e-01   9.2340335e-02
  4.8080739e-01   2.8689897e-03
 -1.1087891e-01   2.5234642e-02
 -5.6606448e-01   3.1740867e-02
  1.2290497e-01   1.2527267e-02
 -9.0330672e-01   1.5687563e-03
 -4.0520027e-01   2.0586690e-03
 -1.4441241e-01   1.9977394e-02
 -7.8132457e-01   1.1859502e-02
 -4.8748517e-01   1.6431600e-02
  2.5878578e-01   3.4867931e-02
 -8.2494002e-03   6.3036337e-02
 -3.6066696e-01   2.4969708e-02
  1.3130747e-01   1.1958726e-02
 -1.0425639e+00   1.6103671e-03
  6.2081641e-01   2.1937948e-03
 -4.2990026e-01   1.5872007e-03
 -1.3592784e+00   4.0950617e-03
 -1.2738572e+00   4.7781385e-04
 -5.2440733e-01   7.2033680e-03
  7.9454571e-01   2.1521051e-03
  6.4783502e-01   4.7147898e-03
 -6.3924849e-01   1.9765588e-02
 -2.2150001e-01   7.0841806e-03
  1.7870322e-01   2.0008916e-02
  1.1421871e+00   8.2076676e-03
  1.2853135e-01   3.1183680e-04
  5.9242100e-01   1.8161854e-02
 -9.6296573e-01   4.7511200e-04
  1.6668318e-02   2.1394514e-02
 -7.7411443e-01   1.4198385e-02
  6.9131577e-01   8.0756441e-02
  2.1861567e-01   2.4684390e-02
 -9.2596477e-01   2.8156899e-04
 -2.5699526e-01   5.4056723e-02
  6.7809872e-02   9.1010734e-02
 -8.8462842e-01   1.2571858e-02
 -4.1519719e-01   8.2960039e-02
  1.0354823e+00   2.9950636e-03
 -1.4843638e-01   7.3427283e-03
  1.8720049e-01   6.4377375e-02
 -9.7231257e-01   6.7160772e-03
  4.6094516e-01   1.8837797e-03
 -1.7842899e-01   9.0061402e-04
 -1.7646340e+00   1.7473953e-03
  5.8012390e-01   4.0217608e-04
  1.4672227e-01   1.5885192e-03
  2.1131307e-01   1.6401191e-03
 -1.2024555e+00   2.8122391e-03
 -1.2922548e+00   7.6890741e-03
  1.1572276e+00   2.0677457e-02
  3.1149641e-01   1.5050014e-04
  2.5747721e+00   9.1593235e-04
  2.9955771e+00   1.6793058e-03
 -3.3723614e+00   3.2913010e-04
  1.8962734e+00   1.2306836e-02
  2.9220626e-01   5.2464744e-03
 -2.4793141e+00   3.1417920e-04
  1.6258060e+00   1.3412745e-04
  3.1151628e-01   1.2854279e-03
  1.7764105e+00   1.0153441e-03
 -4.5900846e-01   3.4794956e-04
 -2.6923170e+00   1.6574179e-03
  1.7702322e+00   6.2206440e-04
 -9.7152728e-01   2.9098315e-04
 -6.3430238e-01   1.5634479e-03
 -7.3934644e-01   9.9367753e-04
  8.6113590e-01   1.9414002e-03
 -2.6093862e+00   3.3782476e-03
  1.3473177e+00   9.3837304e-04
 -3.1604573e-01   1.7768785e-02
 -8.6420077e-01   3.8767871e-03
 -7.6386631e-01   7.3603489e-03
 -6.1433703e-02   1.1411776e-02
 -6.2220740e-01   5.1234546e-04
 -6.3578391e-01   1.9014843e-03
 -5.3178078e-01   3.2811987e-03
 -3.9124793e-01   1.8198452e-03
  1.9019431e+00   7.1579369e-04
 -2.7571838e+00   9.7765331e-04
 -2.5734370e+00   3.9407904e-03
  1.7310114e+00   3.8327805e-03
 -2.1481168e-01   9.7278617e-03
 -2.0810485e-01   9.1467164e-03
 -1.8553929e+00   2.6165468e-03
  1.6388929e-01   8.2850753e-04
  7.6402676e-01   5.8045480e-03
 -6.2588954e-01   1.1254984e-03
  1.3807724e+00   1.1174709e-03
 -7.5468481e-01   1.0114567e-03
  6.1691952e-01   4.2544000e-02
 -1.8088757e-01   4.4676466e-03
 -1.0193101e-01   1.1442082e-03
  2.3834303e-01   3.6906905e-04
 -9.1256607e-01   9.1294653e-04
 -1.2585521e+00   1.5432616e-02
  6.1080498e-01   7.8073057e-04
  3.1861484e-01   1.8952293e-03
  1.3629197e+00   1.4011424e-04
 -3.3198498e-02   5.1003322e-03
  1.9858326e+00   4.7502108e-02
 -2.6590452e-01   2.6689391e-03
 -6.5466863e-01   1.0597229e-03
  1.4121519e+00   2.3607442e-03
 -5.1727772e-01   4.0858048e-03
  1.6391052e+00   4.2316984e-02
 -2.7240786e-01   6.2825144e-03
 -3.8573000e-01   5.1538233e-02
 -3.4794500e-01   3.6567125e-02
 -9.9087518e-01   3.1648934e-04
 -1.0546928e-01   7.4139178e-02
  5.7380706e-02   5.3464603e-02
 -3.2569405e-01   1.0457003e-03
  1.2156848e+00   4.4595362e-03
 -2.3415089e+00   1.0833832e-03
  1.0198981e+00   1.4320004e-03
 -2.2351108e+00   2.5225221e-04
 -1.2635585e+00   8.5749635e-03
  4.2904967e-01   1.0998808e-03
  6.5392226e-01   1.9828877e-03
 -2.5978500e-01   3.2912213e-03
  9.1089517e-01   2.8062023e-03
 -3.6456017e+00   1.5327664e-03
  2.9760363e+00   1.3427867e-04
  1.0353285e+00   3.8815517e-04
  1.3190934e-01   2.9144034e-02
  1.2593814e+00   4.5149247e-03
 -1.9923503e+00   3.2887375e-04
 -2.5320530e+00   4.8188712e-03
  4.7691432e-01   2.4351191e-03
 -8.0145216e-01   1.8441254e-02
 -2.5454392e+00   8.9728780e-04
 -2.6402769e+00   2.7247018e-04
 -9.1779310e-01   2.4048025e-03
  3.0489776e-01   3.8399594e-03
 -3.2742333e-01   2.6441915e-03
  4.6652094e-01   7.6239104e-03
 -4.3372178e-01   1.6772296e-02
  4.3682468e-01   3.4241546e-03
 -8.7447822e-01   2.2259872e-02
 -1.8900186e-01   6.8287276e-02
  1.4366567e+00   1.0541858e-03
 -3.9032078e-01   1.6472790e-02
  3.3441055e-01   3.5232995e-03
  2.3270275e-01   1.2560789e-02
  4.4459891e-02   4.8964649e-02
 -1.8514608e-01   1.2178628e-02
 -1.1616799e+00   3.8221204e-03
  4.6623060e-01   2.6759465e-04
  1.6368107e+00   4.1833222e-03
  6.7274237e-01   1.6871665e-02
 -2.8935821e+00   1.3652068e-02
  4.0598115e-01   1.2088014e-02
 -2.6960275e-01   1.7962882e-03
  1.4262705e+00   2.3355348e-04
 -1.0956377e+00   2.2264635e-03
 -9.2612481e-01   3.1251390e-04
 -1.6438757e-01   6.8969838e-04
  4.5730766e-02   1.2932629e-03
 -6.4922526e-02   1.3845760e-03
 -1.3500594e-01   9.1061769e-03
 -4.4351783e-01   1.7629877e-03
  4.3748489e-01   1.8106922e-04
 -6.5502608e-01   2.6224134e-03
  9.1986030e-01   2.0656148e-03
 -2.7085441e-01   1.5334605e-02
 -9.9677765e-01   4.3790564e-03
  4.7573549e-01   2.0383741e-03
  2.5967535e-01   2.6936161e-03
 -4.0263910e-02   8.7856119e-03
 -8.5702658e-01   3.9641988e-03
 -9.9647647e-01   2.6027220e-03
  1.5596421e-01   5.0791497e-03
 -3.7566432e-01   7.6658730e-03
 -3.2918209e-01   5.8661023e-04
 -1.1241328e+00   1.6192675e-02
  1.2282176e+00   1.0227809e-02
  2.1180306e-01   2.8231429e-02
  5.9629464e-01   6.7360658e-04
  8.0545193e-01   4.5700069e-04
 -7.4298643e-02   5.8439080e-02
  4.0011498e-01   7.6250680e-02
 -3.9121953e-01   4.0542297e-03
  6.9172883e-01   1.6113707e-03
 -3.3913687e-01   1.3673771e-03
 -1.2374250e+00   1.1690932e-03
 -3.6695006e-01   2.0898792e-03
 -4.2074555e-01   2.3620892e-03
  3.5734518e+00   8.2578957e-03
 -3.5987991e-01   1.8617943e-03
 -6.2066579e-01   3.2753907e-02
 -1.6487959e-01   1.8204502e-03
 -3.4197856e-02   6.8499555e-04
 -3.1347868e-01   6.7639688e-04
 -1.5973550e+00   2.0234308e-03
 -4.6015409e-01   6.6155633e-03
 -8.5550284e-01   2.5440226e-03
 -4.6602744e-01   3.3090087e-03
  4.5815533e-01   1.2980918e-03
  1.1188414e+00   1.2786970e-03
 -1.2280859e-02   4.6843037e-02
  8.4071982e-01   8.7238953e-04
 -2.0012796e+00   1.2257011e-03
 -1.0842510e+00   1.2165520e-03
  1.3386025e+00   1.2264628e-03
 -3.5511363e-02   1.1702696e-02
 -4.3135396e-01   1.1919021e-03
 -1.2239851e+00   1.3844208e-03
 -2.5478220e-01   1.3046940e-03
  3.6562991e-01   7.4857408e-03
  1.3913711e+00   2.2838525e-02
 -4.0622988e+00   1.1928964e-02
 -4.5548761e-01   5.5226614e-03
 -4.0927103e-01   8.5174255e-03
  1.8152860e+00   5.0883312e-03
 -1.5067081e-02   1.7470086e-02
  3.3060342e-01   4.5042631e-05
 -1.0784823e-01   1.4059666e-02
 -6.8479186e-01   5.8040898e-03
 -1.0463077e-02   1.2198284e-02
 -3.7756467e-01   3.2325223e-02
  3.9804704e-02   2.4957383e-02
 -6.0405618e-01   1.2691204e-02
 -7.6353765e-01   1.0353634e-03
 -5.5482978e-01   3.1678203e-02
 -1.4606795e-01   2.3025306e-02
 -6.2063003e-01   4.4856194e-04
 -4.2740726e-01   1.0986691e-02
  1.5926927e+00   1.1948810e-04
  1.7874048e+00   4.6012941e-04
  7.0090282e-01   3.2738861e-04
 -1.3230854e+00   5.1164366e-03
  4.1376188e-02   1.9367482e-03
 -5.3629351e-01   8.3337905e-04
 -1.0541043e-01   8.5583339e-03
  8.5493958e-01   1.6152517e-06
 -4.6975660e-01   1.9429261e-02
 -3.7163430e-01   6.9212629e-03
  1.7129420e+00   2.2065758e-03
  1.4085786e-01   2.7471045e-02
  6.2852603e-01   1.3217387e-02
 -1.3503452e-01   1.5033480e-02
  4.3444328e-02   1.9949200e-02
 -8.5085666e-01   1.6816260e-06
  4.7633448e-01   5.3116545e-02
 -5.7427967e-01   2.4673684e-02
 -2.8452188e-01   6.8524107e-02
  5.6729686e-01   3.9040823e-03
  2.7961510e-01   2.8453811e-04
  5.2455974e-01   7.6910306e-04
 -1.0524529e+00   2.4755783e-03
 -2.4796435e-01   3.2114383e-04
  2.8662519e+00   2.1359040e-03
  7.7705938e-01   4.7043306e-04
 -8.8156444e-01   1.0952468e-03
 -1.0105749e+00   6.9694762e-04
  1.1398770e+00   1.0183345e-03
 -1.6594936e+00   3.6266298e-04
  1.3385986e+00   5.8544413e-03
  1.6625919e+00   1.2603518e-02
 -1.9878776e-01   1.3223351e-02
 -5.4841763e-01   6.4726085e-03
 -2.9736841e+00   2.3579023e-04
 -1.8616898e-01   7.8387755e-05
 -4.4254425e-01   1.6605704e-03
 -6.4922029e-01   2.3177247e-03
 -1.7005869e+00   6.1508652e-04
 -2.2861555e-01   4.6829093e-04
 -9.3280381e-01   4.2204093e-04
 -2.9094238e+00   3.6251635e-04
 -3.7795445e-01   7.3541543e-03
 -5.3370875e-01   7.1603863e-05
  1.2223624e+00   5.7710451e-04
 -5.9467399e-01   1.8523248e-03
  1.7784666e-02   2.7740528e-03
 -7.9390490e-01   4.8466717e-04
 -2.7480652e+00   8.7604931e-05
  7.8222461e-02   1.4277135e-03
  2.2134811e-01   1.2286134e-03
  1.3152877e+00   3.2643417e-03
 -2.7461164e-03   1.0028091e-02
  2.2061709e-01   1.6382735e-03
 -4.8852172e-01   3.7231505e-02
 -8.3303654e-01   1.7211335e-02
 -2.4957588e-01   8.6307995e-02
 -1.8185012e-01   3.1984534e-02
  7.1790755e-02   4.6455882e-02
  8.0430788e-01   5.9190444e-03
  5.1001060e-01   7.1421749e-04
  2.1297264e+00   1.2902780e-03
 -8.0932295e-01   1.3556224e-03
 -2.8619945e+00   5.9941821e-03
 -4.4517273e-01   8.1124343e-03
  5.8398928e-02   2.9699432e-04
 -2.1917243e-01   3.7876826e-03
 -4.0532041e-01   5.6896260e-04
  8.5788745e-01   3.6673641e-03
 -2.4143228e-01   7.1304740e-04
  1.2467448e-01   9.3454006e-04
 -4.0669078e-01   1.2739633e-03
  9.9040836e-01   1.5286976e-02
 -2.9300548e-02   3.5434953e-04
  1.3450420e+00   1.0610519e-03
 -1.0177780e+00   7.0131029e-04
  8.9713550e-01   1.3366573e-03
  4.6653631e-01   2.2277473e-03
 -2.8045809e+00   1.4821498e-03
 -5.5879730e-01   1.6386051e-03
 -4.5133919e-01   3.2716123e-03
 -5.5854708e-01   1.6803798e-03
 -9.5411664e-01   1.2830276e-02
  1.1649075e+00   5.3899819e-03
 -2.7160227e-01   7.7031704e-04
  9.5966023e-01   2.8906140e-04
 -2.2590403e-01   1.3696058e-03
 -2.0992007e+00   1.0567823e-02
  3.4496105e-01   8.5045205e-04
 -5.9081024e-01   8.5629495e-03
  1.1431547e-01   4.2589996e-02
  2.9881859e-01   2.9976791e-02
 -4.4257081e-01   6.2291864e-02
  5.5311465e-01   2.1180421e-02
  1.0668552e+00   3.2503874e-04
  2.2459242e-01   1.5724809e-05
 -3.6663945e+00   2.9815471e-04
 -1.8637811e+00   4.2613136e-04
  1.7397988e-01   5.4861736e-03
 -1.5795312e+00   1.9874431e-03
  1.0061176e+00   1.8498153e-04
  3.4804124e-01   5.0238869e-04
 -1.0348111e-01   2.1822096e-03
 -2.2533417e+00   2.6622042e-04
 -2.1318965e+00   9.0946633e-05
  6.4767689e-01   9.1956265e-04
 -9.1821051e-01   4.1012018e-04
 -3.8183793e-01   3.3508116e-04
 -8.4277666e-01   8.6822419e-04
 -1.3057789e+00   4.6516125e-04
 -8.4575221e-02   7.4650988e-04
  9.2936194e-01   1.7003457e-03
 -1.0286677e+00   2.6380911e-03
  3.7489623e-01   4.2710835e-04
 -5.1819479e-01   1.0123348e-03
 -4.9671781e-01   1.0425880e-03
  1.6504527e+00   1.2623831e-03
  2.8890378e+00   1.2807737e-04
  2.4917409e-01   2.2955600e-03
 -2.2089100e+00   2.0534159e-03
  1.7846903e+00   2.2536892e-04
  2.7513161e-01   5.1067013e-04
  1.7765950e+00   2.8988414e-02
 -2.2396064e-01   2.4456445e-03
 -6.3761598e-01   9.9992882e-03
  6.9021755e-01   8.7367510e-03
  4.1794419e-01   3.5762510e-04
 -1.3053289e-01   4.6143182e-02
 -6.1392975e-01   3.5237554e-02
 -6.0486370e-01   1.2823526e-03
 -8.8043118e-01   5.1690667e-04
  2.1263719e+00   8.8822236e-04
  8.4862143e-01   6.5108654e-03
  2.7425894e-01   3.3905692e-03
 -2.6099033e+00   5.7880422e-03
 -3.2884567e+00   2.9773938e-03
  2.1020198e+00   6.5915622e-03
  2.7191103e-01   3.2209361e-03
 -5.5275002e+00   1.7617671e-02
 -2.2225799e-01   2.4726806e-04
  2.7420831e+00   3.0630938e-04
  1.1677496e+00   1.8454086e-03
 -9.0345734e-01   7.2360723e-03
 -4.3054376e+00   2.1657685e-03
  1.6161931e+00   4.1850939e-04
 -1.3878883e+00   2.6438403e-04
  1.4476696e+00   6.8798760e-04
 -6.8632931e-02   5.6893402e-03
  1.1310016e+00   1.6010090e-04
  8.9431899e-03   1.4854695e-03
  8.9494026e-01   1.7344105e-03
 -3.0690998e-01   5.2817794e-03
 -6.5439618e-01   5.8591535e-04
  1.0740720e-01   1.6698110e-04
  1.9905692e+00   6.5005457e-05
 -3.5689226e-01   7.9008989e-04
 -5.2953655e-01   4.1057263e-03
  4.8125902e-01   4.9710236e-03
  2.6773851e+00   7.5666383e-03
  7.1460885e-01   3.8098991e-02
  3.9884481e-01   7.3210597e-03
  1.3459374e-01   1.2046379e-02
  3.3857101e-01   3.8897172e-03
  3.6460394e-01   5.1041986e-03
  2.5922263e+00   2.6000512e-03
 -1.5050355e-01   7.9895242e-04
  3.0117099e+00   2.5409434e-04
  2.9526055e+00   8.8090515e-03
 -3.0942507e+00   6.8507355e-04
 -1.4693339e+00   2.2156221e-04
  9.0936863e-01   2.5561636e-02
 -1.5569688e-01   7.2713355e-03
  7.7389717e-02   7.1677859e-03
  9.4437695e-01   5.1225717e-03
 -1.9458847e+00   3.9190184e-03
 -1.6946782e+00   1.1109740e-03
 -1.4473650e+00   2.9427437e-03
  1.3048134e+00   8.9507172e-04
 -1.5689036e+00   7.0803193e-04
 -2.3383333e-01   3.5749565e-04
  1.0932981e+00   1.0375936e-03
 -5.0965977e-01   4.0642051e-03
 -8.6154348e-01   3.5420850e-02
 -2.7400380e-01   2.6876159e-04
  9.3057877e-01   4.2331842e-04
  9.1453266e-01   1.8821699e-03
 -8.8449979e-01   4.4647283e-03
  1.3486290e-02   4.9050567e-03
 -2.4782422e+00   1.5426620e-03
 -1.2669564e+00   2.4098529e-02
  1.4275120e+00   7.4917218e-03
  3.4258414e-02   4.2791977e-03
 -3.0281457e-01   2.5767116e-02
 -2.9771495e-01   9.8294113e-04
 -3.1176591e-01   3.2984169e-04
  1.5422511e-01   8.0536995e-03
 -2.4189712e-01   9.1425367e-03
 -3.4390241e-03   9.0511162e-03
 -1.8025291e+00   2.3229119e-04
 -2.2943790e+00   8.6913031e-04
  1.3954670e+00   9.6730841e-04
  7.3186821e-01   8.4766280e-04
 -1.9362637e+00   1.4638299e-03
  1.0376594e+00   9.3321607e-04
 -7.0588213e-01   3.4346157e-03
  1.0982904e+00   2.3563197e-03
  1.9758279e+00   1.6122790e-03
 -9.2013276e-01   2.3494698e-02
  3.6029288e-01   1.1164640e-02
 -1.2556407e+00   7.0062582e-04
  1.8499870e+00   3.5218964e-04
  3.5279460e-02   1.7017701e-04
  1.4458202e+00   1.0475732e-03
 -2.0019543e-01   1.8044075e-03
 -8.8462430e-01   2.9995499e-04
  1.7044860e+00   4.2695471e-04
  1.7230345e+00   8.9056877e-04
 -3.2325432e-01   1.0614840e-03
 -1.1555551e+00   5.3132331e-04
  1.9199704e+00   9.5707271e-04
  5.3854924e-01   3.8337967e-04
  6.3544267e-01   1.6867126e-03
 -3.3313081e-02   5.3848131e-03
  1.1614934e+00   3.0193368e-03
 -7.9558837e-01   1.3175762e-03
 -9.0533549e-01   1.0734656e-03