  2.0086908e+00   5.5697844e-03
  3.3542316e+00   3.5716193e-03
 -1.3988920e+00   4.2152349e-03
 -1.9287885e+00   8.6586261e-03
  3.2175800e-01   6.9033839e-03
  5.5825275e-01   2.1087972e-02
 -7.0515734e-01   3.2018445e-02
  8.8919574e-01   5.8813761e-03
 -4.1491625e-01   9.0202168e-03
 -1.4407963e-02   1.3531809e-02
 -8.7798551e-02   7.3146546e-04
 -1.7407714e+00   9.7420294e-04
 -1.0956603e+00   1.7967479e-03
  1.3490857e-01   3.4125433e-03
  1.7929649e+00   3.0460875e-04
 -6.7218971e-01   9.1947627e-04
 -1.3052933e+00   2.3930103e-03
 -1.1629829e+00   6.1329948e-03
  8.5758746e-01   2.9209182e-03
  1.8284583e+00   1.2472275e-03
 -6.8445033e-01   1.6824978e-03
 -3.1513137e-01   7.6684556e-03
  1.0025129e+00   1.2183369e-03
  1.7795665e+00   8.3157141e-03
 -6.1659545e-01   6.4387368e-03
  4.9388409e-01   9.3889935e-03
 -1.1701930e+00   6.9189970e-05
  1.2300473e-01   3.2311436e-03
  6.6587347e-01   1.5181350e-02
  1.5177357e-01   1.9191012e-02
 -4.8832422e-01   6.8162535e-03
  2.8607297e-01   6.0914787e-03
  1.6132662e-01   3.3522415e-04
  1.4485845e-01   2.8190650e-02
 -1.2523997e+00   1.2415238e-03
  1.5236882e+00   4.7899294e-04
  1.3314679e+00   5.3311273e-04
  2.8530605e+00   9.9907501e-04
 -1.1040001e+00   3.5722868e-03
  1.0449142e+00   9.3985633e-05
  2.1761298e+00   3.1236680e-03
  1.8070046e+00   2.1229731e-03
 -3.0354903e+00   5.3464645e-04
  6.3675988e-01   6.3906335e-03
 -1.2134843e+00   1.9982625e-04
  2.1724119e+00   1.2683920e-05
  9.4648784e-01   2.9342234e-04
 -1.0958519e+00   9.4067410e-04
  2.3681909e-01   1.1577595e-03
 -8.7064558e-01   4.8598915e-05
  2.0666978e+00   1.4378531e-04
 -2.7901561e+00   1.8268714e-05
 -1.7465400e+00   2.7575943e-04
 -1.8888662e+00   2.0383825e-03
 -4.0473971e-01   3.3113174e-04
  3.6643496e-01   6.3211174e-04
 -2.5853918e+00   3.0730821e-03
  1.7141261e+00   5.9130450e-04
  4.0860704e-01   3.2242041e-03
 -6.9198930e-01   6.0576707e-04
  9.1284269e-01   1.1154902e-04
  6.0812909e-02   7.9682475e-04
  3.2524655e+00   4.0934108e-05
  3.3447442e+00   2.2867665e-02
 -1.4941429e+00   3.8039740e-03
  3.5384181e-01   2.0978057e-04
 -6.8021506e-01   4.5910996e-04
  1.5176917e+00   1.0639339e-03
 -2.8287739e-01   1.1568978e-02
 -1.0000844e+00   1.3425915e-02
  4.9877923e-02   2.6035265e-03
 -1.2860188e+00   7.6761929e-04
  3.1003922e-01   7.6874881e-04
 -1.5623714e+00   3.3801217e-03
  1.4787899e+00   1.5125475e-03
 -1.4356441e+00   1.4088555e-04
  2.3179832e+00   1.0528442e-02
  2.7251053e-01   4.2729266e-03
 -6.6588336e-01   1.8127568e-02
  8.1219628e-02   8.0151167e-03
 -5.2656895e-01   7.5442810e-04
  5.8177423e-01   6.5269996e-04
  1.2802843e+00   2.1501624e-03
  1.3199260e+00   9.0155108e-03
  1.0267881e+00   3.1989664e-03
  1.4084320e+00   7.4758829e-04
 -2.1334422e-01   4.6280428e-04
 -1.2295794e+00   1.0814925e-03
  6.1664414e-02   3.4489678e-04
  2.6641874e+00   5.8456970e-04
  6.0747427e-01   1.8285424e-03
  1.9833524e+00   2.6168784e-03
  1.3183531e+00   6.5712011e-03
  1.4022188e+00   2.5230760e-02
  1.4913391e-01   3.4402367e-03
 -8.8224418e-02   4.0611811e-04
 -3.5279038e+00   1.0636020e-03
  3.7230399e-01   9.1133257e-03
  1.5563910e+00   7.6537557e-02
  1.8131235e-01   1.0484084e-02
 -1.2166741e-01   3.3026949e-02
 -5.3910106e-01   3.8514920e-02
 -5.4573584e-01   1.8959250e-02
  5.5847698e-01   1.6762003e-02
 -3.6405990e-01   2.6092781e-02
 -2.1282246e+00   2.9904277e-05
 -1.0609826e+00   1.1321831e-04
 -1.6738358e+00   5.5269968e-05
  1.3203713e+00   1.7332616e-03
  2.2836102e-03   2.4480393e-04
 -2.2220204e+00   1.0944663e-04
  2.1014398e-01   9.4009511e-04
  3.0250328e+00   5.5921846e-05
  3.8297841e-01   6.3463068e-04
  5.8603251e-01   4.7758804e-03
 -2.8495714e-01   4.3107691e-04
  2.5924451e+00   3.1477693e-04
  7.1331424e-01   4.8689867e-04
  3.5272786e-01   9.2354248e-04
 -2.3976564e-01   2.0773894e-04
 -2.7482760e-01   2.7294940e-05
  2.2695510e+00   2.9805346e-04
  2.3987277e+00   1.8873507e-05
  4.3914992e-02   3.9448796e-04
 -3.3543432e-01   3.0533192e-05
 -3.9496103e-01   8.3707325e-04
  1.2331614e+00   3.1045737e-04
  1.1111032e+00   4.8058364e-04
 -6.2868643e-01   8.2365666e-03
  3.3308339e-01   3.2093236e-04
  1.2592454e+00   1.0075795e-03
 -6.5351772e-01   4.4389101e-04
 -2.3460820e+00   4.8505786e-04
 -1.4537209e+00   4.2237624e-04
  3.2894000e-01   3.5686656e-03
  8.7738484e-01   6.8057976e-03
  5.6054068e-01   6.8905917e-03
 -4.0988863e-02   8.5404916e-03
  1.2079260e+00   7.5233920e-04
  2.3759753e-01   6.9105043e-03
 -1.7344472e-01   1.8030826e-02
 -1.6249942e+00   8.4879184e-03
  4.0601246e-02   1.4814646e-03
 -6.9782078e-02   1.0914822e-02
  5.2326477e-01   7.6533668e-03
  3.3197105e-01   1.1540720e-02
  8.3177239e-01   4.9560238e-02
  3.0981800e-01   3.7201915e-02
  3.9979830e-01   4.4955872e-02
  3.5816401e-01   3.3296015e-02
 -2.5016144e-01   1.4058073e-03
 -1.4782919e+00   2.2471364e-04
 -6.3616252e-01   7.8350743e-03
 -1.5912873e-01   1.8500267e-03
  1.1570919e+00   2.0668381e-03
 -1.5800425e-01   1.1654705e-03
  7.3357677e-01   6.5770716e-04
  2.2083761e-02   8.1333043e-03
 -3.4476081e-01   7.2295763e-02
 -2.3074257e-01   1.5418014e-02
 -2.3295455e-01   1.7162299e-02
  4.1308865e-01   1.3753542e-03
 -3.9102897e-02   1.0219661e-02
 -2.9918116e-01   1.5567383e-03
  1.2389470e-01   5.2285980e-02
  1.0553012e+00   4.2698076e-03
  4.3385407e-01   4.3025566e-04
  3.4314167e-01   2.0685935e-02
  5.7333034e-01   2.6055959e-03
 -2.8159350e-01   9.1726100e-03
  4.1529071e-01   2.3868619e-02
  3.7033066e-01   1.7848236e-02
 -1.2461013e-01   5.7307677e-03
 -1.0762020e-01   2.0910880e-02
  1.3989548e-01   5.9696876e-02
 -1.8060248e+00   1.3596506e-03
 -2.4990845e+00   8.6602051e-04
  1.9641472e-03   1.9371056e-03
  1.0437127e-01   2.8292779e-04
  2.0341785e+00   3.6904600e-03
 -1.9662739e-01   5.8704132e-04
  6.2211025e-01   6.0895262e-03
  2.1437519e+00   1.9915003e-04
 -3.5329658e-01   1.0665416e-03
  3.6258996e+00   1.0024629e-03
 -2.0817082e+00   5.6051323e-04
 -8.4861600e-01   6.9102278e-04
  2.5701203e+00   1.6285118e-03
 -1.0292007e+00   2.7239711e-03
  1.6105374e+00   9.7123167e-04
 -6.2061542e-01   9.6896471e-04
  1.7829869e+00   3.3886485e-07
  2.9440169e+00   2.3032811e-04
 -9.1140024e-02   7.7394568e-03
  2.9474607e+00   4.0959381e-04
  4.0988746e-01   2.0748557e-04
 -9.6897185e-01   8.1761129e-04
 -3.3261395e-01   1.8530991e-03
  1.0870631e-01   3.5312015e-03
  1.8271562e+00   8.8463066e-04
 -3.1069007e+00   3.1236273e-03
  2.0634923e+00   2.0275277e-03
  3.5828215e-01   4.9257199e-03
  3.2774204e-01   2.8326381e-03
  6.3778096e-01   8.4804412e-04
 -4.0896329e-01   2.0332333e-02
 -1.9106410e-01   1.1136676e-03
  9.3894225e-01   1.0797456e-03
  3.8693243e-01   4.0338699e-02
 -1.3476841e+00   1.7488817e-03
 -1.1298151e+00   8.0516329e-04
 -3.9640537e-01   3.6423374e-04
  1.0333257e+00   4.6120709e-04
  1.3734248e+00   1.0348239e-04
  2.9015319e+00   3.7046114e-03
 -3.4831049e+00   3.8301565e-03
 -3.5273749e-01   2.0333756e-02
  3.1806564e-01   4.2360048e-03
  2.6489770e-01   3.1332057e-02
  1.5384988e+00   1.2958935e-03
  2.1513633e-01   1.8082731e-03
 -1.7062122e+00   8.1523292e-04
 -1.0695871e+00   4.4906456e-03
  9.6799344e-01   2.9374014e-03
  2.1479096e+00   2.7138779e-03
 -1.7474359e-01   1.7213866e-03
 -1.3781742e+00   2.1306416e-03
 -9.5806974e-01   1.0674284e-02
  2.5946968e+00   1.2227762e-04
 -1.4583640e+00   1.7333672e-03
  1.3572998e+00   3.1035563e-03
 -2.6462235e+00   1.2689971e-04
 -1.5380219e+00   1.8169338e-02
  1.9749575e+00   1.3517955e-03
  1.1543809e+00   5.2251485e-03
 -3.0319369e-01   9.0205250e-03
  8.1809461e-01   2.3909840e-03
  3.8790649e-01   1.8159316e-03
  3.4502208e-01   2.1593900e-02
 -4.0729791e-01   5.8283289e-03
 -5.1144779e-02   8.3620533e-02
  5.0429511e-01   9.9725008e-04
 -2.2026822e-01   7.5236633e-03
  1.5607001e-01   9.9263184e-02
 -8.1172186e-01   1.1973300e-03
 -4.8783183e+00   4.2279502e-05
 -7.9617161e-01   8.5763203e-04
 -3.2662225e-01   5.7188625e-04
  5.5573189e-01   4.0803435e-03
  5.0956326e+00   2.0449585e-03
 -3.4345284e+00   3.8827155e-03
 -2.7507181e+00   9.1164387e-05
  1.6198595e+00   6.3602463e-03
 -9.7008789e-01   5.6384984e-02
  1.8331726e-01   3.8739566e-03
  1.3860255e-01   6.0908141e-04
 -1.7394530e+00   8.2063489e-04
  1.1415431e+00   2.0329817e-03
 -1.5714756e-01   4.9327435e-03
  1.0732570e+00   1.8463373e-04
  4.4017875e-01   4.5413044e-04
 -2.0316541e+00   6.5764110e-04
 -1.0629462e+00   8.9342141e-04
  2.3678010e+00   9.3312276e-04
  1.4230165e+00   5.6213676e-04
  1.0932997e+00   4.4812684e-04
  6.2552124e-01   6.0466066e-04
 -1.3465494e+00   4.2139448e-04
 -8.8296902e-01   3.5942951e-04
  1.6622994e+00   2.3709198e-04
 -2.8956649e-01   2.0313328e-03
 -1.0527778e+00   4.1549066e-03
 -2.4575314e-01   7.9782540e-03
  9.2338502e-02   5.1282477e-03
 -5.2438289e-01   7.7789538e-03
  1.9572157e-01   1.8245837e-02
 -8.7034643e-01   3.1046227e-02
 -2.6676491e-01   3.2855805e-02
 -1.2103483e-01   9.0296594e-03
 -1.9764398e-01   7.7371281e-03
 -1.1865370e+00   4.6144151e-03
  1.9489492e-01   6.0572854e-04
 -2.2728078e+00   4.6161502e-03
  2.5679445e+00   1.3196788e-04
  3.1613213e-01   7.9306297e-04
  5.5957332e+00   1.4097998e-02
  4.9006385e-01   1.0636952e-03
  1.7202789e+00   1.5580805e-02
 -7.1783423e-01   2.7853696e-02
  4.7996912e+00   1.2810981e-02
  6.1068368e-01   6.2299246e-04
  1.3536323e+00   1.7516377e-03
 -1.3649632e-01   1.7603758e-03
  1.6162190e+00   1.6493561e-02
 -3.5514322e-01   6.3375551e-03
 -6.2535524e-01   1.1532253e-03
 -6.4122546e-01   3.3809247e-03
  2.9275367e-01   4.7478168e-03
 -1.2007190e+00   2.6851872e-03
 -1.1930720e+00   2.1672877e-03
  1.7098337e+00   2.3351074e-03
 -5.3121167e-01   1.6890879e-03
  8.2420242e-01   1.4748245e-03
 -8.8763595e-02   2.2445834e-04
  9.4026737e+00   7.1326620e-03
 -4.0044382e-01   7.3605636e-03
  1.4853816e+00   1.1255777e-03
 -8.3206296e-01   1.3364384e-02
  9.1775131e-01   2.6737133e-04
  1.2403529e+00   8.1353309e-03
  1.3722509e-01   5.2905637e-03
 -4.9847898e-01   9.7765336e-03
  5.7717711e-01   2.3428727e-02
 -1.0786721e+00   1.1612736e-02
 -7.9297763e-01   4.0435955e-02
  3.5917230e+00   1.7390233e-04
 -3.3524275e-01   1.1056820e-03
 -7.3612165e-01   8.4542634e-04
 -2.0178011e-01   3.3361772e-03
 -2.0195935e+00   1.8141107e-03
 -7.0598727e-01   3.8564343e-03
  1.3872015e-01   3.2791477e-03
  1.9831896e-01   1.3555787e-02
 -6.5954626e-02   4.4803590e-02
 -6.0194254e-01   1.2842722e-02
  4.7729802e-01   5.1583671e-03
 -1.5945145e+00   6.5311504e-04
 -3.2524413e-01   3.0801126e-03
  1.1828820e+00   6.1048137e-04
 -1.4793783e+00   4.1202032e-03
 -1.7579532e+00   2.9806611e-03
 -1.3676549e+00   1.8314988e-03
  1.7562483e-02   7.3068105e-03
 -2.1543913e+00   3.4286382e-04
  4.8874435e-01   3.0745633e-04
  1.2086802e+00   1.0880849e-02
 -9.6193659e-01   1.0125766e-03
  6.6919857e-01   1.2368323e-02
 -3.7983686e-01   7.6731126e-04
 -2.4985213e+00   1.3115717e-03
  1.9973837e+00   1.5397836e-02
  4.3929464e-01   3.6292867e-04
 -6.2555116e-01   8.1003655e-04
 -8.5454583e-01   7.8362602e-05
 -1.8765779e-01   3.6042763e-03
 -6.9370931e-01   1.9753081e-04
  5.8384812e-01   5.3504662e-04
 -4.1762769e-01   1.5469915e-02
  5.1096880e-01   1.9115509e-02
 -2.4622139e-01   1.4607461e-02
  1.4767495e+00   4.7362313e-04
  2.0111511e+00   3.3136334e-03
  8.1798559e-01   6.7885389e-04
  9.9524207e-02   1.2765055e-02
  3.5407451e-01   1.5906407e-02
  1.7432518e+00   1.2918781e-03
 -3.9906448e-01   1.8731190e-02
  3.8490987e+00   3.7159715e-03
  1.3812305e-03   1.4657358e-03
 -6.1506838e-02   1.1122322e-02
 -6.4124256e-02   2.1274253e-03
  9.3262076e-02   3.6493267e-03
  5.8849657e-01   5.2185273e-03
  7.4922347e-01   1.4535432e-02
  1.0340893e+00   4.7793501e-04
  8.5090053e-01   1.0155154e-04
  4.6089846e-01   4.7523542e-03
 -3.7563822e-01   2.8797032e-03
 -4.2907324e-01   3.3648964e-03
 -8.9520502e-01   6.3951230e-03
  3.2301540e+00   2.1064188e-03
 -1.2857313e-01   1.1532265e-03
 -1.8929088e-01   9.5463376e-03
  6.3269518e-02   9.1198795e-03
  6.5850246e-01   7.4964191e-04
  1.3431262e+00   5.6336727e-04
  3.7487331e-01   3.9597953e-04
  4.7965395e-01   2.6483122e-02
  3.0634491e+00   1.1144565e-04
  2.7951910e+00   4.8111722e-02
  5.1210791e-01   3.0658087e-02
 -1.3314301e+00   2.1815680e-03
  9.5477149e-02   4.9877383e-02
  6.1275434e-01   1.4847601e-02
  4.3572333e-01   8.4884405e-02
  1.8923711e+00   7.8958115e-03
 -2.9162177e-01   1.7849823e-03
 -1.1880202e+00   6.6394564e-03
  2.4419704e-01   1.5846564e-02
  1.1677350e+00   1.1578023e-02
 -2.4063750e-01   8.0281636e-03
  2.2712037e-01   4.4904118e-03
  8.1894696e-01   8.9503461e-03
  9.8483479e-01   1.1877702e-03
  1.3063359e+00   1.3379621e-02
  4.9936721e-01   6.7797321e-04
  2.9931095e-01   4.8063666e-04
  5.7549697e-01   1.0386598e-02
  4.3949237e-01   1.0576443e-04
  1.7976464e-01   8.1259841e-03
 -1.4179035e+00   8.1213635e-05
 -2.3250267e-02   3.4303544e-03
 -5.5957502e-01   1.0220158e-02
 -4.3691349e-01   9.8842029e-03
 -7.9808605e-01   2.4508655e-03
  1.6800040e+00   1.0874768e-02
 -1.7746342e+00   1.1409470e-02
  1.3603450e+00   4.1014299e-04
 -2.4965784e-01   4.0241897e-02
 -7.1035564e-01   1.3705959e-02
  6.6343540e-01   6.1116535e-03
  3.1973739e+00   1.6814476e-04
 -2.4510601e-01   2.0358386e-02
  4.4610370e-02   3.3312663e-02
  5.2241975e-01   1.9594349e-02
  9.9499398e-01   1.5851535e-02
 -3.1429553e-01   4.5629223e-03
  3.4867364e-01   1.6798759e-02
  3.1398883e-01   6.0360242e-02
 -6.1335337e-01   2.5109552e-02
  5.5595833e-01   4.7343766e-04
 -9.4501577e-02   1.5104081e-03
  2.6363370e+00   1.0827223e-03
  8.4963882e-01   3.2689741e-03
 -1.8950825e+00   3.3802395e-03
 -2.8396314e-01   6.7206006e-04
  1.4818443e+00   8.0204299e-03
 -1.7815626e+00   4.2300425e-03
 -1.4357934e+00   7.2923867e-04
  2.0420663e-01   1.1991363e-03
  5.8767998e-01   2.7475983e-04
 -2.5254872e-01   2.7490198e-05
 -2.5170151e-02   1.8127761e-03
  1.7274019e+00   1.4273030e-02
  4.4800195e-01   8.2344178e-04
 -1.7054000e-01   3.2649257e-03
 -1.6240808e+00   6.4706063e-04
  4.0859324e-01   9.5104723e-04
 -5.1519859e-01   1.6249655e-03
 -5.7183784e-01   7.7403802e-04
  1.6563061e+00   1.7414653e-03
 -1.2687835e+00   5.0238485e-04
 -3.5288385e-01   4.2312191e-04
 -9.8506308e-01   2.5474733e-02
 -3.8454574e-01   4.1455938e-03
  7.9896891e-01   7.6366513e-04
 -1.5522940e+00   3.1655843e-03
  2.3185223e-01   6.7365663e-03
 -2.1562276e+00   6.1526690e-02
  3.0103716e-01   2.6476092e-03
 -7.4743353e-02   4.7125485e-02
  1.0132538e+00   3.5673331e-02
  5.5953908e-01   2.3416748e-02
 -3.2283910e-02   4.4447962e-02
 -2.7483318e+00   5.2837012e-03
 -3.4302229e-01   1.6182618e-03
 -9.0806502e-01   2.6533448e-03
  1.3436955e+00   4.6401210e-03
  9.2404866e-01   5.4883133e-03
  1.9800811e+00   7.5458287e-04
 -1.1599114e+00   1.6697315e-02
  2.2209932e-01   3.3057702e-03
  4.1572560e-02   1.8086864e-03
 -3.3109501e-01   1.1470055e-03
  1.1914237e+00   1.7792722e-02
  9.9766904e-01   8.2158098e-05
  9.4988585e-01   3.4685404e-04
 -1.6291044e+00   1.3368501e-02
 -2.3386595e-01   2.7910881e-02
 -1.6631942e+00   1.0725595e-03
 -1.2171382e+00   3.8516838e-03
 -1.8796310e+00   3.9231603e-04
 -5.2042060e+00   1.4426632e-02
  1.1370457e+00   1.5349961e-02
 -1.5065988e+00   1.1629747e-03
  7.7462399e-01   1.6058638e-03
  9.3011922e-01   1.4811392e-03
 -3.1616546e-02   1.0650809e-02
 -2.8149453e-01   2.2489997e-03
  5.4042947e-01   2.2644754e-03
  1.6679576e-01   2.9333902e-03
 -2.9788871e+00   1.4974702e-03
  1.8881565e-01   9.9709444e-03
  4.9541757e-01   9.6926197e-02
  4.6578160e-01   3.3799449e-03
  2.8829184e-01   2.6162397e-02
 -1.2424069e-01   3.0180033e-02
  1.2693898e-01   1.2965600e-02
 -8.9650357e-01   9.5400267e-04
 -3.9176443e-01   2.4877333e-03
  1.9283535e-02   2.1227265e-02
 -6.0714698e-01   2.5705880e-02
 -3.5960546e-01   1.4598945e-02
  1.4878260e-01   2.4478346e-02
  1.2113301e-01   5.2177072e-02
 -4.4106603e-01   4.1262072e-02
 -4.0594064e-02   1.4245898e-02
 -1.0679340e+00   1.2003568e-03
  6.1708051e-01   1.5027801e-03
 -4.1884691e-01   1.8953852e-03
 -1.3701478e+00   4.2159548e-03
 -1.2717770e+00   4.8589628e-04
 -4.6811116e-01   5.8585941e-03
  8.2675540e-01   1.9158821e-03
  6.9540405e-01   5.1692780e-03
 -8.0099219e-01   3.2691810e-02
 -3.1385943e-01   1.0799198e-02
  5.3072017e-01   2.5483983e-02
  1.1751114e+00   1.3107678e-02
  1.2849109e-01   3.9271804e-04
  8.9534217e-01   2.2025291e-02
 -9.6187061e-01   5.6928478e-04
 -1.4926419e-02   1.3281492e-02
 -8.5817534e-01   8.5511254e-03
  1.3654279e+00   8.4056765e-02
 -1.4742370e-01   3.0210471e-02
 -9.2661482e-01   2.6989647e-04
 -2.8474489e-01   5.5326894e-02
 -4.4497740e-01   7.0830055e-02
 -9.6020442e-01   1.7766075e-02
 -4.5125979e-01   9.3560189e-02
  1.0682671e+00   2.0519581e-03
 -8.1716664e-02   5.9296871e-03
 -1.2263866e-01   5.6529582e-02
 -1.0564982e+00   6.0837194e-03
  4.6691859e-01   2.6062930e-03
 -1.9185881e-01   8.2328951e-04
 -1.7788578e+00   1.4387696e-03
  5.8338886e-01   4.7118729e-04
  1.4682204e-01   1.6016380e-03
  2.0864880e-01   1.7214507e-03
 -1.1708279e+00   4.4694715e-03
 -1.3727748e+00   3.6253922e-03
  1.3374263e+00   2.2793900e-02
  3.1223860e-01   1.3442729e-04
  2.5620637e+00   1.5100775e-03
  3.0049489e+00   2.5003566e-03
 -3.3722773e+00   3.9394764e-04
  1.6776437e+00   1.4481292e-02
  1.7502032e-01   6.1029778e-03
 -2.4840858e+00   3.4338693e-04
  1.6264683e+00   1.0297648e-04
  3.1600112e-01   1.1481997e-03
  1.7457863e+00   1.0881067e-03
 -4.5733956e-01   5.0496048e-04
 -2.7341716e+00   1.4060292e-03
  1.7835388e+00   6.6627713e-04
 -9.7201717e-01   3.8100375e-04
 -6.5077919e-01   1.5996281e-03
 -7.2762603e-01   6.2842888e-04
  8.0963129e-01   1.5555181e-03
 -2.5682764e+00   2.5738608e-03
  1.3439846e+00   8.0604735e-04
 -6.5091334e-02   2.1139365e-02
 -8.0446059e-01   2.8644053e-03
 -6.5606332e-01   7.1948827e-03
 -3.1357342e-01   8.5431524e-03
 -6.3593411e-01   4.7305386e-04
 -6.1111373e-01   1.7944507e-03
 -5.3559947e-01   3.6888355e-03
 -3.9888400e-01   1.8798036e-03
  1.9056463e+00   8.4531604e-04
 -2.7635756e+00   6.9071801e-04
 -2.5462375e+00   4.3841889e-03
  1.8060483e+00   6.1412794e-03
 -1.9113104e-01   1.0991997e-02
 -2.4727395e-01   9.2580449e-03
 -1.8691866e+00   2.9396906e-03
  1.4361268e-01   9.0267789e-04
  8.8350695e-01   6.2750033e-03
 -6.2384534e-01   1.2312314e-03
  1.3902851e+00   2.0931279e-03
 -7.4543417e-01   9.3487423e-04
  4.6109611e-01   2.9724058e-02
 -1.2305083e-01   4.2093173e-03
 -8.4197290e-02   1.4437039e-03
  2.4073642e-01   4.5895035e-04
 -9.0747327e-01   1.5885982e-03
 -1.2282755e+00   1.1012028e-02
  6.0647887e-01   1.0485299e-03
  3.0983743e-01   2.2138772e-03
  1.3614540e+00   1.8005431e-04
 -6.4690090e-03   5.4614614e-03
  1.4561744e+00   6.5688476e-02
 -2.4839085e-01   4.1885204e-03
 -6.4303255e-01   1.3367980e-03
  1.3570720e+00   2.9948156e-03
 -5.5054384e-01   5.6347195e-03
  1.2150126e+00   5.5986270e-02
 -3.1724575e-01   5.8953357e-03
  3.3192450e-01   3.7326384e-02
 -6.7209214e-02   3.1428680e-02
 -9.8928553e-01   2.1095210e-04
  9.8431505e-02   5.0656442e-02
 -5.1521367e-01   4.2085368e-02
 -3.1964764e-01   1.1100377e-03
  1.2638835e+00   3.6799845e-03
 -2.3307242e+00   1.1238825e-03
  1.0230871e+00   1.0325988e-03
 -2.2341602e+00   2.1250971e-04
 -1.2817076e+00   7.3804529e-03
  4.3972331e-01   1.4292713e-03
  6.3849932e-01   1.4808514e-03
 -2.1218081e-01   3.9080810e-03
  9.6322274e-01   3.7089454e-03
 -3.6409581e+00   1.2096037e-03
  2.9747314e+00   1.5755613e-04
  1.0321044e+00   2.4408186e-04
 -1.4815119e-01   2.9862892e-02
  1.2656872e+00   6.9115688e-03
 -1.9929240e+00   3.3631947e-04
 -2.4851954e+00   4.2465380e-03
  5.0393188e-01   2.1504688e-03
 -7.3893178e-01   1.3739471e-02
 -2.5283096e+00   1.0088305e-03
 -2.6383626e+00   2.9883668e-04
 -8.6826777e-01   2.8431721e-03
  3.3119392e-01   5.8625941e-03
 -3.5267985e-01   5.4536704e-03
  4.3788108e-01   8.1736166e-03
 -7.0956534e-01   1.8958377e-02
  4.5409253e-01   2.7856783e-03
 -9.5981234e-01   2.8942082e-02
 -2.9455617e-01   5.8502294e-02
  1.4242551e+00   1.4570277e-03
 -2.7616799e-01   1.9027939e-02
  3.3374721e-01   3.6357536e-03
  1.4753154e-01   1.6134866e-02
 -6.8189994e-02   5.0116874e-02
 -1.5728588e-01   1.7484371e-02
 -1.1333940e+00   5.7620415e-03
  4.6505287e-01   4.0966584e-04
  1.6722553e+00   4.1534975e-03
  5.6945008e-01   1.4729211e-02
 -2.9562256e+00   2.4561167e-02
  1.9895278e-01   7.4815629e-03
 -2.6402697e-01   2.0333030e-03
  1.4281970e+00   1.6609566e-04
 -1.1012645e+00   3.2122571e-03
 -9.2729861e-01   3.8054594e-04
 -1.6233310e-01   8.0757984e-04
  3.0630827e-02   1.5972930e-03
 -8.0042675e-02   1.7591087e-03
 -3.1327182e-01   1.1336607e-02
 -4.0066329e-01   2.3803567e-03
  4.3698430e-01   1.3189316e-04
 -6.8651360e-01   2.8351259e-03
  9.2918301e-01   2.6781785e-03
 -1.6303793e-01   2.1339891e-02
 -9.3360907e-01   5.3853844e-03
  4.6390027e-01   2.9914244e-03
  2.5732914e-01   4.6790340e-03
  8.3018959e-02   9.9531645e-03
 -8.3273989e-01   4.9521774e-03
 -1.0220009e+00   2.5062908e-03
  1.7663212e-01   4.6999850e-03
 -4.2559463e-01   7.7378540e-03
 -3.4360972e-01   7.2406390e-04
 -1.4063071e+00   1.4969572e-02
  1.2202985e+00   1.1357150e-02
  1.2414043e-01   4.2022895e-02
  5.9768212e-01   4.8996642e-04
  8.0849719e-01   6.8547227e-04
  3.6657131e-01   7.1909234e-02
  6.0833323e-01   8.4692836e-02
 -4.0941852e-01   5.6712385e-03
  6.6840297e-01   1.7734298e-03
 -2.9348865e-01   1.3144482e-03
 -1.2267839e+00   9.5817883e-04
 -3.8253042e-01   2.1019266e-03
 -4.1417688e-01   1.0278631e-03
  3.3858209e+00   9.3317265e-03
 -3.4257030e-01   1.8103519e-03
 -6.8312931e-01   2.9937742e-02
 -1.9083494e-01   1.2151882e-03
 -1.7208716e-02   6.2560197e-04
 -3.0621389e-01   9.6975331e-04
 -1.5665972e+00   3.4805080e-03
 -5.3228807e-01   9.2515424e-03
 -8.3526224e-01   2.1108971e-03
 -4.3790373e-01   3.9487504e-03
  4.7963455e-01   2.0961575e-03
  1.1109740e+00   1.8015793e-03
 -1.9509247e-01   3.9505761e-02
  8.3438915e-01   1.1914591e-03
 -1.9944341e+00   1.6515761e-03
 -1.0824673e+00   1.2471927e-03
  1.3425652e+00   8.2939834e-04
 -2.6892084e-03   6.5836324e-03
 -4.2013162e-01   2.1393644e-03
 -1.2451400e+00   1.4618742e-03
 -2.0513269e-01   1.7373549e-03
  2.0485735e-01   4.7100135e-03
  1.5694163e+00   1.3550210e-02
 -3.3917022e+00   1.0422853e-02
 -4.0441409e-01   5.3128628e-03
 -3.2674074e-01   9.1818068e-03
  1.8026000e+00   5.3830771e-03
 -1.4817871e-01   1.4498232e-02
  3.3023268e-01   4.8334427e-05
  5.3380646e-02   1.6757146e-02
 -6.7784989e-01   5.0565712e-03
 -9.5791258e-02   1.2796464e-02
 -1.0265536e-01   1.9878628e-02
  2.5963300e-01   2.9856674e-02
 -5.8343810e-01   9.5182117e-03
 -7.5490522e-01   8.6274307e-04
 -4.7233653e-01   2.6315732e-02
  4.1790718e-01   2.2852598e-02
 -6.2595755e-01   4.3707533e-04
 -5.1338613e-01   7.7615813e-03
  1.5929396e+00   1.3532682e-04
  1.7835429e+00   3.7312217e-04
  6.9849998e-01   2.6526212e-04
 -1.3021312e+00   4.0691160e-03
  6.3786440e-02   1.6233367e-03
 -5.3962290e-01   5.8545580e-04
  5.9370618e-02   1.0006081e-02
  8.5492378e-01   2.3420014e-06
 -5.4190063e-01   1.5768642e-02
 -2.9377270e-01   1.5140395e-02
  1.6852641e+00   2.7251232e-03
 -4.5255190e-01   2.9015167e-02
  5.6926823e-01   6.5575182e-03
 -2.8441942e-01   1.4894778e-02
 -2.3927921e-02   1.2273002e-02
 -8.5088378e-01   1.8724403e-06
  3.8916934e-02   9.5879354e-02
 -2.8905976e-01   1.4119015e-02
 -1.1091464e-01   8.8897958e-02
  5.9997237e-01   3.0274333e-03
  2.8039426e-01   3.8929092e-04
  5.3652537e-01   6.8240881e-04
 -1.0638295e+00   2.0248904e-03
 -2.4706312e-01   1.5788953e-04
  2.8657610e+00   2.1467148e-03
  7.6880002e-01   4.1293693e-04
 -8.7382573e-01   1.0731572e-03
 -1.0087845e+00   7.7934173e-04
  1.1107538e+00   1.7450143e-03
 -1.6595204e+00   4.8146796e-04
  1.3021867e+00   5.5732382e-03
  1.8857309e+00   7.9764407e-03
 -2.9863068e-01   2.6231572e-02
 -4.4444963e-01   5.4456592e-03
 -2.9708147e+00   2.8261595e-04
 -1.8480365e-01   8.2953295e-05
 -4.4789281e-01   2.3401589e-03
 -5.9739786e-01   2.4116240e-03
 -1.6986443e+00   8.0283254e-04
 -2.3030664e-01   3.5674701e-04
 -9.3189663e-01   3.1293655e-04
 -2.9060631e+00   3.2270033e-04
 -3.1633419e-01   9.1854166e-03
 -5.3326607e-01   8.3039689e-05
  1.2200438e+00   7.1957032e-04
 -5.8928454e-01   2.4692295e-03
  3.0194288e-02   2.5782250e-03
 -7.9675353e-01   5.3549698e-04
 -2.7469239e+00   1.0156412e-04
  7.7641942e-02   1.9300559e-03
  2.2578341e-01   1.4519123e-03
  1.3026165e+00   4.3203812e-03
 -4.9651372e-03   8.7922299e-03
  2.1947043e-01   1.6369408e-03
 -2.9343495e-01   1.8563248e-02
 -7.0753312e-01   2.3958011e-02
 -2.6955181e-01   7.3158294e-02
  3.6491267e-02   3.1693008e-02
 -3.9821684e-01   3.5249244e-02
  8.0372715e-01   4.0730396e-03
  5.1439220e-01   9.0083538e-04
  2.1631556e+00   1.0854984e-03
 -8.1957263e-01   1.2149208e-03
 -2.8574171e+00   7.5500258e-03
 -2.8683120e-01   1.3744024e-02
  5.7966083e-02   2.2892842e-04
 -2.1190846e-01   4.8354724e-03
 -4.1449228e-01   2.6231410e-04
  8.7013662e-01   4.3678437e-03
 -2.4290267e-01   5.8298738e-04
  1.4128585e-01   8.7412132e-04
 -3.9748785e-01   1.7470658e-03
  7.8316307e-01   8.0164326e-03
 -2.5587652e-02   3.2029982e-04
  1.3342223e+00   9.5007778e-04
 -9.9901462e-01   1.0869469e-03
  8.9918941e-01   8.8601909e-04
  4.8949248e-01   2.4885053e-03
 -2.7825882e+00   1.2519067e-03
 -5.2783000e-01   1.7839425e-03
 -4.5465979e-01   2.8300022e-03
 -5.7296360e-01   2.0929144e-03
 -1.1526742e+00   1.5104493e-02
  1.1397960e+00   6.0277092e-03
 -2.6909858e-01   7.7669823e-04
  9.5986593e-01   3.6883485e-04
 -2.4085680e-01   1.6843918e-03
 -1.9995017e+00   1.4772262e-02
  3.4536693e-01   7.1462040e-04
 -5.5970860e-01   6.0754726e-03
 -2.2964905e-01   4.3328110e-02
 -1.3671404e-01   3.4499016e-02
 -1.6703123e-02   8.2870826e-02
  6.0063142e-01   2.8608341e-02
  1.0648938e+00   3.2997620e-04
  2.2461072e-01   1.2712272e-05
 -3.6684840e+00   3.7569061e-04
 -1.8624605e+00   3.8146152e-04
  7.8727625e-02   3.8048825e-03
 -1.6118606e+00   1.8815752e-03
  1.0066417e+00   2.5486329e-04
  3.4153676e-01   5.0602329e-04
 -5.9371192e-02   2.5195770e-03
 -2.2532275e+00   2.8074937e-04
 -2.1319089e+00   9.7597876e-05
  6.4407414e-01   1.1958391e-03
 -9.2203069e-01   3.3737603e-04
 -3.7776750e-01   4.0386771e-04
 -8.4412360e-01   4.6898922e-04
 -1.3068511e+00   4.8417423e-04
 -7.4207969e-02   1.0357910e-03
  9.0214777e-01   1.1888663e-03
 -1.0141381e+00   2.2992743e-03
  3.6775133e-01   4.1038505e-04
 -5.3730398e-01   1.0669355e-03
 -5.0156462e-01   8.3677639e-04
  1.6695739e+00   9.0567220e-04
  2.8893964e+00   1.1773905e-04
  2.7007776e-01   1.7022970e-03
 -2.2419620e+00   3.9589596e-03
  1.7815055e+00   1.7722663e-04
  2.8078032e-01   6.1075640e-04
  1.3712760e+00   1.9268721e-02
 -2.3442772e-01   2.3379477e-03
 -8.5828018e-01   1.6702943e-02
  7.6481527e-01   1.8324265e-02
  4.1728541e-01   5.9824670e-04
  3.5793263e-02   5.5422213e-02
 -1.1563514e+00   3.4643676e-02
 -5.9384751e-01   1.7933627e-03
 -8.7910837e-01   5.7251629e-04
  2.1156776e+00   1.2700933e-03
  7.6134211e-01   5.1214094e-03
  2.9895678e-01   2.5384047e-03
 -2.5965192e+00   5.6552240e-03
 -3.2136388e+00   2.5180024e-03
  2.4272366e+00   6.2397295e-03
  2.5052863e-01   3.9877971e-03
 -5.6028886e+00   1.2592312e-02
 -2.2545873e-01   4.4238125e-04
  2.7411244e+00   2.7460538e-04
  1.1578865e+00   2.5081779e-03
 -8.9950860e-01   7.7137332e-03
 -4.3038507e+00   3.3375188e-03
  1.6208730e+00   4.6265076e-04
 -1.3890984e+00   2.0813463e-04
  1.4382863e+00   6.4574619e-04
 -4.8742529e-02   6.5556383e-03
  1.1307961e+00   1.6942281e-04
  7.1769074e-04   1.2343475e-03
  8.8647145e-01   1.1486603e-03
 -3.3300689e-01   3.8642194e-03
 -6.6159564e-01   4.9236894e-04
  1.0715300e-01   2.3237304e-04
  1.9922621e+00   6.5009008e-05
 -3.5291970e-01   8.8088179e-04
 -5.4247069e-01   4.2853048e-03
  5.3733909e-01   3.8304534e-03
  2.6409266e+00   4.5240643e-03
  8.2542735e-01   3.1906497e-02
  4.7912273e-01   7.6315105e-03
  2.6949769e-01   1.3542542e-02
  3.1186506e-01   3.2886376e-03
  3.6878449e-01   3.8186386e-03
  2.5801160e+00   3.1850890e-03
 -1.4746791e-01   1.3875903e-03
  3.0061944e+00   1.9879376e-04
  2.9881017e+00   1.0819886e-02
 -3.0965712e+00   1.0734572e-03
 -1.4734981e+00   2.3342091e-04
  1.4350995e+00   3.0115105e-02
 -2.5864640e-01   7.5735403e-03
  1.5118362e-01   6.2768897e-03
  9.0573668e-01   4.3189288e-03
 -2.0646133e+00   4.2773476e-03
 -1.7167815e+00   1.0027285e-03
 -1.4959308e+00   2.3124788e-03
  1.3045584e+00   1.2313602e-03
 -1.5589852e+00   7.9807255e-04
 -2.4148764e-01   4.2964277e-04
  1.0857195e+00   1.4174418e-03
 -5.5507362e-01   2.9151270e-03
 -3.6054593e-01   3.7805084e-02
 -2.7480543e-01   3.3547659e-04
  9.2593503e-01   5.2669359e-04
  9.0890509e-01   2.3419817e-03
 -9.7852093e-01   4.2198515e-03
  2.2149073e-02   4.4393954e-03
 -2.5057750e+00   1.1792989e-03
 -9.9437642e-01   2.7319536e-02
  1.4864467e+00   7.8040138e-03
  1.6129719e-02   3.3883636e-03
  2.1192360e-01   1.5604245e-02
 -3.0548871e-01   1.0195725e-03
 -3.1730822e-01   3.2470308e-04
  1.5793240e-01   6.7760781e-03
 -2.4651496e-01   8.3034011e-03
  6.9925763e-02   8.4737306e-03
 -1.8001634e+00   3.2607972e-04
 -2.3050351e+00   1.2167579e-03
  1.4035937e+00   8.6996949e-04
  7.1836877e-01   1.0173515e-03
 -1.9659097e+00   1.2996702e-03
  1.0379230e+00   6.0900900e-04
 -6.9289219e-01   4.0283720e-03
  1.1175452e+00   2.8875584e-03
  1.9730165e+00   1.4053552e-03
 -1.4053962e+00   1.9229729e-02
  3.4401569e-01   1.0948027e-02
 -1.2649539e+00   1.0341429e-03
  1.8434727e+00   5.7290925e-04
  3.7201189e-02   1.8365646e-04
  1.4350834e+00   1.3740971e-03
 -2.0638256e-01   1.5996834e-03
 -8.8415265e-01   3.4637493e-04
  1.7069719e+00   5.8624562e-04
  1.7103860e+00   5.4086384e-04
 -3.0766496e-01   7.7235309e-04
 -1.1402001e+00   7.0799532e-04
  1.9059571e+00   1.2587862e-03
  5.4011190e-01   3.7833219e-04
  6.4728361e-01   2.0960835e-03
 -1.2941326e-01   5.3924210e-03
  1.1711257e+00   2.8544122e-03
 -8.0568331e-01   1.3458077e-03
 -9.1253436e-01   9.0923510e-04