  2.1122663e+00   3.6171968e-03
  3.4006190e+00   1.3107947e-03
 -1.2853577e+00   3.2545251e-03
 -2.0691557e+00   1.6229408e-02
  3.2225960e-01   9.2174150e-03
  1.1273000e-01   1.9698992e-02
 -1.4326706e+00   1.8630320e-02
  9.7233140e-01   9.2974398e-03
 -6.0667151e-01   1.3419598e-02
  8.8536881e-02   5.0702132e-03
 -3.8981281e-02   7.1995414e-04
 -1.7131335e+00   3.9903661e-03
 -1.1279910e+00   1.0448578e-03
  1.5572733e-01   2.4777590e-03
  1.8004885e+00   4.7142548e-04
 -7.0241237e-01   5.0490664e-04
 -1.3075947e+00   1.1625502e-03
 -1.3115935e+00   9.3034273e-03
  9.1655439e-01   2.1842346e-03
  1.8043475e+00   1.6411321e-03
 -6.5270686e-01   1.9072760e-03
 -2.1651977e-01   6.3946536e-03
  9.7853029e-01   1.9098656e-03
  2.2386463e+00   6.5939799e-03
 -5.9006029e-01   3.2625915e-03
  4.7696978e-02   1.5075776e-02
 -1.1728020e+00   3.0415349e-05
  1.3404348e-01   1.8280708e-03
  6.4930862e-01   3.2217957e-02
  1.0325546e+00   1.3820594e-02
 -5.6470954e-01   3.7557196e-03
  1.0323950e-01   9.8363552e-03
  1.7111588e-01   5.6539662e-04
 -7.7492364e-02   5.3754561e-02
 -1.3262001e+00   2.6816591e-03
  1.5097227e+00   4.6209342e-04
  1.2689648e+00   1.3677060e-03
  2.9067955e+00   9.4625278e-04
 -1.1910810e+00   2.7558201e-03
  1.0428550e+00   1.0024283e-04
  2.0862641e+00   2.5998806e-03
  1.7604871e+00   2.8757069e-03
 -3.0196970e+00   8.4850664e-04
  1.2168909e+00   1.0059374e-02
 -1.2161933e+00   1.8819777e-04
  2.1725168e+00   2.5412743e-05
  9.4716835e-01   9.1446396e-05
 -1.1267349e+00   1.3727725e-03
  2.1380813e-01   2.9664636e-03
 -8.7318194e-01   1.5618255e-04
  2.0633872e+00   1.7124815e-04
 -2.7904460e+00   3.5463472e-05
 -1.7533839e+00   1.2348368e-04
 -1.9234818e+00   1.8305089e-03
 -4.0916768e-01   2.3155888e-04
  3.8492462e-01   5.5836921e-04
 -2.2775259e+00   2.4831009e-03
  1.6802313e+00   9.2946616e-04
  4.2609948e-01   4.8043029e-03
 -7.0085585e-01   4.7166241e-04
  9.1100723e-01   2.5315740e-04
  4.3373886e-02   5.7867722e-04
  3.2526042e+00   4.1576241e-05
  1.8562614e+00   1.6155535e-02
 -1.5524676e+00   4.3788934e-03
  3.5206455e-01   1.7156219e-04
 -6.8477428e-01   2.9382642e-04
  1.5068105e+00   1.1395845e-03
 -4.9623314e-01   1.7679326e-02
 -9.7469985e-01   1.9994585e-02
  1.3586614e-01   4.4032242e-03
 -1.2703513e+00   9.6052798e-04
  3.2729280e-01   6.8408169e-04
 -1.4890587e+00   3.6368084e-03
  1.4910223e+00   2.0105364e-03
 -1.4415365e+00   1.6107198e-04
  2.4434183e+00   3.2920893e-03
  3.5153231e-01   4.1639204e-03
 -9.2735732e-01   1.9225458e-02
  2.1485960e-01   1.4769535e-02
 -4.8220724e-01   1.4779989e-03
  5.6035364e-01   9.1386487e-04
  1.0602193e+00   3.3531340e-03
  1.4175746e+00   6.3408455e-03
  9.6695411e-01   5.0033634e-03
  1.3977104e+00   1.0103371e-03
 -2.1327433e-01   8.8058104e-04
 -1.2164074e+00   1.4845366e-03
  5.4443102e-02   3.3813648e-04
  2.6134653e+00   1.2518850e-03
  4.5375943e-01   3.0583527e-03
  2.0322392e+00   2.7870578e-03
  8.7442422e-01   7.1315067e-03
  1.1936783e+00   2.4030872e-02
  5.9424019e-01   5.5559445e-03
 -8.5980281e-02   5.4897118e-04
 -3.5462751e+00   7.3633791e-04
  4.2010301e-01   7.2919806e-03
  2.1472871e+00   9.6905172e-02
 -5.6992847e-01   1.9477470e-02
 -5.3042185e-01   4.1382130e-02
 -7.9370087e-01   5.6104857e-02
 -6.3313074e-02   1.4879107e-02
  2.9594812e-01   4.6961263e-02
 -1.4281515e-02   2.0144586e-02
 -2.1286316e+00   4.1308300e-05
 -1.0614443e+00   7.3061041e-05
 -1.6749285e+00   6.1667539e-05
  1.1387632e+00   1.6474618e-03
 -3.4938179e-04   3.0224200e-04
 -2.2228949e+00   2.0555141e-04
  2.3686770e-01   9.8177977e-04
  3.0257733e+00   9.1981201e-05
  3.9016944e-01   6.2962779e-04
  5.9024823e-01   4.8717605e-03
 -3.0571252e-01   3.7667138e-04
  2.5899527e+00   2.4229295e-04
  7.0681399e-01   4.1189085e-04
  3.4894192e-01   1.2209794e-03
 -2.4402782e-01   2.8840674e-04
 -2.7558607e-01   2.5507239e-05
  2.2751000e+00   3.7552643e-04
  2.3978810e+00   2.2323224e-05
  5.3727675e-02   5.7404255e-04
 -3.3661053e-01   1.0232726e-04
 -3.6733139e-01   1.1249925e-03
  1.2199981e+00   5.7363213e-04
  1.1167383e+00   3.0601368e-04
 -1.0572010e+00   1.5957184e-02
  3.2817471e-01   1.7158542e-04
  1.2689880e+00   8.2419970e-04
 -6.4590526e-01   1.3634720e-03
 -2.3866334e+00   1.5880815e-03
 -1.4518365e+00   7.0468546e-04
  4.4459161e-01   4.0504062e-03
  1.0019386e+00   3.0264307e-03
  2.0348102e-01   9.4010327e-03
  7.4710488e-02   9.6741309e-03
  1.2101824e+00   1.1277649e-03
  2.3594059e-01   2.7030455e-03
 -4.5431563e-01   1.4713826e-02
 -1.7806914e+00   2.6170230e-02
  4.9728390e-02   9.2626514e-04
 -2.1015543e-01   4.8268706e-02
  5.0094932e-01   3.7852135e-03
  2.1700057e-01   2.2738199e-03
 -1.0544724e-01   4.8920341e-02
  2.9094183e-01   4.3292031e-02
 -1.2167777e+00   1.7850054e-02
  7.3138475e-01   6.7575604e-02
 -2.0757259e-01   1.8756591e-03
 -1.4786087e+00   2.5366791e-04
 -8.3708596e-01   4.1105947e-03
 -2.1315145e-01   5.5736382e-03
  1.1906397e+00   1.7950065e-03
 -1.7538449e-01   7.2814454e-04
  7.1702987e-01   6.3498114e-04
  3.1926918e-01   6.4921305e-03
  1.4213625e-02   5.9182126e-02
  4.9540619e-03   1.8906454e-02
 -2.1368045e-02   1.6144870e-02
  4.2401955e-01   1.2558356e-03
  2.1301414e-01   4.6235630e-03
 -2.8656995e-01   1.2028541e-03
  6.4946616e-01   2.6033944e-02
  1.0224223e+00   2.9210192e-03
  4.3679237e-01   3.2188479e-04
  1.9864905e-01   1.8935990e-02
  4.3379790e-01   5.0920588e-03
 -6.1929834e-01   8.6039864e-03
  2.4184871e-01   2.6019609e-02
  2.1408407e-01   3.1374019e-02
 -2.0490097e-01   1.0567838e-02
 -1.9444104e-01   2.5804510e-02
  1.0351037e+00   2.2884419e-02
 -1.7946706e+00   7.3192123e-04
 -2.4352281e+00   1.3827778e-03
 -9.1691241e-03   1.0734571e-03
  9.9696726e-02   3.4515426e-04
  1.7683269e+00   2.8513502e-03
 -2.0432097e-01   5.5363699e-04
  4.2682353e-01   6.5888627e-03
  2.1463675e+00   1.8363344e-04
 -3.6890909e-01   6.3962687e-04
  3.5564094e+00   1.1396011e-03
 -2.0748298e+00   3.7516904e-04
 -8.4482330e-01   1.7018908e-03
  2.5473409e+00   2.1969615e-03
 -1.1276404e+00   5.6561618e-03
  1.5970125e+00   5.9579825e-04
 -6.0577458e-01   6.5962842e-04
  1.7830007e+00   1.2461223e-06
  2.9432180e+00   4.8660746e-04
  5.8629513e-01   5.3253234e-03
  2.9649980e+00   1.0137366e-03
  4.2988536e-01   6.0338998e-04
 -9.2550081e-01   6.1488478e-04
 -4.0462625e-01   2.9321942e-03
  1.1668943e-01   2.7002376e-03
  1.7465616e+00   2.3817541e-03
 -3.1346550e+00   2.4826226e-03
  1.9052802e+00   3.6192373e-03
  3.5615861e-01   8.2125310e-03
  2.1225515e-01   2.6683833e-03
  6.2763315e-01   1.2554631e-03
 -3.4320155e-01   2.6747670e-02
 -2.2135605e-01   9.5850782e-04
  9.2573714e-01   1.3286627e-03
 -1.9813402e-01   3.5962395e-02
 -1.3289776e+00   2.7592678e-03
 -1.0999606e+00   1.0451655e-03
 -3.9317852e-01   1.3681602e-04
  1.0303599e+00   4.1484111e-04
  1.3816167e+00   2.6832751e-04
  2.4455447e+00   4.5064446e-03
 -3.5688345e+00   7.9016034e-03
 -2.4039139e-01   1.0097162e-02
  2.8071666e-01   6.2140417e-03
  1.0761613e-01   2.0123700e-02
  1.5790893e+00   4.8040182e-04
 -1.0321643e-01   6.2628645e-03
 -1.7625586e+00   2.3784833e-03
 -7.3367840e-01   2.1359237e-02
  1.0121357e+00   2.4851160e-03
  1.9366802e+00   9.2249839e-03
 -4.0129587e-01   2.0786133e-03
 -1.5612023e+00   2.4297338e-03
 -1.1937107e+00   8.1443805e-03
  2.5949576e+00   1.3063372e-04
 -1.6069125e+00   2.8653250e-03
  3.6589441e-01   1.6676912e-02
 -2.6467271e+00   1.5906333e-04
 -1.3213903e+00   5.3981515e-03
  1.9739366e+00   1.3985664e-03
  7.9849762e-01   5.2341959e-03
 -1.0981172e+00   7.8814374e-03
  7.4497902e-01   2.4884448e-03
  3.6090729e-01   1.4883702e-03
  7.2457865e-02   3.5338152e-02
 -1.0900006e-01   8.9067295e-03
  8.2712317e-01   7.4083045e-02
  4.9476358e-01   2.1076342e-03
 -2.9035129e-03   1.4145055e-02
 -4.9329406e-01   4.2451020e-02
 -8.2770401e-01   1.4732492e-03
 -4.8791308e+00   1.0676615e-04
 -6.0989553e-01   1.8945773e-03
 -3.8880908e-01   2.1992885e-03
  2.3389402e-01   7.8645237e-03
  4.5376701e+00   5.0060428e-03
 -3.4713945e+00   2.1354500e-03
 -2.7489352e+00   9.8724617e-05
  1.4567449e+00   6.6438266e-03
 -1.4472328e+00   5.5874635e-02
 -9.7431652e-02   7.5313663e-03
  3.0008057e-02   9.4370806e-04
 -1.7959168e+00   7.2670181e-04
  1.2732198e+00   4.6627726e-03
  1.7195489e-02   8.8735120e-03
  1.0749692e+00   2.2288920e-04
  4.2631242e-01   9.5767231e-04
 -2.0733106e+00   7.8733917e-04
 -1.1072568e+00   8.3957909e-04
  2.3641045e+00   4.2332936e-04
  1.3644339e+00   1.2149130e-03
  1.0524223e+00   6.7548308e-04
  6.2091380e-01   4.3478567e-04
 -1.3559678e+00   3.7413198e-04
 -8.8112468e-01   4.4760108e-04
  1.6688801e+00   4.2668183e-04
 -6.8385965e-01   2.5290605e-03
 -1.4281622e+00   7.8834780e-03
 -1.8699813e-01   2.2978727e-02
 -1.8523307e-01   1.0281546e-02
 -2.2833881e-01   1.1549639e-02
  2.7863023e-01   8.2797902e-03
 -4.0513220e-01   2.3768289e-02
 -1.2575294e+00   3.7587699e-02
 -1.5652145e-01   1.0880844e-02
 -2.6473057e-01   9.3769720e-03
 -7.8700644e-01   6.3811904e-03
  2.0289445e-01   7.8994379e-04
 -1.9626100e+00   7.4677793e-03
  2.5714433e+00   1.3933417e-04
  2.7829045e-01   2.2573557e-03
  3.0616446e+00   1.8187603e-02
  4.6958986e-01   8.8628370e-04
  1.4353596e+00   1.4021034e-02
 -2.4652982e-01   2.8507421e-02
  4.6960778e+00   1.3067146e-02
  5.9916526e-01   8.5384061e-04
  1.2852099e+00   2.9147537e-03
 -7.1373820e-02   2.6928680e-03
  1.3831209e+00   3.8991854e-02
 -7.9179311e-01   7.6435497e-03
 -4.9587938e-01   3.1130682e-03
 -2.9263109e-01   3.8056006e-03
  1.3391995e-01   2.6534977e-03
 -1.2360849e+00   8.4586907e-03
 -1.1107968e+00   1.7008586e-03
  1.8650966e+00   1.9558372e-03
 -3.5319367e-01   5.0277500e-03
  8.7260312e-01   3.7452369e-03
 -8.8989399e-02   2.5730039e-04
  9.1149187e+00   8.3920276e-03
 -9.4185069e-02   6.4379196e-03
  1.4874028e+00   7.5737084e-04
 -1.0348291e+00   1.8594122e-02
  9.0784889e-01   4.1182709e-04
  1.2876521e+00   1.4706134e-03
 -6.0924459e-02   2.0207066e-02
 -5.4696977e-01   7.5892643e-03
 -4.4403568e-02   5.3996839e-02
 -8.9602017e-01   8.1241699e-03
  1.9848785e-01   8.5305355e-02
  3.5945287e+00   2.2188402e-04
 -3.1745598e-01   4.8349056e-04
 -7.5472254e-01   1.3453714e-03
 -1.4386711e-01   3.8166770e-03
 -2.0141969e+00   3.3919166e-03
 -8.6012578e-01   2.8044183e-03
  1.8634458e-01   6.1016171e-03
  6.5348506e-01   9.5003126e-03
 -1.9896286e-02   3.7610047e-02
 -9.1137552e-01   5.4547060e-03
  2.8391457e-01   3.5580285e-03
 -1.5877542e+00   4.5572745e-04
 -3.5711315e-01   8.2813995e-04
  1.1775360e+00   5.4477429e-04
 -1.6249267e+00   6.8836547e-03
 -1.8545613e+00   1.2396120e-03
 -1.3759364e+00   1.4701107e-03
 -2.1472512e-01   9.4257724e-03
 -2.1457705e+00   9.3379978e-04
  4.8698401e-01   4.0985658e-04
  9.9433190e-01   6.8668574e-03
 -9.4893694e-01   1.0287828e-03
  3.3285457e-01   1.5574942e-02
 -3.7445790e-01   4.4757844e-04
 -2.5169835e+00   1.4054927e-03
  2.5708926e+00   2.4496453e-02
  4.3429336e-01   5.9116818e-04
 -6.1048859e-01   4.0243356e-03
 -8.5217577e-01   1.1062214e-04
 -6.4606354e-02   3.4599302e-03
 -6.9323498e-01   2.1238014e-04
  5.6597590e-01   4.6732367e-04
 -8.5286140e-01   2.3396477e-02
 -4.6670198e-01   1.8317608e-02
  3.8614354e-01   5.1670481e-02
  1.4628384e+00   6.4170413e-04
  2.0212729e+00   3.0109312e-03
  8.2193857e-01   2.3738483e-03
 -1.5508820e-01   7.7071832e-03
  4.5968717e-01   1.6620930e-02
  1.6987904e+00   2.1955934e-03
 -4.1515399e-02   3.2333698e-02
  3.8844299e+00   1.7350576e-03
  8.4087960e-02   3.4836365e-03
 -1.1473139e-01   1.2375720e-02
 -3.6498448e-01   6.4718556e-03
  1.0939740e-01   1.6681381e-03
  6.5672410e-01   5.8607948e-03
  9.1867095e-01   6.4498545e-03
  1.0430703e+00   2.9220537e-04
  8.5168481e-01   9.9369448e-05
  5.4527295e-01   8.6631216e-03
 -3.7136647e-01   1.7967907e-03
 -5.4472351e-01   4.1431906e-03
 -9.8565191e-01   7.0578447e-03
  3.1898234e+00   2.5481046e-03
 -1.0620850e-01   1.5903930e-03
 -9.0556341e-01   1.4236291e-02
  1.2378055e-01   1.2959535e-02
  6.5265173e-01   1.0073759e-03
  1.3650707e+00   4.4926922e-04
  3.8832748e-01   6.7916414e-04
  2.7798033e-01   2.2026017e-02
  3.0660369e+00   1.4300153e-04
  1.6868033e+00   3.7054271e-02
  4.9007669e-01   4.0470909e-02
 -1.3265623e+00   8.8382751e-04
  1.9479802e-01   4.4435378e-02
  1.7687050e-01   2.7819593e-02
  2.1917826e-01   9.7541496e-02
  1.8367134e+00   7.1552205e-03
 -3.1678417e-01   1.7539910e-03
 -8.9960748e-01   1.3361759e-02
  2.1151505e-01   1.3504349e-02
  1.3510755e+00   2.6362710e-02
 -3.3401835e-01   7.0317890e-03
  1.1948045e-01   7.3964759e-03
  9.6911377e-01   4.5669712e-03
  9.9920028e-01   8.0068549e-04
  1.1376268e+00   8.8528646e-03
  4.9460724e-01   2.3503668e-04
  3.0541411e-01   1.0074511e-03
  2.1363908e-01   1.2563809e-02
  4.3727365e-01   4.5518173e-05
  8.2859963e-01   1.0387158e-02
 -1.4194982e+00   8.3403531e-05
 -5.9388727e-03   2.8519835e-03
 -3.0564347e-01   6.4832885e-03
 -3.9211151e-01   2.7454725e-02
 -8.7949967e-01   5.1615979e-03
  1.5748277e+00   2.4156965e-02
 -2.5027165e+00   2.2155510e-02
  1.3743174e+00   5.8328384e-04
  4.2023337e-01   3.0362114e-02
 -3.2912174e-01   9.6573541e-03
  7.3589754e-01   7.7203913e-03
  3.1992855e+00   1.4302565e-04
 -5.3844565e-01   9.1506559e-03
  4.6026471e-01   1.8649278e-02
  7.5270754e-01   6.4556092e-02
  1.1874517e+00   1.2225403e-02
 -2.2233352e-01   1.3493629e-02
  2.2065179e-01   1.3843935e-02
 -3.9227587e-01   2.7104033e-02
  5.8816556e-02   4.0957972e-02
  5.2565694e-01   1.1295559e-03
 -7.7603027e-02   1.3117751e-03
  2.3651853e+00   3.7694923e-03
  6.8715870e-01   1.3762001e-02
 -1.7361019e+00   9.0354113e-03
 -2.7728590e-01   1.1276996e-03
  9.0013331e-01   1.4425680e-02
 -1.5691558e+00   8.4048966e-03
 -1.4120436e+00   8.3522697e-04
  1.5630643e-01   1.8839478e-03
  5.3419459e-01   1.0040241e-03
 -2.5257128e-01   4.5762554e-05
 -8.6725220e-02   5.2734334e-03
  9.0510648e-01   1.1694144e-02
  4.1978788e-01   2.8447134e-03
 -2.8358087e-01   5.0269207e-03
 -1.6177732e+00   2.0338704e-03
  4.5045134e-01   2.2335113e-03
 -4.5897508e-01   2.5097791e-03
 -6.2418503e-01   3.2766676e-03
  1.6419697e+00   3.0950410e-03
 -1.2932798e+00   3.9228695e-04
 -3.6591458e-01   8.2707894e-04
 -1.1126738e+00   3.1031257e-02
 -8.0711311e-01   8.5115917e-03
  7.8406119e-01   1.3142194e-03
 -1.3806282e+00   4.4436352e-03
 -4.7235172e-02   1.1989333e-02
 -7.9964417e-01   4.6562638e-02
  3.1075689e-01   4.4602142e-03
  4.8954222e-01   2.5577454e-02
  1.5925710e+00   6.4678073e-02
 -1.7658375e-01   3.4889065e-02
 -2.0337135e-01   8.8138886e-02
 -2.9856880e+00   6.7433105e-03
 -3.1673923e-01   1.5695213e-03
 -8.7652087e-01   2.8154664e-03
  1.4199765e+00   4.0092082e-03
  7.1999085e-01   6.2265345e-03
  1.9504997e+00   2.9145004e-03
 -1.8156692e+00   2.1116327e-02
  3.6103448e-01   4.4313823e-03
  6.7717549e-05   1.0697134e-03
 -3.8536513e-01   3.1640173e-03
  8.9453977e-01   2.8940951e-02
  9.9600357e-01   3.1750786e-04
  9.4917262e-01   3.3906050e-04
 -2.1375430e+00   1.2124345e-02
 -3.9578041e-01   2.8738007e-02
 -1.6593859e+00   2.0897053e-03
 -1.1750129e+00   1.1888169e-03
 -1.8857667e+00   2.7542005e-04
 -6.3091936e+00   2.7426399e-02
  1.0797882e+00   2.0960525e-02
 -1.5044576e+00   3.1930483e-03
  8.5446000e-01   2.3766900e-03
  9.4856924e-01   9.5227105e-04
 -2.1654736e-01   3.5866097e-02
 -1.7854440e-01   3.2911671e-03
  5.3698993e-01   1.2005602e-03
  1.7880319e-01   3.5287645e-03
 -2.9751365e+00   1.4843403e-03
  6.8548083e-01   1.2453937e-02
 -4.9733091e-02   8.3871722e-02
  5.8385527e-01   2.2326955e-03
 -3.9542350e-01   2.9128086e-02
  5.1625043e-01   4.0783387e-02
  1.2407750e-01   2.0752238e-02
 -8.8165611e-01   1.1637025e-03
 -4.0664500e-01   3.3683379e-03
  9.4345313e-01   2.3169924e-02
 -1.4341085e+00   2.2660444e-02
 -4.7551429e-01   1.0150836e-02
  2.7569655e-01   7.7869175e-03
 -6.9418430e-02   4.2093720e-02
  3.5007051e-01   2.7537473e-02
 -3.8912702e-01   8.8380016e-03
 -1.0639107e+00   5.4562889e-04
  5.8289331e-01   1.6482061e-03
 -3.9052087e-01   1.9211643e-03
 -1.3112781e+00   2.9420988e-03
 -1.2894262e+00   1.0090156e-03
 -5.5626416e-01   2.4203046e-03
  7.8885460e-01   2.1041133e-03
  9.3642521e-01   2.3464886e-02
 -3.4596786e-01   2.9478602e-02
 -7.9076374e-01   1.7847177e-02
  4.0742549e-01   1.8303802e-02
  1.5189153e+00   9.9269394e-03
  1.3126387e-01   3.5338575e-04
  6.0459465e-01   1.2287835e-02
 -9.5300525e-01   1.2224544e-03
  2.8563693e-02   5.8330665e-03
 -7.6957637e-01   9.1253174e-03
  6.5623599e-01   3.3217091e-02
 -4.8519871e-01   5.5545930e-02
 -9.2700601e-01   3.6303021e-04
 -3.2301882e-01   3.2568485e-02
 -2.4464433e-01   1.5704410e-02
 -8.5884124e-01   3.2516524e-02
 -5.5882770e-01   4.7839083e-02
  1.1040462e+00   2.1333215e-03
 -6.2418770e-02   4.2925961e-03
 -7.6152027e-01   5.2942134e-02
 -1.1359133e+00   4.5160013e-03
  6.6400242e-01   3.3071984e-03
 -1.7065132e-01   1.2753509e-03
 -1.7489533e+00   2.0548122e-03
  5.8360744e-01   3.4720724e-04
  1.7077860e-01   1.3530037e-03
  2.1745698e-01   2.5508599e-03
 -1.3575119e+00   5.4180496e-03
 -1.3950379e+00   7.1106176e-03
  1.8230512e+00   4.3950691e-03
  3.1745958e-01   1.5975452e-04
  2.4410381e+00   2.6754579e-03
  2.9883387e+00   3.3744837e-03
 -3.3743172e+00   1.2269280e-03
  2.9368682e+00   4.1459475e-02
 -4.4131801e-02   7.8258151e-03
 -2.5178571e+00   7.2798406e-04
  1.6247042e+00   1.5888723e-04
  2.7155080e-01   7.0441689e-04
  1.7511133e+00   1.0828914e-03
 -4.6930009e-01   3.3437466e-04
 -2.7324364e+00   1.2639078e-03
  1.7939078e+00   5.0733500e-04
 -9.7096545e-01   2.6512935e-04
 -6.0953534e-01   9.6425478e-04
 -7.2650111e-01   3.9715657e-04
  7.6598972e-01   7.3791656e-04
 -2.5112312e+00   2.9553343e-03
  1.3621745e+00   2.8498743e-03
  1.1943394e-01   1.3892540e-02
 -7.8908920e-01   1.4109010e-03
 -5.2706325e-01   1.2454861e-02
 -5.5733162e-01   9.5453821e-03
 -6.2445235e-01   7.4661756e-04
 -6.1035025e-01   2.5510346e-03
 -5.3911394e-01   6.1917407e-03
 -3.9789933e-01   1.4271942e-03
  1.8768786e+00   7.9420209e-04
 -2.7386415e+00   7.4417860e-04
 -2.5490882e+00   6.3948706e-03
  1.8825811e+00   3.1895253e-03
 -4.3081880e-01   1.6983228e-02
 -3.0956885e-01   4.6628858e-03
 -1.8940767e+00   5.6958781e-03
  1.5230565e-01   7.8976632e-04
  9.9095112e-01   4.9591274e-03
 -5.8099186e-01   1.2546991e-03
  1.3789612e+00   3.8780132e-03
 -7.3269200e-01   1.0123579e-03
  6.2459213e-01   1.0068082e-02
  2.5106720e-03   1.1478506e-02
 -2.8114332e-02   3.7537413e-03
  2.2622855e-01   6.5332174e-04
 -9.2822272e-01   2.7848289e-03
 -1.1060770e+00   1.0638509e-02
  6.2170076e-01   1.5467076e-03
  2.4113785e-01   4.0107565e-03
  1.3624449e+00   3.2794269e-04
 -4.8711196e-02   1.3320741e-02
  1.4276557e+00   3.6445208e-02
 -2.3529533e-01   5.7395911e-03
 -6.6283160e-01   1.4882358e-03
  1.3510385e+00   6.3010589e-03
 -2.1609126e-01   6.4363866e-03
  1.2509178e+00   8.5319266e-02
 -5.8132261e-01   2.4517993e-02
 -4.8007950e-01   1.8314328e-02
  2.9749158e-01   5.9991881e-02
 -9.9304622e-01   2.0336200e-04
 -2.4774618e-01   6.8454809e-02
 -5.1393848e-02   4.1094758e-02
 -3.1817067e-01   8.2769652e-04
  1.2635428e+00   2.6284652e-03
 -2.3422716e+00   1.4463724e-03
  1.0053962e+00   9.9062722e-04
 -2.2369831e+00   1.6151927e-04
 -2.2138898e+00   1.7624771e-02
  4.3118614e-01   3.4091480e-03
  6.6797590e-01   2.2054953e-03
 -1.8129013e-01   1.9700206e-03
  9.3490195e-01   6.3307816e-03
 -3.6863692e+00   2.3064527e-03
  2.9748559e+00   2.4431714e-04
  1.0353440e+00   1.7245264e-04
 -7.7400416e-01   3.4013331e-02
  1.5102600e+00   5.8635660e-03
 -1.9948195e+00   5.7772722e-04
 -2.3544106e+00   6.2718904e-03
  5.6171066e-01   4.1977079e-03
 -7.9716396e-01   2.1321237e-02
 -2.5003738e+00   7.8911416e-04
 -2.6326857e+00   3.3872618e-04
 -8.8745910e-01   2.3149482e-03
  2.3709849e-01   4.2101261e-03
 -5.7558799e-01   4.7873175e-03
 -8.1896141e-02   1.6388517e-02
 -1.8484893e+00   1.5831077e-02
  5.9434366e-01   2.8267035e-03
 -1.4713391e+00   1.3204053e-02
  2.5944918e-01   7.2989307e-02
  1.4431224e+00   1.1721330e-03
 -8.3334470e-01   9.1234380e-03
  4.4707158e-01   2.8925112e-03
 -1.7051134e-01   2.3894476e-02
 -1.5141641e-01   3.5813764e-02
 -2.8461650e-01   1.6275592e-02
 -1.2094266e+00   6.5588141e-03
  4.7476828e-01   2.6237441e-04
  1.1541378e+00   8.7214243e-03
  4.1261390e-01   2.1630704e-02
 -1.7007141e+00   2.8228214e-02
  1.0170481e-02   1.0945887e-02
 -9.7266406e-02   2.9839615e-03
  1.4250085e+00   3.2209145e-04
 -1.1347179e+00   1.5014017e-03
 -9.3820757e-01   8.3910278e-04
 -1.7785318e-01   1.0359611e-03
  2.7181949e-02   2.8474242e-03
 -5.5614352e-02   1.7723021e-03
 -3.2065436e-01   1.3900674e-02
 -3.7593585e-01   1.2159914e-03
  4.4006041e-01   2.5973050e-04
 -7.6605350e-01   6.4252904e-03
  7.8146291e-01   2.8729953e-03
 -2.7223241e-01   2.7403623e-02
 -7.9452384e-01   9.6799545e-03
  4.0659466e-01   4.9567814e-03
  9.7153723e-02   4.6032621e-03
 -7.7339298e-01   1.8587459e-02
 -9.1897351e-01   3.5984681e-03
 -1.0388764e+00   2.6782872e-03
  3.3681297e-01   9.1288146e-03
 -3.0041417e-01   1.2277687e-02
 -3.5102922e-01   1.0669257e-03
 -1.4108850e+00   1.5190654e-02
  1.1549004e+00   6.2450864e-03
  6.1073148e-01   1.8861806e-02
  5.5295050e-01   1.5138293e-03
  8.1941622e-01   5.7099725e-04
 -2.5654951e-01   8.0432795e-02
  6.7381829e-01   6.8018936e-02
 -6.1764824e-01   9.4403308e-03
  6.3752919e-01   5.5519878e-03
  3.2219235e-02   1.4000535e-03
 -1.2503219e+00   1.3143241e-03
 -5.0760484e-01   3.6412214e-03
 -4.1501477e-01   1.1650396e-03
  1.6088884e+00   1.2653288e-02
 -4.1067562e-01   2.8904851e-03
 -1.4466865e-01   2.4443425e-02
 -2.0739342e-01   5.7863479e-04
  3.4828395e-02   3.1471543e-03
 -2.4792801e-01   7.8180491e-04
 -1.3959892e+00   2.9246223e-03
 -1.5498360e-01   1.1600484e-02
 -7.6513720e-01   4.6044174e-03
 -2.1536063e-01   4.7909804e-03
  5.1548123e-01   2.8556671e-03
  9.7085834e-01   5.4775020e-03
  2.8425422e-01   4.8100941e-02
  1.1240534e+00   5.9575653e-03
 -1.5642294e+00   6.6349325e-03
 -1.0206264e+00   1.6675527e-03
  1.3566297e+00   1.2914860e-03
 -1.1111220e-01   4.0707346e-03
 -3.1166524e-01   2.9474543e-03
 -1.2794366e+00   2.7696658e-03
 -1.8700798e-01   1.4945559e-03
  7.9015456e-02   4.2025829e-03
  1.5432521e+00   5.4178834e-03
 -2.2641618e+00   1.5275744e-02
 -4.6553811e-01   2.1302210e-02
 -2.9464847e-01   1.0448795e-02
  1.9187688e+00   5.1573305e-03
  7.3661923e-02   1.6350316e-02
  3.3025590e-01   7.7789678e-05
 -7.7822262e-01   2.0430056e-02
 -7.9077464e-01   7.4906056e-03
  3.2059491e-01   7.2150892e-03
 -6.1764920e-01   1.0662928e-02
  2.4202655e-01   3.6497254e-02
 -6.3987243e-01   4.6234699e-03
 -7.7291137e-01   1.3346737e-03
 -3.6017823e-01   2.2290811e-02
 -6.1554831e-01   1.3662188e-02
 -6.3785118e-01   7.8294030e-04
 -4.1343278e-01   5.9592729e-03
  1.5927619e+00   1.1494408e-04
  1.8020760e+00   8.4798411e-04
  6.9183320e-01   3.7047706e-04
 -1.4261222e+00   6.2112822e-03
  4.4600550e-02   9.2055247e-04
 -5.4572099e-01   4.6906018e-04
  3.3451089e-01   1.1164963e-02
  8.5486746e-01   5.9862191e-06
 -5.6998616e-01   1.6567819e-02
 -2.5584197e-01   1.3601182e-02
  1.7384902e+00   8.0932007e-04
 -2.6392514e-01   4.2136602e-02
  5.5219626e-01   6.9595459e-03
 -6.5919524e-01   1.2091245e-02
  2.5473315e-01   1.1398246e-02
 -8.5079962e-01   3.3439981e-06
  2.9920125e-01   9.6628390e-02
 -5.0885743e-01   1.4358538e-02
  8.6589664e-02   7.3459342e-02
  6.3215202e-01   3.8040935e-03
  2.7622437e-01   4.5536752e-04
  5.5381501e-01   5.2551302e-04
 -1.0455045e+00   1.5739185e-03
 -2.4507688e-01   6.4026628e-04
  2.9279768e+00   2.7658811e-03
  7.7669758e-01   9.1073592e-04
 -8.5811681e-01   1.6329539e-03
 -1.0439227e+00   1.4413747e-03
  1.0241865e+00   3.0919488e-03
 -1.6711695e+00   1.5539504e-03
  9.0762836e-01   1.2417058e-02
  2.0096455e+00   6.3087894e-03
 -6.8479025e-01   3.0382849e-02
 -4.7173661e-01   8.7067401e-03
 -2.9631336e+00   5.0283782e-04
 -1.8411629e-01   1.8182199e-04
 -5.7457489e-01   2.2390955e-03
 -5.5583984e-01   2.7755415e-03
 -1.6933999e+00   1.0345090e-03
 -2.3583643e-01   2.6392259e-04
 -9.3071669e-01   2.3118180e-04
 -2.9059484e+00   2.3605538e-04
 -3.4196129e-01   4.6014418e-03
 -5.3163093e-01   2.1241579e-04
  1.2230166e+00   1.5067805e-03
 -5.5957186e-01   1.9052117e-03
  2.8746743e-02   2.0711501e-03
 -7.9720855e-01   1.0393697e-03
 -2.7518814e+00   1.9229755e-04
  3.0382671e-03   1.5197952e-03
  2.6844749e-01   1.4870119e-03
  1.2820249e+00   4.8962887e-03
 -4.4826919e-01   7.0794332e-03
  2.3837906e-01   2.8551531e-03
 -6.8456674e-01   9.8121203e-03
 -9.3016964e-01   2.6962053e-02
  2.2090259e-01   3.5726175e-02
 -6.5887749e-01   4.3419298e-02
 -4.7213534e-01   2.7160518e-02
  9.3246454e-01   2.9646368e-03
  4.4092688e-01   1.5859193e-03
  2.1567028e+00   1.0370756e-03
 -9.0267575e-01   3.3118697e-03
 -2.4514492e+00   5.3817425e-03
  5.2248120e-01   1.2596047e-02
  6.2138613e-02   1.4188989e-04
 -2.1274294e-01   7.2799181e-03
 -4.1097718e-01   2.6668838e-04
  9.3963385e-01   4.6158684e-03
 -2.6635879e-01   1.6104151e-03
  1.4574543e-01   3.3942622e-04
 -2.3025070e-01   2.8708889e-03
  2.9815218e-01   2.4689365e-02
 -2.3587318e-02   8.2357746e-04
  1.3397204e+00   6.3630077e-04
 -9.6299714e-01   1.4063264e-03
  8.8129765e-01   1.1266001e-03
  4.4044402e-01   1.1141655e-02
 -2.6856585e+00   6.5871252e-04
 -4.6084175e-01   2.9224816e-03
 -7.8361511e-01   5.1457277e-03
 -5.4805654e-01   5.3667636e-03
 -9.8449951e-01   2.0188630e-02
  1.1711392e+00   3.6790296e-03
 -2.5667566e-01   1.6884160e-03
  9.5949215e-01   1.2551467e-03
 -2.6099902e-01   5.4071355e-03
 -1.9402144e+00   2.0717874e-02
  3.5098252e-01   4.1742247e-04
  4.2034529e-02   1.5553735e-02
  6.3034201e-01   4.2216938e-02
  2.9393297e-01   4.0440083e-02
  2.9079210e-02   5.4436337e-02
  9.4748980e-01   3.0101473e-02
  1.0415138e+00   7.0459337e-04
  2.2472237e-01   9.8869077e-06
 -3.6590316e+00   9.6617814e-04
 -1.8610071e+00   3.8421119e-04
  3.4756426e-02   2.2612205e-03
 -1.6168114e+00   1.4874593e-03
  1.0089111e+00   2.3115048e-04
  3.4212300e-01   3.9138747e-04
 -5.3894717e-02   3.7641709e-03
 -2.2497590e+00   9.8902592e-04
 -2.1352346e+00   3.4038848e-04
  6.3086462e-01   1.1799795e-03
 -9.6209627e-01   1.2232311e-03
 -3.8127401e-01   3.9885231e-04
 -8.3259678e-01   1.2737454e-03
 -1.3114209e+00   4.7813010e-04
 -5.2065931e-02   1.2158286e-03
  9.0924215e-01   1.8319688e-03
 -1.0091738e+00   2.4563132e-03
  3.5413024e-01   3.9197106e-04
 -5.2342528e-01   2.6809126e-03
 -4.8434842e-01   8.3955360e-04
  1.7453601e+00   1.4344691e-03
  2.8939378e+00   1.1177664e-04
  2.8736806e-01   3.2453446e-03
 -2.5184028e+00   2.4327552e-03
  1.7764931e+00   4.5745602e-04
  2.8716201e-01   7.4223860e-04
  1.3715218e+00   1.9381540e-02
 -3.4340101e-01   2.8440733e-03
 -5.5058819e-01   1.2689782e-02
  6.6308266e-01   1.1391010e-02
  4.2242235e-01   1.0064666e-03
  1.9853257e-01   7.4140206e-02
 -5.5362135e-02   5.7757538e-02
 -4.8326600e-01   3.0495722e-03
 -8.7600499e-01   5.8885582e-04
  2.1178622e+00   6.2299770e-04
  6.8531764e-01   8.5602896e-03
  3.7735072e-01   5.4455427e-03
 -2.4149873e+00   1.8793827e-02
 -3.1031497e+00   7.1707247e-03
  2.4940147e+00   6.6778492e-03
  2.8513345e-01   5.5391812e-03
 -5.5255876e+00   2.2926042e-02
 -2.2155766e-01   4.7182082e-04
  2.7426333e+00   3.6952298e-04
  1.2041194e+00   2.0833639e-03
 -1.0382288e+00   5.5035697e-03
 -4.3588762e+00   8.5757263e-03
  1.6146469e+00   7.2357105e-04
 -1.3887184e+00   1.5175849e-04
  1.4567778e+00   8.7972579e-04
 -2.5249740e-01   3.8039777e-03
  1.1267745e+00   3.2927952e-04
 -1.8883253e-02   6.9715636e-04
  8.0791664e-01   1.5560199e-03
 -2.8598142e-01   7.2744922e-03
 -6.7713779e-01   6.2192045e-04
  1.2020145e-01   4.5146755e-04
  1.9921436e+00   1.3074439e-04
 -3.9513317e-01   1.6475117e-03
 -5.9443861e-01   7.8346105e-03
  6.9025558e-01   3.1386847e-03
  2.6526008e+00   1.1874491e-02
 -9.3637601e-02   1.8459490e-02
  9.2829329e-01   1.5836796e-02
  8.5861009e-01   1.4402842e-02
  4.9650410e-01   4.7537195e-03
  4.2931521e-01   3.1760861e-03
  2.5926037e+00   4.2097662e-03
 -1.5964802e-01   9.2280674e-04
  3.0043249e+00   1.3727280e-04
  2.4300945e+00   1.9650687e-02
 -3.1149292e+00   1.1363967e-03
 -1.4728040e+00   2.0881878e-04
  2.5628972e+00   1.0630720e-02
 -5.9805495e-01   7.6055587e-03
  3.0796316e-01   1.0485108e-02
  7.6654255e-01   3.7732911e-03
 -2.2248297e+00   1.2945060e-03
 -1.7178502e+00   1.4816429e-03
 -1.4919729e+00   1.1149090e-03
  1.3356316e+00   1.4284224e-03
 -1.5489842e+00   1.2262418e-03
 -2.0908102e-01   7.8952673e-04
  1.0911417e+00   1.3150387e-03
 -6.3872951e-01   1.1409424e-03
 -1.5320126e+00   3.3760000e-02
 -2.8477868e-01   7.0688495e-04
  9.3022841e-01   4.8956997e-04
  9.2366630e-01   1.2280844e-03
 -1.0437396e+00   8.2600713e-03
  1.9782126e-01   7.3850253e-03
 -2.5731764e+00   3.6866276e-03
  8.6711667e-02   7.2120554e-03
  1.7006737e+00   4.8307483e-03
 -1.0177756e-01   2.5850185e-03
  2.2995520e-01   3.0614333e-03
 -2.9062137e-01   1.8510690e-03
 -3.2367107e-01   3.9787815e-04
  2.2185925e-01   7.6158866e-03
 -5.0342846e-01   1.4121150e-02
  2.0643263e-01   6.4945114e-03
 -1.7955437e+00   5.4111029e-04
 -2.2957807e+00   1.3351266e-03
  1.4427762e+00   1.5834117e-03
  5.7302910e-01   3.5146705e-03
 -2.0100462e+00   1.0390615e-03
  1.0434569e+00   7.0291292e-04
 -7.6808512e-01   1.3642446e-02
  1.1769924e+00   2.5064521e-03
  1.9515095e+00   1.3893355e-03
 -2.4528120e+00   8.0500683e-03
  5.0779808e-01   1.2851022e-02
 -1.3078325e+00   1.0952371e-03
  1.8065741e+00   1.3446901e-03
  3.3518199e-02   2.2011038e-04
  1.4253479e+00   3.1635672e-04
 -2.3092487e-01   1.5029614e-03
 -8.9680886e-01   6.1534415e-04
  1.7012162e+00   1.1447167e-03
  1.7148633e+00   1.0538803e-03
 -2.8200138e-01   6.3896383e-04
 -1.1019329e+00   1.7386400e-03
  1.8078616e+00   2.1006400e-03
  5.3769934e-01   5.2320055e-04
  6.1997330e-01   1.7322439e-03
 -8.1984170e-02   1.9589446e-03
  1.2217931e+00   4.9299998e-03
 -7.9464597e-01   1.2584327e-03
 -9.1267478e-01   1.5816626e-03