  2.0186205e+00   5.3005395e-03
  3.3946364e+00   1.3493189e-03
 -1.3823313e+00   3.7974624e-03
 -2.0422733e+00   1.4657024e-02
  3.5508588e-01   7.5602890e-03
  1.6899444e-01   2.4050774e-02
 -1.1979766e+00   2.4369273e-02
  1.0553993e+00   9.4990963e-03
 -3.7576970e-01   9.9692820e-03
  6.9212377e-02   9.2053832e-03
 -5.7331216e-02   9.6709654e-04
 -1.7160989e+00   3.2333636e-03
 -1.1391650e+00   1.6486367e-03
  1.7852905e-01   1.8826748e-03
  1.7946470e+00   4.9070228e-04
 -6.8787426e-01   5.8077462e-04
 -1.3083558e+00   1.5921206e-03
 -1.1319360e+00   1.0866849e-02
  9.4795525e-01   1.6331949e-03
  1.8044811e+00   1.7016637e-03
 -6.7391419e-01   2.0155404e-03
 -2.3708163e-01   6.2020593e-03
  9.7382134e-01   1.7216266e-03
  2.0494165e+00   4.1399607e-03
 -5.4544795e-01   4.0640850e-03
  2.8880972e-01   1.2803162e-02
 -1.1724998e+00   3.8189402e-05
  1.2452190e-01   1.6341537e-03
  8.5287583e-01   2.1562986e-02
  8.2158571e-01   1.1385288e-02
 -5.9778643e-01   2.8848175e-03
  2.7057213e-01   1.2578196e-02
  1.7255980e-01   5.7472801e-04
 -7.2956479e-01   3.2936834e-02
 -1.2820550e+00   2.8464140e-03
  1.5131472e+00   6.9907698e-04
  1.2886108e+00   1.0179682e-03
  2.8935447e+00   6.2264240e-04
 -1.1424325e+00   2.0976546e-03
  1.0441052e+00   1.1417991e-04
  2.0912704e+00   1.8572748e-03
  1.7475890e+00   2.3760847e-03
 -3.0187566e+00   1.1089836e-03
  1.0635689e+00   8.8317944e-03
 -1.2173882e+00   2.0827963e-04
  2.1724672e+00   1.9777512e-05
  9.4590545e-01   8.9984977e-05
 -1.0902635e+00   1.3052797e-03
  1.8026198e-01   1.8779290e-03
 -8.7137842e-01   1.2125867e-04
  2.0650866e+00   1.0728122e-04
 -2.7904944e+00   3.3894547e-05
 -1.7535849e+00   2.0965222e-04
 -1.9074274e+00   3.0460649e-03
 -4.0935975e-01   1.8813374e-04
  3.7948117e-01   3.4148444e-04
 -2.4000981e+00   2.3358138e-03
  1.6865420e+00   9.1506873e-04
  4.3201861e-01   5.2603381e-03
 -7.0023096e-01   7.1823550e-04
  9.1360193e-01   1.7978210e-04
  4.7747362e-02   4.6349977e-04
  3.2524269e+00   3.9033523e-05
  2.1669230e+00   1.4001757e-02
 -1.5247867e+00   4.2395759e-03
  3.5253519e-01   1.6836687e-04
 -6.8690956e-01   3.5884386e-04
  1.5175087e+00   1.3517858e-03
 -3.1000054e-01   1.5348899e-02
 -9.9186999e-01   1.9895829e-02
  6.3734151e-02   3.3838574e-03
 -1.2800967e+00   8.0888561e-04
  3.2079536e-01   6.7330606e-04
 -1.4976299e+00   3.4159506e-03
  1.5015935e+00   1.6532026e-03
 -1.4416971e+00   1.4656919e-04
  2.4465673e+00   5.0164084e-03
  3.2078248e-01   5.9005069e-03
 -7.6762795e-01   2.4510667e-02
  6.4034306e-02   1.1883601e-02
 -4.9492675e-01   1.3570300e-03
  5.6701368e-01   9.0438471e-04
  1.0973551e+00   3.2691814e-03
  1.2822618e+00   7.0966757e-03
  9.7251308e-01   3.5983624e-03
  1.3948283e+00   1.0690403e-03
 -2.0847575e-01   7.1660255e-04
 -1.2256118e+00   1.0580177e-03
  5.7304502e-02   2.9869162e-04
  2.6202135e+00   1.2301145e-03
  4.8992783e-01   2.9238183e-03
  2.0386972e+00   1.9543096e-03
  1.0369043e+00   7.8335013e-03
  1.3770229e+00   1.9713216e-02
  4.4879439e-01   5.6308438e-03
 -9.0214863e-02   3.7282039e-04
 -3.5354798e+00   7.8873738e-04
  3.7297782e-01   9.9327611e-03
  1.8918822e+00   9.6274585e-02
 -2.1562399e-01   1.4331744e-02
 -7.8737214e-02   4.8393771e-02
 -8.5046482e-01   4.4769235e-02
 -3.2245380e-01   2.1424882e-02
  1.0917237e-01   4.4739105e-02
 -1.6816525e-01   1.8366775e-02
 -2.1291370e+00   4.2371237e-05
 -1.0601809e+00   1.1193035e-04
 -1.6742233e+00   5.4804492e-05
  1.1632736e+00   1.6119326e-03
 -7.7968242e-04   2.6938418e-04
 -2.2201779e+00   1.9997904e-04
  2.5191379e-01   1.0385322e-03
  3.0253079e+00   4.9380535e-05
  3.8455260e-01   6.6430157e-04
  6.3189292e-01   6.4714635e-03
 -3.1095532e-01   4.9569225e-04
  2.5939643e+00   1.2955164e-04
  7.1041971e-01   3.4456127e-04
  3.5131997e-01   1.0643812e-03
 -2.3960738e-01   3.1053720e-04
 -2.7562457e-01   2.3475814e-05
  2.2740991e+00   3.1844346e-04
  2.3977954e+00   2.4743578e-05
  3.8787123e-02   4.9084082e-04
 -3.3717388e-01   7.3169133e-05
 -3.7005028e-01   8.3779887e-04
  1.2292928e+00   5.9056992e-04
  1.1163712e+00   2.5371122e-04
 -1.2404634e+00   2.4039071e-02
  3.2825151e-01   1.3769588e-04
  1.2748042e+00   6.9038046e-04
 -6.5255451e-01   1.4372030e-03
 -2.3582952e+00   1.2408460e-03
 -1.4540277e+00   3.9288873e-04
  3.9940330e-01   7.2240951e-03
  1.0240517e+00   3.9081411e-03
  3.3550635e-01   1.1999110e-02
  1.6385694e-01   6.2954905e-03
  1.2165533e+00   9.5390936e-04
  2.3529884e-01   3.3710541e-03
 -3.7091696e-01   2.1999134e-02
 -1.9062393e+00   2.6063807e-02
  4.4578355e-02   7.9589162e-04
 -4.7416440e-01   2.6474025e-02
  5.3625429e-01   4.9910573e-03
  2.1850799e-01   1.3964846e-03
  6.8735647e-01   6.2184103e-02
  5.5236721e-01   2.3212671e-02
 -9.9458623e-01   2.5428012e-02
  4.6449342e-01   4.2414866e-02
 -1.9533114e-01   1.3339275e-03
 -1.4777133e+00   1.8670596e-04
 -8.5673523e-01   6.7787478e-03
 -2.3489980e-01   4.5861211e-03
  1.1917359e+00   1.8304033e-03
 -1.6033062e-01   7.1895611e-04
  7.0982760e-01   6.4448838e-04
  2.2797221e-01   5.1627401e-03
 -1.8971704e-01   7.5226530e-02
 -3.2504346e-02   2.2591621e-02
 -1.6578828e-01   1.9377852e-02
  4.2784065e-01   7.8171917e-04
  1.5856218e-01   2.8944947e-03
 -2.8502044e-01   1.0912729e-03
  3.6089206e-01   2.9043444e-02
  1.0286839e+00   2.4163197e-03
  4.4025543e-01   4.3764641e-04
  2.0043993e-01   1.7903125e-02
  5.0945812e-01   5.3614201e-03
 -7.1667492e-01   7.0908526e-03
  4.3283328e-01   2.5665749e-02
 -8.1974618e-02   2.4182262e-02
 -2.2124393e-01   9.1506112e-03
 -8.4835194e-02   2.0712428e-02
  5.2661985e-01   4.0071741e-02
 -1.7960308e+00   6.4777432e-04
 -2.4506447e+00   1.4511643e-03
 -1.9017639e-02   1.1035610e-03
  9.9817947e-02   2.8430606e-04
  1.8023986e+00   3.6533996e-03
 -2.0310842e-01   5.7502603e-04
  4.4134435e-01   3.7409060e-03
  2.1472895e+00   2.0947307e-04
 -3.5857025e-01   1.3702689e-03
  3.5688832e+00   1.5793411e-03
 -2.0729423e+00   3.1654080e-04
 -8.3888590e-01   1.5019989e-03
  2.5786529e+00   3.6043602e-03
 -1.1747675e+00   6.2079770e-03
  1.5955907e+00   6.1292975e-04
 -6.1644113e-01   8.2615815e-04
  1.7829944e+00   1.0472928e-06
  2.9523814e+00   3.8854140e-04
  5.4208076e-01   5.2035023e-03
  2.9513700e+00   8.5233251e-04
  4.1917062e-01   4.4932068e-04
 -9.2814481e-01   6.7217881e-04
 -4.0720761e-01   1.8159971e-03
  1.2934378e-01   3.0561211e-03
  1.8036000e+00   1.3504662e-03
 -3.1419082e+00   2.8103704e-03
  1.9623997e+00   3.5027890e-03
  3.4538633e-01   6.8685352e-03
  2.3874424e-01   2.4075601e-03
  6.3910538e-01   9.9711318e-04
 -2.1022868e-01   2.3072509e-02
 -2.2577336e-01   9.2803396e-04
  9.0846688e-01   9.5507648e-04
 -3.6986753e-01   4.2369712e-02
 -1.2884489e+00   2.0634034e-03
 -1.1123389e+00   1.0214774e-03
 -3.9371988e-01   1.6651115e-04
  1.0365956e+00   6.1043509e-04
  1.3738966e+00   1.6305708e-04
  2.5282459e+00   5.0061536e-03
 -3.3971314e+00   6.3113868e-03
 -1.9863255e-01   1.3451100e-02
  3.4329006e-01   7.8632757e-03
  1.8296760e-01   2.3587737e-02
  1.5804800e+00   7.9378602e-04
  6.1905719e-02   3.3641027e-03
 -1.7376536e+00   2.4060577e-03
 -9.5664990e-01   1.7213378e-02
  1.0104293e+00   3.4045165e-03
  2.0338135e+00   1.0530647e-02
 -3.4082806e-01   1.8708106e-03
 -1.4869065e+00   4.2108749e-03
 -1.0462561e+00   9.2924442e-03
  2.5953155e+00   1.0893078e-04
 -1.5518714e+00   2.0759909e-03
  8.5945588e-01   9.9067437e-03
 -2.6450744e+00   1.5943166e-04
 -1.2591209e+00   1.0537094e-02
  1.9569328e+00   1.4661426e-03
  7.5820488e-01   7.5086844e-03
 -9.6449304e-01   6.8209134e-03
  7.2959012e-01   2.7442586e-03
  3.8067043e-01   1.3881873e-03
  2.2553077e-01   2.3135608e-02
 -1.6887443e-01   6.5830182e-03
 -3.2020800e-02   9.2721380e-02
  5.1341522e-01   1.5024503e-03
  1.0150391e-01   1.1489498e-02
 -3.5942610e-02   4.1682370e-02
 -8.3504289e-01   1.5725114e-03
 -4.8782167e+00   7.1225317e-05
 -6.9096833e-01   1.4986027e-03
 -3.5717466e-01   1.4579224e-03
  3.9160144e-01   5.9660990e-03
  4.7310343e+00   3.1927954e-03
 -3.4964705e+00   3.6275499e-03
 -2.7493608e+00   9.0232803e-05
  1.5191082e+00   5.1978375e-03
 -1.6673601e+00   5.2355453e-02
  2.9544653e-02   8.5984878e-03
  5.9448779e-02   1.1544040e-03
 -1.7784487e+00   7.7958824e-04
  1.2546030e+00   4.7114557e-03
 -7.8356802e-02   7.8602163e-03
  1.0729442e+00   1.4393918e-04
  4.2658761e-01   6.4260018e-04
 -2.0585997e+00   1.0381895e-03
 -1.1008111e+00   7.5399422e-04
  2.3700352e+00   6.5148534e-04
  1.3770288e+00   9.6441386e-04
  1.0509604e+00   6.9939555e-04
  6.1588120e-01   6.8028481e-04
 -1.3576416e+00   3.4978031e-04
 -8.8621753e-01   4.3329407e-04
  1.6632450e+00   1.6971302e-04
 -6.1406404e-01   2.3483969e-03
 -1.1867247e+00   5.1411088e-03
 -3.3262433e-03   1.0403818e-02
 -4.5126271e-02   7.1845781e-03
 -2.4086207e-01   1.3171189e-02
  2.6239187e-01   1.1631774e-02
 -7.1700531e-01   2.3955533e-02
 -1.2168479e+00   4.7686145e-02
 -2.0987488e-01   1.1194428e-02
 -1.8420224e-01   8.9988178e-03
 -8.5918325e-01   5.1365951e-03
  2.0589067e-01   5.1757629e-04
 -2.0617924e+00   4.1035959e-03
  2.5715222e+00   9.7182230e-05
  2.8232521e-01   2.0239425e-03
  3.9121246e+00   2.7108135e-02
  4.5795080e-01   1.6232107e-03
  1.3725024e+00   1.8358279e-02
 -2.1696541e-01   2.6962120e-02
  4.7848001e+00   1.7526675e-02
  5.9992355e-01   5.3321169e-04
  1.3211577e+00   2.5514336e-03
 -1.1952092e-01   2.3273726e-03
  1.1880035e+00   2.9705131e-02
 -6.6535795e-01   6.6260220e-03
 -5.6914651e-01   2.6199138e-03
 -3.5723263e-01   4.6312003e-03
  1.6332670e-01   2.3815853e-03
 -1.2359533e+00   4.6616197e-03
 -1.1313733e+00   2.0908786e-03
  1.8825091e+00   2.0049631e-03
 -3.9602700e-01   4.1930648e-03
  8.4471965e-01   4.3796846e-03
 -8.6864941e-02   2.4148161e-04
  9.2644701e+00   9.7237024e-03
 -1.4282267e-01   5.3681703e-03
  1.4886632e+00   7.5032143e-04
 -1.0543209e+00   1.4928057e-02
  9.1103339e-01   2.5114263e-04
  1.3004234e+00   1.7871831e-03
  2.1015978e-01   1.5125848e-02
 -6.4300805e-01   1.0410702e-02
  6.9996667e-01   6.1807640e-02
 -8.9224809e-01   9.7722048e-03
  6.3325870e-01   8.5653380e-02
  3.5954707e+00   2.1453560e-04
 -3.2039008e-01   7.8251981e-04
 -7.6861471e-01   1.3825735e-03
 -1.6507977e-01   2.6274829e-03
 -2.0518968e+00   2.8672642e-03
 -8.1518930e-01   2.8107322e-03
  2.1587604e-01   7.6320870e-03
  4.9965158e-01   1.4039745e-02
  2.5550494e-01   3.1671390e-02
 -8.7078714e-01   8.2560554e-03
  3.3650106e-01   3.2565177e-03
 -1.5944397e+00   3.9057384e-04
 -3.4662476e-01   9.8739238e-04
  1.1777422e+00   5.7040155e-04
 -1.6017375e+00   4.6048150e-03
 -1.8478210e+00   1.2530823e-03
 -1.3728596e+00   1.5519094e-03
 -1.8305580e-01   8.1013637e-03
 -2.1408734e+00   7.8377221e-04
  4.8816335e-01   4.1859163e-04
  1.0827013e+00   1.1732027e-02
 -9.3934339e-01   1.2189681e-03
  4.3743336e-01   1.6023934e-02
 -3.7403595e-01   4.0394301e-04
 -2.5447235e+00   1.5227493e-03
  2.1722963e+00   1.8856937e-02
  4.3515754e-01   5.2054727e-04
 -6.2243605e-01   3.3994385e-03
 -8.5323334e-01   7.7045719e-05
 -8.3169475e-02   2.8254564e-03
 -6.9236243e-01   1.5910453e-04
  5.6353045e-01   3.8619793e-04
 -4.7269952e-01   1.9107778e-02
 -2.3007914e-01   3.5128273e-02
 -7.4630067e-02   3.6780376e-02
  1.4672430e+00   3.1982336e-04
  2.0299973e+00   3.2942439e-03
  8.1915462e-01   2.2831908e-03
 -3.1328928e-02   8.8823913e-03
  3.5522705e-01   1.4141856e-02
  1.7189058e+00   2.1313999e-03
 -1.3945235e-01   4.2074967e-02
  3.8902030e+00   2.2475584e-03
  7.4437663e-02   2.2882239e-03
 -1.1703686e-01   1.3966231e-02
 -2.5160867e-01   6.9301850e-03
  9.8491289e-02   1.8608822e-03
  5.6830126e-01   5.3268969e-03
  9.3058681e-01   1.0768811e-02
  1.0416886e+00   3.7317775e-04
  8.5293436e-01   8.1908525e-05
  5.1765370e-01   5.0585303e-03
 -3.4738380e-01   1.5818956e-03
 -5.3223807e-01   5.6012878e-03
 -8.5917985e-01   5.0895619e-03
  3.2273853e+00   2.2380231e-03
 -1.0004772e-01   1.8158030e-03
 -6.0891873e-01   1.1968503e-02
  7.6046497e-02   7.4141417e-03
  6.3629895e-01   9.8580855e-04
  1.3694563e+00   5.8749365e-04
  3.8057104e-01   7.0807978e-04
  5.5409855e-01   2.8394474e-02
  3.0651457e+00   1.0045058e-04
  1.9711581e+00   4.1041877e-02
  1.5360351e-01   3.6160395e-02
 -1.3233643e+00   1.5607617e-03
  1.5100080e-01   3.5290673e-02
  2.8053352e-01   2.8689800e-02
  2.3110393e-01   7.8571759e-02
  1.9294623e+00   6.3698217e-03
 -2.9610211e-01   2.7864550e-03
 -1.2724024e+00   1.4511614e-02
  3.2240644e-01   1.4414424e-02
  1.4629253e+00   1.9221378e-02
 -3.2939559e-01   7.5937752e-03
  1.9571853e-01   8.8351239e-03
  9.1049397e-01   7.1845846e-03
  9.9725109e-01   9.0824318e-04
  1.1883613e+00   1.0025035e-02
  4.9427032e-01   2.9647784e-04
  3.1097302e-01   6.3167507e-04
  3.5051760e-01   1.1177365e-02
  4.3827179e-01   5.7181180e-05
  5.3045380e-01   1.0570069e-02
 -1.4192314e+00   5.0388713e-05
 -4.5071468e-02   4.5382753e-03
 -3.1802365e-01   6.6597927e-03
 -6.4787596e-01   1.5928010e-02
 -8.2197630e-01   4.9262978e-03
  1.7073194e+00   2.7949383e-02
 -2.1450307e+00   2.1278612e-02
  1.3743322e+00   4.7989734e-04
  8.8771909e-02   3.2112118e-02
 -4.3108234e-01   9.9527128e-03
  6.8305051e-01   7.4909707e-03
  3.1997814e+00   1.8127507e-04
 -4.5492542e-01   8.5889902e-03
  2.8663397e-01   1.6522115e-02
  1.2021121e+00   5.6712043e-02
  1.1003399e+00   8.4015746e-03
 -3.9635870e-01   1.0570483e-02
  2.9466379e-01   1.4604934e-02
 -5.7910663e-01   2.9664483e-02
 -2.8633690e-01   3.5262562e-02
  5.3775698e-01   1.3324907e-03
 -8.2236566e-02   1.1253329e-03
  2.5104766e+00   2.5751942e-03
  6.6561365e-01   1.0770611e-02
 -1.7777253e+00   6.7970296e-03
 -2.8294173e-01   1.0665107e-03
  1.1156472e+00   1.8960081e-02
 -1.6736891e+00   8.1537496e-03
 -1.4056616e+00   6.9052092e-04
  1.9567041e-01   1.4411208e-03
  5.8372837e-01   1.1389756e-03
 -2.5275794e-01   4.4563621e-05
 -4.4062868e-02   3.5075382e-03
  1.2260627e+00   1.5518676e-02
  4.2655349e-01   2.2288905e-03
 -3.2769418e-01   6.5448824e-03
 -1.6280615e+00   1.1972958e-03
  4.0676251e-01   1.1861536e-03
 -4.8322311e-01   1.8678441e-03
 -6.0413235e-01   2.2964652e-03
  1.6363723e+00   2.5117022e-03
 -1.2894824e+00   6.1553845e-04
 -3.7053460e-01   8.9887128e-04
 -9.6734107e-01   3.7928820e-02
 -6.8840837e-01   6.6757007e-03
  7.9020500e-01   1.0883961e-03
 -1.4048738e+00   3.3166986e-03
 -1.6064882e-02   7.3310090e-03
 -1.6607859e+00   7.0736460e-02
  3.2478088e-01   3.7428089e-03
  2.1363586e-01   3.3007696e-02
  1.4438183e+00   5.4578166e-02
  2.1007915e-01   5.1171850e-02
 -3.7122396e-01   6.4829297e-02
 -2.9598844e+00   6.2222308e-03
 -3.2649449e-01   1.2632654e-03
 -8.7930238e-01   2.3438956e-03
  1.4118671e+00   3.5558315e-03
  8.1600702e-01   4.2094891e-03
  1.9738168e+00   3.2821386e-03
 -1.5293127e+00   2.3861816e-02
  3.1547219e-01   3.7293404e-03
 -9.6391981e-05   1.2153912e-03
 -3.6141866e-01   3.4367815e-03
  7.7040708e-01   3.1848237e-02
  9.9696946e-01   2.0269427e-04
  9.5157987e-01   2.3603965e-04
 -2.0248654e+00   7.9018241e-03
 -4.3088695e-01   3.8039342e-02
 -1.6866542e+00   2.6751433e-03
 -1.1640527e+00   1.3507927e-03
 -1.8833833e+00   3.3833343e-04
 -5.9122396e+00   1.9529022e-02
  9.8839593e-01   1.7680317e-02
 -1.5030637e+00   3.3964079e-03
  8.2817483e-01   1.8227835e-03
  9.4392896e-01   1.3788770e-03
 -2.5448355e-01   1.8786831e-02
 -2.1958733e-01   2.1964111e-03
  5.5079317e-01   1.2275570e-03
  1.8260373e-01   4.3883990e-03
 -2.9929755e+00   1.6734493e-03
  5.2632987e-01   1.2191171e-02
  6.0394162e-01   7.6421931e-02
  5.8145922e-01   2.5743744e-03
 -8.9292265e-02   3.5306685e-02
  2.2205636e-01   2.6878091e-02
 -3.2041006e-02   1.0566535e-02
 -8.7848735e-01   1.1713528e-03
 -3.6487612e-01   1.9450517e-03
  1.9041456e-01   1.5240773e-02
 -1.4164368e+00   1.3870633e-02
 -4.1808158e-01   6.8799942e-03
  3.4964806e-01   1.0587935e-02
 -3.9321491e-01   4.9271867e-02
  1.9216086e-01   4.3396886e-02
 -4.5588011e-01   1.0981841e-02
 -1.0539589e+00   6.5119844e-04
  5.7883936e-01   1.3295161e-03
 -3.8143206e-01   1.8266416e-03
 -1.3730897e+00   2.8269826e-03
 -1.2768238e+00   1.3590566e-03
 -5.3616703e-01   3.7043856e-03
  7.7949142e-01   1.8482701e-03
  9.5919776e-01   2.0312600e-02
 -6.5096688e-01   2.7971912e-02
 -5.1899081e-01   1.2299770e-02
  2.1929191e-01   1.6937228e-02
  1.4520159e+00   7.6580020e-03
  1.2849960e-01   3.2741122e-04
  3.7220106e-01   1.1595155e-02
 -9.6292335e-01   9.1893662e-04
  4.0845554e-02   7.0938044e-03
 -9.4322741e-01   5.8959853e-03
  6.5343535e-01   4.8331987e-02
  2.3023134e-01   6.6205233e-02
 -9.3420488e-01   4.8393453e-04
 -5.2061456e-01   4.2445790e-02
 -1.0700031e-02   2.2463126e-02
 -7.5336850e-01   3.6777724e-02
 -6.0240358e-01   3.6676560e-02
  1.1329650e+00   2.7460943e-03
 -1.0963879e-01   7.7060862e-03
 -3.9308432e-01   4.0527757e-02
 -1.1922319e+00   4.5121964e-03
  5.8387566e-01   5.0189383e-03
 -1.8238848e-01   8.0390007e-04
 -1.7365292e+00   2.0147399e-03
  5.8044028e-01   3.5719652e-04
  1.6627449e-01   1.1470416e-03
  2.2266664e-01   1.6930825e-03
 -1.2671434e+00   4.5927130e-03
 -1.3730174e+00   8.4091183e-03
  1.7647172e+00   8.0428375e-03
  3.1742543e-01   1.6688601e-04
  2.5138481e+00   2.3944902e-03
  2.9838934e+00   2.7117247e-03
 -3.3860517e+00   1.2121783e-03
  2.3140132e+00   3.1634983e-02
 -1.0945216e-02   4.5582950e-03
 -2.5010366e+00   5.4889172e-04
  1.6271982e+00   1.1147265e-04
  2.8285882e-01   6.9346081e-04
  1.7482156e+00   9.5740700e-04
 -4.7502041e-01   4.3794006e-04
 -2.7226880e+00   1.4337369e-03
  1.7899816e+00   7.7809894e-04
 -9.7219026e-01   3.1902650e-04
 -6.1037451e-01   6.2914111e-04
 -7.2475040e-01   4.5914395e-04
  7.9044133e-01   1.0116450e-03
 -2.5226405e+00   2.2725000e-03
  1.3611346e+00   1.8834956e-03
  8.8761142e-03   2.6563453e-02
 -7.8965908e-01   1.3692623e-03
 -6.2045401e-01   9.7100241e-03
 -3.1075031e-01   1.0941988e-02
 -6.2032521e-01   6.2575331e-04
 -6.4241874e-01   3.5899132e-03
 -5.5485028e-01   6.4138975e-03
 -4.0280810e-01   1.8458281e-03
  1.8825985e+00   8.0286735e-04
 -2.7317545e+00   1.0441111e-03
 -2.5465059e+00   4.4274121e-03
  1.8898572e+00   2.6362194e-03
 -4.1617021e-01   1.6141981e-02
 -2.4763173e-01   4.6485038e-03
 -1.9311609e+00   6.5790988e-03
  1.5495212e-01   6.0439762e-04
  9.6229887e-01   5.3945398e-03
 -5.9819770e-01   1.4364527e-03
  1.4148618e+00   2.3995657e-03
 -7.3452479e-01   1.2232483e-03
  6.5245962e-01   6.1002588e-03
  1.1723012e-02   7.2565116e-03
  3.0495806e-03   5.1656603e-03
  2.2389144e-01   7.2705379e-04
 -9.1122371e-01   2.0957927e-03
 -1.3183901e+00   1.4304276e-02
  6.1408740e-01   2.0126356e-03
  2.7880213e-01   3.1881831e-03
  1.3629910e+00   2.6943264e-04
 -1.2386682e-02   1.7108787e-02
  1.2997593e+00   4.0297046e-02
 -2.4548325e-01   6.6246102e-03
 -6.6160244e-01   1.3995236e-03
  1.3308003e+00   4.9756309e-03
 -2.8548443e-01   1.0088542e-02
  1.2227839e+00   7.6845355e-02
 -4.2726773e-01   1.2855496e-02
 -1.4630188e-01   2.4904437e-02
  7.8852564e-02   4.3929555e-02
 -9.8885095e-01   2.1870738e-04
  1.4268895e-02   9.3447119e-02
 -1.5118068e-01   3.6668725e-02
 -3.1615609e-01   1.1861647e-03
  1.2783619e+00   2.1565354e-03
 -2.3460732e+00   1.1495091e-03
  1.0212104e+00   1.3263479e-03
 -2.2372172e+00   1.8695352e-04
 -1.8446047e+00   1.4358191e-02
  4.3769839e-01   2.3542282e-03
  6.1852288e-01   1.7213206e-03
 -1.7086178e-01   1.6040779e-03
  9.9625260e-01   5.1638028e-03
 -3.6502619e+00   2.1341704e-03
  2.9787154e+00   2.5098209e-04
  1.0360386e+00   1.6959578e-04
 -6.6031116e-01   2.6033388e-02
  1.4530131e+00   3.9318325e-03
 -2.0022357e+00   6.4426468e-04
 -2.5223212e+00   9.0974867e-03
  5.6206840e-01   4.4525294e-03
 -6.1390591e-01   2.2881415e-02
 -2.5134895e+00   1.1101908e-03
 -2.6321239e+00   3.5754466e-04
 -8.9298773e-01   2.4232783e-03
  2.9374155e-01   5.6251208e-03
 -5.0192446e-01   7.5579938e-03
 -1.7797085e-02   1.3528542e-02
 -1.4399127e+00   1.1478934e-02
  5.7461417e-01   2.6300775e-03
 -1.4858845e+00   1.6939206e-02
 -7.9772955e-01   5.2184757e-02
  1.4557028e+00   8.1876968e-04
 -6.7094541e-01   1.4048467e-02
  4.1925418e-01   4.4535338e-03
 -1.4696791e-02   1.7149398e-02
 -3.7220916e-01   5.2917589e-02
 -9.6908405e-02   1.4197653e-02
 -1.1484869e+00   8.4361127e-03
  4.7403836e-01   3.1901101e-04
  1.5178081e+00   1.4754732e-02
  6.4090353e-01   1.7304542e-02
 -2.2211959e+00   2.7670795e-02
  1.7403080e-01   1.2543168e-02
 -9.5793635e-02   5.3698802e-03
  1.4242885e+00   1.7429799e-04
 -1.1226357e+00   2.0199481e-03
 -9.3939370e-01   6.8710675e-04
 -1.7708665e-01   1.1810657e-03
  6.0745660e-02   2.3390360e-03
 -7.1353428e-02   1.2217930e-03
 -1.9927476e-01   9.1491248e-03
 -3.6320826e-01   1.0655383e-03
  4.3471110e-01   3.7666608e-04
 -7.5910121e-01   3.2989956e-03
  7.9183900e-01   4.4184858e-03
 -1.5621127e-01   2.4583917e-02
 -8.5258454e-01   6.3526900e-03
  4.1491315e-01   4.4229846e-03
  9.2958733e-02   3.8720551e-03
 -6.6186941e-01   1.6678184e-02
 -7.9772228e-01   3.9335154e-03
 -1.0356103e+00   1.7531102e-03
  2.9168406e-01   4.7232388e-03
 -3.5019323e-01   1.7089061e-02
 -3.4439451e-01   9.3768677e-04
 -1.2995211e+00   1.0500244e-02
  1.1865652e+00   4.6890792e-03
  3.1828141e-01   1.6706919e-02
  5.5217922e-01   1.5941553e-03
  8.2116616e-01   5.7465542e-04
 -1.1924905e-01   8.9644849e-02
  2.2287452e-01   9.6909195e-02
 -6.0766459e-01   6.2753595e-03
  6.3810086e-01   3.8924664e-03
 -4.2229343e-02   2.6781100e-03
 -1.2755656e+00   1.6929365e-03
 -4.5768198e-01   4.2200228e-03
 -4.1204488e-01   1.0176292e-03
  1.9916521e+00   1.0775224e-02
 -4.2545703e-01   3.3320263e-03
 -1.7627509e-01   1.9920107e-02
 -1.9804159e-01   5.1441381e-04
  1.3963087e-02   1.4506121e-03
 -2.6143199e-01   8.3454489e-04
 -1.4021610e+00   2.6868766e-03
 -2.3970687e-01   1.0776575e-02
 -7.9147321e-01   3.4455131e-03
 -2.6423535e-01   3.7450786e-03
  4.8133975e-01   2.4564047e-03
  1.0655030e+00   3.4681412e-03
  2.5265804e-01   5.3776164e-02
  9.5815575e-01   4.5914454e-03
 -1.7526174e+00   3.9285752e-03
 -1.0164970e+00   1.3122973e-03
  1.3405887e+00   9.2516642e-04
 -1.2822284e-01   4.5884913e-03
 -3.3544192e-01   3.0456791e-03
 -1.2424310e+00   3.2013326e-03
 -1.9350620e-01   2.2614035e-03
  9.8579809e-02   4.9251500e-03
  1.4547102e+00   9.0114558e-03
 -2.6870553e+00   1.4217149e-02
 -2.0217480e-01   1.0571167e-02
 -2.3202579e-01   1.2070593e-02
  1.7793269e+00   5.9506218e-03
  3.2946408e-01   1.9143689e-02
  3.2949671e-01   9.9287900e-05
 -4.0053284e-01   1.4583807e-02
 -8.0637413e-01   6.7497971e-03
  2.7121931e-01   6.4909919e-03
 -7.3973995e-01   1.0854614e-02
  2.2740018e-01   3.2392267e-02
 -6.2200367e-01   6.3756849e-03
 -7.6570106e-01   7.3415512e-04
 -4.0619096e-01   1.5940847e-02
 -7.4633789e-01   2.2392539e-02
 -6.2340653e-01   5.3833588e-04
 -3.8988847e-01   6.7041628e-03
  1.5941260e+00   1.4175693e-04
  1.7888119e+00   7.3803711e-04
  6.9448775e-01   2.2830105e-04
 -1.3867941e+00   6.6854977e-03
  5.4702036e-02   7.6919195e-04
 -5.4323351e-01   4.9821386e-04
  1.0566493e-01   9.7680995e-03
  8.5488069e-01   4.9332029e-06
 -6.4090550e-01   1.5465358e-02
 -3.3195537e-01   1.1104598e-02
  1.7253869e+00   1.2317105e-03
 -1.2516282e-01   4.0443152e-02
  5.2909619e-01   6.2457402e-03
 -7.9686373e-01   1.6340196e-02
  1.9222631e-01   9.7100744e-03
 -8.5085779e-01   2.7363837e-06
  1.6063452e-02   6.0005907e-02
 -3.8620642e-01   2.3390098e-02
  1.0270559e-01   8.1200331e-02
  6.0268021e-01   3.6777211e-03
  2.6909396e-01   7.3600764e-04
  5.4818636e-01   6.9524086e-04
 -1.0447000e+00   1.7279946e-03
 -2.3595677e-01   4.2797794e-04
  2.9096172e+00   1.7233371e-03
  7.6861787e-01   5.2629702e-04
 -8.7171024e-01   1.1960737e-03
 -1.0403305e+00   1.1062935e-03
  1.0662695e+00   2.5283422e-03
 -1.6770118e+00   1.2087786e-03
  1.0671140e+00   7.3912102e-03
  1.9587523e+00   5.1296609e-03
 -3.4869963e-01   3.2256916e-02
 -3.6953798e-01   8.1387078e-03
 -2.9619603e+00   3.3623449e-04
 -1.8313316e-01   2.2762502e-04
 -5.4075545e-01   2.7399750e-03
 -5.4755062e-01   3.3458117e-03
 -1.6760836e+00   8.1793434e-04
 -2.3463252e-01   2.9617434e-04
 -9.3279666e-01   2.1275823e-04
 -2.9060984e+00   1.7695775e-04
 -3.7327772e-01   3.6781316e-03
 -5.2978122e-01   2.5513367e-04
  1.2208834e+00   9.8765455e-04
 -5.7090014e-01   2.4773134e-03
  3.7134234e-02   2.3551050e-03
 -7.8834099e-01   1.4959656e-03
 -2.7505417e+00   2.0987372e-04
 -1.5573064e-02   1.5911292e-03
  2.6024100e-01   1.6731535e-03
  1.2748499e+00   3.9843936e-03
 -4.1474488e-01   1.1359883e-02
  2.3951083e-01   1.4751418e-03
 -5.4181010e-01   1.1984316e-02
 -1.0836747e+00   2.2268260e-02
 -3.7033558e-01   4.0324938e-02
 -2.6880735e-01   3.2586407e-02
 -1.0391945e+00   3.9789371e-02
  9.2105961e-01   2.9315783e-03
  4.7780874e-01   1.5550443e-03
  2.1693985e+00   7.2550069e-04
 -8.6978161e-01   2.5816634e-03
 -2.5102284e+00   4.3600216e-03
  3.6871952e-01   1.5126141e-02
  5.9343334e-02   1.5757112e-04
 -1.3945076e-01   6.6746278e-03
 -4.0970129e-01   2.7955475e-04
  8.8142520e-01   4.3882811e-03
 -2.5405151e-01   8.3841779e-04
  1.3925599e-01   4.4443476e-04
 -2.5132722e-01   3.3437153e-03
  4.8895988e-01   2.8809795e-02
 -9.6038887e-03   1.4060863e-03
  1.3347436e+00   9.0865622e-04
 -9.8209703e-01   1.3023670e-03
  8.7258691e-01   1.1450346e-03
  4.2076755e-01   6.5732938e-03
 -2.6885529e+00   9.4278564e-04
 -4.6611056e-01   2.5898723e-03
 -6.7695093e-01   4.8856721e-03
 -5.7541990e-01   4.5185918e-03
 -8.4312809e-01   1.7991673e-02
  1.2002153e+00   4.1421577e-03
 -2.6477921e-01   1.3992513e-03
  9.5804250e-01   1.0936701e-03
 -2.5287205e-01   3.3356978e-03
 -2.1396432e+00   1.8760728e-02
  3.5698649e-01   4.7373874e-04
  3.6650964e-03   1.5204782e-02
  1.0015414e+00   6.8327039e-02
 -2.3876594e-02   4.9229939e-02
 -3.5780638e-01   5.8783606e-02
  6.0141015e-01   4.0128779e-02
  1.0475897e+00   6.0626824e-04
  2.2466442e-01   9.1770698e-06
 -3.6605911e+00   9.2910364e-04
 -1.8663186e+00   2.3375839e-04
  2.7471526e-02   3.2103611e-03
 -1.6415516e+00   1.8195540e-03
  1.0082147e+00   2.2586086e-04
  3.3752969e-01   4.4806339e-04
 -4.4780388e-02   3.1684071e-03
 -2.2499397e+00   7.2185294e-04
 -2.1314220e+00   2.0398854e-04
  6.3876134e-01   1.0335644e-03
 -9.2087370e-01   7.1013701e-04
 -3.8253462e-01   3.9707421e-04
 -8.2713848e-01   8.7194738e-04
 -1.3073558e+00   6.6666992e-04
 -6.6858992e-02   1.1212685e-03
  9.3292177e-01   2.3109759e-03
 -1.0212992e+00   2.1072666e-03
  3.6165977e-01   5.1860430e-04
 -4.8466381e-01   2.5598675e-03
 -5.0581807e-01   1.0092849e-03
  1.7282392e+00   1.4273258e-03
  2.8931317e+00   1.0424071e-04
  2.7668020e-01   2.6726860e-03
 -2.5021217e+00   2.0698167e-03
  1.7744472e+00   4.2056231e-04
  2.8846923e-01   7.0963957e-04
  1.7314514e+00   1.9147651e-02
 -2.7177629e-01   4.5971354e-03
 -4.9786574e-01   8.6058378e-03
  6.1785036e-01   1.1271494e-02
  4.2965049e-01   8.4823702e-04
 -3.8740826e-01   7.1555875e-02
 -2.6668450e-01   2.9340275e-02
 -5.0777084e-01   2.3049903e-03
 -8.7168753e-01   7.6423842e-04
  2.1197288e+00   6.7708042e-04
  7.3265719e-01   7.8262873e-03
  3.3478037e-01   3.3454439e-03
 -2.6903889e+00   1.2149013e-02
 -3.2945018e+00   5.8380286e-03
  2.5491505e+00   6.0700118e-03
  3.1377238e-01   5.7296660e-03
 -5.4211483e+00   1.9220633e-02
 -2.2454537e-01   4.2356295e-04
  2.7454073e+00   2.4085703e-04
  1.2147123e+00   1.9582992e-03
 -9.6911573e-01   6.5488652e-03
 -4.3660383e+00   6.1464477e-03
  1.6195662e+00   4.2303943e-04
 -1.3873901e+00   1.8566466e-04
  1.4500722e+00   7.3495525e-04
 -2.0068395e-01   4.7763949e-03
  1.1261817e+00   2.6691571e-04
 -2.1852819e-02   7.9818594e-04
  8.2643175e-01   1.1262022e-03
 -3.0943587e-01   4.4618277e-03
 -6.8061006e-01   7.1437465e-04
  1.1953028e-01   3.4923389e-04
  1.9912623e+00   1.2342857e-04
 -3.8624302e-01   1.4796493e-03
 -6.1225426e-01   5.2046562e-03
  6.1220294e-01   3.4303018e-03
  2.6262438e+00   1.1952904e-02
  1.5695861e-01   2.0412100e-02
  7.9163134e-01   1.3784655e-02
  5.3750074e-01   1.2110005e-02
  4.3596840e-01   2.8779216e-03
  4.3237838e-01   3.6991984e-03
  2.5932586e+00   3.8422465e-03
 -1.6690835e-01   1.0287577e-03
  3.0057797e+00   1.0562737e-04
  2.4793763e+00   1.2161396e-02
 -3.1140678e+00   1.2925934e-03
 -1.4735790e+00   2.3507435e-04
  2.4863768e+00   1.1392214e-02
 -5.6292003e-01   8.5274084e-03
  1.7237166e-01   7.6023107e-03
  7.9655808e-01   4.4881366e-03
 -2.2248189e+00   1.4127286e-03
 -1.7133546e+00   9.4871450e-04
 -1.4745128e+00   1.0887760e-03
  1.3187125e+00   1.3683088e-03
 -1.5669271e+00   1.3295064e-03
 -2.2121313e-01   1.0652920e-03
  1.0719938e+00   1.2195290e-03
 -6.0563380e-01   1.8293689e-03
 -1.2306459e+00   5.6508124e-02
 -2.8430861e-01   6.3904363e-04
  9.2814791e-01   5.2623695e-04
  9.0297711e-01   1.5396904e-03
 -9.2329752e-01   7.5538657e-03
  1.6629443e-01   7.9856720e-03
 -2.5098748e+00   2.9891811e-03
  9.5447771e-02   6.9676982e-03
  1.6951952e+00   4.3526217e-03
 -1.1007559e-01   1.7364733e-03
  2.3917858e-01   3.6045539e-03
 -3.2147405e-01   1.7559882e-03
 -3.1788677e-01   3.3115118e-04
  1.7818251e-01   5.2501629e-03
 -2.3676334e-01   9.8900283e-03
  1.5123729e-01   6.7485338e-03
 -1.7980770e+00   3.8710114e-04
 -2.3165207e+00   1.1418639e-03
  1.4285129e+00   1.1039190e-03
  6.5000653e-01   2.7143760e-03
 -2.0042415e+00   1.2812434e-03
  1.0408583e+00   5.6234008e-04
 -7.3642093e-01   1.2026376e-02
  1.1327399e+00   2.2808707e-03
  1.9264216e+00   1.4101836e-03
 -2.2376642e+00   1.1399701e-02
  5.3924268e-01   1.4148780e-02
 -1.2927638e+00   7.9131313e-04
  1.8138173e+00   1.0245576e-03
  3.7595484e-02   2.6546916e-04
  1.4252059e+00   6.8045361e-04
 -2.2812895e-01   1.1597991e-03
 -8.9380676e-01   3.2813792e-04
  1.7030638e+00   1.3842742e-03
  1.7129669e+00   1.2223766e-03
 -2.8855819e-01   4.9926789e-04
 -1.1085246e+00   1.5214930e-03
  1.8248782e+00   1.7362635e-03
  5.4302585e-01   3.4657103e-04
  6.2971413e-01   1.8590215e-03
 -7.3954329e-02   2.0509532e-03
  1.2869017e+00   4.1584685e-03
 -7.9145950e-01   1.3509146e-03
 -9.0908998e-01   1.2770976e-03