  1.9151683e+00   4.9748714e-03
  3.2113450e+00   2.8731916e-03
 -1.2688769e+00   2.0042828e-03
 -1.8660675e+00   1.0803794e-02
  3.2911408e-01   4.7527207e-03
  3.9540160e-01   2.8775167e-02
 -2.0548591e-01   2.9442906e-02
  5.7117975e-01   5.2338373e-03
 -2.6286209e-01   1.0441694e-02
 -7.4359643e-01   2.7378717e-02
 -8.9111835e-02   9.3154726e-04
 -1.7216424e+00   4.9679499e-04
 -1.1017735e+00   3.5365154e-03
  1.3305482e-01   5.2267271e-03
  1.7951169e+00   3.9611902e-04
 -6.5952480e-01   8.0109696e-04
 -1.3420275e+00   1.3356026e-03
 -1.1294552e+00   4.9514538e-03
  8.3723241e-01   2.3960087e-03
  1.8592329e+00   1.6642676e-03
 -6.8586802e-01   1.6363420e-03
 -5.8712035e-01   8.3712628e-03
  9.7916400e-01   9.9821587e-04
  1.6271662e+00   9.8956600e-03
 -6.4506102e-01   4.4843680e-03
  5.2032226e-01   1.3678036e-02
 -1.1687422e+00   9.5654534e-05
  9.3252391e-02   1.6418009e-03
  7.5147170e-01   1.1887052e-02
 -7.7714615e-02   1.6754715e-02
 -4.5847893e-01   5.4115620e-03
  2.9067427e-01   3.4791869e-03
  1.5406851e-01   3.6557697e-04
 -4.1609269e-01   1.6356392e-02
 -1.2706169e+00   1.1675503e-03
  1.5090530e+00   6.7296997e-04
  1.3319162e+00   3.2527588e-04
  2.7769637e+00   1.5133945e-03
 -1.1030999e+00   3.2351501e-03
  1.0457150e+00   8.5399697e-05
  2.1860154e+00   3.6530886e-03
  1.7965041e+00   2.1764471e-03
 -3.0368249e+00   3.8473101e-04
  4.9181059e-01   6.9499589e-03
 -1.2175628e+00   1.9279288e-04
  2.1722853e+00   1.1104260e-05
  9.4888777e-01   3.1427914e-04
 -1.0906707e+00   1.2928616e-03
  2.3880589e-01   6.9259788e-04
 -8.7005591e-01   3.5653207e-05
  2.0661798e+00   1.8136570e-04
 -2.7902687e+00   2.1432741e-05
 -1.7484032e+00   2.4655464e-04
 -1.8570186e+00   1.3096757e-03
 -4.0656990e-01   1.6227255e-04
  3.6973432e-01   3.2411670e-04
 -2.7002251e+00   1.5755104e-03
  1.7060313e+00   1.2191946e-03
  3.6494896e-01   4.9401205e-03
 -6.8539381e-01   7.4025651e-04
  9.1051358e-01   1.2393029e-04
  5.5243965e-02   4.4329290e-04
  3.2528732e+00   3.4559769e-05
  3.7977912e+00   1.8648373e-02
 -1.5168436e+00   2.3940704e-03
  3.5445938e-01   2.3353253e-04
 -6.9123197e-01   5.3292327e-04
  1.5187308e+00   1.3863716e-03
 -1.5637434e-01   1.5256946e-02
 -9.7980762e-01   1.4933878e-02
  3.9607482e-03   3.0298498e-03
 -1.2908188e+00   9.4913651e-04
  3.1323379e-01   6.9121737e-04
 -1.6528673e+00   4.4631953e-03
  1.4882786e+00   2.0524547e-03
 -1.4369236e+00   7.6763201e-05
  2.2995527e+00   8.8934107e-03
  2.0131314e-01   3.3176944e-03
 -7.3857319e-01   1.5031971e-02
 -6.8183437e-02   5.7175779e-03
 -5.2003092e-01   1.3472822e-03
  5.8525527e-01   8.2512060e-04
  1.2886971e+00   1.4850057e-03
  1.1989819e+00   9.9552749e-03
  9.5833814e-01   3.3593397e-03
  1.4149528e+00   4.1009954e-04
 -1.9935830e-01   5.0910149e-04
 -1.2450323e+00   7.9603831e-04
  5.7620719e-02   2.8696642e-04
  2.6816263e+00   5.7841820e-04
  6.6029006e-01   2.1743984e-03
  1.9486421e+00   1.0403005e-03
  1.4259827e+00   4.0957560e-03
  1.1307163e+00   1.4816401e-02
  8.2211178e-03   4.1110772e-03
 -8.5831031e-02   1.7396348e-04
 -3.5191042e+00   8.8274811e-04
  3.1357422e-01   1.3610822e-02
  1.6345254e+00   8.2547329e-02
  2.1483289e-01   8.0091730e-03
  3.1516141e-01   3.5145037e-02
 -4.2871648e-01   4.6910733e-02
 -7.8805435e-01   2.7943095e-02
  1.6298421e-02   2.5759837e-02
 -3.8074991e-01   2.1905726e-02
 -2.1286125e+00   3.1211563e-05
 -1.0660266e+00   1.1550720e-04
 -1.6732447e+00   6.5755630e-05
  1.3992187e+00   1.9419373e-03
  4.1711517e-03   2.2532030e-04
 -2.2248127e+00   6.8088397e-05
  2.1489142e-01   6.7507243e-04
  3.0240345e+00   1.0306703e-04
  3.8765180e-01   3.7013984e-04
  5.6741393e-01   2.6083505e-03
 -2.6832259e-01   4.6113000e-04
  2.5864296e+00   4.1050947e-04
  6.9910365e-01   4.7052844e-04
  3.6507547e-01   2.0979987e-03
 -2.3957932e-01   1.3326135e-04
 -2.7501467e-01   4.7178077e-05
  2.2699165e+00   4.2725794e-04
  2.3984914e+00   1.5965468e-05
  3.5958968e-02   6.9608935e-04
 -3.3558175e-01   3.1199699e-05
 -4.0182298e-01   6.8991695e-04
  1.2326549e+00   2.8058176e-04
  1.1028457e+00   5.7267299e-04
 -7.5470072e-01   1.0432892e-02
  3.3196902e-01   4.0094942e-04
  1.2411171e+00   1.1044749e-03
 -6.6842240e-01   5.8029185e-04
 -2.3454697e+00   4.9230433e-04
 -1.4446193e+00   5.3495087e-04
  2.8940523e-01   4.6254722e-03
  1.0055066e+00   6.3042706e-03
  5.6039947e-01   5.6146211e-03
  4.0039752e-02   8.2253395e-03
  1.2183058e+00   4.9378618e-04
  2.0454413e-01   4.9977996e-03
 -4.2530056e-02   1.4394140e-02
 -1.7213438e+00   9.3025723e-03
  3.0881977e-02   1.4869253e-03
 -1.2904011e-01   7.8929253e-03
  6.0865074e-01   8.2950946e-03
  3.3521676e-01   4.3142885e-03
  7.1862495e-01   2.4413055e-02
  2.9233685e-01   2.6373066e-02
 -3.1410983e-01   2.7100218e-02
  7.5407034e-01   2.3815705e-02
 -2.7273804e-01   1.3738944e-03
 -1.4823612e+00   1.6100380e-04
 -4.2915514e-01   9.3543893e-03
 -1.4991798e-01   2.0454703e-03
  1.1305554e+00   2.3116141e-03
 -1.6567251e-01   7.2984298e-04
  7.2559905e-01   4.7536113e-04
  1.6535154e-01   8.3122170e-03
 -8.0861729e-01   7.7102780e-02
 -6.1522990e-01   1.4429504e-02
 -2.5119212e-01   1.5542413e-02
  3.9420819e-01   2.1284777e-03
  1.1881029e-01   6.2325615e-03
 -2.7692431e-01   1.7151869e-03
  6.0568416e-01   3.7399426e-02
  1.1409657e+00   7.5898641e-03
  4.2416242e-01   7.9418282e-04
 -3.2946363e-02   1.9614695e-02
  5.5984753e-01   2.7164749e-03
 -3.3981556e-01   7.5770449e-03
  9.3871079e-02   2.0855142e-02
  2.5947279e-01   1.5932303e-02
 -2.4987155e-01   4.5811147e-03
  9.9123595e-03   3.0223699e-02
  2.6368287e-01   5.1734909e-02
 -1.7501147e+00   2.5331073e-03
 -2.5284045e+00   5.6154083e-04
  1.3023601e-02   1.5031295e-03
  1.0998200e-01   3.5870116e-04
  2.3625369e+00   6.7490633e-03
 -1.9901356e-01   8.0508005e-04
  1.0647361e+00   8.0811931e-03
  2.1432464e+00   1.6633101e-04
 -3.7361169e-01   1.0513657e-03
  3.6422472e+00   7.5173756e-04
 -2.0804701e+00   3.1924163e-04
 -8.4195685e-01   1.1292642e-03
  2.5732608e+00   9.0104487e-04
 -1.0159861e+00   1.2563735e-03
  1.6204590e+00   1.4274246e-03
 -6.3171750e-01   7.3048868e-04
  1.7829920e+00   6.0435872e-07
  2.9452281e+00   2.7252361e-04
 -4.7493935e-01   1.0331563e-02
  2.9470065e+00   2.5701389e-04
  4.0751645e-01   1.5959027e-04
 -9.5737749e-01   1.5957307e-03
 -3.3778325e-01   1.0586174e-03
  1.0496722e-01   5.5127130e-03
  1.8328654e+00   5.9212040e-04
 -3.0994542e+00   2.8194732e-03
  2.0818813e+00   2.9302870e-03
  3.6131555e-01   5.3052125e-03
  3.2543916e-01   5.9899259e-03
  6.4290196e-01   5.0292589e-04
 -1.1628817e-02   2.0361181e-02
 -1.9671640e-01   1.0564646e-03
  9.6088248e-01   6.7585078e-04
  2.0635785e-01   8.5967116e-02
 -1.3379259e+00   2.3046748e-03
 -1.1407765e+00   1.1616941e-03
 -4.0126291e-01   1.7867881e-04
  1.0496457e+00   7.4577006e-04
  1.3730115e+00   1.8060907e-04
  3.1598566e+00   4.1069482e-03
 -3.3634918e+00   5.7184296e-03
 -4.1356656e-01   1.8889176e-02
  4.0919942e-01   3.0759112e-03
 -4.8366487e-02   2.5957583e-02
  1.5052865e+00   1.8098468e-03
  2.1368751e-01   1.3202070e-03
 -1.7153465e+00   7.1990950e-04
 -1.1022953e+00   2.6629283e-03
  9.7982198e-01   2.4376749e-03
  2.1474614e+00   2.2377765e-03
 -1.4726508e-01   1.2034745e-03
 -1.3723668e+00   1.1932090e-03
 -9.2149538e-01   6.4225281e-03
  2.5931408e+00   1.3501859e-04
 -1.3860145e+00   1.0186475e-03
  1.4806477e+00   2.5987683e-03
 -2.6438920e+00   7.7164004e-05
 -1.3840535e+00   7.8363856e-03
  1.9900286e+00   1.6863624e-03
  1.2924440e+00   6.2912214e-03
  6.0460504e-02   3.9049296e-03
  8.0637705e-01   1.7239172e-03
  3.9884531e-01   7.0888008e-04
  6.5974450e-01   1.5249662e-02
 -5.7687068e-01   6.6801663e-03
 -7.0836492e-02   5.1637422e-02
  5.0931394e-01   1.0225161e-03
 -2.4063672e-01   7.2285226e-03
  1.5168236e-01   9.2666723e-02
 -8.2975912e-01   7.6742307e-04
 -4.8784184e+00   4.4757438e-05
 -8.2741606e-01   1.0388670e-03
 -3.2411224e-01   8.9336565e-04
  6.4262098e-01   2.4078107e-03
  5.1630592e+00   1.1400776e-03
 -3.2421315e+00   3.4025402e-03
 -2.7488143e+00   1.5967307e-04
  1.6365435e+00   3.9559966e-03
 -1.1040957e+00   3.9058387e-02
  2.7638811e-01   3.8479976e-03
  1.6103891e-01   4.0747348e-04
 -1.6963483e+00   5.7461852e-04
  1.1653787e+00   1.0437197e-03
 -1.4997433e-01   6.2576677e-03
  1.0759411e+00   1.3233587e-04
  4.4067177e-01   2.4660089e-04
 -2.0025959e+00   6.3766766e-04
 -1.0160033e+00   7.2450406e-04
  2.3586969e+00   7.5150165e-04
  1.4238994e+00   4.7142466e-04
  1.1146029e+00   6.7271007e-04
  6.3187444e-01   6.3647586e-04
 -1.3491750e+00   4.6759233e-04
 -8.9458555e-01   2.8348577e-04
  1.6667459e+00   2.1308864e-04
 -2.6844093e-01   9.6913328e-04
 -1.0207556e+00   1.9743955e-03
 -5.9047218e-02   6.0360697e-03
  1.0255907e-01   3.2259512e-03
 -4.7108373e-01   5.5275997e-03
 -5.1577091e-01   2.4992218e-02
 -4.2670736e-01   5.2078903e-02
 -4.5307630e-01   2.7824091e-02
 -2.5520992e-01   2.0105181e-02
  1.9867912e-02   1.1851497e-02
 -1.3255476e+00   2.2715195e-03
  1.8934658e-01   6.8233453e-04
 -2.5612266e+00   4.1809641e-03
  2.5628016e+00   1.9600177e-04
  3.2257286e-01   1.0983404e-03
  5.7751508e+00   9.0243760e-03
  5.0358343e-01   1.2235888e-03
  1.9396411e+00   1.2472759e-02
 -4.9577770e-01   4.4385228e-02
  4.8189492e+00   8.6941002e-03
  6.0447770e-01   3.2125111e-04
  1.3592763e+00   1.1408682e-03
 -1.8320905e-01   2.0899232e-03
  1.5009261e+00   1.6308740e-02
 -2.2249162e-01   2.4060225e-03
 -6.6322434e-01   9.1135886e-04
 -6.7986751e-01   1.3086802e-03
  3.8335818e-01   2.1720703e-03
 -1.1880951e+00   1.8354070e-03
 -1.2218386e+00   1.7404098e-03
  1.6309576e+00   1.7603099e-03
 -5.2336097e-01   8.0236013e-04
  8.1794018e-01   1.1723459e-03
 -8.3893344e-02   3.4071421e-04
  9.7142305e+00   7.7825105e-03
 -6.1197478e-01   4.3074097e-03
  1.4708670e+00   1.6538239e-03
 -7.3551816e-01   9.2485212e-03
  9.1810524e-01   2.4770771e-04
  1.1808503e+00   7.6160696e-03
  3.9148469e-02   6.9791349e-03
 -1.6076684e-01   1.5101429e-02
  2.2308408e-01   1.6158938e-02
 -9.0133762e-01   6.7457841e-03
 -2.7930114e-01   2.5580198e-02
  3.5915825e+00   1.9288293e-04
 -3.1911033e-01   1.2104099e-03
 -7.1877760e-01   2.0078206e-03
 -2.6367041e-01   3.9609843e-03
 -2.0006373e+00   2.8124531e-03
 -6.4805770e-01   3.4377873e-03
  1.7096870e-01   3.6777868e-03
 -4.6482161e-02   1.5278566e-02
 -3.1901863e-01   5.4351259e-02
 -6.1675507e-01   8.3121406e-03
  6.1895514e-01   2.2439184e-03
 -1.5929749e+00   5.0063879e-04
 -3.2720807e-01   1.4585288e-03
  1.1654953e+00   5.7832786e-04
 -1.4193019e+00   3.2428000e-03
 -1.7111158e+00   3.9227852e-03
 -1.3789264e+00   1.8809023e-03
  5.2504770e-02   3.7821499e-03
 -2.1593716e+00   2.2596603e-04
  4.9076873e-01   1.5656180e-04
  1.3079717e+00   1.8373618e-02
 -9.7474849e-01   1.0446596e-03
  8.7289107e-01   1.8790929e-02
 -3.8403773e-01   3.3582703e-04
 -2.4708416e+00   2.4069494e-03
  1.6848764e+00   1.5724566e-02
  4.3551058e-01   2.3287981e-04
 -6.1527580e-01   7.4109790e-04
 -8.5444456e-01   7.7967889e-05
 -8.3203807e-02   2.5232509e-03
 -6.9404858e-01   2.5674171e-04
  5.8721465e-01   5.9996406e-04
  1.2886325e-02   1.3894394e-02
  4.7973785e-01   3.5420045e-02
 -3.8873962e-01   3.4268536e-02
  1.4847785e+00   3.1339668e-04
  2.0178697e+00   1.3350833e-03
  8.1899351e-01   5.9285236e-04
  1.9810541e-01   6.3511315e-03
  2.5562918e-01   1.1064228e-02
  1.7206639e+00   1.6230496e-03
  7.2412431e-02   1.6877823e-02
  3.7765999e+00   5.0903815e-03
  1.0675984e-02   1.1414752e-03
 -5.9915972e-01   2.2098204e-02
 -5.5057134e-02   1.3592875e-03
  1.0226713e-01   4.8889141e-03
  7.1670544e-01   5.5620344e-03
  7.3645276e-01   7.5025451e-03
  1.0243553e+00   2.5368537e-04
  8.5093749e-01   1.4091795e-04
  4.7445253e-01   5.4212394e-03
 -3.5534051e-01   4.5995391e-03
 -3.3591214e-01   6.0390616e-03
 -8.0377889e-01   4.3668337e-03
  3.2580783e+00   1.7646828e-03
 -9.7954825e-02   1.0721538e-03
  2.1954222e-01   1.1584292e-02
  6.4781621e-02   4.4762082e-03
  6.6367793e-01   1.1601229e-03
  1.3539025e+00   7.1525981e-04
  3.7450430e-01   5.2337127e-04
  6.4981592e-01   2.0189440e-02
  3.0623808e+00   6.9557696e-05
  1.8006499e+00   3.1349175e-02
  4.8454395e-01   4.0026218e-02
 -1.3688724e+00   1.4203710e-03
 -3.1863013e-01   4.1361608e-02
  7.2184640e-01   7.5474055e-03
  7.1945280e-02   7.1191587e-02
  1.7732338e+00   1.0694267e-02
 -2.9264387e-01   9.9963881e-04
 -1.2855197e+00   8.0032796e-03
  2.1184017e-01   2.2836532e-02
  1.1578497e+00   1.1270073e-02
 -1.6532278e-02   7.2817234e-03
  2.6813400e-01   1.0024746e-02
  7.3548269e-01   6.1993329e-03
  9.5740980e-01   8.5199933e-04
  1.2401297e+00   8.2669631e-03
  5.0145578e-01   3.6429646e-04
  2.9275727e-01   3.5593571e-04
  1.0864400e+00   1.0073927e-02
  4.3663263e-01   1.4130518e-04
  1.2640674e-01   6.3711018e-03
 -1.4181796e+00   8.0324397e-05
 -1.6884752e-01   1.3917314e-03
 -8.0609596e-01   3.3862833e-03
 -6.2102872e-01   4.7696312e-03
 -8.1709582e-01   2.1314227e-03
  1.8135655e+00   1.0073433e-02
 -1.4090226e+00   1.0387450e-02
  1.3540856e+00   6.5523206e-04
 -5.5191165e-01   4.8504002e-02
 -4.8011732e-01   2.2909403e-02
  6.7609751e-01   4.5256410e-03
  3.1970634e+00   1.3721404e-04
  2.4330141e-02   2.1049006e-02
  1.2837443e-01   2.1356914e-02
  8.4353203e-01   1.0760071e-02
  2.8084949e-01   3.8603473e-02
 -4.2551008e-01   3.0273832e-03
 -1.3903164e-02   1.2218435e-02
 -1.2784998e-01   7.5093880e-02
 -1.8390095e-01   2.3218911e-02
  5.5195194e-01   3.4215621e-04
 -1.3768281e-01   9.2909503e-04
  2.7007124e+00   6.6823338e-04
  9.0397859e-01   4.9519613e-03
 -1.9041916e+00   2.0242112e-03
 -2.8441980e-01   5.6022493e-04
  1.4646728e+00   4.7368673e-03
 -1.7747805e+00   1.1189305e-03
 -1.4559385e+00   1.0115458e-03
  2.3424762e-01   1.1390535e-03
  5.9527922e-01   4.2398626e-04
 -2.5266871e-01   2.3833860e-05
 -1.2277807e-02   1.2470570e-03
  1.7122979e+00   9.0248380e-03
  4.4909385e-01   5.3655944e-04
 -9.6858896e-02   1.4174705e-03
 -1.6224400e+00   4.7553045e-04
  4.3170497e-01   5.7869457e-04
 -5.4384565e-01   2.8935373e-03
 -5.5832833e-01   2.7724847e-04
  1.6536219e+00   8.4845000e-04
 -1.2605468e+00   4.1596749e-04
 -3.5168064e-01   3.9264004e-04
 -1.3893461e+00   1.8279133e-02
 -2.5361413e-01   3.5522126e-03
  8.1314862e-01   4.1296775e-04
 -1.6378548e+00   1.6053108e-03
  3.3468768e-01   4.7417735e-03
 -3.3477840e+00   9.3202285e-02
  3.2423139e-01   2.8142221e-03
  2.3710361e-01   4.0771831e-02
  1.0988246e+00   5.2651353e-02
  4.7485515e-01   9.5881196e-03
 -2.3574093e-01   3.7419986e-02
 -2.5658920e+00   5.1053041e-03
 -3.4236777e-01   9.1208314e-04
 -9.1840780e-01   1.1954680e-03
  1.2772166e+00   3.6469817e-03
  1.1946929e+00   5.2476590e-03
  1.9818377e+00   8.7560096e-04
 -1.1830226e+00   1.2797236e-02
  2.6996499e-01   4.2030280e-03
  5.1157061e-02   3.2898709e-03
 -3.1992874e-01   1.5253893e-03
  1.3531854e+00   1.1384072e-02
  9.9902993e-01   9.7792959e-05
  9.5124739e-01   3.9556713e-04
 -1.5331968e+00   5.7886052e-03
 -7.2558206e-03   1.5255379e-02
 -1.6752241e+00   8.1657228e-04
 -1.2669158e+00   2.5815328e-03
 -1.8853010e+00   3.2461755e-04
 -4.7057157e+00   1.1179192e-02
  1.5448542e+00   1.9715585e-02
 -1.5191168e+00   1.0457010e-03
  7.6065117e-01   2.2670066e-03
  9.1871828e-01   1.0439354e-03
 -2.2555345e-01   1.4002785e-02
 -2.6186329e-01   1.7013323e-03
  5.4673272e-01   3.3678138e-03
  1.3436513e-01   2.6621427e-03
 -2.9267240e+00   3.6383458e-04
 -1.2147081e-02   6.1180019e-03
  4.8334613e-01   6.3388675e-02
  4.4173217e-01   3.9350046e-03
 -3.3293134e-01   1.6905034e-02
 -5.7860690e-01   2.8780285e-02
  3.3061293e-01   1.1548027e-02
 -8.9980650e-01   2.8841479e-03
 -4.2113990e-01   2.4143734e-03
  1.4906609e-01   1.6544681e-02
 -8.4808689e-01   1.4657330e-02
 -2.0458275e-01   1.8271787e-02
 -1.3347115e-01   2.6846055e-02
  3.0092555e-01   3.4033667e-02
 -7.9002541e-01   3.3730317e-02
  3.8920695e-01   1.1307737e-02
 -1.0398268e+00   2.0640932e-03
  6.4459062e-01   2.3167129e-03
 -4.3117347e-01   1.1027447e-03
 -1.3450208e+00   2.3755473e-03
 -1.2840418e+00   6.0303695e-04
 -3.0760640e-01   7.4636340e-03
  7.9736423e-01   2.0352330e-03
  6.8711030e-01   3.1492922e-03
 -1.6456351e-01   1.5497700e-02
 -1.4591448e-01   4.3036495e-03
  3.1543958e-01   1.9601177e-02
  1.0114212e+00   1.5848018e-02
  1.2588051e-01   3.5703805e-04
  7.1386522e-01   1.4205902e-02
 -9.6699911e-01   3.9128863e-04
  1.1235491e-01   2.3224633e-02
 -1.0560814e+00   1.5787199e-02
 -5.5875342e-02   7.0134550e-02
  9.4530493e-02   1.7238138e-02
 -9.2916840e-01   2.9579439e-04
  6.1202623e-02   4.9650047e-02
  5.9936988e-01   8.2345217e-02
 -9.0592194e-01   1.8775366e-02
  2.8913692e-01   8.5448019e-02
  1.0648949e+00   3.6661725e-03
 -1.9960368e-01   8.1548132e-03
  2.8475031e-01   9.4292477e-02
 -1.0373991e+00   7.4566100e-03
  4.5098776e-01   1.8274528e-03
 -1.7669998e-01   5.4097921e-04
 -1.7758883e+00   1.5758547e-03
  5.7867646e-01   3.3527930e-04
  1.4243865e-01   1.6924882e-03
  2.1685949e-01   1.4238145e-03
 -1.2214273e+00   2.1102922e-03
 -1.4204676e+00   6.8509523e-03
  1.2353232e+00   1.3256908e-02
  3.1285918e-01   1.2173883e-04
  2.5805070e+00   7.4780476e-04
  2.9964943e+00   1.4959788e-03
 -3.3693929e+00   2.3145838e-04
  1.7615231e+00   1.2161305e-02
  3.3082011e-01   3.8635181e-03
 -2.4842682e+00   3.8064155e-04
  1.6259249e+00   1.0812171e-04
  3.2173640e-01   1.5513407e-03
  1.7816565e+00   1.6705150e-03
 -4.5730856e-01   4.5139907e-04
 -2.6906052e+00   1.0721051e-03
  1.7635015e+00   6.7865907e-04
 -9.7095519e-01   3.1454139e-04
 -6.3979143e-01   2.3562845e-03
 -7.4947703e-01   5.3179200e-04
  8.8778871e-01   1.5671623e-03
 -2.6222367e+00   2.3493718e-03
  1.3575867e+00   1.0098210e-03
  1.9192602e-01   2.5953909e-02
 -8.4930432e-01   3.1574373e-03
 -5.4774940e-01   1.0369266e-02
 -1.9017421e-01   1.8750750e-02
 -6.2360847e-01   8.0219511e-04
 -6.8387353e-01   2.8076747e-03
 -5.2612865e-01   1.4052045e-03
 -3.7002161e-01   1.5414588e-03
  1.9110185e+00   6.5934716e-04
 -2.7618136e+00   6.4879440e-04
 -2.6009808e+00   5.2389461e-03
  1.7356521e+00   3.6047725e-03
 -2.5537997e-01   6.7586540e-03
 -3.5854492e-01   8.4571354e-03
 -1.7872618e+00   4.2537199e-03
  1.7063721e-01   8.5436291e-04
  6.2798554e-01   4.7737537e-03
 -6.4216220e-01   1.5485757e-03
  1.3604770e+00   9.2602830e-04
 -7.6581877e-01   9.5750950e-04
  3.0869964e-01   3.5299763e-02
 -3.3485848e-01   5.9902910e-03
 -1.1509085e-01   8.3539117e-04
  2.4092142e-01   3.7176549e-04
 -9.1221076e-01   9.5730129e-04
 -1.0882152e+00   1.0007246e-02
  6.0060692e-01   4.6074003e-04
  3.3633378e-01   1.9291475e-03
  1.3633332e+00   1.5694149e-04
  4.0232735e-03   3.4138295e-03
  1.3869554e+00   3.0152606e-02
 -3.1295151e-01   1.9196544e-03
 -6.4132982e-01   8.3275797e-04
  1.4422449e+00   1.0817833e-03
 -4.8885271e-01   3.9099702e-03
  1.3307852e+00   5.3020574e-02
 -2.2614793e-01   7.7381278e-03
  3.0665880e-01   3.9552722e-02
 -2.6858607e-01   3.3612013e-02
 -9.9309289e-01   2.8517478e-04
  5.0991410e-01   6.8036921e-02
 -5.6123888e-01   4.1577250e-02
 -3.3793926e-01   1.1800113e-03
  1.1489968e+00   3.0583730e-03
 -2.3405471e+00   8.2326710e-04
  1.0174598e+00   1.4799604e-03
 -2.2356527e+00   2.5587663e-04
 -1.2503784e+00   8.5291304e-03
  4.1330755e-01   9.2098559e-04
  6.6292924e-01   2.0464312e-03
 -3.4059298e-01   2.5355841e-03
  8.6348355e-01   2.1093222e-03
 -3.6193635e+00   1.1192429e-03
  2.9757097e+00   1.5701496e-04
  1.0336328e+00   3.9158476e-04
 -1.0241029e-01   2.4737824e-02
  1.1586078e+00   4.8124082e-03
 -2.0019503e+00   3.9203456e-04
 -2.4986277e+00   4.1972781e-03
  4.8924527e-01   3.2565065e-03
 -5.9986401e-01   1.3639232e-02
 -2.5334210e+00   9.6774503e-04
 -2.6451476e+00   3.4108700e-04
 -8.9904410e-01   1.6226524e-03
  3.8455799e-01   4.2844838e-03
 -3.7163970e-01   2.9823638e-03
  5.7825536e-01   1.0661478e-02
 -1.3899754e-01   1.1513254e-02
  4.3973172e-01   5.5281166e-03
 -8.4730244e-01   1.9493420e-02
  4.0392584e-01   5.7163242e-02
  1.4284036e+00   1.2160706e-03
 -2.8418317e-01   1.4646121e-02
  3.1763670e-01   3.9008148e-03
  8.8890187e-02   8.5850507e-03
  3.0666551e-02   2.7413316e-02
 -1.5460039e-02   1.0498541e-02
 -1.0856526e+00   4.6340213e-03
  4.6432209e-01   3.3247820e-04
  1.5677302e+00   3.0091980e-03
  7.7306271e-01   1.6208317e-02
 -2.6331656e+00   9.6378447e-03
  4.6205658e-01   1.0640502e-02
 -2.7566090e-01   1.1969385e-03
  1.4290218e+00   2.4598677e-04
 -1.0815450e+00   1.4113121e-03
 -9.2860961e-01   4.6401456e-04
 -1.7080168e-01   5.0190609e-04
  5.5997990e-02   1.7041689e-03
 -5.8502201e-02   9.8774536e-04
 -2.5809726e-01   6.8451399e-03
 -4.4356826e-01   1.2226028e-03
  4.3760034e-01   2.5222875e-04
 -6.5279108e-01   1.7075459e-03
  9.7207230e-01   1.9917954e-03
 -1.1620364e-01   2.0347010e-02
 -1.0152406e+00   2.3071091e-03
  5.1259667e-01   1.8609897e-03
  2.5954336e-01   2.7120740e-03
  7.9689406e-02   6.5774233e-03
 -8.2698292e-01   2.5839836e-03
 -9.8246998e-01   1.8984184e-03
  1.1133150e-01   4.1990145e-03
 -5.2299911e-01   8.8204620e-03
 -3.3889189e-01   8.0831727e-04
 -1.1116878e+00   1.5261494e-02
  1.1068815e+00   1.1534702e-02
  9.9181579e-03   1.9435121e-02
  5.9625489e-01   5.1462831e-04
  8.0605119e-01   4.1297887e-04
  7.5859052e-01   5.7416655e-02
  2.9590556e-01   6.0108382e-02
 -3.7441856e-01   3.2932861e-03
  7.0410460e-01   1.1113969e-03
 -3.6209801e-01   1.4270501e-03
 -1.2488482e+00   1.1802668e-03
 -3.5546130e-01   1.8014103e-03
 -4.6461669e-01   3.0874792e-03
  3.6315510e+00   6.8431166e-03
 -3.1859514e-01   1.6667985e-03
 -8.5045093e-01   2.0486563e-02
 -1.4405237e-01   1.2195323e-03
 -5.0234709e-02   5.6511065e-04
 -3.2050559e-01   1.0722959e-03
 -1.6250644e+00   1.4432012e-03
 -4.9548066e-01   8.5430834e-03
 -8.3536333e-01   1.8004468e-03
 -4.9677095e-01   2.0647275e-03
  4.4194961e-01   1.0280830e-03
  1.1076168e+00   8.9648884e-04
 -2.4413694e-02   3.5176516e-02
  8.2640344e-01   5.6748727e-04
 -2.0275171e+00   1.3241045e-03
 -1.1172560e+00   1.6687587e-03
  1.3202665e+00   9.8626490e-04
  1.3665402e-01   9.8375576e-03
 -4.4181928e-01   1.0781277e-03
 -1.2348068e+00   1.3850902e-03
 -2.6633599e-01   5.9007638e-04
  2.3996028e-01   6.9485786e-03
  1.8534496e+00   2.3932086e-02
 -4.3213301e+00   5.9702923e-03
 -4.4688198e-01   6.1606783e-03
 -2.5507927e-01   8.6812824e-03
  1.8232334e+00   6.0965898e-03
 -7.2862387e-02   2.0612177e-02
  3.3085623e-01   5.3645042e-05
 -1.7161019e-01   1.2324627e-02
 -4.5232984e-01   9.4736852e-03
 -7.4722819e-02   8.1148902e-03
 -2.3331277e-03   3.2741636e-02
  6.6640668e-02   2.3885917e-02
 -3.8142839e-01   1.3230585e-02
 -7.5998533e-01   1.2698618e-03
  1.6637999e-01   4.7464669e-02
 -3.0015135e-01   2.1262208e-02
 -6.2542731e-01   4.7955662e-04
 -2.9551655e-01   9.2144422e-03
  1.5939008e+00   1.6183486e-04
  1.7854353e+00   3.4907079e-04
  7.0467442e-01   3.2959366e-04
 -1.3298447e+00   5.8226846e-03
  5.7913706e-02   1.7136956e-03
 -5.4059297e-01   7.5870357e-04
 -7.1594238e-02   7.3003671e-03
  8.5495716e-01   1.5461198e-06
 -2.7240640e-01   1.6512811e-02
 -2.9728287e-01   6.7344736e-03
  1.7037644e+00   1.8052327e-03
  4.5357871e-01   2.2827093e-02
  8.3224297e-01   1.0144240e-02
 -3.4857807e-01   1.0943082e-02
 -1.5329434e-02   1.6697146e-02
 -8.5087043e-01   1.3650913e-06
 -1.4613284e-01   5.0584536e-02
 -3.2322592e-01   2.7471548e-02
 -2.4381341e-01   6.1634447e-02
  5.4928190e-01   4.2565945e-03
  2.7439749e-01   4.0944348e-04
  5.3262526e-01   9.7552367e-04
 -1.0794036e+00   2.3862841e-03
 -2.4673449e-01   2.8805216e-04
  2.8402467e+00   1.2661987e-03
  7.8565830e-01   5.1379862e-04
 -9.1319638e-01   8.0425717e-04
 -1.0085295e+00   7.0144032e-04
  1.1503338e+00   1.1951986e-03
 -1.6595882e+00   3.1025571e-04
  1.3755269e+00   6.3827015e-03
  1.4836779e+00   5.7241297e-03
 -2.0583858e-01   1.1684113e-02
 -5.7204926e-01   4.4159666e-03
 -2.9720714e+00   1.8973628e-04
 -1.8534435e-01   1.5287350e-04
 -4.2853954e-01   1.2558959e-03
 -6.4907891e-01   2.2552151e-03
 -1.6929942e+00   5.8563496e-04
 -2.3166484e-01   3.8313639e-04
 -9.3236530e-01   4.4729642e-04
 -2.9101565e+00   2.4546211e-04
 -4.5853364e-01   9.4785076e-03
 -5.3403354e-01   7.3928801e-05
  1.2224796e+00   6.0613937e-04
 -6.0850513e-01   1.9383570e-03
 -2.2776728e-02   2.0084716e-03
 -7.9716700e-01   5.4060720e-04
 -2.7484446e+00   6.8602545e-05
  9.5116772e-02   1.6895110e-03
  1.9987985e-01   1.2231619e-03
  1.2870295e+00   3.3105293e-03
  6.4074613e-02   1.1020345e-02
  2.1180367e-01   2.1187880e-03
  9.5014550e-02   4.6729796e-02
 -7.6866877e-01   1.7048759e-02
 -5.3006077e-01   7.5968385e-02
 -2.0139542e-01   2.8812978e-02
 -6.1899298e-01   2.7998818e-02
  8.1613296e-01   4.5103743e-03
  5.2222443e-01   1.0331428e-03
  2.1332080e+00   1.0059398e-03
 -8.1759804e-01   1.6144373e-03
 -2.9516504e+00   4.7213892e-03
 -5.7909834e-01   6.5373015e-03
  6.3212410e-02   2.1768290e-04
 -2.4519685e-01   1.9800749e-03
 -4.0287551e-01   6.0601748e-04
  8.5235846e-01   2.5476529e-03
 -2.4381346e-01   8.8100909e-04
  1.2735596e-01   1.0049039e-03
 -4.2644387e-01   1.5531299e-03
  1.0321158e+00   1.2221253e-02
 -3.1679656e-02   3.4722249e-04
  1.3542162e+00   8.4346248e-04
 -1.0133868e+00   8.1108639e-04
  9.1902065e-01   1.4600310e-03
  4.6785274e-01   1.8499955e-03
 -2.7998924e+00   9.2487596e-04
 -5.6544125e-01   1.1400762e-03
 -4.6125099e-01   2.6603846e-03
 -5.5714947e-01   1.6272016e-03
 -1.0925406e+00   1.3271441e-02
  1.1915992e+00   4.1295476e-03
 -2.6876223e-01   8.1079430e-04
  9.5949918e-01   2.3186296e-04
 -2.1222836e-01   1.4775433e-03
 -2.0438774e+00   7.9238359e-03
  3.3359671e-01   2.2960780e-03
 -5.1965880e-01   6.9755614e-03
 -2.4635026e-01   2.9279005e-02
  2.5363249e-01   2.9907923e-02
 -1.1696018e-01   6.3866772e-02
  2.4696897e-01   2.3906190e-02
  1.0664853e+00   3.2541939e-04
  2.2440824e-01   1.5723515e-05
 -3.6680462e+00   3.9515321e-04
 -1.8718576e+00   4.2055163e-04
  3.7923101e-01   6.6571222e-03
 -1.5564357e+00   2.0355289e-03
  1.0056163e+00   2.6191061e-04
  3.4828004e-01   5.3582853e-04
 -1.1049333e-01   2.0245896e-03
 -2.2508874e+00   3.1094343e-04
 -2.1321025e+00   6.6699235e-05
  6.1712646e-01   1.3138675e-03
 -9.1603464e-01   2.4800215e-04
 -3.8507617e-01   4.0140431e-04
 -8.3493418e-01   6.1037624e-04
 -1.3045645e+00   7.4493058e-04
 -8.4638096e-02   7.8246469e-04
  9.3449235e-01   1.9322565e-03
 -1.0842780e+00   3.1605554e-03
  3.7705490e-01   5.4008682e-04
 -5.2431446e-01   8.8681007e-04
 -4.9481124e-01   9.3676423e-04
  1.6490813e+00   1.3691154e-03
  2.8910172e+00   2.5306066e-04
  2.6247972e-01   2.5087476e-03
 -2.1883521e+00   2.0617244e-03
  1.7880892e+00   1.4647485e-04
  2.7900192e-01   5.4449367e-04
  1.5989484e+00   3.6977183e-02
 -2.3374397e-01   1.9173736e-03
 -5.4201216e-01   7.9913754e-03
  5.1732409e-01   8.2426602e-03
  4.1843125e-01   2.7606857e-04
  1.6322562e-01   3.8863163e-02
 -3.9442116e-01   2.0891659e-02
 -6.3152838e-01   1.8232648e-03
 -8.8017595e-01   3.6265695e-04
  2.1403174e+00   8.7111501e-04
  8.8753378e-01   6.8588569e-03
  2.1849848e-01   2.9020356e-03
 -2.6430123e+00   4.7292877e-03
 -3.2377772e+00   4.0824702e-03
  2.0334146e+00   4.0403088e-03
  2.7123773e-01   2.8037911e-03
 -5.5727072e+00   1.4595958e-02
 -2.2077134e-01   3.7821909e-04
  2.7421782e+00   2.5866608e-04
  1.1853261e+00   1.6641759e-03
 -9.0154773e-01   4.7525926e-03
 -4.2754879e+00   1.7298370e-03
  1.6204411e+00   4.1013281e-04
 -1.3905554e+00   2.7177628e-04
  1.4589174e+00   7.4271794e-04
 -3.4445465e-02   5.5262367e-03
  1.1300848e+00   1.1325868e-04
  3.6201764e-02   1.3864454e-03
  8.8617915e-01   1.8030138e-03
 -3.2046837e-01   5.2995919e-03
 -6.5377021e-01   8.9483685e-04
  1.0986806e-01   2.0674620e-04
  1.9913146e+00   8.2765349e-05
 -3.6665493e-01   1.0027456e-03
 -4.6499398e-01   5.4177027e-03
  4.4444558e-01   7.0290868e-03
  2.5987995e+00   7.1040746e-03
 -3.5430306e-01   3.0414077e-02
  3.4119600e-01   7.3928745e-03
  6.7728437e-02   8.0904607e-03
  3.5159332e-01   5.9685926e-03
  3.6493927e-01   4.0209172e-03
  2.5604563e+00   2.6653854e-03
 -1.5162551e-01   4.7575077e-04
  3.0135927e+00   2.1818790e-04
  2.9301610e+00   1.3353002e-02
 -3.0884600e+00   7.1373471e-04
 -1.4707251e+00   2.0775408e-04
  8.4817517e-01   3.3093456e-02
 -1.1238176e-01   4.5114844e-03
  1.2117504e-01   9.3393764e-03
  1.0012213e+00   4.4540828e-03
 -1.8237936e+00   5.3364332e-03
 -1.6912802e+00   1.1822592e-03
 -1.4442850e+00   3.1421923e-03
  1.3167628e+00   6.5116689e-04
 -1.5691057e+00   7.7211193e-04
 -2.3516631e-01   3.2703241e-04
  1.0919058e+00   6.5850746e-04
 -4.4613907e-01   5.1516853e-03
 -9.9060333e-01   2.2739977e-02
 -2.7373141e-01   2.8096518e-04
  9.1999924e-01   4.7920371e-04
  9.3846804e-01   2.4795518e-03
 -8.5885608e-01   7.7244136e-03
  6.8443760e-02   1.3233403e-02
 -2.4605584e+00   1.9597290e-03
 -1.8119360e+00   2.6331296e-02
  1.2850986e+00   5.7436256e-03
 -6.1026406e-02   5.5154460e-03
 -5.2009845e-01   3.0724851e-02
 -2.9006404e-01   1.0326846e-03
 -3.0687949e-01   3.5835087e-04
  3.0474579e-01   1.1692279e-02
 -3.6244535e-01   9.7786020e-03
 -1.2216952e-01   7.3123011e-03
 -1.8010775e+00   1.8048106e-04
 -2.2996898e+00   1.0252491e-03
  1.3687015e+00   1.4420310e-03
  7.4216336e-01   9.7630982e-04
 -1.9508063e+00   1.8571744e-03
  1.0486166e+00   1.0568356e-03
 -7.0948702e-01   4.9283891e-03
  1.0946449e+00   2.5815158e-03
  1.9754486e+00   1.5229196e-03
 -7.5439274e-01   2.0094646e-02
  3.4376541e-01   6.0772533e-03
 -1.2498585e+00   6.8249321e-04
  1.8600489e+00   3.1996268e-04
  3.6365539e-02   1.3778861e-04
  1.4644552e+00   1.4408878e-03
 -1.7677146e-01   2.3214363e-03
 -8.8786882e-01   3.2167500e-04
  1.7011378e+00   6.3761231e-04
  1.7268039e+00   1.0682014e-03
 -3.1529787e-01   8.4751763e-04
 -1.1742846e+00   8.2325801e-04
  1.9157603e+00   7.2513899e-04
  5.4272336e-01   5.1031617e-04
  6.6326511e-01   1.7489325e-03
  6.8388194e-02   6.3180896e-03
  1.1310519e+00   2.6667826e-03
 -7.9605675e-01   1.0031308e-03
 -8.9128911e-01   9.5201854e-04