  2.0405245e+00   4.7921338e-03
  3.3926384e+00   1.4461407e-03
 -1.4671839e+00   5.9549580e-03
 -1.8205484e+00   1.6502546e-02
  3.0405822e-01   5.9846812e-03
  3.2246530e-01   3.2598905e-02
 -7.5246823e-01   2.4050288e-02
  9.3278360e-01   8.6976122e-03
 -5.7339662e-01   1.2305852e-02
 -5.0717015e-02   1.3767010e-02
 -8.1695385e-02   8.6065714e-04
 -1.7436874e+00   1.7092997e-03
 -1.1505125e+00   1.5838518e-03
  1.5262644e-01   3.7434394e-03
  1.7946948e+00   3.0836728e-04
 -6.8561542e-01   7.9918513e-04
 -1.3109624e+00   1.4772819e-03
 -1.2054822e+00   9.1459537e-03
  9.4947231e-01   2.7244396e-03
  1.8337079e+00   1.3281461e-03
 -6.7739153e-01   1.7580055e-03
 -2.9466724e-01   5.6897975e-03
  9.5377856e-01   1.7459247e-03
  1.8950206e+00   6.7659910e-03
 -5.6759953e-01   3.5842150e-03
  2.9297313e-01   1.1796232e-02
 -1.1721840e+00   5.4366948e-05
  1.2139605e-01   1.9320631e-03
  6.2049234e-01   1.9240431e-02
  6.4928639e-01   9.6959369e-03
 -5.5742604e-01   4.0548570e-03
  3.3307862e-01   6.7270366e-03
  1.7084531e-01   4.7771915e-04
 -5.5447847e-01   1.9584788e-02
 -1.2550455e+00   3.2302374e-03
  1.5126024e+00   7.3165382e-04
  1.3095704e+00   7.6989736e-04
  2.8840034e+00   8.4429496e-04
 -1.1376731e+00   1.6573771e-03
  1.0439837e+00   9.2210939e-05
  2.1270180e+00   2.5254604e-03
  1.7553831e+00   2.7594683e-03
 -3.0270720e+00   8.4730430e-04
  7.9646635e-01   9.5403260e-03
 -1.2164549e+00   2.4821013e-04
  2.1723654e+00   1.7912836e-05
  9.4485712e-01   1.1375976e-04
 -1.0859017e+00   1.0179458e-03
  1.8437782e-01   2.3087582e-03
 -8.7113035e-01   6.0195307e-05
  2.0667722e+00   1.2272879e-04
 -2.7904398e+00   3.3911274e-05
 -1.7509568e+00   2.3033102e-04
 -1.9061699e+00   2.2285751e-03
 -4.1193587e-01   2.5568312e-04
  3.7870222e-01   4.7136177e-04
 -2.4518838e+00   1.9780740e-03
  1.6998214e+00   7.8412954e-04
  3.9384949e-01   3.9400831e-03
 -7.0788723e-01   6.9327065e-04
  9.1096693e-01   1.2348068e-04
  3.9549541e-02   4.5029380e-04
  3.2524109e+00   3.5010016e-05
  2.5234294e+00   2.8683139e-02
 -1.5087234e+00   2.3103328e-03
  3.5250071e-01   2.0783846e-04
 -6.8117905e-01   2.3809508e-04
  1.5189375e+00   1.1517304e-03
 -5.3211933e-01   9.4882529e-03
 -9.0567058e-01   2.3078179e-02
  5.4554272e-02   3.0178025e-03
 -1.2750814e+00   4.5975563e-04
  3.1509292e-01   8.1399438e-04
 -1.4950217e+00   3.3013129e-03
  1.5033034e+00   1.7089533e-03
 -1.4407585e+00   1.2632567e-04
  2.4359231e+00   4.9136737e-03
  3.4394413e-01   6.4727282e-03
 -6.4387935e-01   1.2852118e-02
  3.2806326e-02   7.5141732e-03
 -5.3557992e-01   1.7704682e-03
  5.7093799e-01   7.2203629e-04
  1.1924348e+00   3.0079444e-03
  1.4353448e+00   9.2250863e-03
  9.9775827e-01   3.9519798e-03
  1.4102225e+00   8.4524439e-04
 -2.1154389e-01   6.3285488e-04
 -1.2190653e+00   1.0077419e-03
  5.9871569e-02   3.1693539e-04
  2.6424136e+00   1.1882909e-03
  5.3943223e-01   3.3804774e-03
  2.0113518e+00   2.7929610e-03
  1.2096192e+00   8.4409900e-03
  1.3405337e+00   1.8018436e-02
  3.9230281e-01   5.2323723e-03
 -8.2402840e-02   4.5193773e-04
 -3.5310509e+00   7.5541629e-04
  2.7574405e-01   8.2341293e-03
  2.0374303e+00   6.9653578e-02
 -8.9069698e-03   1.4585410e-02
 -2.0611700e-01   3.7333164e-02
 -8.0796701e-01   4.2080667e-02
 -4.6177775e-01   1.9365434e-02
  5.5072737e-01   5.4160304e-02
 -3.8782731e-02   2.3810977e-02
 -2.1293023e+00   4.1418643e-05
 -1.0601315e+00   1.0646098e-04
 -1.6743609e+00   4.6007914e-05
  1.2043232e+00   1.7178843e-03
 -2.3545262e-03   2.4169855e-04
 -2.2218680e+00   1.5514105e-04
  2.4209005e-01   8.7955489e-04
  3.0259659e+00   5.6292527e-05
  3.7520641e-01   6.2110630e-04
  6.4873540e-01   9.2327120e-03
 -2.9789373e-01   5.6975364e-04
  2.5923364e+00   1.8704441e-04
  7.0905805e-01   3.8949636e-04
  3.5245952e-01   1.0286761e-03
 -2.4016322e-01   2.6151547e-04
 -2.7545637e-01   1.8440416e-05
  2.2758479e+00   3.9750271e-04
  2.3981829e+00   2.5188872e-05
  4.3000735e-02   2.9895504e-04
 -3.3577269e-01   9.7630334e-05
 -3.7592521e-01   7.2189450e-04
  1.2296920e+00   3.6973009e-04
  1.1171875e+00   2.2006434e-04
 -1.0569696e+00   1.4611076e-02
  3.2910350e-01   3.2198368e-04
  1.2585933e+00   1.0886471e-03
 -6.5385330e-01   9.7021949e-04
 -2.3558147e+00   5.8777694e-04
 -1.4474320e+00   4.6251624e-04
  4.3717036e-01   6.7069167e-03
  9.7193336e-01   3.5297605e-03
  4.6173102e-01   9.7772013e-03
  7.4641243e-02   6.0177911e-03
  1.2119029e+00   9.8052912e-04
  2.8716332e-01   3.4233148e-03
 -3.0522645e-01   1.9119097e-02
 -1.7477707e+00   1.0227274e-02
  2.9281940e-02   9.2971796e-04
  1.4571652e-01   1.9604538e-02
  5.0180668e-01   6.1154813e-03
  2.3947683e-01   3.3638978e-03
  1.3993367e+00   4.6042018e-02
  4.4806105e-01   2.9675016e-02
 -8.0526400e-01   2.6415968e-02
  2.3461604e-01   3.7022699e-02
 -2.1379738e-01   1.1475505e-03
 -1.4771916e+00   1.7811349e-04
 -7.6419437e-01   4.7709988e-03
 -1.1569497e-01   6.0099573e-03
  1.1927353e+00   1.8192847e-03
 -1.7235520e-01   4.9790571e-04
  7.1792269e-01   6.2044780e-04
  1.8421333e-01   7.6542702e-03
 -1.5719880e-01   6.8163343e-02
 -1.0730629e-01   1.4111776e-02
 -2.0480126e-01   1.6908044e-02
  4.1222867e-01   9.6254959e-04
  8.2354963e-02   6.9017564e-03
 -3.0281988e-01   1.1484165e-03
  5.6676060e-01   3.4171440e-02
  1.0620805e+00   2.7790593e-03
  4.3787819e-01   5.2427675e-04
  3.7898549e-01   1.8302493e-02
  5.4334182e-01   4.2800950e-03
 -6.7606646e-01   9.5693739e-03
  3.4565765e-01   2.8921295e-02
  2.1917474e-01   2.9477866e-02
 -1.0278699e-01   7.3567727e-03
 -1.0891344e-01   2.1293048e-02
  1.4001717e-01   3.7158296e-02
 -1.8047860e+00   7.5782370e-04
 -2.4652398e+00   1.5105297e-03
 -5.0798915e-03   8.4312097e-04
  9.8761573e-02   2.8577505e-04
  1.8549598e+00   5.0439425e-03
 -1.9212806e-01   8.0985104e-04
  4.4759434e-01   4.4166348e-03
  2.1467562e+00   2.1360944e-04
 -3.6473525e-01   1.5132070e-03
  3.5854254e+00   2.1953932e-03
 -2.0768945e+00   5.2440120e-04
 -8.2998413e-01   1.2426395e-03
  2.5450816e+00   2.2057325e-03
 -1.0518456e+00   7.5870762e-03
  1.5951824e+00   5.6190061e-04
 -6.2264800e-01   9.9821517e-04
  1.7829878e+00   7.6368218e-07
  2.9509933e+00   3.1120694e-04
  4.2937347e-01   9.2730876e-03
  2.9440069e+00   6.1935798e-04
  4.1338289e-01   3.5223368e-04
 -9.4074559e-01   8.6931104e-04
 -3.9441124e-01   2.5659050e-03
  1.0356268e-01   3.9339121e-03
  1.8136832e+00   9.4601832e-04
 -3.1349404e+00   3.0559408e-03
  2.0543962e+00   2.8156778e-03
  3.6338189e-01   5.3314320e-03
  2.9534450e-01   2.4556480e-03
  6.4906347e-01   1.2094181e-03
 -5.3241986e-01   1.8318325e-02
 -2.3209962e-01   1.5890071e-03
  9.2342782e-01   1.0611423e-03
  3.8756779e-01   3.3977047e-02
 -1.3116045e+00   1.3965707e-03
 -1.1186825e+00   8.2292123e-04
 -3.9397112e-01   1.8615941e-04
  1.0361193e+00   6.5995997e-04
  1.3731210e+00   1.3544754e-04
  2.5925987e+00   6.0663754e-03
 -3.4482796e+00   4.5913802e-03
 -2.7940506e-01   1.1569771e-02
  3.4802738e-01   7.4783624e-03
  4.2546138e-01   2.4223652e-02
  1.5695976e+00   1.2127043e-03
  1.3626511e-01   3.5108482e-03
 -1.7095604e+00   1.4030336e-03
 -1.0149829e+00   1.0748667e-02
  9.6598971e-01   3.7152190e-03
  2.0521579e+00   4.8030834e-03
 -2.6363191e-01   2.0057627e-03
 -1.4043541e+00   4.4011530e-03
 -1.0477825e+00   1.4062659e-02
  2.5944569e+00   1.2027547e-04
 -1.4985775e+00   2.8028816e-03
  1.1633320e+00   5.1941657e-03
 -2.6450708e+00   1.5058868e-04
 -1.3613420e+00   1.4368284e-02
  1.9434339e+00   1.7066174e-03
  9.0554476e-01   8.3806207e-03
 -8.5209501e-01   8.0679972e-03
  7.5180393e-01   3.1399415e-03
  3.9845261e-01   1.3229970e-03
  2.4188356e-01   2.6921568e-02
 -2.8929773e-01   7.0562586e-03
  9.8395208e-03   7.7580601e-02
  5.1622635e-01   1.1523151e-03
 -2.7615283e-02   6.4681289e-03
 -1.0209776e-01   4.8392363e-02
 -8.3211237e-01   1.3805509e-03
 -4.8780088e+00   9.5481919e-05
 -7.4810159e-01   1.2982925e-03
 -3.4367892e-01   1.2121911e-03
  4.2264166e-01   5.9108692e-03
  4.8644629e+00   3.1851400e-03
 -3.4553938e+00   3.0565674e-03
 -2.7499430e+00   1.2220351e-04
  1.4963408e+00   3.3575904e-03
 -7.8918546e-01   4.8667494e-02
  9.0637818e-02   8.4589161e-03
  9.4245434e-02   9.2628226e-04
 -1.7633914e+00   8.1839465e-04
  1.1810093e+00   3.9498326e-03
 -8.4382638e-02   7.0869876e-03
  1.0746081e+00   1.6148647e-04
  4.2231989e-01   6.6032028e-04
 -2.0587564e+00   8.4875978e-04
 -1.0908664e+00   7.0869335e-04
  2.3594804e+00   1.0656028e-03
  1.4041449e+00   1.0967097e-03
  1.0637413e+00   6.5845525e-04
  6.1570662e-01   9.5123192e-04
 -1.3548625e+00   4.0629448e-04
 -8.8459909e-01   3.9690381e-04
  1.6641569e+00   2.0205710e-04
 -5.3058738e-01   3.6318107e-03
 -1.1328690e+00   4.9443054e-03
  8.5069925e-02   1.1911111e-02
  2.1033771e-02   6.2254365e-03
 -4.1134223e-01   8.7872539e-03
  2.1678433e-01   1.1316326e-02
 -1.0249033e+00   1.8631196e-02
 -8.7000662e-01   3.5924986e-02
 -2.6986331e-01   8.2585327e-03
 -2.2501265e-01   9.4374660e-03
 -9.0490079e-01   7.7242064e-03
  2.0750566e-01   5.0170009e-04
 -2.0622447e+00   2.9640219e-03
  2.5713704e+00   9.6447649e-05
  2.9878220e-01   1.4411497e-03
  4.4075499e+00   1.9055776e-02
  4.8093200e-01   1.2337662e-03
  1.7190591e+00   2.1454351e-02
 -1.7462072e-01   4.1619606e-02
  4.9363832e+00   1.8539151e-02
  6.1313009e-01   4.5979026e-04
  1.3129724e+00   1.8272616e-03
 -1.2525688e-01   2.4740845e-03
  1.4401594e+00   2.5741784e-02
 -5.0295526e-01   5.6386157e-03
 -6.0234290e-01   1.8970509e-03
 -4.5065314e-01   3.7694066e-03
  1.9563900e-01   3.3860637e-03
 -1.2308910e+00   4.7857063e-03
 -1.1690286e+00   2.5416354e-03
  1.8521217e+00   4.0469761e-03
 -4.2339706e-01   2.6396608e-03
  8.2593131e-01   3.0351018e-03
 -9.0954460e-02   2.4442267e-04
  9.3381710e+00   9.1299927e-03
 -1.1483482e-01   7.2747893e-03
  1.4775444e+00   6.6337845e-04
 -1.1082915e+00   1.3287925e-02
  9.1058201e-01   2.3265503e-04
  1.3157771e+00   3.4240112e-03
  2.9815051e-01   1.0272501e-02
 -5.3918958e-01   1.0390963e-02
  7.7656937e-01   3.8758062e-02
 -9.5654827e-01   1.4688586e-02
  7.2348617e-02   8.3607852e-02
  3.5926270e+00   2.1510398e-04
 -3.3179542e-01   8.0961239e-04
 -7.6464391e-01   1.4245210e-03
 -2.0710191e-01   3.2525556e-03
 -2.0199428e+00   2.8747583e-03
 -7.7727902e-01   3.4768619e-03
  2.5094280e-01   5.7910667e-03
  6.5031856e-01   1.6108934e-02
  1.9167377e-01   3.5982985e-02
 -8.1476420e-01   1.1421728e-02
  3.8168377e-01   3.6848416e-03
 -1.6050467e+00   5.6816154e-04
 -3.7604329e-01   1.2415876e-03
  1.1787046e+00   5.5073743e-04
 -1.5906799e+00   4.7716349e-03
 -1.8375511e+00   1.8362824e-03
 -1.3758218e+00   2.3394160e-03
 -1.7405984e-01   9.1374805e-03
 -2.1489170e+00   7.2690530e-04
  4.8958731e-01   2.7550981e-04
  1.2400150e+00   1.1789544e-02
 -9.4972640e-01   9.4781077e-04
  5.6937259e-01   1.7911900e-02
 -3.7986043e-01   4.5541450e-04
 -2.5137932e+00   1.5992208e-03
  2.2097118e+00   1.0663976e-02
  4.3623012e-01   3.0586513e-04
 -6.4407176e-01   1.6399388e-03
 -8.5346812e-01   7.4621006e-05
 -1.5165867e-01   3.7237464e-03
 -6.9495809e-01   1.7978762e-04
  5.6113881e-01   3.7121517e-04
 -5.2083051e-01   1.7753109e-02
  8.5003875e-02   2.3191037e-02
 -1.0723923e-01   3.2142978e-02
  1.4674515e+00   4.6093174e-04
  1.9831402e+00   3.9643953e-03
  8.1711692e-01   1.5941082e-03
 -1.8921426e-01   1.1738583e-02
  2.3390523e-01   1.5393823e-02
  1.7390755e+00   1.7570361e-03
 -6.1968660e-01   2.7524430e-02
  3.8686731e+00   2.0616069e-03
  3.7778422e-02   2.2309034e-03
 -3.0526781e-01   1.4473523e-02
 -1.5264250e-01   5.0948611e-03
  9.7293161e-02   2.3173701e-03
  5.8662415e-01   5.9414650e-03
  1.1386092e+00   1.3322747e-02
  1.0374674e+00   4.4705789e-04
  8.5114312e-01   1.3249581e-04
  5.3867263e-01   3.9958148e-03
 -3.4505221e-01   1.7222945e-03
 -5.3483713e-01   3.4615735e-03
 -9.3288076e-01   6.6216816e-03
  3.2237282e+00   1.6911451e-03
 -9.8100163e-02   1.6574060e-03
 -4.6395209e-01   1.2954701e-02
  6.0182549e-02   1.1080018e-02
  6.4249629e-01   5.0403539e-04
  1.3586619e+00   6.1711157e-04
  3.7436277e-01   5.5782939e-04
  4.2950144e-01   2.4464382e-02
  3.0644171e+00   1.4016245e-04
  2.1635721e+00   5.5844173e-02
  1.1866675e-01   3.1024681e-02
 -1.3462539e+00   1.7739387e-03
  1.9537795e-01   2.5006285e-02
  7.8042299e-01   1.3965277e-02
 -4.1582030e-01   8.5657440e-02
  1.9061130e+00   7.0178118e-03
 -3.0504018e-01   1.6692316e-03
 -1.3501269e+00   1.4459551e-02
  3.4020573e-01   1.0646197e-02
  1.2938319e+00   1.2062301e-02
 -1.8848217e-01   1.1807470e-02
  1.2723097e-01   1.0457790e-02
  8.4450513e-01   9.1725225e-03
  9.8923379e-01   1.0742071e-03
  1.1604323e+00   9.6423076e-03
  4.9585661e-01   3.3086797e-04
  3.0769420e-01   5.3169532e-04
  4.1780391e-01   1.2041756e-02
  4.3927166e-01   9.2727700e-05
  4.2663348e-01   1.3570104e-02
 -1.4181694e+00   6.3351028e-05
 -9.2939679e-03   3.4558910e-03
 -2.1099214e-01   1.0809722e-02
 -6.9473356e-01   7.6221209e-03
 -8.3886981e-01   2.8629873e-03
  1.8011231e+00   2.2850538e-02
 -1.7826378e+00   2.1821147e-02
  1.3702734e+00   4.6987104e-04
 -9.1262348e-02   3.1067476e-02
 -5.6784898e-01   1.3507422e-02
  7.3531812e-01   6.8203458e-03
  3.1992750e+00   2.1244171e-04
 -5.0475878e-01   1.2685098e-02
  2.2689587e-01   1.6269689e-02
  8.3393502e-01   3.8592212e-02
  1.1718845e+00   7.1750353e-03
 -3.1482056e-01   7.8704618e-03
  1.9002779e-01   9.9627851e-03
 -6.2212503e-01   4.9114794e-02
  3.8164198e-01   4.8834536e-02
  5.5462223e-01   1.3754823e-03
 -7.9482585e-02   1.0939711e-03
  2.5567763e+00   1.9541031e-03
  6.5499485e-01   9.4603011e-03
 -1.8165376e+00   5.0215474e-03
 -2.7962968e-01   1.0070341e-03
  1.3660420e+00   1.5557176e-02
 -1.6950483e+00   5.5501414e-03
 -1.4033426e+00   7.1076158e-04
  1.8738319e-01   1.2405865e-03
  5.7703269e-01   6.5372523e-04
 -2.5255826e-01   3.2058961e-05
 -6.1053835e-02   2.3917812e-03
  1.3398368e+00   1.6487196e-02
  4.3172765e-01   1.3803943e-03
 -2.7261123e-01   4.2579472e-03
 -1.6303251e+00   1.1467156e-03
  3.9674526e-01   1.3494910e-03
 -5.0448787e-01   1.3335630e-03
 -5.8225322e-01   1.3372282e-03
  1.6617988e+00   3.0140288e-03
 -1.2812726e+00   6.5961079e-04
 -3.7490031e-01   6.7511923e-04
 -1.1279198e+00   2.6584269e-02
 -6.0775512e-01   4.8806779e-03
  7.8487188e-01   8.9488790e-04
 -1.4178015e+00   4.5018648e-03
  1.4747384e-01   8.1737647e-03
 -2.8804986e+00   8.0092750e-02
  3.4623054e-01   3.3578635e-03
  2.1382616e-01   3.5307344e-02
  1.1997560e+00   4.7422286e-02
  3.1156501e-01   5.6262862e-02
 -9.4649076e-02   6.1946429e-02
 -2.9118385e+00   5.9339795e-03
 -3.3437070e-01   1.4236534e-03
 -8.9342570e-01   1.7854582e-03
  1.3758612e+00   3.0645994e-03
  8.4293729e-01   4.1840500e-03
  1.9914876e+00   2.0954243e-03
 -1.2429411e+00   3.0157147e-02
  2.9071575e-01   2.3207881e-03
  9.9034505e-03   1.2816634e-03
 -3.2863778e-01   2.7774044e-03
  3.0035299e-01   3.0206880e-02
  9.9731630e-01   1.3421854e-04
  9.4938326e-01   3.2242402e-04
 -2.0319808e+00   7.5665526e-03
 -1.0016958e-01   2.6275631e-02
 -1.6730828e+00   2.1911988e-03
 -1.1808159e+00   2.0189132e-03
 -1.8810910e+00   3.5706483e-04
 -5.7984662e+00   1.3341147e-02
  1.1749638e+00   1.1169133e-02
 -1.5297312e+00   2.0489441e-03
  8.1330943e-01   1.4998865e-03
  9.3443930e-01   1.6692058e-03
 -3.3235063e-03   1.0959503e-02
 -2.3574063e-01   1.6096776e-03
  5.2300638e-01   2.1046749e-03
  1.7756411e-01   2.7932075e-03
 -2.9801548e+00   1.9148156e-03
  3.5673106e-01   1.1372204e-02
  3.1664240e-01   7.9529300e-02
  5.5227089e-01   3.2661762e-03
 -2.8181019e-01   3.1904038e-02
 -1.5096758e-01   3.8410567e-02
 -2.8166791e-02   8.3149793e-03
 -8.7993884e-01   9.5167675e-04
 -3.2795602e-01   3.3688659e-03
  2.8466436e-01   1.8727288e-02
 -1.2470680e+00   1.2685783e-02
 -3.9983499e-01   9.6442383e-03
  3.6200634e-01   1.0094994e-02
 -4.5922539e-01   6.2940866e-02
 -1.5355793e-01   3.7696023e-02
 -4.2213082e-01   1.2038882e-02
 -1.0625082e+00   1.1337198e-03
  5.8280218e-01   1.7115965e-03
 -3.9400485e-01   1.8045461e-03
 -1.3716815e+00   3.8023393e-03
 -1.2787560e+00   8.6632627e-04
 -4.9464503e-01   4.2719431e-03
  7.6571357e-01   2.4418435e-03
  7.9995513e-01   1.2808071e-02
 -6.4993626e-01   1.8764637e-02
 -4.5798004e-01   1.0208064e-02
  4.8993751e-01   3.3086084e-02
  1.3448237e+00   1.4273429e-02
  1.2705873e-01   2.4038114e-04
  2.9120156e-01   1.4829104e-02
 -9.6012598e-01   7.6382403e-04
  1.6614810e-02   9.1334274e-03
 -9.3589413e-01   5.8524520e-03
  2.5010863e-01   7.2906137e-02
  4.5613211e-01   4.8465550e-02
 -9.3110442e-01   4.8681459e-04
 -2.4866907e-01   5.0444048e-02
  8.3457325e-03   4.9076054e-02
 -1.1959505e+00   3.2495022e-02
 -6.9073850e-01   6.5700971e-02
  1.1376821e+00   3.3503275e-03
 -1.3853560e-01   6.5069152e-03
 -2.3130083e-01   3.9450396e-02
 -1.1638341e+00   3.7957390e-03
  5.4133475e-01   3.6616179e-03
 -1.7908667e-01   7.8119221e-04
 -1.7670246e+00   1.6046220e-03
  5.7831037e-01   5.2119815e-04
  1.5852757e-01   1.2912872e-03
  1.8638268e-01   1.6671115e-03
 -1.3216575e+00   3.5855682e-03
 -1.4468476e+00   6.9103241e-03
  1.6442288e+00   1.1655932e-02
  3.1737700e-01   1.1546338e-04
  2.5430222e+00   1.6952159e-03
  2.9858031e+00   2.2158984e-03
 -3.3745224e+00   1.1993864e-03
  1.9317660e+00   1.4934593e-02
 -2.5411565e-02   6.8806438e-03
 -2.4955852e+00   4.3821486e-04
  1.6283137e+00   8.0817917e-05
  2.9751557e-01   1.1385848e-03
  1.7521440e+00   1.1270094e-03
 -4.7221920e-01   3.8198390e-04
 -2.7317669e+00   1.4573180e-03
  1.7876589e+00   1.0091303e-03
 -9.7447067e-01   3.4173255e-04
 -6.1496818e-01   7.3574926e-04
 -7.2032124e-01   5.3651811e-04
  7.9481119e-01   1.0586774e-03
 -2.5557568e+00   1.9175682e-03
  1.3589813e+00   2.2145049e-03
  2.8956911e-01   1.5568695e-02
 -8.0304497e-01   1.0828651e-03
 -7.5971448e-01   9.0433080e-03
 -3.3590436e-01   7.3573119e-03
 -6.2815744e-01   4.0945207e-04
 -6.0781914e-01   2.1627634e-03
 -5.7182223e-01   6.1668009e-03
 -4.2046833e-01   1.7452380e-03
  1.8866632e+00   1.0060336e-03
 -2.7492459e+00   8.8045909e-04
 -2.5355978e+00   4.4158045e-03
  1.8753757e+00   4.4777691e-03
 -1.5772018e-01   1.6198047e-02
 -3.5553548e-01   5.6221965e-03
 -1.9516622e+00   5.3268555e-03
  1.5389220e-01   4.5235362e-04
  9.8949033e-01   4.3990607e-03
 -5.8737922e-01   1.2709743e-03
  1.4034450e+00   2.5254891e-03
 -7.3881125e-01   1.1868972e-03
  6.6539866e-01   1.0106478e-02
 -9.3349412e-02   4.7747320e-03
 -6.1979778e-02   3.8408337e-03
  2.3360546e-01   7.1232679e-04
 -9.1127241e-01   1.2729815e-03
 -1.1225621e+00   9.0247486e-03
  5.9507501e-01   1.1550157e-03
  3.2450137e-01   3.1642017e-03
  1.3610607e+00   1.5428831e-04
 -1.7302174e-02   1.1349552e-02
  9.8968714e-01   6.2367067e-02
 -1.9606571e-01   5.5357991e-03
 -6.4097685e-01   1.4667005e-03
  1.2548597e+00   3.0529469e-03
 -3.0642954e-01   8.3564138e-03
  1.1534063e+00   5.7484906e-02
 -3.5080832e-01   9.9303890e-03
  6.6362615e-03   3.1951644e-02
 -3.5819270e-02   4.3530364e-02
 -9.8883426e-01   2.0029217e-04
  1.8276989e-01   5.1129051e-02
 -2.2263205e-01   2.8435387e-02
 -3.2214713e-01   1.2250758e-03
  1.2675539e+00   1.9682320e-03
 -2.3545067e+00   7.4623321e-04
  1.0315441e+00   1.5382579e-03
 -2.2340779e+00   2.6283352e-04
 -1.4649450e+00   1.1832055e-02
  4.5162702e-01   1.7144711e-03
  6.2793183e-01   1.1831044e-03
 -2.0969589e-01   2.9758741e-03
  9.6367002e-01   3.7679193e-03
 -3.6480563e+00   1.5520199e-03
  2.9749527e+00   2.3724290e-04
  1.0387727e+00   1.5282283e-04
 -5.8613420e-03   2.9998239e-02
  1.4201711e+00   4.8344000e-03
 -1.9956613e+00   5.9508719e-04
 -2.4891582e+00   7.5075077e-03
  5.2979934e-01   2.2110068e-03
 -9.2250520e-01   2.4259981e-02
 -2.5204163e+00   6.9904985e-04
 -2.6366067e+00   3.4059625e-04
 -9.0991884e-01   1.7037288e-03
  2.8495482e-01   6.2890952e-03
 -3.9118651e-01   6.6609406e-03
  2.6190493e-01   1.9138228e-02
 -1.4093817e+00   1.1555496e-02
  5.2369171e-01   2.9260193e-03
 -1.3694991e+00   2.7462745e-02
 -9.5295936e-02   6.6787191e-02
  1.4462786e+00   8.1991270e-04
 -4.9239191e-01   1.7304212e-02
  4.1720709e-01   3.5505765e-03
  2.2776294e-01   1.4258156e-02
 -4.7244847e-01   7.4748881e-02
 -3.7636706e-01   1.7421875e-02
 -1.1539097e+00   7.6174340e-03
  4.7482637e-01   2.4389476e-04
  1.4686508e+00   1.3257088e-02
  7.4513972e-01   3.1703822e-02
 -2.3655231e+00   2.1695843e-02
  2.0661306e-01   8.6229453e-03
 -1.9973224e-01   4.6062605e-03
  1.4259942e+00   1.6708409e-04
 -1.1129947e+00   4.1231168e-03
 -9.3839055e-01   5.6043215e-04
 -1.6258772e-01   7.1904634e-04
  4.9516734e-02   2.1637499e-03
 -7.2178826e-02   1.2846780e-03
 -2.0515427e-01   9.7066006e-03
 -3.7264431e-01   1.3126470e-03
  4.3498006e-01   2.9056528e-04
 -7.1683872e-01   2.8756093e-03
  8.7144274e-01   4.4305925e-03
 -1.2202277e-01   2.6380312e-02
 -8.7065816e-01   5.0117802e-03
  4.4844750e-01   4.7110622e-03
  8.8812038e-02   4.6540988e-03
 -2.6506993e-01   1.1052337e-02
 -7.5778770e-01   5.0318753e-03
 -1.0181266e+00   2.2418499e-03
  2.5500512e-01   4.5648995e-03
 -4.9620226e-01   1.2092812e-02
 -3.4436595e-01   9.0715074e-04
 -1.3058944e+00   1.0151498e-02
  1.1473848e+00   5.0418000e-03
  3.2260156e-01   2.3702169e-02
  5.8418101e-01   1.3784566e-03
  8.0964303e-01   5.0130073e-04
  5.2622475e-02   8.5185900e-02
  3.3492950e-01   8.4282734e-02
 -4.9953389e-01   7.8742979e-03
  6.3542747e-01   2.1711253e-03
 -1.4106591e-01   3.1504331e-03
 -1.2338706e+00   9.8483427e-04
 -4.1812512e-01   3.0520982e-03
 -3.9680949e-01   6.0946430e-04
  2.4028399e+00   1.2450932e-02
 -4.2110264e-01   2.0788661e-03
 -2.6987815e-01   2.9213924e-02
 -2.0386116e-01   1.0145106e-03
  1.0354203e-03   1.1996930e-03
 -2.7053630e-01   8.0123276e-04
 -1.4361937e+00   2.9788760e-03
 -3.8848904e-01   8.5229930e-03
 -8.4340471e-01   2.3430507e-03
 -3.2443455e-01   3.1224485e-03
  4.9082720e-01   2.1833088e-03
  1.1010526e+00   2.4265896e-03
  3.1760845e-01   4.7017340e-02
  8.8387281e-01   3.4443198e-03
 -1.8783544e+00   3.3133666e-03
 -1.0516318e+00   1.1191521e-03
  1.3578141e+00   1.3915423e-03
 -1.2882841e-01   6.3186162e-03
 -3.8768387e-01   2.0806759e-03
 -1.2355901e+00   1.8628752e-03
 -1.8148890e-01   1.8790711e-03
  1.8648981e-01   6.7478903e-03
  1.3722078e+00   9.3949391e-03
 -2.9014966e+00   8.1877960e-03
 -3.0055517e-01   1.0247510e-02
 -3.3729568e-01   1.1000498e-02
  1.7245821e+00   6.1200266e-03
  1.3328640e-01   2.5884971e-02
  3.3013824e-01   7.0215669e-05
 -2.5105691e-01   1.7895408e-02
 -6.9525993e-01   8.8722762e-03
  2.3115671e-01   1.4112270e-02
 -8.2842588e-01   1.3035327e-02
  3.5944027e-01   3.8434140e-02
 -7.0032203e-01   6.1778948e-03
 -7.6863879e-01   7.5636222e-04
 -2.9294875e-01   1.6271129e-02
 -4.2389104e-01   2.6508229e-02
 -6.2294698e-01   5.1952258e-04
 -4.4372371e-01   6.9252849e-03
  1.5942289e+00   1.7843957e-04
  1.7859915e+00   5.8896793e-04
  6.9468057e-01   2.9257670e-04
 -1.3429087e+00   4.7472827e-03
  5.6139532e-02   8.5042347e-04
 -5.4168695e-01   5.8766943e-04
  5.7432182e-02   1.5009122e-02
  8.5490662e-01   3.5328053e-06
 -6.3120425e-01   1.5675517e-02
 -3.9850801e-01   8.1852106e-03
  1.7173537e+00   1.5581961e-03
  1.7705104e-01   3.1121157e-02
  6.1848122e-01   6.1858161e-03
 -6.1155641e-01   1.5462575e-02
  2.0935008e-01   7.3228581e-03
 -8.5083628e-01   2.3698487e-06
 -4.3827766e-01   4.0292870e-02
 -3.7862572e-01   2.7167980e-02
  1.2750347e-01   7.0217334e-02
  5.8192885e-01   2.0067070e-03
  2.6890075e-01   5.7007733e-04
  5.4408872e-01   8.0683635e-04
 -1.0580326e+00   2.4511537e-03
 -2.3907027e-01   3.7301643e-04
  2.9139295e+00   1.9532321e-03
  7.6699364e-01   3.6522554e-04
 -8.7480599e-01   7.4397179e-04
 -1.0308691e+00   1.2110338e-03
  1.0383511e+00   2.0067694e-03
 -1.6638707e+00   8.3648146e-04
  1.2237164e+00   5.1770089e-03
  1.9307265e+00   5.4653711e-03
 -1.6865119e-01   3.2738216e-02
 -3.8607541e-01   7.5110411e-03
 -2.9628153e+00   3.7846342e-04
 -1.8606357e-01   1.6689060e-04
 -5.0347513e-01   2.8158452e-03
 -5.8527130e-01   3.2891084e-03
 -1.6822143e+00   8.1165374e-04
 -2.2976688e-01   3.6765062e-04
 -9.3366736e-01   1.8054941e-04
 -2.9063926e+00   2.6294269e-04
 -3.8383681e-01   5.1320582e-03
 -5.3320479e-01   1.8386179e-04
  1.2122346e+00   8.8599103e-04
 -5.9209561e-01   2.4258671e-03
  5.5782899e-02   3.2324144e-03
 -7.9136276e-01   9.5909811e-04
 -2.7475832e+00   1.4258450e-04
  1.9278606e-02   2.2184753e-03
  2.3406671e-01   1.6517144e-03
  1.2588392e+00   4.2124284e-03
 -2.3564786e-01   1.0164168e-02
  2.3370655e-01   1.4040562e-03
 -2.8309700e-01   1.5852418e-02
 -7.6685083e-01   2.0697419e-02
  1.4394021e-01   5.7747941e-02
 -6.8951082e-01   3.2151654e-02
 -8.7905234e-01   4.8636165e-02
  9.2329770e-01   3.2056901e-03
  4.8257527e-01   1.7559200e-03
  2.1672215e+00   7.5616501e-04
 -8.5099107e-01   1.8812690e-03
 -2.5270603e+00   4.2976113e-03
  1.5273003e-01   1.4539353e-02
  5.9015822e-02   1.3290347e-04
 -1.2027221e-01   5.1413951e-03
 -4.1347402e-01   2.2047982e-04
  8.6658442e-01   3.6615685e-03
 -2.4716231e-01   1.1194170e-03
  1.4737359e-01   5.4937997e-04
 -3.4525770e-01   3.7263166e-03
  9.0065843e-01   2.0881165e-02
 -1.6609488e-02   5.9869717e-04
  1.3447001e+00   8.6780608e-04
 -9.8734766e-01   1.1698414e-03
  8.7047940e-01   9.1908651e-04
  4.3953624e-01   4.7327788e-03
 -2.7259316e+00   1.2599985e-03
 -5.1328915e-01   2.3984781e-03
 -5.3338403e-01   3.7198684e-03
 -6.3042980e-01   3.9777770e-03
 -1.2575135e+00   2.0472415e-02
  1.1586500e+00   4.3126983e-03
 -2.5778002e-01   7.7677111e-04
  9.5696241e-01   8.3232654e-04
 -2.6744363e-01   2.1528101e-03
 -1.8773223e+00   1.4083628e-02
  3.4895220e-01   5.2954053e-04
 -2.2672196e-01   1.3164151e-02
  6.7451441e-01   3.9305937e-02
  1.1976135e-01   3.8514439e-02
 -3.4305000e-01   9.2086703e-02
  4.7792688e-01   4.1860558e-02
  1.0569904e+00   5.0764246e-04
  2.2475410e-01   1.1850027e-05
 -3.6658325e+00   3.8114437e-04
 -1.8681500e+00   2.9522408e-04
  6.4403020e-02   3.7983248e-03
 -1.6337245e+00   2.6112185e-03
  1.0062261e+00   2.0169065e-04
  3.3656222e-01   3.9622438e-04
 -3.0676786e-02   1.8068171e-03
 -2.2578106e+00   5.7098537e-04
 -2.1336379e+00   1.2014806e-04
  6.3827556e-01   8.8195084e-04
 -9.2604643e-01   3.7926779e-04
 -3.8452810e-01   4.3924490e-04
 -8.3323860e-01   9.1814803e-04
 -1.3033890e+00   5.0458958e-04
 -8.6306855e-02   1.1118640e-03
  9.0971440e-01   2.0445944e-03
 -1.0221474e+00   2.8392314e-03
  3.6561298e-01   5.9581775e-04
 -4.8714015e-01   2.8324071e-03
 -5.2277434e-01   1.0546272e-03
  1.7164119e+00   1.1260997e-03
  2.8921394e+00   1.2757312e-04
  2.3174293e-01   3.8865088e-03
 -2.4312708e+00   3.8725529e-03
  1.7776138e+00   3.9153997e-04
  2.8369558e-01   7.3557021e-04
  1.7408223e+00   2.1784509e-02
 -2.9927397e-01   3.8327030e-03
 -5.9476113e-01   1.0482951e-02
  5.6995958e-01   2.2835260e-02
  4.2285749e-01   9.8059105e-04
 -2.7019319e-01   6.6379741e-02
 -4.7226626e-01   2.7945869e-02
 -5.5912375e-01   2.3931162e-03
 -8.7801576e-01   8.2565681e-04
  2.1077859e+00   6.5726996e-04
  8.1169802e-01   8.1370631e-03
  3.0531967e-01   2.1151728e-03
 -2.4698761e+00   1.0725998e-02
 -3.3172243e+00   5.2736332e-03
  2.5500658e+00   6.1940434e-03
  2.9865098e-01   4.4616037e-03
 -5.5877171e+00   1.2529453e-02
 -2.1779428e-01   3.4091072e-04
  2.7461069e+00   3.3243481e-04
  1.1837658e+00   2.5048424e-03
 -8.9764416e-01   5.3222966e-03
 -4.3707380e+00   4.5286044e-03
  1.6190546e+00   4.9563148e-04
 -1.3870230e+00   1.6786830e-04
  1.4485151e+00   6.4734259e-04
 -2.6910529e-01   7.4181245e-03
  1.1304933e+00   2.7658971e-04
 -1.2175559e-02   6.6114287e-04
  8.5875756e-01   2.0210056e-03
 -2.8739253e-01   3.5186389e-03
 -6.7709988e-01   7.0642453e-04
  1.1491965e-01   2.7956328e-04
  1.9913306e+00   9.8135934e-05
 -3.5413060e-01   1.1618268e-03
 -5.7094669e-01   5.9140460e-03
  6.0916358e-01   1.6646762e-03
  2.6111770e+00   9.8206066e-03
  4.7747601e-02   2.6238767e-02
  6.5937793e-01   1.3012595e-02
  3.5291782e-01   1.6366430e-02
  4.0361735e-01   2.3825543e-03
  4.2324099e-01   3.9874832e-03
  2.5655184e+00   2.7669258e-03
 -1.5934283e-01   1.1558887e-03
  3.0076256e+00   1.2232750e-04
  2.6086175e+00   1.1946376e-02
 -3.1122425e+00   9.5977285e-04
 -1.4748254e+00   2.7896866e-04
  2.4038439e+00   9.3277963e-03
 -4.4442317e-01   1.2840856e-02
  1.6594805e-01   6.2363143e-03
  8.1279361e-01   3.5001645e-03
 -2.1577151e+00   2.6309155e-03
 -1.7294040e+00   1.5910857e-03
 -1.4813172e+00   1.4229451e-03
  1.3274057e+00   1.0389336e-03
 -1.5631753e+00   1.6421337e-03
 -2.3022543e-01   7.0163718e-04
  1.0882834e+00   1.4966361e-03
 -5.8234423e-01   1.9860382e-03
 -1.0100073e+00   4.4163812e-02
 -2.8719637e-01   5.0394447e-04
  9.2077488e-01   4.6023357e-04
  9.0628111e-01   2.0379717e-03
 -9.0747273e-01   5.2535026e-03
  1.2782957e-01   7.7260318e-03
 -2.5067976e+00   1.8369529e-03
 -1.4437085e-01   9.7980024e-03
  1.6249439e+00   4.6609542e-03
 -6.5267518e-02   2.6017416e-03
  2.2551873e-01   5.4788752e-03
 -3.1222755e-01   1.9034756e-03
 -3.1791025e-01   2.6651766e-04
  1.5434034e-01   5.4394449e-03
 -2.6193598e-01   1.0241386e-02
  2.3872861e-01   1.0278836e-02
 -1.8001205e+00   3.5627704e-04
 -2.3208420e+00   1.6021010e-03
  1.4110292e+00   7.2755374e-04
  6.9795561e-01   1.6989706e-03
 -1.9790450e+00   1.3563435e-03
  1.0363389e+00   5.1892595e-04
 -5.5195946e-01   6.1544077e-03
  1.1485507e+00   2.1559619e-03
  1.9584033e+00   1.0667973e-03
 -2.0227313e+00   1.5691431e-02
  4.0706509e-01   1.4143470e-02
 -1.2846014e+00   8.6100854e-04
  1.8294103e+00   7.7845989e-04
  3.8525123e-02   2.1220067e-04
  1.4172605e+00   9.2835131e-04
 -2.1360536e-01   1.6771071e-03
 -8.8866007e-01   3.7742729e-04
  1.6824013e+00   1.4603754e-03
  1.7101729e+00   6.8436784e-04
 -2.9837918e-01   5.2922376e-04
 -1.1189173e+00   1.1636843e-03
  1.8755943e+00   1.5253401e-03
  5.4604149e-01   3.1123366e-04
  6.4890146e-01   1.3199364e-03
 -7.3734410e-02   3.3219128e-03
  1.2355237e+00   3.5416393e-03
 -8.1179237e-01   1.9105944e-03
 -9.1782320e-01   8.7895396e-04