       N       E                     dE             d eps       ncg     rms          rms(c)
DAV:   1     0.370492359756E+04    0.37049E+04   -0.11884E+05  1704   0.105E+03
DAV:   2     0.180652143957E+03   -0.35243E+04   -0.32666E+04  2136   0.238E+02
DAV:   3    -0.836667635126E+03   -0.10173E+04   -0.99260E+03  1784   0.135E+02
DAV:   4    -0.898383936203E+03   -0.61716E+02   -0.60706E+02  1728   0.430E+01
DAV:   5    -0.899870363463E+03   -0.14864E+01   -0.14659E+01  1760   0.651E+00    0.453E+01
DAV:   6    -0.850974318581E+03    0.48896E+02   -0.46231E+01  1584   0.123E+01    0.266E+01
DAV:   7    -0.832671401757E+03    0.18303E+02   -0.64673E+01  1568   0.142E+01    0.724E+00
DAV:   8    -0.832386612153E+03    0.28479E+00   -0.23279E+00  1600   0.320E+00    0.917E-01
DAV:   9    -0.832286783233E+03    0.99829E-01   -0.25047E-01  1672   0.924E-01    0.555E-01
DAV:  10    -0.832246625957E+03    0.40157E-01   -0.40624E-02  1736   0.392E-01    0.345E-01
DAV:  11    -0.832218053065E+03    0.28573E-01   -0.27725E-02  1544   0.251E-01    0.229E-01
DAV:  12    -0.832217757221E+03    0.29584E-03   -0.18378E-02  1504   0.208E-01    0.144E-01
DAV:  13    -0.832230757034E+03   -0.13000E-01   -0.72856E-03  1520   0.127E-01    0.832E-02
DAV:  14    -0.832246266992E+03   -0.15510E-01   -0.10353E-03  1592   0.518E-02    0.565E-02
DAV:  15    -0.832267044803E+03   -0.20778E-01   -0.16278E-03  1544   0.598E-02    0.293E-02
DAV:  16    -0.832276476805E+03   -0.94320E-02   -0.66283E-04  1592   0.359E-02    0.204E-02
DAV:  17    -0.832280129334E+03   -0.36525E-02   -0.16709E-04  1616   0.180E-02    0.109E-02
DAV:  18    -0.832282384292E+03   -0.22550E-02   -0.10165E-04  1576   0.131E-02    0.593E-03
DAV:  19    -0.832283269567E+03   -0.88528E-03   -0.23399E-05  1400   0.647E-03    0.379E-03
DAV:  20    -0.832283723381E+03   -0.45381E-03   -0.95915E-06  1312   0.393E-03    0.205E-03
DAV:  21    -0.832283917151E+03   -0.19377E-03   -0.24236E-06  1296   0.219E-03    0.876E-04
DAV:  22    -0.832283963190E+03   -0.46039E-04   -0.16297E-07  1016   0.894E-04    0.550E-04
DAV:  23    -0.832283990405E+03   -0.27216E-04   -0.19430E-07   912   0.661E-04    0.312E-04
DAV:  24    -0.832284000628E+03   -0.10223E-04   -0.66854E-08   904   0.434E-04    0.164E-04
DAV:  25    -0.832284005723E+03   -0.50945E-05   -0.33532E-08   904   0.284E-04    0.126E-04
DAV:  26    -0.832284008046E+03   -0.23229E-05   -0.13299E-08   904   0.178E-04    0.742E-05
DAV:  27    -0.832284009998E+03   -0.19523E-05   -0.67083E-09   920   0.133E-04    0.459E-05
DAV:  28    -0.832284011029E+03   -0.10309E-05   -0.28745E-09   880   0.839E-05    0.249E-05
DAV:  29    -0.832284011479E+03   -0.45044E-06   -0.17262E-09   920   0.651E-05
   1 F= -.83228401E+03 E0= -.83224543E+03  d E =-.771638E-01
