 vasp.6.5.0 16Dec24 (build Feb 19 2025 19:45:31) complex                         
 executed on              LinuxNV date 2025.10.25  20:35:39
 running    2 mpi-ranks, on    1 nodes
 distrk:  each k-point on    2 cores,    1 groups
 distr:  one band on NCORE=   1 cores,    2 groups
 Offloading initialized ...    2 GPUs detected


--------------------------------------------------------------------------------------------------------


 INCAR:
   ISTART = 0            (Not Read existing wavefunction
   ISPIN = 1            (Non-Spin polarised DFT, Default\=1)
   ICHARG = 2            (The initial guess charge density is generated by superposition of atomic charge density)
   LREAL = Auto         (Projection operators: automatic)
   ENCUT = 500          (Cut-off energy for plane wave basis set, in eV)
   LWAVE = .FALSE.       (Write WAVECAR or not)
   LCHARG = .FALSE.       (Write CHGCAR or not)
   PREC = Accurate   (Precision level)
   KGAMMA = .TRUE.
   ALGO = Normal
   NSW = 0           (Default: NSW \= 0)
   IBRION = -1           (Ions are not moved)
   ISMEAR = 0
   EDIFF = 1E-06        (SCF energy convergence
   NELM = 150          (Max electronic SCF steps)

 POTCAR:    PAW_PBE C 08Apr2002                   
 POTCAR:    PAW_PBE C 08Apr2002                   
   SHA256 =  253f7b50bb8d59471dbedb8285d89021f4a42ed1a2c5d38a03a736e69125dd95 C/POTCAR              
   COPYR  = (c) Copyright 08Apr2002 Georg Kresse                                                    
   COPYR  = This file is part of the software VASP. Any use, copying, and all other rights are regul
   COPYR  = If you do not have a valid VASP license, you may not use, copy or distribute this file. 
   VRHFIN =C: s2p2                                                                                  
   LEXCH  = PE                                                                                      
   EATOM  =   147.1560 eV,   10.8157 Ry                                                             
                                                                                                    
   TITEL  = PAW_PBE C 08Apr2002                                                                     
   LULTRA =        F    use ultrasoft PP ?                                                          
   IUNSCR =        1    unscreen: 0-lin 1-nonlin 2-no                                               
   RPACOR =    1.200    partial core radius                                                         
   POMASS =   12.011; ZVAL   =    4.000    mass and valenz                                          
   RCORE  =    1.500    outmost cutoff radius                                                       
   RWIGS  =    1.630; RWIGS  =    0.863    wigner-seitz radius (au A)                               
   ENMAX  =  400.000; ENMIN  =  300.000 eV                                                          
   ICORE  =        2    local potential                                                             
   LCOR   =        T    correct aug charges                                                         
   LPAW   =        T    paw PP                                                                      
   EAUG   =  644.873                                                                                
   DEXC   =    0.000                                                                                
   RMAX   =    1.529    core radius for proj-oper                                                   
   RAUG   =    1.300    factor for augmentation sphere                                              
   RDEP   =    1.501    radius for radial grids                                                     
   RDEPT  =    1.300    core radius for aug-charge                                                  
                                                                                                    
   Atomic configuration                                                                             
    4 entries                                                                                       
     n  l   j            E        occ.                                                              
     1  0  0.50      -273.3789   2.0000                                                             
     2  0  0.50       -13.7508   2.0000                                                             
     2  1  0.50        -5.2854   2.0000                                                             
     3  2  1.50        -5.4423   0.0000                                                             
   Description                                                                                      
     l       E           TYP  RCUT    TYP  RCUT                                                     
     0    -13.7508458     23  1.200                                                                 
     0     -8.2022199     23  1.200                                                                 
     1     -5.2854383     23  1.500                                                                 
     1     34.0145650     23  1.500                                                                 
     2     -5.4423304      7  1.500                                                                 
  local pseudopotential read in
  partial core-charges read in
  partial kinetic energy density read in
  atomic valenz-charges read in
  non local Contribution for L=            0  read in
    real space projection operators read in
  non local Contribution for L=            0  read in
    real space projection operators read in
  non local Contribution for L=            1  read in
    real space projection operators read in
  non local Contribution for L=            1  read in
    real space projection operators read in
    PAW grid and wavefunctions read in
 
   number of l-projection  operators is LMAX  =            4
   number of lm-projection operators is LMMAX =            8
 
 Optimization of the real space projectors (new method)

 maximal supplied QI-value         = 25.13
 optimisation between [QCUT,QGAM] = [ 11.31, 22.87] = [ 35.82,146.48] Ry 
 Optimized for a Real-space Cutoff    1.03 Angstroem

   l    n(q)    QCUT    max X(q) W(low)/X(q) W(high)/X(q)  e(spline) 
   0      7    11.310   115.676    0.20E-03    0.90E-03    0.20E-06
   0      7    11.310    87.132    0.20E-03    0.89E-03    0.19E-06
   1      6    11.310     4.429    0.16E-03    0.28E-03    0.12E-06
   1      6    11.310     2.733    0.12E-03    0.21E-03    0.99E-07
  PAW_PBE C 08Apr2002                   :
 energy of atom  1       EATOM= -147.1560
 kinetic energy error for atom=    0.0076 (will be added to EATOM!!)
 
 
 POSCAR:  C
  positions in cartesian coordinates
  No initial velocities read in


 exchange-correlation table for PE
   RHO(1)=    0.500       N(1)  =     2000
   RHO(2)=  100.500       N(2)  =     4000
 


--------------------------------------------------------------------------------------------------------


 ion  position               nearest neighbor table
   1  0.024  0.714  0.540-   3 1.38   2 1.41  45 1.50  46 2.03
   2  0.024  0.889  0.542-   4 1.39   1 1.41  46 1.48  45 2.07
   3  0.067  0.632  0.544-  50 1.37   1 1.38   5 1.41
   4  0.067  0.971  0.548-  49 1.37   2 1.39   6 1.43
   5  0.109  0.716  0.557-   6 1.38   3 1.41   7 1.44
   6  0.110  0.887  0.559-   5 1.38   4 1.43   8 1.44
   7  0.155  0.638  0.557-  54 1.38   9 1.42   5 1.44
   8  0.155  0.971  0.562-  53 1.37   6 1.44  10 1.44
   9  0.200  0.715  0.563-  10 1.37  11 1.42   7 1.42
  10  0.199  0.885  0.565-   9 1.37  12 1.43   8 1.44
  11  0.244  0.636  0.559-  58 1.37   9 1.42  13 1.43
  12  0.244  0.969  0.564-  57 1.37  14 1.43  10 1.43
  13  0.289  0.719  0.555-  14 1.36  11 1.43  15 1.43
  14  0.289  0.887  0.558-  13 1.36  12 1.43  16 1.46
  15  0.331  0.638  0.541-  62 1.36  17 1.42  13 1.43
  16  0.335  0.971  0.552-  61 1.35  18 1.43  14 1.46
  17  0.375  0.721  0.535-  18 1.35  15 1.42  19 1.43
  18  0.378  0.885  0.542-  17 1.35  16 1.43  20 1.43
  19  0.415  0.636  0.519-  66 1.36  17 1.43  21 1.43
  20  0.420  0.971  0.530-  65 1.37  18 1.43  22 1.45
  21  0.460  0.716  0.511-  22 1.37  23 1.41  19 1.43
  22  0.462  0.883  0.518-  21 1.37  24 1.43  20 1.45
  23  0.500  0.638  0.494-  70 1.38  21 1.41  25 1.42
  24  0.503  0.971  0.504-  69 1.37  26 1.43  22 1.43
  25  0.544  0.721  0.486-  26 1.37  27 1.42  23 1.42
  26  0.546  0.886  0.494-  25 1.37  28 1.41  24 1.43
  27  0.585  0.640  0.472-  74 1.36  25 1.42  29 1.45
  28  0.589  0.971  0.484-  73 1.38  30 1.40  26 1.41
  29  0.631  0.723  0.467-  30 1.37  31 1.41  27 1.45
  30  0.631  0.890  0.474-  29 1.37  28 1.40  32 1.42
  31  0.675  0.641  0.462-  78 1.37  29 1.41  33 1.46
  32  0.676  0.971  0.473-  77 1.36  34 1.41  30 1.42
  33  0.721  0.721  0.467-  34 1.37  35 1.41  31 1.46
  34  0.720  0.886  0.475-  33 1.37  32 1.41  36 1.42
  35  0.766  0.640  0.467-  82 1.37  37 1.41  33 1.41
  36  0.764  0.970  0.478-  81 1.39  38 1.40  34 1.42
  37  0.808  0.721  0.479-  38 1.36  35 1.41  39 1.42
  38  0.807  0.887  0.484-  37 1.36  36 1.40  40 1.40
  39  0.853  0.640  0.484-  41 1.39  86 1.41  37 1.42
  40  0.850  0.969  0.494-  85 1.38  42 1.39  38 1.40
  41  0.893  0.719  0.498-  42 1.38  39 1.39  43 1.40
  42  0.892  0.888  0.504-  41 1.38  40 1.39  44 1.42
  43  0.936  0.636  0.506-  90 1.37  45 1.40  41 1.40
  44  0.934  0.970  0.515-  46 1.38  89 1.38  42 1.42
  45  0.974  0.715  0.526-  46 1.40  43 1.40   1 1.50   2 2.07
  46  0.974  0.887  0.529-  44 1.38  45 1.40   2 1.48   1 2.03
  47  0.030  0.213  0.520-  49 1.38  48 1.42  91 1.46  92 2.01
  48  0.031  0.388  0.518-  50 1.39  47 1.42  92 1.46  91 2.03
  49  0.069  0.133  0.536-   4 1.37  47 1.38  51 1.44
  50  0.071  0.469  0.533-   3 1.37  48 1.39  52 1.39
  51  0.114  0.218  0.542-  52 1.37  53 1.41  49 1.44
  52  0.114  0.386  0.538-  51 1.37  50 1.39  54 1.42
  53  0.155  0.138  0.556-   8 1.37  55 1.41  51 1.41
  54  0.156  0.472  0.547-   7 1.38  56 1.40  52 1.42
  55  0.200  0.220  0.557-  56 1.36  53 1.41  57 1.43
  56  0.199  0.386  0.552-  55 1.36  54 1.40  58 1.42
  57  0.245  0.137  0.559-  12 1.37  59 1.40  55 1.43
  58  0.244  0.469  0.553-  11 1.37  56 1.42  60 1.42
  59  0.288  0.216  0.552-  60 1.36  57 1.40  61 1.43
  60  0.287  0.382  0.547-  59 1.36  58 1.42  62 1.45
  61  0.333  0.136  0.547-  16 1.35  59 1.43  63 1.44
  62  0.330  0.472  0.536-  15 1.36  64 1.38  60 1.45
  63  0.373  0.217  0.528-  64 1.39  65 1.39  61 1.44
  64  0.371  0.387  0.524-  62 1.38  63 1.39  66 1.42
  65  0.417  0.137  0.523-  20 1.37  63 1.39  67 1.42
  66  0.412  0.471  0.511-  19 1.36  64 1.42  68 1.43
  67  0.457  0.220  0.506-  68 1.36  69 1.41  65 1.42
  68  0.455  0.385  0.499-  67 1.36  66 1.43  70 1.46
  69  0.501  0.140  0.501-  24 1.37  67 1.41  71 1.44
  70  0.498  0.470  0.486-  23 1.38  72 1.40  68 1.46
  71  0.543  0.223  0.486-  72 1.39  73 1.42  69 1.44
  72  0.541  0.390  0.477-  71 1.39  70 1.40  74 1.43
  73  0.588  0.141  0.481-  28 1.38  71 1.42  75 1.43
  74  0.585  0.472  0.469-  27 1.36  72 1.43  76 1.43
  75  0.631  0.223  0.472-  76 1.39  73 1.43  77 1.44
  76  0.630  0.392  0.465-  75 1.39  78 1.43  74 1.43
  77  0.676  0.139  0.472-  32 1.36  79 1.40  75 1.44
  78  0.675  0.472  0.461-  31 1.37  76 1.43  80 1.44
  79  0.720  0.223  0.468-  80 1.38  77 1.40  81 1.42
  80  0.721  0.391  0.462-  79 1.38  82 1.41  78 1.44
  81  0.764  0.140  0.472-  36 1.39  79 1.42  83 1.42
  82  0.766  0.471  0.465-  35 1.37  80 1.41  84 1.43
  83  0.810  0.218  0.474-  84 1.39  85 1.42  81 1.42
  84  0.811  0.388  0.470-  83 1.39  86 1.41  82 1.43
  85  0.852  0.135  0.485-  40 1.38  87 1.42  83 1.42
  86  0.854  0.470  0.476-  39 1.41  84 1.41  88 1.44
  87  0.896  0.218  0.490-  88 1.37  89 1.41  85 1.42
  88  0.899  0.385  0.483-  87 1.37  90 1.41  86 1.44
  89  0.937  0.133  0.503-  44 1.38  91 1.39  87 1.41
  90  0.939  0.473  0.496-  43 1.37  88 1.41  92 1.42
  91  0.980  0.215  0.507-  92 1.37  89 1.39  47 1.46  48 2.03
  92  0.982  0.384  0.504-  91 1.37  90 1.42  48 1.46  47 2.01
 
  LATTYP: Found a simple orthorhombic cell.
 ALAT       =     8.1000000000
 B/A-ratio  =     3.4629629630
 C/A-ratio  =     4.1358024691
  
  Lattice vectors:
  
 A1 = (   0.0000000000,  -8.1000000000,   0.0000000000)
 A2 = (  28.0500000000,   0.0000000000,   0.0000000000)
 A3 = (   0.0000000000,   0.0000000000,  33.5000000000)


Analysis of symmetry for initial positions (statically):
=====================================================================
 Subroutine PRICEL returns:
 Original cell was already a primitive cell.
 

 Routine SETGRP: Setting up the symmetry group for a 
 simple orthorhombic supercell.


 Subroutine GETGRP returns: Found  1 space group operations
 (whereof  1 operations were pure point group operations)
 out of a pool of  8 trial point group operations.


The static configuration has the point symmetry C_1 .


Analysis of symmetry for dynamics (positions and initial velocities):
=====================================================================
 Subroutine PRICEL returns:
 Original cell was already a primitive cell.
 

 Routine SETGRP: Setting up the symmetry group for a 
 simple orthorhombic supercell.


 Subroutine GETGRP returns: Found  1 space group operations
 (whereof  1 operations were pure point group operations)
 out of a pool of  8 trial point group operations.


The dynamic configuration has the point symmetry C_1 .


 Subroutine INISYM returns: Found  1 space group operations
 (whereof  1 operations are pure point group operations),
 and found     1 'primitive' translations


----------------------------------------------------------------------------------------

                                     Primitive cell                                     

  volume of cell :    7611.3675

  direct lattice vectors                    reciprocal lattice vectors
    28.050000000  0.000000000  0.000000000     0.035650624  0.000000000  0.000000000
     0.000000000  8.100000000  0.000000000     0.000000000  0.123456790  0.000000000
     0.000000000  0.000000000 33.500000000     0.000000000  0.000000000  0.029850746

  length of vectors
    28.050000000  8.100000000 33.500000000     0.035650624  0.123456790  0.029850746

  position of ions in fractional coordinates (direct lattice)
     0.024389269  0.714166667  0.540000000
     0.024278788  0.888559259  0.541791045
     0.067329768  0.631611111  0.544179104
     0.066944742  0.971158025  0.548059701
     0.108527273  0.715724691  0.557313433
     0.109838859  0.886537037  0.558805970
     0.154592513  0.637813580  0.557313433
     0.154747950  0.970761728  0.562388060
     0.199580749  0.715256790  0.563283582
     0.199464171  0.884696296  0.565373134
     0.244223173  0.635819753  0.558805970
     0.244493761  0.968559259  0.564179104
     0.288809626  0.718969136  0.554925373
     0.289204635  0.886850617  0.558208955
     0.331253476  0.637503704  0.541492537
     0.334635294  0.970812346  0.552238806
     0.375262032  0.720902469  0.535223881
     0.377511586  0.885167901  0.541791045
     0.415429590  0.635759259  0.519104478
     0.419843137  0.971365432  0.529850746
     0.459960784  0.716424691  0.511343284
     0.462310160  0.882869136  0.517611940
     0.499786096  0.637816049  0.493731343
     0.503461676  0.971424691  0.504179104
     0.543536542  0.720860494  0.485970149
     0.546303030  0.886353086  0.493731343
     0.585376114  0.639577778  0.472238806
     0.588588235  0.971351852  0.483880597
     0.630666667  0.722904938  0.467462687
     0.631244207  0.890028395  0.474328358
     0.674745098  0.640975309  0.462089552
     0.676181818  0.971218519  0.472835821
     0.721151515  0.720519753  0.466567164
     0.720089127  0.885938272  0.474925373
     0.765871658  0.640122222  0.467164179
     0.764288770  0.969992593  0.478208955
     0.808074866  0.720656790  0.479104478
     0.807440285  0.887493827  0.483880597
     0.852677362  0.639992593  0.484179104
     0.849818182  0.968733333  0.493731343
     0.893265597  0.719475309  0.497910448
     0.891696970  0.887935802  0.504179104
     0.936131907  0.636445679  0.505970149
     0.934278075  0.970451852  0.514925373
     0.973764706  0.714918519  0.525970149
     0.973814617  0.887067901  0.528656716
     0.030275936  0.213393827  0.520000000
     0.031136649  0.388280247  0.517910448
     0.069109091  0.132624691  0.536119403
     0.070896257  0.469456790  0.532835821
     0.113681996  0.217503704  0.542388060
     0.113807487  0.386166667  0.538208955
     0.155424599  0.138016049  0.555820896
     0.156448485  0.471997531  0.547462687
     0.199819608  0.219504938  0.556716418
     0.199427451  0.386256790  0.551641791
     0.244544385  0.136555556  0.559104478
     0.244001783  0.468879012  0.552537313
     0.288246702  0.216016049  0.552238806
     0.287392870  0.381640741  0.546567164
     0.333322638  0.135916049  0.546865672
     0.330370766  0.471579012  0.536119403
     0.373219251  0.216772840  0.528358209
     0.370541889  0.387166667  0.523582090
     0.416741533  0.137143210  0.522686567
     0.412402852  0.471048148  0.511044776
     0.456866310  0.219591358  0.505970149
     0.454852050  0.385095062  0.499402985
     0.501401070  0.140065432  0.501194030
     0.497771836  0.470243210  0.486268657
     0.543105169  0.222818519  0.486268657
     0.540566845  0.389646914  0.477014925
     0.587575758  0.140858025  0.480895522
     0.584816399  0.471639506  0.469253731
     0.631408200  0.223004938  0.472238806
     0.630167558  0.391553086  0.465074627
     0.676488414  0.138981481  0.471641791
     0.675358289  0.471593827  0.461492537
     0.720046346  0.223065432  0.468358209
     0.721115865  0.391286420  0.461791045
     0.764399287  0.139801235  0.472238806
     0.765604278  0.470788889  0.464776119
     0.809732620  0.218386420  0.474029851
     0.810534759  0.388417284  0.469552239
     0.851985740  0.135008642  0.485373134
     0.854402852  0.469696296  0.475820896
     0.896167558  0.217740741  0.489552239
     0.898506239  0.384713580  0.483283582
     0.937279857  0.133377778  0.502686567
     0.939393939  0.473409877  0.495522388
     0.980477718  0.214853086  0.507164179
     0.981857398  0.384033333  0.504179104

  ion indices of the primitive-cell ions
   primitive index   ion index
                 1           1
                 2           2
                 3           3
                 4           4
                 5           5
                 6           6
                 7           7
                 8           8
                 9           9
                10          10
                11          11
                12          12
                13          13
                14          14
                15          15
                16          16
                17          17
                18          18
                19          19
                20          20
                21          21
                22          22
                23          23
                24          24
                25          25
                26          26
                27          27
                28          28
                29          29
                30          30
                31          31
                32          32
                33          33
                34          34
                35          35
                36          36
                37          37
                38          38
                39          39
                40          40
                41          41
                42          42
                43          43
                44          44
                45          45
                46          46
                47          47
                48          48
                49          49
                50          50
                51          51
                52          52
                53          53
                54          54
                55          55
                56          56
                57          57
                58          58
                59          59
                60          60
                61          61
                62          62
                63          63
                64          64
                65          65
                66          66
                67          67
                68          68
                69          69
                70          70
                71          71
                72          72
                73          73
                74          74
                75          75
                76          76
                77          77
                78          78
                79          79
                80          80
                81          81
                82          82
                83          83
                84          84
                85          85
                86          86
                87          87
                88          88
                89          89
                90          90
                91          91
                92          92

----------------------------------------------------------------------------------------

 
 
 KPOINTS: K-Spacing Value to Generate K-Mesh: 0.03

Automatic generation of k-mesh.
 Grid dimensions read from file:
 generate k-points for:    1    4    1

 Generating k-lattice:

  Cartesian coordinates                     Fractional coordinates (reciprocal lattice)
     0.035650624  0.000000000  0.000000000     1.000000000  0.000000000  0.000000000
     0.000000000  0.030864198  0.000000000     0.000000000  0.250000000  0.000000000
     0.000000000  0.000000000  0.029850746     0.000000000  0.000000000  1.000000000

  Length of vectors
     0.035650624  0.030864198  0.029850746

  Shift w.r.t. Gamma in fractional coordinates (k-lattice)
     0.000000000  0.000000000  0.000000000

 
 Subroutine IBZKPT returns following result:
 ===========================================
 
 Found      3 irreducible k-points:
 
 Following reciprocal coordinates:
            Coordinates               Weight
  0.000000  0.000000  0.000000      1.000000
  0.000000  0.250000  0.000000      2.000000
  0.000000  0.500000  0.000000      1.000000
 
 Following cartesian coordinates:
            Coordinates               Weight
  0.000000  0.000000  0.000000      1.000000
  0.000000  0.030864  0.000000      2.000000
  0.000000  0.061728  0.000000      1.000000
 


--------------------------------------------------------------------------------------------------------




 Dimension of arrays:
   k-points           NKPTS =      3   k-points in BZ     NKDIM =      3   number of bands    NBANDS=    232
   number of dos      NEDOS =    301   number of ions     NIONS =     92
   non local maximal  LDIM  =      4   non local SUM 2l+1 LMDIM =      8
   total plane-waves  NPLWV = ******
   max r-space proj   IRMAX =   1967   max aug-charges    IRDMAX=   5083
   dimension x,y,z NGX =   210 NGY =   60 NGZ =  250
   dimension x,y,z NGXF=   420 NGYF=  120 NGZF=  500
   support grid    NGXF=   420 NGYF=  120 NGZF=  500
   ions per type =              92
   NGX,Y,Z   is equivalent  to a cutoff of  12.45, 12.31, 12.41 a.u.
   NGXF,Y,Z  is equivalent  to a cutoff of  24.89, 24.63, 24.81 a.u.

 SYSTEM =  unknown system                          
 POSCAR =   C                                      

 Startparameter for this run:
   NWRITE =      2    write-flag & timer
   PREC   = accura    normal or accurate (medium, high low for compatibility)
   ISTART =      0    job   : 0-new  1-cont  2-samecut
   ICHARG =      2    charge: 1-file 2-atom 10-const
   ISPIN  =      1    spin polarized calculation?
   LNONCOLLINEAR =      F non collinear calculations
   LSORBIT =      F    spin-orbit coupling
   INIWAV =      1    electr: 0-lowe 1-rand  2-diag
   LASPH  =      F    aspherical Exc in radial PAW
 Electronic Relaxation 1
   ENCUT  =  500.0 eV  36.75 Ry    6.06 a.u.  51.14 14.77 61.08*2*pi/ulx,y,z
   ENINI  =  500.0     initial cutoff
   ENAUG  =  644.9 eV  augmentation charge cutoff
   NELM   =    150;   NELMIN=  2; NELMDL= -5     # of ELM steps 
   EDIFF  = 0.1E-05   stopping-criterion for ELM
   LREAL  =      T    real-space projection
   NLSPLINE    = F    spline interpolate recip. space projectors
   LCOMPAT=      F    compatible to vasp.4.4
   GGA_COMPAT  = T    GGA compatible to vasp.4.4-vasp.4.6
   LMAXPAW     = -100 max onsite density
   LMAXMIX     =    2 max onsite mixed and CHGCAR
   VOSKOWN=      0    Vosko Wilk Nusair interpolation
   ROPT   =   -0.00025
 Ionic relaxation
   EDIFFG = 0.1E-04   stopping-criterion for IOM
   NSW    =      0    number of steps for IOM
   NBLOCK =      1;   KBLOCK =      1    inner block; outer block 
   IBRION =     -1    ionic relax: 0-MD 1-quasi-New 2-CG
   NFREE  =      0    steps in history (QN), initial steepest desc. (CG)
   ISIF   =      2    stress and relaxation
   IWAVPR =     10    prediction:  0-non 1-charg 2-wave 3-comb
   ISYM   =      2    0-nonsym 1-usesym 2-fastsym
   LCORR  =      T    Harris-Foulkes like correction to forces

   POTIM  = 0.5000    time-step for ionic-motion
   TEIN   =    0.0    initial temperature
   TEBEG  =    0.0;   TEEND  =   0.0 temperature during run
   SMASS  =  -3.00    Nose mass-parameter (am)
   estimated Nose-frequenzy (Omega)   =  0.10E-29 period in steps = 0.13E+47 mass=  -0.180E-25a.u.
   SCALEE = 1.0000    scale energy and forces
   NPACO  =    256;   APACO  = 10.0  distance and # of slots for P.C.
   PSTRESS=    0.0 pullay stress

  Mass of Ions in am
   POMASS =  12.01
  Ionic Valenz
   ZVAL   =   4.00
  Atomic Wigner-Seitz radii
   RWIGS  =  -1.00
  virtual crystal weights 
   VCA    =   1.00
   NELECT =     368.0000    total number of electrons
   NUPDOWN=      -1.0000    fix difference up-down

 DOS related values:
   EMIN   =  10.00;   EMAX   =-10.00  energy-range for DOS
   EFERMI =   0.00;   METHOD = LEGACY      
   ISMEAR =     0;   SIGMA  =   0.20  broadening in eV -4-tet -1-fermi 0-gaus
   EFERMI_NEDOS =   21; number of points for ismear=-14 and -15

 Electronic relaxation 2 (details)
   IALGO  =     38    algorithm
   LDIAG  =      T    sub-space diagonalisation (order eigenvalues)
   LSUBROT=      F    optimize rotation matrix (better conditioning)
   TURBO    =      0    0=normal 1=particle mesh
   IRESTART =      0    0=no restart 2=restart with 2 vectors
   NREBOOT  =      0    no. of reboots
   NMIN     =      0    reboot dimension
   EREF     =   0.00    reference energy to select bands
   IMIX   =      4    mixing-type and parameters
     AMIX     =   0.40;   BMIX     =  1.00
     AMIX_MAG =   1.60;   BMIX_MAG =  1.00
     AMIN     =   0.10
     WC   =   100.;   INIMIX=   1;  MIXPRE=   1;  MAXMIX= -45

 Intra band minimization:
   WEIMIN = 0.0000     energy-eigenvalue tresh-hold
   EBREAK =  0.11E-08  absolut break condition
   DEPER  =   0.30     relativ break condition  

   TIME   =   0.40     timestep for ELM

  volume/ion in A,a.u.               =      82.73       558.30
  Fermi-wavevector in a.u.,A,eV,Ry     =   0.596398  1.127030  4.839472  0.355691
  Thomas-Fermi vector in A             =   1.646729
 
 Write flags
   LWAVE        =      F    write WAVECAR
   LDOWNSAMPLE  =      F    k-point downsampling of WAVECAR
   LCHARG       =      F    write CHGCAR
   LVTOT        =      F    write LOCPOT, total local potential
   LVHAR        =      F    write LOCPOT, Hartree potential only
   WRT_POTENTIAL= false  ! write potential to hdf5 file
   LELF         =      F    write electronic localiz. function (ELF)
   LORBIT       =      0    0 simple, 1 ext, 2 COOP (PROOUT), +10 PAW based schemes


 Python interface
   PLUGINS active      =      F    recompile with -DPLUGINS to activate
 
 Dipole corrections
   LMONO      =      F    monopole corrections only (constant potential shift)
   LDIPOL     =      F    correct potential (dipole corrections)
   IDIPOL     =      0    1-x, 2-y, 3-z, 4-all directions 
   EPSILON    =  1.0000000 bulk dielectric constant
   LVACPOTAV  =      F  vacuum potentials using an averaging scheme for the charge density
   VACPOTFLAT =  0.1000000 required flatness to determine vacuum potential
 
Coulomb truncation method
  LTRUNCATE          =      F  Coulomb kernel truncation to be used
  IDIMENSIONALITY    =      3  Dimensionality of cutoff (0 molecules / 2 surfaces)
  ISURFACE           =     -1  Direction of surface normal
  LCOARSEN           =      F  Coarsen the charge grid before padding, preferred

 
 Exchange correlation treatment:
   GGA     = PE    functional components
   XC_C    = 1    coefficients multiplying the functional components
   LIBXC   =     F    Libxc                    
   VOSKOWN =     0    Vosko Wilk Nusair interpolation
   LHFCALC =     F    Hartree Fock is set to
   LHFONE  =     F    Hartree Fock one center treatment
   AEXX    =    0.0000 exact exchange contribution

 Parameters of functionals:
   PE:
     No parameter
 
 Van der Waals corrections
   IVDW    =     0    specifies the selected vdW correction

 Linear response parameters
   LEPSILON=     F    determine dielectric tensor
   LRPA    =     F    only Hartree local field effects (RPA)
   LNABLA  =     F    use nabla operator in PAW spheres
   LVEL    =     F    velocity operator in full k-point grid
   CSHIFT  =0.1000    complex shift for real part using Kramers Kronig
   OMEGAMAX=  -1.0    maximum frequency
   DEG_THRESHOLD= 0.2000000E-02 threshold for treating states as degnerate
   RTIME   =   -0.100 relaxation time in fs
  (WPLASMAI=    0.000 imaginary part of plasma frequency in eV, 0.658/RTIME)
   DFIELD  = 0.0000000 0.0000000 0.0000000 field for delta impulse in time
 
  Optional k-point grid parameters
   LKPOINTS_OPT  =     F    use optional k-point grid
   KPOINTS_OPT_MODE=     1    mode for optional k-point grid
 
 Orbital magnetization related:
   ORBITALMAG=     F  switch on orbital magnetization
   LCHIMAG   =     F  perturbation theory with respect to B field
   DQ        =  0.001000  dq finite difference perturbation B field
   LLRAUG    =     F  two centre corrections for induced B field
   LBONE     =     F  B-component reconstruction in AE one-centre
   LVGVCALC  =     T  calculate vGv susceptibility
   LVGVAPPL  =     F  apply vGv susceptibility instead of pGv for G=0

 Random number generation:
   RANDOM_GENERATOR = DEFAULT
   PCG_SEED         = not used


--------------------------------------------------------------------------------------------------------


 Static calculation
 charge density and potential will be updated during run
 non-spin polarized calculation
 Variant of blocked Davidson
 Davidson routine will perform the subspace rotation
 perform sub-space diagonalisation
    after iterative eigenvector-optimisation
 modified Broyden-mixing scheme, WC =      100.0
 initial mixing is a Kerker type mixing with AMIX =  0.4000 and BMIX =      1.0000
 Hartree-type preconditioning will be used
 using additional bands            48
 real space projection scheme for non local part
 use partial core corrections
 calculate Harris-corrections to forces 
   (improved forces if not selfconsistent)
 use gradient corrections 
 use of overlap-Matrix (Vanderbilt PP)
 Gauss-broadening in eV      SIGMA  =   0.20


--------------------------------------------------------------------------------------------------------


  energy-cutoff  :      500.00
  volume of cell :     7611.37
      direct lattice vectors                 reciprocal lattice vectors
    28.050000000  0.000000000  0.000000000     0.035650624  0.000000000  0.000000000
     0.000000000  8.100000000  0.000000000     0.000000000  0.123456790  0.000000000
     0.000000000  0.000000000 33.500000000     0.000000000  0.000000000  0.029850746

  length of vectors
    28.050000000  8.100000000 33.500000000     0.035650624  0.123456790  0.029850746


 
 k-points in units of 2pi/SCALE and weight: K-Spacing Value to Generate K-Mesh: 0.03
   0.00000000  0.00000000  0.00000000       0.250
   0.00000000  0.03086420  0.00000000       0.500
   0.00000000  0.06172840  0.00000000       0.250
 
 k-points in reciprocal lattice and weights: K-Spacing Value to Generate K-Mesh: 0.03
   0.00000000  0.00000000  0.00000000       0.250
   0.00000000  0.25000000  0.00000000       0.500
   0.00000000  0.50000000  0.00000000       0.250
 
 position of ions in fractional coordinates (direct lattice) 
   0.02438927  0.71416667  0.54000000
   0.02427879  0.88855926  0.54179104
   0.06732977  0.63161111  0.54417910
   0.06694474  0.97115802  0.54805970
   0.10852727  0.71572469  0.55731343
   0.10983886  0.88653704  0.55880597
   0.15459251  0.63781358  0.55731343
   0.15474795  0.97076173  0.56238806
   0.19958075  0.71525679  0.56328358
   0.19946417  0.88469630  0.56537313
   0.24422317  0.63581975  0.55880597
   0.24449376  0.96855926  0.56417910
   0.28880963  0.71896914  0.55492537
   0.28920463  0.88685062  0.55820896
   0.33125348  0.63750370  0.54149254
   0.33463529  0.97081235  0.55223881
   0.37526203  0.72090247  0.53522388
   0.37751159  0.88516790  0.54179104
   0.41542959  0.63575926  0.51910448
   0.41984314  0.97136543  0.52985075
   0.45996078  0.71642469  0.51134328
   0.46231016  0.88286914  0.51761194
   0.49978610  0.63781605  0.49373134
   0.50346168  0.97142469  0.50417910
   0.54353654  0.72086049  0.48597015
   0.54630303  0.88635309  0.49373134
   0.58537611  0.63957778  0.47223881
   0.58858824  0.97135185  0.48388060
   0.63066667  0.72290494  0.46746269
   0.63124421  0.89002840  0.47432836
   0.67474510  0.64097531  0.46208955
   0.67618182  0.97121852  0.47283582
   0.72115152  0.72051975  0.46656716
   0.72008913  0.88593827  0.47492537
   0.76587166  0.64012222  0.46716418
   0.76428877  0.96999259  0.47820896
   0.80807487  0.72065679  0.47910448
   0.80744029  0.88749383  0.48388060
   0.85267736  0.63999259  0.48417910
   0.84981818  0.96873333  0.49373134
   0.89326560  0.71947531  0.49791045
   0.89169697  0.88793580  0.50417910
   0.93613191  0.63644568  0.50597015
   0.93427807  0.97045185  0.51492537
   0.97376471  0.71491852  0.52597015
   0.97381462  0.88706790  0.52865672
   0.03027594  0.21339383  0.52000000
   0.03113665  0.38828025  0.51791045
   0.06910909  0.13262469  0.53611940
   0.07089626  0.46945679  0.53283582
   0.11368200  0.21750370  0.54238806
   0.11380749  0.38616667  0.53820896
   0.15542460  0.13801605  0.55582090
   0.15644848  0.47199753  0.54746269
   0.19981961  0.21950494  0.55671642
   0.19942745  0.38625679  0.55164179
   0.24454439  0.13655556  0.55910448
   0.24400178  0.46887901  0.55253731
   0.28824670  0.21601605  0.55223881
   0.28739287  0.38164074  0.54656716
   0.33332264  0.13591605  0.54686567
   0.33037077  0.47157901  0.53611940
   0.37321925  0.21677284  0.52835821
   0.37054189  0.38716667  0.52358209
   0.41674153  0.13714321  0.52268657
   0.41240285  0.47104815  0.51104478
   0.45686631  0.21959136  0.50597015
   0.45485205  0.38509506  0.49940299
   0.50140107  0.14006543  0.50119403
   0.49777184  0.47024321  0.48626866
   0.54310517  0.22281852  0.48626866
   0.54056684  0.38964691  0.47701493
   0.58757576  0.14085802  0.48089552
   0.58481640  0.47163951  0.46925373
   0.63140820  0.22300494  0.47223881
   0.63016756  0.39155309  0.46507463
   0.67648841  0.13898148  0.47164179
   0.67535829  0.47159383  0.46149254
   0.72004635  0.22306543  0.46835821
   0.72111586  0.39128642  0.46179104
   0.76439929  0.13980123  0.47223881
   0.76560428  0.47078889  0.46477612
   0.80973262  0.21838642  0.47402985
   0.81053476  0.38841728  0.46955224
   0.85198574  0.13500864  0.48537313
   0.85440285  0.46969630  0.47582090
   0.89616756  0.21774074  0.48955224
   0.89850624  0.38471358  0.48328358
   0.93727986  0.13337778  0.50268657
   0.93939394  0.47340988  0.49552239
   0.98047772  0.21485309  0.50716418
   0.98185740  0.38403333  0.50417910
 
 position of ions in cartesian coordinates  (Angst):
   0.68411900  5.78475000 18.09000000
   0.68102000  7.19733000 18.15000000
   1.88860000  5.11605000 18.23000000
   1.87780000  7.86638000 18.36000000
   3.04419000  5.79737000 18.67000000
   3.08098000  7.18095000 18.72000000
   4.33632000  5.16629000 18.67000000
   4.34068000  7.86317000 18.84000000
   5.59824000  5.79358000 18.87000000
   5.59497000  7.16604000 18.94000000
   6.85046000  5.15014000 18.72000000
   6.85805000  7.84533000 18.90000000
   8.10111000  5.82365000 18.59000000
   8.11219000  7.18349000 18.70000000
   9.29166000  5.16378000 18.14000000
   9.38652000  7.86358000 18.50000000
  10.52610000  5.83931000 17.93000000
  10.58920000  7.16986000 18.15000000
  11.65280000  5.14965000 17.39000000
  11.77660000  7.86806000 17.75000000
  12.90190000  5.80304000 17.13000000
  12.96780000  7.15124000 17.34000000
  14.01900000  5.16631000 16.54000000
  14.12210000  7.86854000 16.89000000
  15.24620000  5.83897000 16.28000000
  15.32380000  7.17946000 16.54000000
  16.41980000  5.18058000 15.82000000
  16.50990000  7.86795000 16.21000000
  17.69020000  5.85553000 15.66000000
  17.70640000  7.20923000 15.89000000
  18.92660000  5.19190000 15.48000000
  18.96690000  7.86687000 15.84000000
  20.22830000  5.83621000 15.63000000
  20.19850000  7.17610000 15.91000000
  21.48270000  5.18499000 15.65000000
  21.43830000  7.85694000 16.02000000
  22.66650000  5.83732000 16.05000000
  22.64870000  7.18870000 16.21000000
  23.91760000  5.18394000 16.22000000
  23.83740000  7.84674000 16.54000000
  25.05610000  5.82775000 16.68000000
  25.01210000  7.19228000 16.89000000
  26.25850000  5.15521000 16.95000000
  26.20650000  7.86066000 17.25000000
  27.31410000  5.79084000 17.62000000
  27.31550000  7.18525000 17.71000000
   0.84924000  1.72849000 17.42000000
   0.87338300  3.14507000 17.35000000
   1.93851000  1.07426000 17.96000000
   1.98864000  3.80260000 17.85000000
   3.18878000  1.76178000 18.17000000
   3.19230000  3.12795000 18.03000000
   4.35966000  1.11793000 18.62000000
   4.38838000  3.82318000 18.34000000
   5.60494000  1.77799000 18.65000000
   5.59394000  3.12868000 18.48000000
   6.85947000  1.10610000 18.73000000
   6.84425000  3.79792000 18.51000000
   8.08532000  1.74973000 18.50000000
   8.06137000  3.09129000 18.31000000
   9.34970000  1.10092000 18.32000000
   9.26690000  3.81979000 17.96000000
  10.46880000  1.75586000 17.70000000
  10.39370000  3.13605000 17.54000000
  11.68960000  1.11086000 17.51000000
  11.56790000  3.81549000 17.12000000
  12.81510000  1.77869000 16.95000000
  12.75860000  3.11927000 16.73000000
  14.06430000  1.13453000 16.79000000
  13.96250000  3.80897000 16.29000000
  15.23410000  1.80483000 16.29000000
  15.16290000  3.15614000 15.98000000
  16.48150000  1.14095000 16.11000000
  16.40410000  3.82028000 15.72000000
  17.71100000  1.80634000 15.82000000
  17.67620000  3.17158000 15.58000000
  18.97550000  1.12575000 15.80000000
  18.94380000  3.81991000 15.46000000
  20.19730000  1.80683000 15.69000000
  20.22730000  3.16942000 15.47000000
  21.44140000  1.13239000 15.82000000
  21.47520000  3.81339000 15.57000000
  22.71300000  1.76893000 15.88000000
  22.73550000  3.14618000 15.73000000
  23.89820000  1.09357000 16.26000000
  23.96600000  3.80454000 15.94000000
  25.13750000  1.76370000 16.40000000
  25.20310000  3.11618000 16.19000000
  26.29070000  1.08036000 16.84000000
  26.35000000  3.83462000 16.60000000
  27.50240000  1.74031000 16.99000000
  27.54110000  3.11067000 16.89000000
 


--------------------------------------------------------------------------------------------------------


 k-point     1 :   0.0000 0.0000 0.0000  plane waves:  193173
 k-point     2 :   0.0000 0.2500 0.0000  plane waves:  193166
 k-point     3 :   0.0000 0.5000 0.0000  plane waves:  193226

 maximum and minimum number of plane-waves per node :    193226   193166

 maximum number of plane-waves:    193226
 maximum index in each direction: 
   IXMAX=   51   IYMAX=   14   IZMAX=   61
   IXMIN=  -51   IYMIN=  -15   IZMIN=  -61


 serial   3D FFT for wavefunctions
 parallel 3D FFT for charge:
    minimum data exchange during FFTs selected (reduces bandwidth)


 total amount of memory used by VASP MPI-rank0  2294516. kBytes
=======================================================================

   base                                    :      30000. kBytes
   nonlr-proj                              :      15082. kBytes
   fftplans                                :     436558. kBytes
   grid                                    :     732614. kBytes
   one-center                              :        282. kBytes
   wavefun                                 :    1079980. kBytes
 
     INWAV:  cpu time      0.0000: real time      0.0000
 Broyden mixing: mesh for mixing (old mesh)
   NGX =103   NGY = 29   NGZ =123
  (NGX  =420   NGY  =120   NGZ  =500)
  gives a total of 367401 points

 initial charge density was supplied:
 charge density of overlapping atoms calculated
 number of electron     368.0000000 magnetization 
 keeping initial charge density in first step


--------------------------------------------------------------------------------------------------------


 Maximum index for non-local projection operator          1873
 Maximum index for augmentation-charges          2388 (set IRDMAX)


--------------------------------------------------------------------------------------------------------


 First call to EWALD:  gamma=   0.090
 Maximum number of real-space cells   2x   6x   2
 Maximum number of reciprocal cells   4x   1x   4

    FEWALD:  cpu time      0.1603: real time      0.1604


--------------------------------------- Ionic step        1  -------------------------------------------




--------------------------------------- Iteration      1(   1)  ---------------------------------------


    POTLOK:  cpu time      0.4145: real time      0.4354
    SETDIJ:  cpu time      0.0417: real time      0.0417
     EDDAV:  cpu time     11.0592: real time     11.0663
       DOS:  cpu time      0.0008: real time      0.0008
    --------------------------------------------
      LOOP:  cpu time     11.5162: real time     11.5442

 eigenvalue-minimisations  :  1704
 total energy-change (2. order) : 0.3704924E+04  (-0.1188391E+05)
 number of electron     368.0000000 magnetization 
 augmentation part      368.0000000 magnetization 

 Free energy of the ion-electron system (eV)
  ---------------------------------------------------
  alpha Z        PSCENC =        91.34886789
  Ewald energy   TEWEN  =    119598.47401011
  -Hartree energ DENC   =   -128934.91262291
  -exchange      EXHF   =         0.00000000
  -V(xc)+E(xc)   XCENC  =      1220.80934871
  PAW double counting   =      9984.02826696   -10036.41360137
  entropy T*S    EENTRO =        -0.84135029
  eigenvalues    EBANDS =     -1755.22411546
  atomic energy  EATOM  =     13537.65479391
  Solvation  Ediel_sol  =         0.00000000
  ---------------------------------------------------
  free energy    TOTEN  =      3704.92359756 eV

  energy without entropy =     3705.76494786  energy(sigma->0) =     3705.34427271


--------------------------------------------------------------------------------------------------------




--------------------------------------- Iteration      1(   2)  ---------------------------------------


     EDDAV:  cpu time     13.1138: real time     13.1185
       DOS:  cpu time      0.0007: real time      0.0007
    --------------------------------------------
      LOOP:  cpu time     13.1145: real time     13.1192

 eigenvalue-minimisations  :  2136
 total energy-change (2. order) :-0.3524271E+04  (-0.3266627E+04)
 number of electron     368.0000000 magnetization 
 augmentation part      368.0000000 magnetization 

 Free energy of the ion-electron system (eV)
  ---------------------------------------------------
  alpha Z        PSCENC =        91.34886789
  Ewald energy   TEWEN  =    119598.47401011
  -Hartree energ DENC   =   -128934.91262291
  -exchange      EXHF   =         0.00000000
  -V(xc)+E(xc)   XCENC  =      1220.80934871
  PAW double counting   =      9984.02826696   -10036.41360137
  entropy T*S    EENTRO =        -0.24645208
  eigenvalues    EBANDS =     -5280.09046727
  atomic energy  EATOM  =     13537.65479391
  Solvation  Ediel_sol  =         0.00000000
  ---------------------------------------------------
  free energy    TOTEN  =       180.65214396 eV

  energy without entropy =      180.89859604  energy(sigma->0) =      180.77537000


--------------------------------------------------------------------------------------------------------




--------------------------------------- Iteration      1(   3)  ---------------------------------------


     EDDAV:  cpu time     11.3021: real time     11.3060
       DOS:  cpu time      0.0007: real time      0.0007
    --------------------------------------------
      LOOP:  cpu time     11.3028: real time     11.3067

 eigenvalue-minimisations  :  1784
 total energy-change (2. order) :-0.1017320E+04  (-0.9926028E+03)
 number of electron     368.0000000 magnetization 
 augmentation part      368.0000000 magnetization 

 Free energy of the ion-electron system (eV)
  ---------------------------------------------------
  alpha Z        PSCENC =        91.34886789
  Ewald energy   TEWEN  =    119598.47401011
  -Hartree energ DENC   =   -128934.91262291
  -exchange      EXHF   =         0.00000000
  -V(xc)+E(xc)   XCENC  =      1220.80934871
  PAW double counting   =      9984.02826696   -10036.41360137
  entropy T*S    EENTRO =        -0.02214775
  eigenvalues    EBANDS =     -6297.63455069
  atomic energy  EATOM  =     13537.65479391
  Solvation  Ediel_sol  =         0.00000000
  ---------------------------------------------------
  free energy    TOTEN  =      -836.66763513 eV

  energy without entropy =     -836.64548737  energy(sigma->0) =     -836.65656125


--------------------------------------------------------------------------------------------------------




--------------------------------------- Iteration      1(   4)  ---------------------------------------


     EDDAV:  cpu time     11.0069: real time     11.0109
       DOS:  cpu time      0.0007: real time      0.0007
    --------------------------------------------
      LOOP:  cpu time     11.0076: real time     11.0116

 eigenvalue-minimisations  :  1728
 total energy-change (2. order) :-0.6171630E+02  (-0.6070582E+02)
 number of electron     368.0000000 magnetization 
 augmentation part      368.0000000 magnetization 

 Free energy of the ion-electron system (eV)
  ---------------------------------------------------
  alpha Z        PSCENC =        91.34886789
  Ewald energy   TEWEN  =    119598.47401011
  -Hartree energ DENC   =   -128934.91262291
  -exchange      EXHF   =         0.00000000
  -V(xc)+E(xc)   XCENC  =      1220.80934871
  PAW double counting   =      9984.02826696   -10036.41360137
  entropy T*S    EENTRO =        -0.06267707
  eigenvalues    EBANDS =     -6359.31032244
  atomic energy  EATOM  =     13537.65479391
  Solvation  Ediel_sol  =         0.00000000
  ---------------------------------------------------
  free energy    TOTEN  =      -898.38393620 eV

  energy without entropy =     -898.32125913  energy(sigma->0) =     -898.35259767


--------------------------------------------------------------------------------------------------------




--------------------------------------- Iteration      1(   5)  ---------------------------------------


     EDDAV:  cpu time     11.1503: real time     11.1543
       DOS:  cpu time      0.0007: real time      0.0007
    CHARGE:  cpu time      1.2063: real time      1.2103
    MIXING:  cpu time      0.2729: real time      0.2740
    --------------------------------------------
      LOOP:  cpu time     12.6302: real time     12.6394

 eigenvalue-minimisations  :  1760
 total energy-change (2. order) :-0.1486427E+01  (-0.1465917E+01)
 number of electron     367.9999987 magnetization 
 augmentation part       10.1323001 magnetization 

 Broyden mixing:
  rms(total) = 0.45261E+01    rms(broyden)= 0.45255E+01
  rms(prec ) = 0.46426E+01
  weight for this iteration     100.00

 Free energy of the ion-electron system (eV)
  ---------------------------------------------------
  alpha Z        PSCENC =        91.34886789
  Ewald energy   TEWEN  =    119598.47401011
  -Hartree energ DENC   =   -128934.91262291
  -exchange      EXHF   =         0.00000000
  -V(xc)+E(xc)   XCENC  =      1220.80934871
  PAW double counting   =      9984.02826696   -10036.41360137
  entropy T*S    EENTRO =        -0.06370395
  eigenvalues    EBANDS =     -6360.79572283
  atomic energy  EATOM  =     13537.65479391
  Solvation  Ediel_sol  =         0.00000000
  ---------------------------------------------------
  free energy    TOTEN  =      -899.87036346 eV

  energy without entropy =     -899.80665951  energy(sigma->0) =     -899.83851149


--------------------------------------------------------------------------------------------------------




--------------------------------------- Iteration      1(   6)  ---------------------------------------


    POTLOK:  cpu time      0.3226: real time      0.3226
    SETDIJ:  cpu time      0.0406: real time      0.0406
     EDDAV:  cpu time     10.2886: real time     10.2925
       DOS:  cpu time      0.0007: real time      0.0007
    CHARGE:  cpu time      1.1583: real time      1.1606
    MIXING:  cpu time      0.2770: real time      0.2771
    --------------------------------------------
      LOOP:  cpu time     12.0878: real time     12.0941

 eigenvalue-minimisations  :  1584
 total energy-change (2. order) : 0.4889604E+02  (-0.4623127E+01)
 number of electron     367.9999987 magnetization 
 augmentation part        9.7132131 magnetization 

 Broyden mixing:
  rms(total) = 0.26597E+01    rms(broyden)= 0.26596E+01
  rms(prec ) = 0.27175E+01
  weight for this iteration     100.00

 eigenvalues of (default mixing * dielectric matrix)
  average eigenvalue GAMMA=   2.1888
  2.1888

 Free energy of the ion-electron system (eV)
  ---------------------------------------------------
  alpha Z        PSCENC =        91.34886789
  Ewald energy   TEWEN  =    119598.47401011
  -Hartree energ DENC   =   -129502.18077956
  -exchange      EXHF   =         0.00000000
  -V(xc)+E(xc)   XCENC  =      1244.05061243
  PAW double counting   =     18900.73282560   -18960.68236899
  entropy T*S    EENTRO =        -0.07074027
  eigenvalues    EBANDS =     -5760.30153970
  atomic energy  EATOM  =     13537.65479391
  Solvation  Ediel_sol  =         0.00000000
  ---------------------------------------------------
  free energy    TOTEN  =      -850.97431858 eV

  energy without entropy =     -850.90357831  energy(sigma->0) =     -850.93894845


--------------------------------------------------------------------------------------------------------




--------------------------------------- Iteration      1(   7)  ---------------------------------------


    POTLOK:  cpu time      0.3219: real time      0.3220
    SETDIJ:  cpu time      0.0404: real time      0.0404
     EDDAV:  cpu time     10.2049: real time     10.2084
       DOS:  cpu time      0.0007: real time      0.0007
    CHARGE:  cpu time      1.1556: real time      1.1572
    MIXING:  cpu time      0.2802: real time      0.2802
    --------------------------------------------
      LOOP:  cpu time     12.0038: real time     12.0090

 eigenvalue-minimisations  :  1568
 total energy-change (2. order) : 0.1830292E+02  (-0.6467265E+01)
 number of electron     367.9999987 magnetization 
 augmentation part        9.1587955 magnetization 

 Broyden mixing:
  rms(total) = 0.72416E+00    rms(broyden)= 0.72388E+00
  rms(prec ) = 0.73380E+00
  weight for this iteration     100.00

 eigenvalues of (default mixing * dielectric matrix)
  average eigenvalue GAMMA=   2.2262
  2.2262  2.2262

 Free energy of the ion-electron system (eV)
  ---------------------------------------------------
  alpha Z        PSCENC =        91.34886789
  Ewald energy   TEWEN  =    119598.47401011
  -Hartree energ DENC   =   -130265.44070740
  -exchange      EXHF   =         0.00000000
  -V(xc)+E(xc)   XCENC  =      1275.15188279
  PAW double counting   =     36484.52469828   -36551.35955649
  entropy T*S    EENTRO =        -0.08018003
  eigenvalues    EBANDS =     -5002.94521082
  atomic energy  EATOM  =     13537.65479391
  Solvation  Ediel_sol  =         0.00000000
  ---------------------------------------------------
  free energy    TOTEN  =      -832.67140176 eV

  energy without entropy =     -832.59122172  energy(sigma->0) =     -832.63131174


--------------------------------------------------------------------------------------------------------




--------------------------------------- Iteration      1(   8)  ---------------------------------------


    POTLOK:  cpu time      0.3222: real time      0.3222
    SETDIJ:  cpu time      0.0402: real time      0.0402
     EDDAV:  cpu time     10.3637: real time     10.3697
       DOS:  cpu time      0.0007: real time      0.0007
    CHARGE:  cpu time      1.1529: real time      1.1550
    MIXING:  cpu time      0.2799: real time      0.2810
    --------------------------------------------
      LOOP:  cpu time     12.1597: real time     12.1688

 eigenvalue-minimisations  :  1600
 total energy-change (2. order) : 0.2847896E+00  (-0.2327891E+00)
 number of electron     367.9999987 magnetization 
 augmentation part        9.1471508 magnetization 

 Broyden mixing:
  rms(total) = 0.91656E-01    rms(broyden)= 0.91624E-01
  rms(prec ) = 0.11479E+00
  weight for this iteration     100.00

 eigenvalues of (default mixing * dielectric matrix)
  average eigenvalue GAMMA=   1.8579
  1.1981  2.4349  1.9406

 Free energy of the ion-electron system (eV)
  ---------------------------------------------------
  alpha Z        PSCENC =        91.34886789
  Ewald energy   TEWEN  =    119598.47401011
  -Hartree energ DENC   =   -130357.99346767
  -exchange      EXHF   =         0.00000000
  -V(xc)+E(xc)   XCENC  =      1274.81754853
  PAW double counting   =     40731.19726497   -40795.26936485
  entropy T*S    EENTRO =        -0.07569702
  eigenvalues    EBANDS =     -4912.54056803
  atomic energy  EATOM  =     13537.65479391
  Solvation  Ediel_sol  =         0.00000000
  ---------------------------------------------------
  free energy    TOTEN  =      -832.38661215 eV

  energy without entropy =     -832.31091513  energy(sigma->0) =     -832.34876364


--------------------------------------------------------------------------------------------------------




--------------------------------------- Iteration      1(   9)  ---------------------------------------


    POTLOK:  cpu time      0.3221: real time      0.3222
    SETDIJ:  cpu time      0.0402: real time      0.0402
     EDDAV:  cpu time     10.7342: real time     10.7377
       DOS:  cpu time      0.0007: real time      0.0007
    CHARGE:  cpu time      1.1558: real time      1.1571
    MIXING:  cpu time      0.2852: real time      0.2868
    --------------------------------------------
      LOOP:  cpu time     12.5383: real time     12.5448

 eigenvalue-minimisations  :  1672
 total energy-change (2. order) : 0.9982892E-01  (-0.2504675E-01)
 number of electron     367.9999987 magnetization 
 augmentation part        9.1219968 magnetization 

 Broyden mixing:
  rms(total) = 0.55458E-01    rms(broyden)= 0.55449E-01
  rms(prec ) = 0.77092E-01
  weight for this iteration     100.00

 eigenvalues of (default mixing * dielectric matrix)
  average eigenvalue GAMMA=   1.7113
  2.2250  2.2250  1.1352  1.2598

 Free energy of the ion-electron system (eV)
  ---------------------------------------------------
  alpha Z        PSCENC =        91.34886789
  Ewald energy   TEWEN  =    119598.47401011
  -Hartree energ DENC   =   -130424.70701280
  -exchange      EXHF   =         0.00000000
  -V(xc)+E(xc)   XCENC  =      1276.23593071
  PAW double counting   =     41178.58619576   -41242.80072546
  entropy T*S    EENTRO =        -0.07712526
  eigenvalues    EBANDS =     -4847.00171810
  atomic energy  EATOM  =     13537.65479391
  Solvation  Ediel_sol  =         0.00000000
  ---------------------------------------------------
  free energy    TOTEN  =      -832.28678323 eV

  energy without entropy =     -832.20965797  energy(sigma->0) =     -832.24822060


--------------------------------------------------------------------------------------------------------




--------------------------------------- Iteration      1(  10)  ---------------------------------------


    POTLOK:  cpu time      0.3220: real time      0.3220
    SETDIJ:  cpu time      0.0403: real time      0.0403
     EDDAV:  cpu time     11.0383: real time     11.0421
       DOS:  cpu time      0.0008: real time      0.0008
    CHARGE:  cpu time      1.1546: real time      1.1575
    MIXING:  cpu time      0.2919: real time      0.2932
    --------------------------------------------
      LOOP:  cpu time     12.8478: real time     12.8558

 eigenvalue-minimisations  :  1736
 total energy-change (2. order) : 0.4015728E-01  (-0.4062445E-02)
 number of electron     367.9999987 magnetization 
 augmentation part        9.1135153 magnetization 

 Broyden mixing:
  rms(total) = 0.34456E-01    rms(broyden)= 0.34454E-01
  rms(prec ) = 0.53605E-01
  weight for this iteration     100.00

 eigenvalues of (default mixing * dielectric matrix)
  average eigenvalue GAMMA=   1.7713
  2.5496  2.5496  1.7249  1.1831  0.8493

 Free energy of the ion-electron system (eV)
  ---------------------------------------------------
  alpha Z        PSCENC =        91.34886789
  Ewald energy   TEWEN  =    119598.47401011
  -Hartree energ DENC   =   -130478.30523651
  -exchange      EXHF   =         0.00000000
  -V(xc)+E(xc)   XCENC  =      1276.59291248
  PAW double counting   =     40921.10925384   -40985.18353899
  entropy T*S    EENTRO =        -0.07706211
  eigenvalues    EBANDS =     -4793.86062657
  atomic energy  EATOM  =     13537.65479391
  Solvation  Ediel_sol  =         0.00000000
  ---------------------------------------------------
  free energy    TOTEN  =      -832.24662596 eV

  energy without entropy =     -832.16956385  energy(sigma->0) =     -832.20809490


--------------------------------------------------------------------------------------------------------




--------------------------------------- Iteration      1(  11)  ---------------------------------------


    POTLOK:  cpu time      0.3215: real time      0.3216
    SETDIJ:  cpu time      0.0403: real time      0.0403
     EDDAV:  cpu time     10.0699: real time     10.0735
       DOS:  cpu time      0.0007: real time      0.0007
    CHARGE:  cpu time      1.1679: real time      1.1683
    MIXING:  cpu time      0.2980: real time      0.2989
    --------------------------------------------
      LOOP:  cpu time     11.8984: real time     11.9033

 eigenvalue-minimisations  :  1544
 total energy-change (2. order) : 0.2857289E-01  (-0.2772547E-02)
 number of electron     367.9999987 magnetization 
 augmentation part        9.1072876 magnetization 

 Broyden mixing:
  rms(total) = 0.22881E-01    rms(broyden)= 0.22879E-01
  rms(prec ) = 0.35219E-01
  weight for this iteration     100.00

 eigenvalues of (default mixing * dielectric matrix)
  average eigenvalue GAMMA=   1.8137
  3.1650  2.4515  1.9639  0.9139  1.1941  1.1941

 Free energy of the ion-electron system (eV)
  ---------------------------------------------------
  alpha Z        PSCENC =        91.34886789
  Ewald energy   TEWEN  =    119598.47401011
  -Hartree energ DENC   =   -130549.21086369
  -exchange      EXHF   =         0.00000000
  -V(xc)+E(xc)   XCENC  =      1277.26649700
  PAW double counting   =     40881.07826159   -40945.05736454
  entropy T*S    EENTRO =        -0.07692782
  eigenvalues    EBANDS =     -4723.69532752
  atomic energy  EATOM  =     13537.65479391
  Solvation  Ediel_sol  =         0.00000000
  ---------------------------------------------------
  free energy    TOTEN  =      -832.21805306 eV

  energy without entropy =     -832.14112524  energy(sigma->0) =     -832.17958915


--------------------------------------------------------------------------------------------------------




--------------------------------------- Iteration      1(  12)  ---------------------------------------


    POTLOK:  cpu time      0.3205: real time      0.3205
    SETDIJ:  cpu time      0.0406: real time      0.0406
     EDDAV:  cpu time      9.8614: real time      9.8648
       DOS:  cpu time      0.0008: real time      0.0008
    CHARGE:  cpu time      1.1567: real time      1.1569
    MIXING:  cpu time      0.3079: real time      0.3079
    --------------------------------------------
      LOOP:  cpu time     11.6879: real time     11.6915

 eigenvalue-minimisations  :  1504
 total energy-change (2. order) : 0.2958445E-03  (-0.1837829E-02)
 number of electron     367.9999987 magnetization 
 augmentation part        9.1006295 magnetization 

 Broyden mixing:
  rms(total) = 0.14401E-01    rms(broyden)= 0.14397E-01
  rms(prec ) = 0.21961E-01
  weight for this iteration     100.00

 eigenvalues of (default mixing * dielectric matrix)
  average eigenvalue GAMMA=   2.1073
  5.0426  2.4661  2.0467  2.0467  0.9357  1.1068  1.1068

 Free energy of the ion-electron system (eV)
  ---------------------------------------------------
  alpha Z        PSCENC =        91.34886789
  Ewald energy   TEWEN  =    119598.47401011
  -Hartree energ DENC   =   -130606.57558786
  -exchange      EXHF   =         0.00000000
  -V(xc)+E(xc)   XCENC  =      1277.80028519
  PAW double counting   =     40945.21426457   -41009.18891459
  entropy T*S    EENTRO =        -0.07725512
  eigenvalues    EBANDS =     -4666.86822133
  atomic energy  EATOM  =     13537.65479391
  Solvation  Ediel_sol  =         0.00000000
  ---------------------------------------------------
  free energy    TOTEN  =      -832.21775722 eV

  energy without entropy =     -832.14050210  energy(sigma->0) =     -832.17912966


--------------------------------------------------------------------------------------------------------




--------------------------------------- Iteration      1(  13)  ---------------------------------------


    POTLOK:  cpu time      0.3224: real time      0.3225
    SETDIJ:  cpu time      0.0403: real time      0.0403
     EDDAV:  cpu time      9.9383: real time      9.9417
       DOS:  cpu time      0.0008: real time      0.0008
    CHARGE:  cpu time      1.1533: real time      1.1563
    MIXING:  cpu time      0.3147: real time      0.3148
    --------------------------------------------
      LOOP:  cpu time     11.7698: real time     11.7764

 eigenvalue-minimisations  :  1520
 total energy-change (2. order) :-0.1299981E-01  (-0.7285609E-03)
 number of electron     367.9999987 magnetization 
 augmentation part        9.0986754 magnetization 

 Broyden mixing:
  rms(total) = 0.83188E-02    rms(broyden)= 0.83173E-02
  rms(prec ) = 0.11587E-01
  weight for this iteration     100.00

 eigenvalues of (default mixing * dielectric matrix)
  average eigenvalue GAMMA=   2.0746
  5.4065  2.4854  2.4854  1.8925  1.1925  1.1925  1.0774  0.8649

 Free energy of the ion-electron system (eV)
  ---------------------------------------------------
  alpha Z        PSCENC =        91.34886789
  Ewald energy   TEWEN  =    119598.47401011
  -Hartree energ DENC   =   -130654.20012605
  -exchange      EXHF   =         0.00000000
  -V(xc)+E(xc)   XCENC  =      1277.95458851
  PAW double counting   =     40887.82325604   -40951.79162783
  entropy T*S    EENTRO =        -0.07708544
  eigenvalues    EBANDS =     -4619.41743417
  atomic energy  EATOM  =     13537.65479391
  Solvation  Ediel_sol  =         0.00000000
  ---------------------------------------------------
  free energy    TOTEN  =      -832.23075703 eV

  energy without entropy =     -832.15367159  energy(sigma->0) =     -832.19221431


--------------------------------------------------------------------------------------------------------




--------------------------------------- Iteration      1(  14)  ---------------------------------------


    POTLOK:  cpu time      0.3205: real time      0.3205
    SETDIJ:  cpu time      0.0401: real time      0.0401
     EDDAV:  cpu time     10.2908: real time     10.2943
       DOS:  cpu time      0.0008: real time      0.0008
    CHARGE:  cpu time      1.1544: real time      1.1568
    MIXING:  cpu time      0.3224: real time      0.3224
    --------------------------------------------
      LOOP:  cpu time     12.1290: real time     12.1349

 eigenvalue-minimisations  :  1592
 total energy-change (2. order) :-0.1550996E-01  (-0.1035301E-03)
 number of electron     367.9999987 magnetization 
 augmentation part        9.0975635 magnetization 

 Broyden mixing:
  rms(total) = 0.56465E-02    rms(broyden)= 0.56460E-02
  rms(prec ) = 0.79035E-02
  weight for this iteration     100.00

 eigenvalues of (default mixing * dielectric matrix)
  average eigenvalue GAMMA=   2.2093
  6.5138  2.9789  2.4784  1.9287  1.7168  1.1951  1.1951  0.9383  0.9383

 Free energy of the ion-electron system (eV)
  ---------------------------------------------------
  alpha Z        PSCENC =        91.34886789
  Ewald energy   TEWEN  =    119598.47401011
  -Hartree energ DENC   =   -130666.64198599
  -exchange      EXHF   =         0.00000000
  -V(xc)+E(xc)   XCENC  =      1277.98162052
  PAW double counting   =     40905.81787330   -40969.79726210
  entropy T*S    EENTRO =        -0.07711013
  eigenvalues    EBANDS =     -4607.00707450
  atomic energy  EATOM  =     13537.65479391
  Solvation  Ediel_sol  =         0.00000000
  ---------------------------------------------------
  free energy    TOTEN  =      -832.24626699 eV

  energy without entropy =     -832.16915686  energy(sigma->0) =     -832.20771193


--------------------------------------------------------------------------------------------------------




--------------------------------------- Iteration      1(  15)  ---------------------------------------


    POTLOK:  cpu time      0.3203: real time      0.3203
    SETDIJ:  cpu time      0.0403: real time      0.0403
     EDDAV:  cpu time     10.0518: real time     10.0554
       DOS:  cpu time      0.0007: real time      0.0007
    CHARGE:  cpu time      1.1561: real time      1.1572
    MIXING:  cpu time      0.3300: real time      0.3301
    --------------------------------------------
      LOOP:  cpu time     11.8992: real time     11.9040

 eigenvalue-minimisations  :  1544
 total energy-change (2. order) :-0.2077781E-01  (-0.1627840E-03)
 number of electron     367.9999987 magnetization 
 augmentation part        9.0974516 magnetization 

 Broyden mixing:
  rms(total) = 0.29339E-02    rms(broyden)= 0.29336E-02
  rms(prec ) = 0.40155E-02
  weight for this iteration     100.00

 eigenvalues of (default mixing * dielectric matrix)
  average eigenvalue GAMMA=   2.2727
  7.0521  3.6774  2.3070  2.3070  1.8343  1.2844  1.2844  1.0743  0.9531  0.9531

 Free energy of the ion-electron system (eV)
  ---------------------------------------------------
  alpha Z        PSCENC =        91.34886789
  Ewald energy   TEWEN  =    119598.47401011
  -Hartree energ DENC   =   -130677.64851630
  -exchange      EXHF   =         0.00000000
  -V(xc)+E(xc)   XCENC  =      1277.94810442
  PAW double counting   =     40895.78960612   -40959.76953093
  entropy T*S    EENTRO =        -0.07719411
  eigenvalues    EBANDS =     -4595.98718591
  atomic energy  EATOM  =     13537.65479391
  Solvation  Ediel_sol  =         0.00000000
  ---------------------------------------------------
  free energy    TOTEN  =      -832.26704480 eV

  energy without entropy =     -832.18985069  energy(sigma->0) =     -832.22844775


--------------------------------------------------------------------------------------------------------




--------------------------------------- Iteration      1(  16)  ---------------------------------------


    POTLOK:  cpu time      0.3200: real time      0.3199
    SETDIJ:  cpu time      0.0402: real time      0.0402
     EDDAV:  cpu time     10.2968: real time     10.3033
       DOS:  cpu time      0.0008: real time      0.0008
    CHARGE:  cpu time      1.1682: real time      1.1710
    MIXING:  cpu time      0.3412: real time      0.3417
    --------------------------------------------
      LOOP:  cpu time     12.1673: real time     12.1769

 eigenvalue-minimisations  :  1592
 total energy-change (2. order) :-0.9432002E-02  (-0.6628323E-04)
 number of electron     367.9999987 magnetization 
 augmentation part        9.0973133 magnetization 

 Broyden mixing:
  rms(total) = 0.20408E-02    rms(broyden)= 0.20407E-02
  rms(prec ) = 0.25206E-02
  weight for this iteration     100.00

 eigenvalues of (default mixing * dielectric matrix)
  average eigenvalue GAMMA=   2.3268
  7.9318  4.0431  2.3855  2.3855  1.8864  1.4837  1.4837  1.0575  1.0575  0.9061
  0.9737

 Free energy of the ion-electron system (eV)
  ---------------------------------------------------
  alpha Z        PSCENC =        91.34886789
  Ewald energy   TEWEN  =    119598.47401011
  -Hartree energ DENC   =   -130681.55461423
  -exchange      EXHF   =         0.00000000
  -V(xc)+E(xc)   XCENC  =      1277.93444970
  PAW double counting   =     40898.38480702   -40962.36204443
  entropy T*S    EENTRO =        -0.07715984
  eigenvalues    EBANDS =     -4592.07958693
  atomic energy  EATOM  =     13537.65479391
  Solvation  Ediel_sol  =         0.00000000
  ---------------------------------------------------
  free energy    TOTEN  =      -832.27647680 eV

  energy without entropy =     -832.19931696  energy(sigma->0) =     -832.23789688


--------------------------------------------------------------------------------------------------------




--------------------------------------- Iteration      1(  17)  ---------------------------------------


    POTLOK:  cpu time      0.3208: real time      0.3208
    SETDIJ:  cpu time      0.0400: real time      0.0400
     EDDAV:  cpu time     10.4331: real time     10.4368
       DOS:  cpu time      0.0008: real time      0.0008
    CHARGE:  cpu time      1.1569: real time      1.1593
    MIXING:  cpu time      0.3498: real time      0.3514
    --------------------------------------------
      LOOP:  cpu time     12.3013: real time     12.3091

 eigenvalue-minimisations  :  1616
 total energy-change (2. order) :-0.3652529E-02  (-0.1670917E-04)
 number of electron     367.9999987 magnetization 
 augmentation part        9.0972134 magnetization 

 Broyden mixing:
  rms(total) = 0.10869E-02    rms(broyden)= 0.10868E-02
  rms(prec ) = 0.14094E-02
  weight for this iteration     100.00

 eigenvalues of (default mixing * dielectric matrix)
  average eigenvalue GAMMA=   2.3696
  8.2958  4.7673  2.4761  2.4761  1.9849  1.5008  1.5008  1.2212  1.2212  0.9708
  1.0102  1.0102

 Free energy of the ion-electron system (eV)
  ---------------------------------------------------
  alpha Z        PSCENC =        91.34886789
  Ewald energy   TEWEN  =    119598.47401011
  -Hartree energ DENC   =   -130683.40191759
  -exchange      EXHF   =         0.00000000
  -V(xc)+E(xc)   XCENC  =      1277.93439079
  PAW double counting   =     40898.24821816   -40962.22421558
  entropy T*S    EENTRO =        -0.07716560
  eigenvalues    EBANDS =     -4590.23711142
  atomic energy  EATOM  =     13537.65479391
  Solvation  Ediel_sol  =         0.00000000
  ---------------------------------------------------
  free energy    TOTEN  =      -832.28012933 eV

  energy without entropy =     -832.20296374  energy(sigma->0) =     -832.24154654


--------------------------------------------------------------------------------------------------------




--------------------------------------- Iteration      1(  18)  ---------------------------------------


    POTLOK:  cpu time      0.3206: real time      0.3205
    SETDIJ:  cpu time      0.0404: real time      0.0404
     EDDAV:  cpu time     10.2175: real time     10.2211
       DOS:  cpu time      0.0008: real time      0.0008
    CHARGE:  cpu time      1.1586: real time      1.1598
    MIXING:  cpu time      0.3603: real time      0.3613
    --------------------------------------------
      LOOP:  cpu time     12.0982: real time     12.1038

 eigenvalue-minimisations  :  1576
 total energy-change (2. order) :-0.2254959E-02  (-0.1016491E-04)
 number of electron     367.9999987 magnetization 
 augmentation part        9.0971736 magnetization 

 Broyden mixing:
  rms(total) = 0.59274E-03    rms(broyden)= 0.59269E-03
  rms(prec ) = 0.76353E-03
  weight for this iteration     100.00

 eigenvalues of (default mixing * dielectric matrix)
  average eigenvalue GAMMA=   2.3770
  8.7539  5.0047  2.7795  2.4808  2.0842  1.7486  1.4933  1.4933  1.0839  1.0839
  1.0591  0.9182  0.9182

 Free energy of the ion-electron system (eV)
  ---------------------------------------------------
  alpha Z        PSCENC =        91.34886789
  Ewald energy   TEWEN  =    119598.47401011
  -Hartree energ DENC   =   -130684.21000832
  -exchange      EXHF   =         0.00000000
  -V(xc)+E(xc)   XCENC  =      1277.93330440
  PAW double counting   =     40900.25556225   -40964.23050160
  entropy T*S    EENTRO =        -0.07716202
  eigenvalues    EBANDS =     -4589.43125091
  atomic energy  EATOM  =     13537.65479391
  Solvation  Ediel_sol  =         0.00000000
  ---------------------------------------------------
  free energy    TOTEN  =      -832.28238429 eV

  energy without entropy =     -832.20522227  energy(sigma->0) =     -832.24380328


--------------------------------------------------------------------------------------------------------




--------------------------------------- Iteration      1(  19)  ---------------------------------------


    POTLOK:  cpu time      0.3207: real time      0.3206
    SETDIJ:  cpu time      0.0403: real time      0.0403
     EDDAV:  cpu time      9.3850: real time      9.3882
       DOS:  cpu time      0.0008: real time      0.0008
    CHARGE:  cpu time      1.1545: real time      1.1581
    MIXING:  cpu time      0.3731: real time      0.3730
    --------------------------------------------
      LOOP:  cpu time     11.2743: real time     11.2811

 eigenvalue-minimisations  :  1400
 total energy-change (2. order) :-0.8852752E-03  (-0.2339924E-05)
 number of electron     367.9999987 magnetization 
 augmentation part        9.0971652 magnetization 

 Broyden mixing:
  rms(total) = 0.37874E-03    rms(broyden)= 0.37872E-03
  rms(prec ) = 0.46855E-03
  weight for this iteration     100.00

 eigenvalues of (default mixing * dielectric matrix)
  average eigenvalue GAMMA=   2.4249
  9.0161  5.5774  3.2388  2.3685  2.3685  1.9339  1.4166  1.4166  1.3261  1.3261
  0.9568  0.9568  1.0229  1.0229

 Free energy of the ion-electron system (eV)
  ---------------------------------------------------
  alpha Z        PSCENC =        91.34886789
  Ewald energy   TEWEN  =    119598.47401011
  -Hartree energ DENC   =   -130684.56573085
  -exchange      EXHF   =         0.00000000
  -V(xc)+E(xc)   XCENC  =      1277.93264470
  PAW double counting   =     40898.09154617   -40962.06604947
  entropy T*S    EENTRO =        -0.07716075
  eigenvalues    EBANDS =     -4589.07619128
  atomic energy  EATOM  =     13537.65479391
  Solvation  Ediel_sol  =         0.00000000
  ---------------------------------------------------
  free energy    TOTEN  =      -832.28326957 eV

  energy without entropy =     -832.20610882  energy(sigma->0) =     -832.24468919


--------------------------------------------------------------------------------------------------------




--------------------------------------- Iteration      1(  20)  ---------------------------------------


    POTLOK:  cpu time      0.3199: real time      0.3199
    SETDIJ:  cpu time      0.0401: real time      0.0401
     EDDAV:  cpu time      8.9317: real time      8.9351
       DOS:  cpu time      0.0008: real time      0.0008
    CHARGE:  cpu time      1.1585: real time      1.1591
    MIXING:  cpu time      0.3844: real time      0.3855
    --------------------------------------------
      LOOP:  cpu time     10.8352: real time     10.8405

 eigenvalue-minimisations  :  1312
 total energy-change (2. order) :-0.4538139E-03  (-0.9591451E-06)
 number of electron     367.9999987 magnetization 
 augmentation part        9.0971690 magnetization 

 Broyden mixing:
  rms(total) = 0.20514E-03    rms(broyden)= 0.20514E-03
  rms(prec ) = 0.24884E-03
  weight for this iteration     100.00

 eigenvalues of (default mixing * dielectric matrix)
  average eigenvalue GAMMA=   2.4690
  9.1632  6.0067  3.7842  2.5474  2.5474  1.9785  1.5423  1.5423  1.3930  1.3930
  0.9566  0.9566  1.0334  1.0951  1.0951

 Free energy of the ion-electron system (eV)
  ---------------------------------------------------
  alpha Z        PSCENC =        91.34886789
  Ewald energy   TEWEN  =    119598.47401011
  -Hartree energ DENC   =   -130684.70706754
  -exchange      EXHF   =         0.00000000
  -V(xc)+E(xc)   XCENC  =      1277.93127099
  PAW double counting   =     40897.79732662   -40961.77179391
  entropy T*S    EENTRO =        -0.07716378
  eigenvalues    EBANDS =     -4588.93396768
  atomic energy  EATOM  =     13537.65479391
  Solvation  Ediel_sol  =         0.00000000
  ---------------------------------------------------
  free energy    TOTEN  =      -832.28372338 eV

  energy without entropy =     -832.20655960  energy(sigma->0) =     -832.24514149


--------------------------------------------------------------------------------------------------------




--------------------------------------- Iteration      1(  21)  ---------------------------------------


    POTLOK:  cpu time      0.3214: real time      0.3215
    SETDIJ:  cpu time      0.0402: real time      0.0402
     EDDAV:  cpu time      8.8653: real time      8.8683
       DOS:  cpu time      0.0008: real time      0.0008
    CHARGE:  cpu time      1.1686: real time      1.1707
    MIXING:  cpu time      0.3954: real time      0.3977
    --------------------------------------------
      LOOP:  cpu time     10.7916: real time     10.7992

 eigenvalue-minimisations  :  1296
 total energy-change (2. order) :-0.1937695E-03  (-0.2423594E-06)
 number of electron     367.9999987 magnetization 
 augmentation part        9.0971630 magnetization 

 Broyden mixing:
  rms(total) = 0.87586E-04    rms(broyden)= 0.87575E-04
  rms(prec ) = 0.11023E-03
  weight for this iteration     100.00

 eigenvalues of (default mixing * dielectric matrix)
  average eigenvalue GAMMA=   2.4468
  9.2474  6.2281  4.0265  2.6530  2.4601  2.0304  1.8875  1.4142  1.4142  1.3988
  1.3988  1.0476  1.0476  0.9429  0.9429  1.0092

 Free energy of the ion-electron system (eV)
  ---------------------------------------------------
  alpha Z        PSCENC =        91.34886789
  Ewald energy   TEWEN  =    119598.47401011
  -Hartree energ DENC   =   -130684.81952290
  -exchange      EXHF   =         0.00000000
  -V(xc)+E(xc)   XCENC  =      1277.93114161
  PAW double counting   =     40897.50828000   -40961.48305329
  entropy T*S    EENTRO =        -0.07716378
  eigenvalues    EBANDS =     -4588.82127070
  atomic energy  EATOM  =     13537.65479391
  Solvation  Ediel_sol  =         0.00000000
  ---------------------------------------------------
  free energy    TOTEN  =      -832.28391715 eV

  energy without entropy =     -832.20675337  energy(sigma->0) =     -832.24533526


[...]
   -.348E+02 -.110E+02 -.154E+03   0.351E+02 0.125E+02 0.154E+03   -.110E+00 0.517E+00 -.259E+00   0.311E-05 0.179E-07 -.982E-06
   -.370E+01 -.148E+02 -.737E+01   0.382E+01 0.157E+02 0.735E+01   0.384E+00 0.351E+00 -.146E+00   0.439E-05 0.335E-06 -.125E-05
   -.353E+02 0.107E+02 -.120E+03   0.357E+02 -.119E+02 0.120E+03   -.105E+00 -.574E+00 -.118E+00   0.444E-05 -.569E-06 -.135E-05
   -.644E+01 0.155E+02 -.255E+02   0.604E+01 -.164E+02 0.257E+02   -.182E+00 0.308E+00 -.265E+00   0.569E-05 -.834E-07 -.209E-05
   -.236E+02 -.960E+01 -.922E+02   0.236E+02 0.107E+02 0.927E+02   -.414E+00 0.929E+00 -.523E+00   0.569E-05 -.108E-05 -.261E-05
   0.146E+02 -.119E+02 0.687E+02   -.146E+02 0.120E+02 -.689E+02   0.129E+00 0.867E-02 -.105E+00   0.387E-05 0.357E-06 -.968E-06
   -.887E+01 0.864E+01 -.273E+02   0.875E+01 -.950E+01 0.272E+02   0.281E+00 -.400E+00 0.119E+01   0.441E-05 0.915E-06 -.187E-05
   0.121E+02 0.107E+02 0.722E+02   -.122E+02 -.114E+02 -.723E+02   0.192E+00 -.811E-01 0.220E+00   0.112E-05 0.112E-05 0.405E-06
   -.733E+01 -.760E+01 -.244E+02   0.715E+01 0.828E+01 0.250E+02   -.463E+00 0.493E+00 -.104E+01   0.124E-05 -.899E-06 -.876E-06
   0.164E+02 -.175E+02 0.145E+03   -.160E+02 0.182E+02 -.145E+03   0.320E+00 0.290E+00 0.197E+00   -.979E-06 0.332E-06 0.181E-05
   0.170E+01 0.593E+01 0.221E+02   -.196E+01 -.599E+01 -.219E+02   0.745E-01 -.212E-02 -.931E-01   -.679E-06 0.243E-06 0.504E-06
   0.160E+02 0.113E+02 0.154E+03   -.166E+02 -.117E+02 -.154E+03   -.177E+00 -.588E-01 0.365E+00   -.186E-05 0.183E-05 0.252E-05
   0.422E+01 -.870E+01 0.803E+02   -.385E+01 0.878E+01 -.803E+02   0.372E+00 -.866E-01 -.277E-01   -.172E-05 -.860E-06 0.143E-05
   0.551E+00 -.170E+02 0.182E+03   0.232E+00 0.174E+02 -.183E+03   0.593E+00 0.935E-01 0.687E+00   -.364E-05 0.852E-06 0.270E-05
   0.251E+01 0.119E+02 0.736E+02   -.258E+01 -.127E+02 -.737E+02   -.183E+00 0.820E-02 0.773E+00   -.238E-05 0.759E-06 0.154E-05
   0.289E+01 0.150E+02 0.137E+03   -.367E+01 -.157E+02 -.137E+03   -.656E+00 0.331E+00 0.257E+00   -.162E-05 0.162E-05 0.210E-05
   0.280E+01 -.627E+01 0.257E+02   -.268E+01 0.648E+01 -.252E+02   0.152E+00 0.524E+00 -.133E+01   -.293E-05 0.445E-06 0.105E-05
   -.140E+02 -.110E+02 0.157E+03   0.141E+02 0.111E+02 -.157E+03   -.684E+00 -.639E-01 0.111E+01   -.159E-05 0.815E-06 0.141E-05
   0.296E+01 0.166E+01 0.285E+02   -.353E+01 -.110E+01 -.284E+02   -.337E+00 0.137E+00 -.371E+00   -.209E-05 -.844E-06 0.534E-06
   -.814E+01 0.182E+02 0.619E+02   0.840E+01 -.191E+02 -.614E+02   0.363E+00 -.187E-01 -.698E+00   -.150E-05 0.160E-05 0.267E-06
   -.124E+01 -.837E+01 0.205E+02   0.123E+01 0.872E+01 -.205E+02   -.232E+00 -.194E-01 0.535E+00   -.448E-06 -.295E-06 -.848E-07
   -.117E+02 0.547E+00 0.731E+02   0.109E+02 -.142E+01 -.737E+02   -.348E+00 -.509E+00 -.447E+00   0.717E-06 0.210E-05 0.603E-06
   0.700E+01 -.134E+00 -.357E+02   -.723E+01 0.357E+00 0.361E+02   0.214E+00 0.436E+00 -.101E+01   -.130E-06 -.282E-06 -.641E-06
   -.118E+02 0.110E+02 0.147E+02   0.121E+02 -.106E+02 -.144E+02   0.362E-01 0.904E-01 0.488E+00   0.285E-05 0.698E-06 0.521E-06
   0.374E+01 -.676E+01 -.620E+02   -.330E+01 0.644E+01 0.625E+02   -.804E-02 -.416E+00 -.129E+00   0.316E-05 0.109E-06 0.393E-06
   -.267E+02 0.886E+00 0.706E+01   0.273E+02 -.506E+00 -.727E+01   0.538E+00 0.633E-01 0.746E+00   -.101E-05 0.104E-05 -.664E-06
   0.373E+01 -.106E+02 -.938E+02   -.400E+01 0.111E+02 0.942E+02   0.181E+00 -.236E+00 -.814E+00   -.108E-05 -.453E-06 -.450E-06
   0.134E+02 0.722E+02 -.109E+03   -.158E+02 -.733E+02 0.110E+03   0.178E+01 0.160E+01 -.791E+00   -.310E-06 -.348E-06 -.711E-06
   0.135E+02 -.614E+02 -.131E+03   -.156E+02 0.621E+02 0.131E+03   0.111E+01 -.139E+01 0.892E-01   -.930E-06 0.121E-05 -.631E-06
   -.200E+01 0.654E+02 0.518E+02   0.489E+01 -.661E+02 -.518E+02   -.110E+01 0.177E+01 0.290E+00   0.309E-05 0.137E-05 0.195E-05
   -.631E+01 -.647E+02 0.749E+02   0.907E+01 0.656E+02 -.749E+02   -.120E+01 -.229E+01 0.386E+00   0.405E-05 -.196E-05 0.243E-05
   0.171E+02 0.278E+01 -.259E+02   -.165E+02 -.229E+01 0.262E+02   0.170E+00 0.654E+00 -.135E+00   0.876E-06 0.130E-05 0.712E-06
   0.189E+02 -.792E+01 0.454E+01   -.194E+02 0.784E+01 -.464E+01   -.885E+00 -.228E+00 -.794E+00   0.163E-05 -.100E-05 0.119E-05
   0.122E+02 0.186E+02 -.292E+02   -.129E+02 -.192E+02 0.288E+02   -.283E+00 0.177E+00 0.193E+00   -.596E-06 0.153E-05 -.275E-07
   -.129E+01 -.855E+01 0.213E+02   0.211E+01 0.854E+01 -.214E+02   0.106E+00 0.909E-01 0.746E+00   -.124E-05 -.107E-05 0.281E-06
   0.185E+02 -.777E+01 -.134E+03   -.184E+02 0.800E+01 0.134E+03   0.130E+00 -.231E+00 -.619E+00   -.154E-05 0.117E-05 -.162E-05
   0.765E+01 -.238E+01 -.282E+02   -.813E+01 0.264E+01 0.282E+02   -.218E+00 -.543E+00 0.464E+00   -.149E-05 -.164E-05 -.746E-06
   0.183E+01 0.146E+02 -.127E+03   -.157E+01 -.154E+02 0.127E+03   -.331E-01 0.676E-02 -.273E+00   -.317E-05 0.115E-05 -.206E-05
   0.201E+01 -.958E+01 -.636E+02   -.154E+01 0.103E+02 0.634E+02   0.514E+00 0.327E+00 0.178E+00   -.296E-05 -.103E-05 -.135E-05
   -.292E+01 -.967E+01 -.150E+03   0.238E+01 0.973E+01 0.150E+03   -.107E+00 0.133E+00 0.243E+00   -.411E-05 0.114E-05 -.180E-05
   -.591E+01 0.678E+01 -.846E+02   0.601E+01 -.732E+01 0.845E+02   -.108E+00 -.312E+00 -.141E-01   -.496E-05 -.771E-06 -.101E-05
   -.181E+02 0.137E+02 -.124E+03   0.187E+02 -.146E+02 0.124E+03   0.212E+00 0.557E+00 -.409E+00   -.471E-05 0.247E-06 -.736E-06
   -.962E+01 -.136E+02 -.562E+02   0.100E+02 0.149E+02 0.558E+02   -.460E-01 0.118E+01 0.196E+00   -.411E-05 -.604E-06 -.530E-06
   -.250E+02 -.207E+02 -.129E+03   0.253E+02 0.220E+02 0.129E+03   -.643E+00 0.171E+00 -.841E+00   -.900E-06 0.220E-05 -.722E-06
   0.109E+02 0.800E+01 -.128E+02   -.121E+02 -.897E+01 0.132E+02   -.568E+00 -.788E+00 0.132E+00   -.323E-06 -.860E-06 -.716E-06
   0.102E+02 0.115E+02 0.488E+01   -.113E+02 -.116E+02 -.529E+01   -.122E+00 0.459E+00 0.173E+01   0.180E-05 0.317E-06 -.106E-05
   0.114E+02 -.284E+00 0.480E+02   -.107E+02 0.350E-01 -.483E+02   0.582E+00 -.244E+00 -.342E+00   0.199E-05 0.771E-06 -.103E-05
   -.148E+02 -.987E+01 -.398E+02   0.154E+02 0.104E+02 0.400E+02   -.572E-02 -.133E+00 -.853E+00   0.475E-05 0.852E-06 -.170E-05
   0.205E+02 0.749E+01 0.933E+02   -.206E+02 -.830E+01 -.940E+02   0.441E+00 -.302E+00 0.759E+00   0.348E-05 0.310E-06 -.993E-06
   0.100E+02 0.156E+02 0.444E+02   -.103E+02 -.164E+02 -.448E+02   0.536E+00 0.116E-01 0.923E+00   0.595E-05 -.449E-06 -.128E-05
   0.224E+02 -.132E+02 0.110E+03   -.221E+02 0.144E+02 -.110E+03   0.113E-01 0.427E+00 -.462E+00   0.503E-05 -.453E-06 -.121E-05
   -.103E+02 -.154E+02 -.142E+02   0.108E+02 0.162E+02 0.147E+02   0.155E+00 -.254E+00 -.149E+01   0.415E-05 -.112E-05 -.130E-05
   0.430E+02 0.877E+01 0.157E+03   -.441E+02 -.895E+01 -.158E+03   -.153E+00 0.730E-03 0.961E+00   0.520E-05 0.123E-05 -.667E-06
   0.939E+01 0.995E+01 0.597E+02   -.965E+01 -.101E+02 -.597E+02   0.783E-01 -.181E+00 -.194E+00   0.105E-05 -.445E-06 0.672E-07
   0.269E+02 -.165E+01 0.175E+03   -.265E+02 0.127E+01 -.176E+03   0.485E+00 -.339E+00 0.898E+00   0.126E-05 0.386E-06 0.857E-06
   0.602E+01 -.152E+02 0.558E+02   -.591E+01 0.159E+02 -.556E+02   0.683E-01 -.112E+00 0.147E+00   -.130E-05 -.173E-05 0.935E-06
   0.208E+02 0.178E+02 0.173E+03   -.208E+02 -.184E+02 -.174E+03   0.189E+00 0.157E-01 -.175E+00   -.146E-05 0.572E-06 0.167E-05
   0.556E+01 0.780E+01 0.896E+02   -.547E+01 -.781E+01 -.898E+02   -.272E+00 -.215E+00 -.167E+00   -.200E-05 -.110E-05 0.140E-05
   0.148E+02 -.811E+01 0.171E+03   -.148E+02 0.785E+01 -.171E+03   0.131E+00 -.529E+00 0.729E+00   -.226E-05 0.627E-06 0.196E-05
   0.581E+01 -.162E+02 0.738E+02   -.640E+01 0.170E+02 -.735E+02   -.449E+00 0.480E+00 -.332E+00   -.163E-05 -.235E-05 0.149E-05
   0.325E+01 0.169E+02 0.173E+03   -.306E+01 -.171E+02 -.173E+03   -.223E+00 0.208E+00 -.487E+00   -.275E-05 0.164E-06 0.218E-05
   -.316E+01 0.602E+01 0.103E+03   0.351E+01 -.595E+01 -.103E+03   0.607E+00 -.426E+00 -.392E+00   -.323E-05 -.119E-05 0.155E-05
   -.982E+00 -.940E+01 0.183E+03   0.468E+00 0.946E+01 -.183E+03   -.651E+00 -.414E+00 0.104E+01   -.190E-05 -.289E-07 0.202E-05
   -.648E+01 -.112E+02 0.102E+03   0.651E+01 0.113E+02 -.102E+03   0.277E+00 -.459E+00 0.673E+00   -.145E-05 -.344E-06 0.104E-05
   -.159E+02 0.134E+02 0.162E+03   0.166E+02 -.137E+02 -.162E+03   0.163E+00 0.106E+00 -.583E+00   -.139E-05 -.180E-06 0.150E-05
   -.157E+02 0.957E+01 0.121E+03   0.157E+02 -.973E+01 -.122E+03   -.375E+00 0.118E+00 0.181E+00   0.266E-08 -.100E-05 0.862E-06
   -.184E+02 -.882E+01 0.162E+03   0.183E+02 0.888E+01 -.162E+03   -.204E+00 -.148E+00 0.392E-01   -.141E-05 -.204E-06 0.923E-06
   -.128E+02 -.116E+02 0.648E+02   0.126E+02 0.122E+02 -.647E+02   -.143E+00 0.432E+00 0.123E+00   -.610E-06 -.235E-06 -.177E-06
   -.341E+02 0.222E+01 0.166E+03   0.346E+02 -.188E+01 -.166E+03   -.188E+00 0.307E+00 0.649E+00   -.496E-06 -.892E-06 0.201E-06
   -.214E+02 0.108E+02 0.872E+02   0.212E+02 -.113E+02 -.871E+02   0.305E+00 -.319E+00 -.485E+00   0.425E-06 -.216E-05 0.713E-06
   -.387E+02 -.106E+02 0.168E+03   0.384E+02 0.113E+02 -.169E+03   -.795E+00 0.573E+00 0.708E+00   0.114E-05 0.668E-06 0.617E-06
   -.267E+02 0.523E+01 0.437E+02   0.266E+02 -.541E+01 -.436E+02   0.825E+00 0.505E+00 0.757E+00   -.948E-06 -.281E-05 0.776E-06
   -.492E+02 -.737E+01 0.113E+03   0.501E+02 0.666E+01 -.113E+03   0.938E+00 -.112E+01 0.149E+00   -.104E-05 0.257E-05 0.346E-06
   -.282E+02 0.692E+02 0.713E+02   0.256E+02 -.708E+02 -.729E+02   0.122E+01 0.163E+01 0.799E+00   0.229E-05 -.821E-06 0.147E-05
   -.313E+02 -.697E+02 0.106E+03   0.279E+02 0.717E+02 -.108E+03   0.987E+00 -.766E+00 0.913E+00   0.219E-05 -.567E-06 0.140E-05
 -----------------------------------------------------------------------------------------------
   -.173E+00 0.550E-01 0.687E+00   -.629E-12 0.156E-12 -.119E-11   0.228E+00 0.850E-01 -.739E+00   -.441E-05 -.800E-06 -.558E-05
 
 
 POSITION                                       TOTAL-FORCE (eV/Angst)
 -----------------------------------------------------------------------------------
      0.68412      5.78475     18.09000         0.697679      1.076689      0.381906
      0.68102      7.19733     18.15000         0.633685     -1.801645      0.680586
      1.88860      5.11605     18.23000        -0.523803      0.905763      0.135041
      1.87780      7.86638     18.36000        -0.430086     -0.857819     -0.012408
      3.04419      5.79737     18.67000         1.699462      0.236896     -0.269871
      3.08098      7.18095     18.72000        -0.276152      0.416657      0.098740
      4.33632      5.16629     18.67000         0.007864     -0.572209     -0.163122
      4.34068      7.86317     18.84000        -0.020685     -1.466347      0.057769
      5.59824      5.79358     18.87000        -0.525504      0.264074     -0.052498
      5.59497      7.16604     18.94000        -0.008869      1.250024      0.418274
      6.85046      5.15014     18.72000         0.312307      0.185857     -0.595766
      6.85805      7.84533     18.90000         0.065948     -0.693006     -0.434721
      8.10111      5.82365     18.59000         0.031700     -0.797951     -0.246105
      8.11219      7.18349     18.70000         0.734957      0.917435      0.757349
      9.29166      5.16378     18.14000        -0.249875      1.317852      0.479294
      9.38652      7.86358     18.50000        -0.665834     -2.004244     -0.123147
     10.52610      5.83931     17.93000        -0.071059     -1.945761     -0.295239
     10.58920      7.16986     18.15000         0.141547      2.007592      0.121030
     11.65280      5.14965     17.39000         0.508105      1.280221     -0.165930
     11.77660      7.86806     17.75000         0.293574     -1.849700      0.119578
     12.90190      5.80304     17.13000        -0.583604     -0.563430      0.007961
     12.96780      7.15124     17.34000        -0.475540      2.051492     -0.050794
     14.01900      5.16631     16.54000         0.190314      0.132503     -0.341747
     14.12210      7.86854     16.89000         0.153551     -1.258405      1.047784
     15.24620      5.83897     16.28000         0.076650     -0.734022      0.148261
     15.32380      7.17946     16.54000        -0.650390      1.173971     -0.435200
     16.41980      5.18058     15.82000         0.685810      1.031319     -0.180526
     16.50990      7.86795     16.21000        -0.181963     -0.064647      0.138496
     17.69020      5.85553     15.66000        -0.759894     -0.484987      0.538805
     17.70640      7.20923     15.89000         0.740461     -0.010639      0.010894
     18.92660      5.19190     15.48000         1.376126      0.444409      0.197793
     18.96690      7.86687     15.84000        -0.256761     -0.865324      0.661202
     20.22830      5.83621     15.63000        -1.439732     -0.393263      0.140805
     20.19850      7.17610     15.91000         0.266013      0.735713     -0.875605
     21.48270      5.18499     15.65000        -0.593414      0.031674      0.419580
     21.43830      7.85694     16.02000        -0.902930      0.694052     -0.251809
     22.66650      5.83732     16.05000         0.620329     -0.925856     -0.211412
     22.64870      7.18870     16.21000        -0.244208      0.322982      0.515598
     23.91760      5.18394     16.22000        -1.096938     -1.386944     -1.034962
     23.83740      7.84674     16.54000        -0.017418      0.656966     -0.592463
     25.05610      5.82775     16.68000         0.291307      0.528854      0.800705
     25.01210      7.19228     16.89000         0.436226     -0.732447      0.342334
     26.25850      5.15521     16.95000         1.084766      0.441679      0.534882
     26.20650      7.86066     17.25000        -0.089595      0.306569     -0.446965
     27.31410      5.79084     17.62000        -0.609083      0.481305     -0.425136
     27.31550      7.18525     17.71000        -0.991758     -0.605941      0.018716
      0.84924      1.72849     17.42000         1.786382      1.040353      0.297065
      0.87338      3.14507     17.35000         1.559243     -1.448038      0.355804
      1.93851      1.07426     17.96000         0.698652      1.141246      0.139270
      1.98864      3.80260     17.85000        -1.361123     -0.306730     -0.896763
      3.18878      1.76178     18.17000        -0.925905     -0.378534     -0.240581
      3.19230      3.12795     18.03000         0.932231      0.079980      0.572273
      4.35966      1.11793     18.62000         0.203656     -0.002878     -0.340498
      4.38838      3.82318     18.34000        -0.696362     -0.282059      0.419214
      5.60494      1.77799     18.65000         0.227553     -0.804226     -0.370040
      5.59394      3.12868     18.48000         0.989634      1.001023     -0.047691
      6.85947      1.10610     18.73000        -0.648327      0.196461      0.522533
      6.84425      3.79792     18.51000        -0.010240     -0.851033     -0.099915
      8.08532      1.74973     18.50000         0.815391     -0.339002     -0.574624
      8.06137      3.09129     18.31000         0.371543      2.422675     -0.213578
      9.34970      1.10092     18.32000        -0.299948      1.463498     -0.742252
      9.26690      3.81979     17.96000        -1.816058     -1.762503      0.486141
     10.46880      1.75586     17.70000        -1.182542      0.349205      1.320321
     10.39370      3.13605     17.54000         1.283179     -0.494813     -0.590343
     11.68960      1.11086     17.51000         0.603418      0.440858     -0.604304
     11.56790      3.81549     17.12000         0.351968     -1.115108      0.114255
     12.81510      1.77869     16.95000         0.287705     -0.817829      0.505821
     12.75860      3.11927     16.73000         0.322050      1.627996     -0.689092
     14.06430      1.13453     16.79000         0.705249      0.526182     -1.041567
     13.96250      3.80897     16.29000        -1.255221     -0.177753      0.791855
     15.23410      1.80483     16.29000        -0.181025     -0.380800     -0.226478
     15.16290      3.15614     15.98000         0.904169     -0.727201      0.421268
     16.48150      1.14095     16.11000         0.176890      0.545444      0.319867
     16.40410      3.82028     15.72000         0.208735     -0.577432     -0.361340
     17.71100      1.80634     15.82000        -0.181150     -0.224313     -0.356781
     17.67620      3.17158     15.58000         0.085665     -0.797756      0.373944
     18.97550      1.12575     15.80000        -1.042439      1.332128      0.012122
     18.94380      3.81991     15.46000        -0.037158      0.005531     -0.480197
     20.19730      1.80683     15.69000         0.952185     -0.355491     -0.411745
     20.22730      3.16942     15.47000        -1.165319     -0.352173      0.570390
     21.44140      1.13239     15.82000         0.301742     -0.375595      0.724783
     21.47520      3.81339     15.57000         0.807915     -0.174540     -0.506390
     22.71300      1.76893     15.88000        -0.438934     -0.040647     -0.129768
     22.73550      3.14618     15.73000        -0.350186     -0.090540     -0.210830
     23.89820      1.09357     16.26000        -0.318786      0.935762      0.154711
     23.96600      3.80454     15.94000         0.269363      0.646105      0.541010
     25.13750      1.76370     16.40000         0.111524     -0.812448     -0.443272
     25.20310      3.11618     16.19000        -1.110347      1.277950      0.014812
     26.29070      1.08036     16.84000         0.775729      0.325739      0.819243
     26.35000      3.83462     16.60000         1.788680     -1.834482      0.132050
     27.50240      1.74031     16.99000        -1.446723     -0.007758     -0.741252
     27.54110      3.11067     16.89000        -2.435945      1.295586     -0.857409
 -----------------------------------------------------------------------------------
    total drift:                                0.055811      0.139990     -0.052241


--------------------------------------------------------------------------------------------------------



  FREE ENERGIE OF THE ION-ELECTRON SYSTEM (eV)
  ---------------------------------------------------
  free  energy   TOTEN  =      -832.28401148 eV

  energy  without entropy=     -832.20684768  energy(sigma->0) =     -832.24542958
 


--------------------------------------------------------------------------------------------------------


    POTLOK:  cpu time      0.4528: real time      0.4528


--------------------------------------------------------------------------------------------------------


     LOOP+:  cpu time    331.8015: real time    331.9953
    4ORBIT:  cpu time      0.0000: real time      0.0000

 total amount of memory used by VASP MPI-rank0  2294516. kBytes
=======================================================================

   base                                    :      30000. kBytes
   nonlr-proj                              :      15082. kBytes
   fftplans                                :     436558. kBytes
   grid                                    :     732614. kBytes
   one-center                              :        282. kBytes
   wavefun                                 :    1079980. kBytes
 
  
  
 General timing and accounting informations for this job:
 ========================================================
  
                  Total CPU time used (sec):      365.277
                            User time (sec):      356.893
                          System time (sec):        8.384
                         Elapsed time (sec):      365.577
  
                   Maximum memory used (kb):     3731828.
                   Average memory used (kb):          N/A
  
                          Minor page faults:      3178774
                          Major page faults:         6749
                 Voluntary context switches:        10055
