unknown system                          
            1
    28.050000    0.000000    0.000000
     0.000000    8.100000    0.000000
     0.000000    0.000000   33.500000
   C 
    92
Direct configuration=     1
   0.02438927  0.71416667  0.54000000
   0.02427879  0.88855926  0.54179104
   0.06732977  0.63161111  0.54417910
   0.06694474  0.97115802  0.54805970
   0.10852727  0.71572469  0.55731343
   0.10983886  0.88653704  0.55880597
   0.15459251  0.63781358  0.55731343
   0.15474795  0.97076173  0.56238806
   0.19958075  0.71525679  0.56328358
   0.19946417  0.88469630  0.56537313
   0.24422317  0.63581975  0.55880597
   0.24449376  0.96855926  0.56417910
   0.28880963  0.71896914  0.55492537
   0.28920463  0.88685062  0.55820896
   0.33125348  0.63750370  0.54149254
   0.33463529  0.97081235  0.55223881
   0.37526203  0.72090247  0.53522388
   0.37751159  0.88516790  0.54179104
   0.41542959  0.63575926  0.51910448
   0.41984314  0.97136543  0.52985075
   0.45996078  0.71642469  0.51134328
   0.46231016  0.88286914  0.51761194
   0.49978610  0.63781605  0.49373134
   0.50346168  0.97142469  0.50417910
   0.54353654  0.72086049  0.48597015
   0.54630303  0.88635309  0.49373134
   0.58537611  0.63957778  0.47223881
   0.58858824  0.97135185  0.48388060
   0.63066667  0.72290494  0.46746269
   0.63124421  0.89002840  0.47432836
   0.67474510  0.64097531  0.46208955
   0.67618182  0.97121852  0.47283582
   0.72115152  0.72051975  0.46656716
   0.72008913  0.88593827  0.47492537
   0.76587166  0.64012222  0.46716418
   0.76428877  0.96999259  0.47820896
   0.80807487  0.72065679  0.47910448
   0.80744029  0.88749383  0.48388060
   0.85267736  0.63999259  0.48417910
   0.84981818  0.96873333  0.49373134
   0.89326560  0.71947531  0.49791045
   0.89169697  0.88793580  0.50417910
   0.93613191  0.63644568  0.50597015
   0.93427807  0.97045185  0.51492537
   0.97376471  0.71491852  0.52597015
   0.97381462  0.88706790  0.52865672
   0.03027594  0.21339383  0.52000000
   0.03113665  0.38828025  0.51791045
   0.06910909  0.13262469  0.53611940
   0.07089626  0.46945679  0.53283582
   0.11368200  0.21750370  0.54238806
   0.11380749  0.38616667  0.53820896
   0.15542460  0.13801605  0.55582090
   0.15644848  0.47199753  0.54746269
   0.19981961  0.21950494  0.55671642
   0.19942745  0.38625679  0.55164179
   0.24454439  0.13655556  0.55910448
   0.24400178  0.46887901  0.55253731
   0.28824670  0.21601605  0.55223881
   0.28739287  0.38164074  0.54656716
   0.33332264  0.13591605  0.54686567
   0.33037077  0.47157901  0.53611940
   0.37321925  0.21677284  0.52835821
   0.37054189  0.38716667  0.52358209
   0.41674153  0.13714321  0.52268657
   0.41240285  0.47104815  0.51104478
   0.45686631  0.21959136  0.50597015
   0.45485205  0.38509506  0.49940299
   0.50140107  0.14006543  0.50119403
   0.49777184  0.47024321  0.48626866
   0.54310517  0.22281852  0.48626866
   0.54056684  0.38964691  0.47701493
   0.58757576  0.14085802  0.48089552
   0.58481640  0.47163951  0.46925373
   0.63140820  0.22300494  0.47223881
   0.63016756  0.39155309  0.46507463
   0.67648841  0.13898148  0.47164179
   0.67535829  0.47159383  0.46149254
   0.72004635  0.22306543  0.46835821
   0.72111586  0.39128642  0.46179104
   0.76439929  0.13980123  0.47223881
   0.76560428  0.47078889  0.46477612
   0.80973262  0.21838642  0.47402985
   0.81053476  0.38841728  0.46955224
   0.85198574  0.13500864  0.48537313
   0.85440285  0.46969630  0.47582090
   0.89616756  0.21774074  0.48955224
   0.89850624  0.38471358  0.48328358
   0.93727986  0.13337778  0.50268657
   0.93939394  0.47340988  0.49552239
   0.98047772  0.21485309  0.50716418
   0.98185740  0.38403333  0.50417910
