 vasp.6.5.0 16Dec24 (build Feb 19 2025 19:45:31) complex                         
 executed on              LinuxNV date 2025.10.25  16:22:50
 running    2 mpi-ranks, on    1 nodes
 distrk:  each k-point on    2 cores,    1 groups
 distr:  one band on NCORE=   1 cores,    2 groups
 Offloading initialized ...    2 GPUs detected


--------------------------------------------------------------------------------------------------------


 INCAR:
   ISTART = 0            (Not Read existing wavefunction
   ISPIN = 1            (Non-Spin polarised DFT, Default\=1)
   ICHARG = 2            (The initial guess charge density is generated by superposition of atomic charge density)
   LREAL = Auto         (Projection operators: automatic)
   ENCUT = 500          (Cut-off energy for plane wave basis set, in eV)
   LWAVE = .FALSE.       (Write WAVECAR or not)
   LCHARG = .FALSE.       (Write CHGCAR or not)
   PREC = Accurate   (Precision level)
   KGAMMA = .TRUE.
   ALGO = Normal
   NSW = 0           (Default: NSW \= 0)
   IBRION = -1           (Ions are not moved)
   ISMEAR = 0
   EDIFF = 1E-06        (SCF energy convergence
   NELM = 150          (Max electronic SCF steps)

 POTCAR:    PAW_PBE C 08Apr2002                   
 POTCAR:    PAW_PBE C 08Apr2002                   
   SHA256 =  253f7b50bb8d59471dbedb8285d89021f4a42ed1a2c5d38a03a736e69125dd95 C/POTCAR              
   COPYR  = (c) Copyright 08Apr2002 Georg Kresse                                                    
   COPYR  = This file is part of the software VASP. Any use, copying, and all other rights are regul
   COPYR  = If you do not have a valid VASP license, you may not use, copy or distribute this file. 
   VRHFIN =C: s2p2                                                                                  
   LEXCH  = PE                                                                                      
   EATOM  =   147.1560 eV,   10.8157 Ry                                                             
                                                                                                    
   TITEL  = PAW_PBE C 08Apr2002                                                                     
   LULTRA =        F    use ultrasoft PP ?                                                          
   IUNSCR =        1    unscreen: 0-lin 1-nonlin 2-no                                               
   RPACOR =    1.200    partial core radius                                                         
   POMASS =   12.011; ZVAL   =    4.000    mass and valenz                                          
   RCORE  =    1.500    outmost cutoff radius                                                       
   RWIGS  =    1.630; RWIGS  =    0.863    wigner-seitz radius (au A)                               
   ENMAX  =  400.000; ENMIN  =  300.000 eV                                                          
   ICORE  =        2    local potential                                                             
   LCOR   =        T    correct aug charges                                                         
   LPAW   =        T    paw PP                                                                      
   EAUG   =  644.873                                                                                
   DEXC   =    0.000                                                                                
   RMAX   =    1.529    core radius for proj-oper                                                   
   RAUG   =    1.300    factor for augmentation sphere                                              
   RDEP   =    1.501    radius for radial grids                                                     
   RDEPT  =    1.300    core radius for aug-charge                                                  
                                                                                                    
   Atomic configuration                                                                             
    4 entries                                                                                       
     n  l   j            E        occ.                                                              
     1  0  0.50      -273.3789   2.0000                                                             
     2  0  0.50       -13.7508   2.0000                                                             
     2  1  0.50        -5.2854   2.0000                                                             
     3  2  1.50        -5.4423   0.0000                                                             
   Description                                                                                      
     l       E           TYP  RCUT    TYP  RCUT                                                     
     0    -13.7508458     23  1.200                                                                 
     0     -8.2022199     23  1.200                                                                 
     1     -5.2854383     23  1.500                                                                 
     1     34.0145650     23  1.500                                                                 
     2     -5.4423304      7  1.500                                                                 
  local pseudopotential read in
  partial core-charges read in
  partial kinetic energy density read in
  atomic valenz-charges read in
  non local Contribution for L=            0  read in
    real space projection operators read in
  non local Contribution for L=            0  read in
    real space projection operators read in
  non local Contribution for L=            1  read in
    real space projection operators read in
  non local Contribution for L=            1  read in
    real space projection operators read in
    PAW grid and wavefunctions read in
 
   number of l-projection  operators is LMAX  =            4
   number of lm-projection operators is LMMAX =            8
 
 Optimization of the real space projectors (new method)

 maximal supplied QI-value         = 25.13
 optimisation between [QCUT,QGAM] = [ 11.31, 22.87] = [ 35.82,146.48] Ry 
 Optimized for a Real-space Cutoff    1.03 Angstroem

   l    n(q)    QCUT    max X(q) W(low)/X(q) W(high)/X(q)  e(spline) 
   0      7    11.310   115.676    0.20E-03    0.90E-03    0.20E-06
   0      7    11.310    87.132    0.20E-03    0.89E-03    0.19E-06
   1      6    11.310     4.429    0.16E-03    0.28E-03    0.12E-06
   1      6    11.310     2.733    0.12E-03    0.21E-03    0.99E-07
  PAW_PBE C 08Apr2002                   :
 energy of atom  1       EATOM= -147.1560
 kinetic energy error for atom=    0.0076 (will be added to EATOM!!)
 
 
 POSCAR:  C
  positions in cartesian coordinates
  No initial velocities read in


 exchange-correlation table for PE
   RHO(1)=    0.500       N(1)  =     2000
   RHO(2)=  100.500       N(2)  =     4000
 


--------------------------------------------------------------------------------------------------------


 ion  position               nearest neighbor table
   1  0.006  0.099  0.542-   2 1.38   3 1.39  45 1.45  46 2.05
   2  0.005  0.269  0.544-   4 1.38   1 1.38  46 1.44  45 1.96
   3  0.050  0.019  0.543-  50 1.33   1 1.39   5 1.42
   4  0.048  0.351  0.548-   2 1.38  49 1.40   6 1.49
   5  0.094  0.102  0.542-   6 1.36   7 1.40   3 1.42
   6  0.095  0.269  0.545-   5 1.36   8 1.39   4 1.49
   7  0.136  0.017  0.533-  54 1.37   5 1.40   9 1.42
   8  0.139  0.348  0.543-  53 1.38   6 1.39  10 1.41
   9  0.180  0.099  0.526-  11 1.38  10 1.39   7 1.42
  10  0.182  0.267  0.533-   9 1.39  12 1.41   8 1.41
  11  0.221  0.021  0.512-   9 1.38  58 1.40  13 1.43
  12  0.226  0.351  0.527-  57 1.37  10 1.41  14 1.43
  13  0.266  0.102  0.507-  15 1.39  14 1.39  11 1.43
  14  0.268  0.270  0.514-  16 1.36  13 1.39  12 1.43
  15  0.304  0.020  0.490-  13 1.39  62 1.39  17 1.44
  16  0.310  0.348  0.504-  14 1.36  18 1.39  61 1.41
  17  0.348  0.104  0.481-  18 1.37  15 1.44  19 1.50
  18  0.351  0.268  0.491-  17 1.37  16 1.39  20 1.42
  19  0.393  0.019  0.467-  66 1.35  21 1.42  17 1.50
  20  0.393  0.358  0.484-  65 1.37  18 1.42  22 1.47
  21  0.437  0.105  0.464-  22 1.39  23 1.42  19 1.42
  22  0.437  0.274  0.471-  21 1.39  24 1.41  20 1.47
  23  0.480  0.025  0.456-  70 1.38  25 1.41  21 1.42
  24  0.482  0.351  0.466-  26 1.40  22 1.41  69 1.41
  25  0.526  0.099  0.452-  26 1.37  27 1.41  23 1.41
  26  0.524  0.267  0.457-  25 1.37  24 1.40  28 1.44
  27  0.571  0.026  0.450-  25 1.41  74 1.42  29 1.43
  28  0.569  0.354  0.461-  73 1.36  26 1.44  30 1.44
  29  0.616  0.108  0.450-  30 1.38  31 1.40  27 1.43
  30  0.614  0.277  0.454-  29 1.38  32 1.44  28 1.44
  31  0.659  0.021  0.455-  78 1.36  29 1.40  33 1.50
  32  0.659  0.354  0.464-  77 1.39  30 1.44  34 1.45
  33  0.705  0.102  0.465-  34 1.37  35 1.41  31 1.50
  34  0.705  0.271  0.469-  33 1.37  36 1.40  32 1.45
  35  0.748  0.017  0.475-  82 1.37  33 1.41  37 1.45
  36  0.744  0.355  0.485-  81 1.38  34 1.40  38 1.41
  37  0.791  0.105  0.487-  38 1.35  39 1.37  35 1.45
  38  0.787  0.269  0.493-  37 1.35  36 1.41  40 1.43
  39  0.831  0.027  0.500-  37 1.37  86 1.38  41 1.43
  40  0.828  0.357  0.507-  85 1.37  38 1.43  42 1.45
  41  0.874  0.114  0.508-  42 1.33  39 1.43  43 1.45
  42  0.873  0.277  0.513-  41 1.33  44 1.41  40 1.45
  43  0.917  0.029  0.522-  45 1.35  90 1.37  41 1.45
  44  0.914  0.365  0.524-  89 1.37  46 1.39  42 1.41
  45  0.959  0.110  0.524-  43 1.35  46 1.40   1 1.45   2 1.96
  46  0.957  0.281  0.529-  44 1.39  45 1.40   2 1.44   1 2.05
  47  0.005  0.603  0.553-  48 1.41  49 1.41  91 1.44
  48  0.003  0.777  0.553-  47 1.41  92 1.41  50 1.45  91 1.91
  49  0.049  0.524  0.550-  51 1.40   4 1.40  47 1.41
  50  0.048  0.855  0.543-   3 1.33  52 1.42  48 1.45
  51  0.094  0.602  0.548-  52 1.37  49 1.40  53 1.44
  52  0.092  0.770  0.543-  51 1.37  54 1.40  50 1.42
  53  0.139  0.518  0.545-   8 1.38  51 1.44  55 1.44
  54  0.136  0.848  0.537-   7 1.37  52 1.40  56 1.42
  55  0.182  0.602  0.535-  56 1.35  57 1.40  53 1.44
  56  0.180  0.767  0.528-  55 1.35  54 1.42  58 1.44
  57  0.225  0.520  0.525-  12 1.37  55 1.40  59 1.43
  58  0.221  0.848  0.512-  11 1.40  60 1.40  56 1.44
  59  0.267  0.603  0.512-  60 1.38  61 1.42  57 1.43
  60  0.264  0.769  0.503-  62 1.37  59 1.38  58 1.40
  61  0.310  0.522  0.502-  63 1.40  16 1.41  59 1.42
  62  0.304  0.849  0.489-  60 1.37  15 1.39  64 1.44
  63  0.352  0.602  0.490-  65 1.39  61 1.40  64 1.40
  64  0.350  0.772  0.483-  63 1.40  62 1.44  66 1.45
  65  0.395  0.526  0.481-  20 1.37  63 1.39  67 1.39
  66  0.392  0.853  0.468-  19 1.35  68 1.39  64 1.45
  67  0.437  0.609  0.473-  68 1.35  65 1.39  69 1.41
  68  0.435  0.772  0.465-  67 1.35  66 1.39  70 1.46
  69  0.481  0.524  0.471-  67 1.41  24 1.41  71 1.43
  70  0.481  0.854  0.459-  23 1.38  72 1.43  68 1.46
  71  0.527  0.600  0.467-  73 1.36  72 1.40  69 1.43
  72  0.526  0.767  0.457-  71 1.40  70 1.43  74 1.43
  73  0.570  0.520  0.467-  28 1.36  71 1.36  75 1.40
  74  0.570  0.851  0.450-  27 1.42  76 1.43  72 1.43
  75  0.613  0.606  0.466-  76 1.39  73 1.40  77 1.41
  76  0.614  0.775  0.459-  75 1.39  78 1.40  74 1.43
  77  0.656  0.520  0.473-  32 1.39  75 1.41  79 1.42
  78  0.658  0.857  0.463-  31 1.36  80 1.40  76 1.40
  79  0.700  0.606  0.480-  80 1.37  77 1.42  81 1.43
  80  0.700  0.774  0.474-  79 1.37  78 1.40  82 1.42
  81  0.743  0.524  0.489-  36 1.38  83 1.39  79 1.43
  82  0.744  0.851  0.482-  35 1.37  84 1.38  80 1.42
  83  0.783  0.604  0.504-  85 1.39  81 1.39  84 1.40
  84  0.785  0.774  0.497-  82 1.38  83 1.40  86 1.42
  85  0.826  0.525  0.513-  40 1.37  83 1.39  87 1.47
  86  0.827  0.860  0.507-  39 1.38  84 1.42  88 1.44
  87  0.870  0.609  0.523-  88 1.37  89 1.39  85 1.47
  88  0.869  0.779  0.522-  87 1.37  86 1.44  90 1.45
  89  0.913  0.532  0.531-  44 1.37  87 1.39  91 1.40
  90  0.912  0.866  0.532-  43 1.37  92 1.39  88 1.45
  91  0.955  0.614  0.544-  92 1.39  89 1.40  47 1.44  48 1.91
  92  0.953  0.786  0.546-  90 1.39  91 1.39  48 1.41
 
  LATTYP: Found a simple orthorhombic cell.
 ALAT       =     8.1000000000
 B/A-ratio  =     3.4629629630
 C/A-ratio  =     4.1358024691
  
  Lattice vectors:
  
 A1 = (   0.0000000000,  -8.1000000000,   0.0000000000)
 A2 = (  28.0500000000,   0.0000000000,   0.0000000000)
 A3 = (   0.0000000000,   0.0000000000,  33.5000000000)


Analysis of symmetry for initial positions (statically):
=====================================================================
 Subroutine PRICEL returns:
 Original cell was already a primitive cell.
 

 Routine SETGRP: Setting up the symmetry group for a 
 simple orthorhombic supercell.


 Subroutine GETGRP returns: Found  1 space group operations
 (whereof  1 operations were pure point group operations)
 out of a pool of  8 trial point group operations.


The static configuration has the point symmetry C_1 .


Analysis of symmetry for dynamics (positions and initial velocities):
=====================================================================
 Subroutine PRICEL returns:
 Original cell was already a primitive cell.
 

 Routine SETGRP: Setting up the symmetry group for a 
 simple orthorhombic supercell.


 Subroutine GETGRP returns: Found  1 space group operations
 (whereof  1 operations were pure point group operations)
 out of a pool of  8 trial point group operations.


The dynamic configuration has the point symmetry C_1 .


 Subroutine INISYM returns: Found  1 space group operations
 (whereof  1 operations are pure point group operations),
 and found     1 'primitive' translations


----------------------------------------------------------------------------------------

                                     Primitive cell                                     

  volume of cell :    7611.3675

  direct lattice vectors                    reciprocal lattice vectors
    28.050000000  0.000000000  0.000000000     0.035650624  0.000000000  0.000000000
     0.000000000  8.100000000  0.000000000     0.000000000  0.123456790  0.000000000
     0.000000000  0.000000000 33.500000000     0.000000000  0.000000000  0.029850746

  length of vectors
    28.050000000  8.100000000 33.500000000     0.035650624  0.123456790  0.029850746

  position of ions in fractional coordinates (direct lattice)
     0.005502282  0.098593704  0.541689552
     0.005052727  0.269165432  0.544397015
     0.049592513  0.019038272  0.542591045
     0.047800000  0.351125926  0.547779104
     0.094065597  0.102300247  0.542331343
     0.095187166  0.269327160  0.545343284
     0.135799643  0.017107160  0.532683582
     0.139065954  0.347897531  0.542829851
     0.179981105  0.098644444  0.525608955
     0.182218538  0.267279012  0.532916418
     0.220639216  0.020551605  0.511791045
     0.225760428  0.351006173  0.527071642
     0.265672371  0.101605062  0.506692537
     0.268163636  0.270465432  0.513797015
     0.304172549  0.020131852  0.489823881
     0.309893405  0.347522222  0.504238806
     0.347976471  0.104348642  0.480585075
     0.350577184  0.267696296  0.490531343
     0.392759358  0.019443210  0.467352239
     0.393240642  0.357991358  0.484376119
     0.436834225  0.105241358  0.464017910
     0.436869875  0.274316049  0.471238806
     0.480484848  0.024626049  0.455623881
     0.481568627  0.350698765  0.465892537
     0.525518717  0.099201111  0.451916418
     0.524135472  0.267250617  0.457026866
     0.570894831  0.026262222  0.449800000
     0.568809269  0.354060494  0.461170149
     0.616196078  0.108215432  0.449638806
     0.614434938  0.277464198  0.453686567
     0.658873440  0.021188025  0.455265672
     0.659404635  0.353514815  0.463716418
     0.705294118  0.102498765  0.465310448
     0.704841355  0.270744444  0.468794030
     0.747607843  0.017380741  0.475038806
     0.744231729  0.354859259  0.484698507
     0.790531194  0.104599259  0.486513433
     0.786837790  0.268744444  0.493265672
     0.830702317  0.026972593  0.500358209
     0.827675579  0.357487654  0.506862687
     0.874413547  0.113511481  0.507722388
     0.873033868  0.276567901  0.513107463
     0.916695187  0.028920370  0.521779104
     0.914338681  0.364732099  0.524474627
     0.958545455  0.109884198  0.524107463
     0.957194296  0.281225926  0.529379104
     0.004607879  0.603388889  0.552886567
     0.002645351  0.777046914  0.552838806
     0.049172906  0.523786420  0.550002985
     0.047928342  0.855217284  0.543328358
     0.093564706  0.602169136  0.547814925
     0.092069162  0.769732099  0.542838806
     0.138719073  0.517871605  0.544811940
     0.135823886  0.848425926  0.536635821
     0.182400000  0.602466667  0.534632836
     0.179567558  0.767119753  0.527928358
     0.224688770  0.520280247  0.525005970
     0.220787879  0.847772840  0.511623881
     0.266946881  0.602866667  0.512191045
     0.264268093  0.768817284  0.503373134
     0.309951872  0.521729630  0.501731343
     0.303902674  0.848983951  0.488979104
     0.351989305  0.601575309  0.490316418
     0.349570053  0.771508642  0.483217910
     0.395105169  0.526246914  0.481438806
     0.391953654  0.852941975  0.468349254
     0.437262032  0.608501235  0.472919403
     0.435365419  0.772007407  0.464841791
     0.481151515  0.524069136  0.470570149
     0.481105169  0.854344444  0.458808955
     0.526983957  0.599597531  0.466913433
     0.525550802  0.767198765  0.457194030
     0.569811052  0.520332099  0.466692537
     0.569750446  0.851440741  0.450134328
     0.613130125  0.606107407  0.465805970
     0.614385027  0.774851852  0.458719403
     0.656032086  0.520148148  0.473405970
     0.658185383  0.856690123  0.463340299
     0.699654189  0.605912346  0.479665672
     0.699882353  0.773713580  0.474450746
     0.743012478  0.523518519  0.489397015
     0.744431373  0.850745679  0.482059701
     0.783265597  0.603902469  0.503644776
     0.784538324  0.774308642  0.497352239
     0.825508021  0.524548148  0.513340299
     0.827033868  0.860117284  0.507376119
     0.870181818  0.609391358  0.523026866
     0.869062389  0.778662963  0.522355224
     0.913422460  0.531753086  0.531146269
     0.912409982  0.865945679  0.532280597
     0.954620321  0.614079012  0.543770149
     0.953001783  0.785575309  0.545901493

  ion indices of the primitive-cell ions
   primitive index   ion index
                 1           1
                 2           2
                 3           3
                 4           4
                 5           5
                 6           6
                 7           7
                 8           8
                 9           9
                10          10
                11          11
                12          12
                13          13
                14          14
                15          15
                16          16
                17          17
                18          18
                19          19
                20          20
                21          21
                22          22
                23          23
                24          24
                25          25
                26          26
                27          27
                28          28
                29          29
                30          30
                31          31
                32          32
                33          33
                34          34
                35          35
                36          36
                37          37
                38          38
                39          39
                40          40
                41          41
                42          42
                43          43
                44          44
                45          45
                46          46
                47          47
                48          48
                49          49
                50          50
                51          51
                52          52
                53          53
                54          54
                55          55
                56          56
                57          57
                58          58
                59          59
                60          60
                61          61
                62          62
                63          63
                64          64
                65          65
                66          66
                67          67
                68          68
                69          69
                70          70
                71          71
                72          72
                73          73
                74          74
                75          75
                76          76
                77          77
                78          78
                79          79
                80          80
                81          81
                82          82
                83          83
                84          84
                85          85
                86          86
                87          87
                88          88
                89          89
                90          90
                91          91
                92          92

----------------------------------------------------------------------------------------

 
 
 KPOINTS: K-Spacing Value to Generate K-Mesh: 0.03

Automatic generation of k-mesh.
 Grid dimensions read from file:
 generate k-points for:    1    4    1

 Generating k-lattice:

  Cartesian coordinates                     Fractional coordinates (reciprocal lattice)
     0.035650624  0.000000000  0.000000000     1.000000000  0.000000000  0.000000000
     0.000000000  0.030864198  0.000000000     0.000000000  0.250000000  0.000000000
     0.000000000  0.000000000  0.029850746     0.000000000  0.000000000  1.000000000

  Length of vectors
     0.035650624  0.030864198  0.029850746

  Shift w.r.t. Gamma in fractional coordinates (k-lattice)
     0.000000000  0.000000000  0.000000000

 
 Subroutine IBZKPT returns following result:
 ===========================================
 
 Found      3 irreducible k-points:
 
 Following reciprocal coordinates:
            Coordinates               Weight
  0.000000  0.000000  0.000000      1.000000
  0.000000  0.250000  0.000000      2.000000
  0.000000  0.500000  0.000000      1.000000
 
 Following cartesian coordinates:
            Coordinates               Weight
  0.000000  0.000000  0.000000      1.000000
  0.000000  0.030864  0.000000      2.000000
  0.000000  0.061728  0.000000      1.000000
 


--------------------------------------------------------------------------------------------------------




 Dimension of arrays:
   k-points           NKPTS =      3   k-points in BZ     NKDIM =      3   number of bands    NBANDS=    232
   number of dos      NEDOS =    301   number of ions     NIONS =     92
   non local maximal  LDIM  =      4   non local SUM 2l+1 LMDIM =      8
   total plane-waves  NPLWV = ******
   max r-space proj   IRMAX =   1967   max aug-charges    IRDMAX=   5083
   dimension x,y,z NGX =   210 NGY =   60 NGZ =  250
   dimension x,y,z NGXF=   420 NGYF=  120 NGZF=  500
   support grid    NGXF=   420 NGYF=  120 NGZF=  500
   ions per type =              92
   NGX,Y,Z   is equivalent  to a cutoff of  12.45, 12.31, 12.41 a.u.
   NGXF,Y,Z  is equivalent  to a cutoff of  24.89, 24.63, 24.81 a.u.

 SYSTEM =  unknown system                          
 POSCAR =   C                                      

 Startparameter for this run:
   NWRITE =      2    write-flag & timer
   PREC   = accura    normal or accurate (medium, high low for compatibility)
   ISTART =      0    job   : 0-new  1-cont  2-samecut
   ICHARG =      2    charge: 1-file 2-atom 10-const
   ISPIN  =      1    spin polarized calculation?
   LNONCOLLINEAR =      F non collinear calculations
   LSORBIT =      F    spin-orbit coupling
   INIWAV =      1    electr: 0-lowe 1-rand  2-diag
   LASPH  =      F    aspherical Exc in radial PAW
 Electronic Relaxation 1
   ENCUT  =  500.0 eV  36.75 Ry    6.06 a.u.  51.14 14.77 61.08*2*pi/ulx,y,z
   ENINI  =  500.0     initial cutoff
   ENAUG  =  644.9 eV  augmentation charge cutoff
   NELM   =    150;   NELMIN=  2; NELMDL= -5     # of ELM steps 
   EDIFF  = 0.1E-05   stopping-criterion for ELM
   LREAL  =      T    real-space projection
   NLSPLINE    = F    spline interpolate recip. space projectors
   LCOMPAT=      F    compatible to vasp.4.4
   GGA_COMPAT  = T    GGA compatible to vasp.4.4-vasp.4.6
   LMAXPAW     = -100 max onsite density
   LMAXMIX     =    2 max onsite mixed and CHGCAR
   VOSKOWN=      0    Vosko Wilk Nusair interpolation
   ROPT   =   -0.00025
 Ionic relaxation
   EDIFFG = 0.1E-04   stopping-criterion for IOM
   NSW    =      0    number of steps for IOM
   NBLOCK =      1;   KBLOCK =      1    inner block; outer block 
   IBRION =     -1    ionic relax: 0-MD 1-quasi-New 2-CG
   NFREE  =      0    steps in history (QN), initial steepest desc. (CG)
   ISIF   =      2    stress and relaxation
   IWAVPR =     10    prediction:  0-non 1-charg 2-wave 3-comb
   ISYM   =      2    0-nonsym 1-usesym 2-fastsym
   LCORR  =      T    Harris-Foulkes like correction to forces

   POTIM  = 0.5000    time-step for ionic-motion
   TEIN   =    0.0    initial temperature
   TEBEG  =    0.0;   TEEND  =   0.0 temperature during run
   SMASS  =  -3.00    Nose mass-parameter (am)
   estimated Nose-frequenzy (Omega)   =  0.10E-29 period in steps = 0.13E+47 mass=  -0.180E-25a.u.
   SCALEE = 1.0000    scale energy and forces
   NPACO  =    256;   APACO  = 10.0  distance and # of slots for P.C.
   PSTRESS=    0.0 pullay stress

  Mass of Ions in am
   POMASS =  12.01
  Ionic Valenz
   ZVAL   =   4.00
  Atomic Wigner-Seitz radii
   RWIGS  =  -1.00
  virtual crystal weights 
   VCA    =   1.00
   NELECT =     368.0000    total number of electrons
   NUPDOWN=      -1.0000    fix difference up-down

 DOS related values:
   EMIN   =  10.00;   EMAX   =-10.00  energy-range for DOS
   EFERMI =   0.00;   METHOD = LEGACY      
   ISMEAR =     0;   SIGMA  =   0.20  broadening in eV -4-tet -1-fermi 0-gaus
   EFERMI_NEDOS =   21; number of points for ismear=-14 and -15

 Electronic relaxation 2 (details)
   IALGO  =     38    algorithm
   LDIAG  =      T    sub-space diagonalisation (order eigenvalues)
   LSUBROT=      F    optimize rotation matrix (better conditioning)
   TURBO    =      0    0=normal 1=particle mesh
   IRESTART =      0    0=no restart 2=restart with 2 vectors
   NREBOOT  =      0    no. of reboots
   NMIN     =      0    reboot dimension
   EREF     =   0.00    reference energy to select bands
   IMIX   =      4    mixing-type and parameters
     AMIX     =   0.40;   BMIX     =  1.00
     AMIX_MAG =   1.60;   BMIX_MAG =  1.00
     AMIN     =   0.10
     WC   =   100.;   INIMIX=   1;  MIXPRE=   1;  MAXMIX= -45

 Intra band minimization:
   WEIMIN = 0.0000     energy-eigenvalue tresh-hold
   EBREAK =  0.11E-08  absolut break condition
   DEPER  =   0.30     relativ break condition  

   TIME   =   0.40     timestep for ELM

  volume/ion in A,a.u.               =      82.73       558.30
  Fermi-wavevector in a.u.,A,eV,Ry     =   0.596398  1.127030  4.839472  0.355691
  Thomas-Fermi vector in A             =   1.646729
 
 Write flags
   LWAVE        =      F    write WAVECAR
   LDOWNSAMPLE  =      F    k-point downsampling of WAVECAR
   LCHARG       =      F    write CHGCAR
   LVTOT        =      F    write LOCPOT, total local potential
   LVHAR        =      F    write LOCPOT, Hartree potential only
   WRT_POTENTIAL= false  ! write potential to hdf5 file
   LELF         =      F    write electronic localiz. function (ELF)
   LORBIT       =      0    0 simple, 1 ext, 2 COOP (PROOUT), +10 PAW based schemes


 Python interface
   PLUGINS active      =      F    recompile with -DPLUGINS to activate
 
 Dipole corrections
   LMONO      =      F    monopole corrections only (constant potential shift)
   LDIPOL     =      F    correct potential (dipole corrections)
   IDIPOL     =      0    1-x, 2-y, 3-z, 4-all directions 
   EPSILON    =  1.0000000 bulk dielectric constant
   LVACPOTAV  =      F  vacuum potentials using an averaging scheme for the charge density
   VACPOTFLAT =  0.1000000 required flatness to determine vacuum potential
 
Coulomb truncation method
  LTRUNCATE          =      F  Coulomb kernel truncation to be used
  IDIMENSIONALITY    =      3  Dimensionality of cutoff (0 molecules / 2 surfaces)
  ISURFACE           =     -1  Direction of surface normal
  LCOARSEN           =      F  Coarsen the charge grid before padding, preferred

 
 Exchange correlation treatment:
   GGA     = PE    functional components
   XC_C    = 1    coefficients multiplying the functional components
   LIBXC   =     F    Libxc                    
   VOSKOWN =     0    Vosko Wilk Nusair interpolation
   LHFCALC =     F    Hartree Fock is set to
   LHFONE  =     F    Hartree Fock one center treatment
   AEXX    =    0.0000 exact exchange contribution

 Parameters of functionals:
   PE:
     No parameter
 
 Van der Waals corrections
   IVDW    =     0    specifies the selected vdW correction

 Linear response parameters
   LEPSILON=     F    determine dielectric tensor
   LRPA    =     F    only Hartree local field effects (RPA)
   LNABLA  =     F    use nabla operator in PAW spheres
   LVEL    =     F    velocity operator in full k-point grid
   CSHIFT  =0.1000    complex shift for real part using Kramers Kronig
   OMEGAMAX=  -1.0    maximum frequency
   DEG_THRESHOLD= 0.2000000E-02 threshold for treating states as degnerate
   RTIME   =   -0.100 relaxation time in fs
  (WPLASMAI=    0.000 imaginary part of plasma frequency in eV, 0.658/RTIME)
   DFIELD  = 0.0000000 0.0000000 0.0000000 field for delta impulse in time
 
  Optional k-point grid parameters
   LKPOINTS_OPT  =     F    use optional k-point grid
   KPOINTS_OPT_MODE=     1    mode for optional k-point grid
 
 Orbital magnetization related:
   ORBITALMAG=     F  switch on orbital magnetization
   LCHIMAG   =     F  perturbation theory with respect to B field
   DQ        =  0.001000  dq finite difference perturbation B field
   LLRAUG    =     F  two centre corrections for induced B field
   LBONE     =     F  B-component reconstruction in AE one-centre
   LVGVCALC  =     T  calculate vGv susceptibility
   LVGVAPPL  =     F  apply vGv susceptibility instead of pGv for G=0

 Random number generation:
   RANDOM_GENERATOR = DEFAULT
   PCG_SEED         = not used


--------------------------------------------------------------------------------------------------------


 Static calculation
 charge density and potential will be updated during run
 non-spin polarized calculation
 Variant of blocked Davidson
 Davidson routine will perform the subspace rotation
 perform sub-space diagonalisation
    after iterative eigenvector-optimisation
 modified Broyden-mixing scheme, WC =      100.0
 initial mixing is a Kerker type mixing with AMIX =  0.4000 and BMIX =      1.0000
 Hartree-type preconditioning will be used
 using additional bands            48
 real space projection scheme for non local part
 use partial core corrections
 calculate Harris-corrections to forces 
   (improved forces if not selfconsistent)
 use gradient corrections 
 use of overlap-Matrix (Vanderbilt PP)
 Gauss-broadening in eV      SIGMA  =   0.20


--------------------------------------------------------------------------------------------------------


  energy-cutoff  :      500.00
  volume of cell :     7611.37
      direct lattice vectors                 reciprocal lattice vectors
    28.050000000  0.000000000  0.000000000     0.035650624  0.000000000  0.000000000
     0.000000000  8.100000000  0.000000000     0.000000000  0.123456790  0.000000000
     0.000000000  0.000000000 33.500000000     0.000000000  0.000000000  0.029850746

  length of vectors
    28.050000000  8.100000000 33.500000000     0.035650624  0.123456790  0.029850746


 
 k-points in units of 2pi/SCALE and weight: K-Spacing Value to Generate K-Mesh: 0.03
   0.00000000  0.00000000  0.00000000       0.250
   0.00000000  0.03086420  0.00000000       0.500
   0.00000000  0.06172840  0.00000000       0.250
 
 k-points in reciprocal lattice and weights: K-Spacing Value to Generate K-Mesh: 0.03
   0.00000000  0.00000000  0.00000000       0.250
   0.00000000  0.25000000  0.00000000       0.500
   0.00000000  0.50000000  0.00000000       0.250
 
 position of ions in fractional coordinates (direct lattice) 
   0.00550228  0.09859370  0.54168955
   0.00505273  0.26916543  0.54439701
   0.04959251  0.01903827  0.54259104
   0.04780000  0.35112593  0.54777910
   0.09406560  0.10230025  0.54233134
   0.09518717  0.26932716  0.54534328
   0.13579964  0.01710716  0.53268358
   0.13906595  0.34789753  0.54282985
   0.17998111  0.09864444  0.52560896
   0.18221854  0.26727901  0.53291642
   0.22063922  0.02055160  0.51179104
   0.22576043  0.35100617  0.52707164
   0.26567237  0.10160506  0.50669254
   0.26816364  0.27046543  0.51379701
   0.30417255  0.02013185  0.48982388
   0.30989340  0.34752222  0.50423881
   0.34797647  0.10434864  0.48058507
   0.35057718  0.26769630  0.49053134
   0.39275936  0.01944321  0.46735224
   0.39324064  0.35799136  0.48437612
   0.43683422  0.10524136  0.46401791
   0.43686988  0.27431605  0.47123881
   0.48048485  0.02462605  0.45562388
   0.48156863  0.35069877  0.46589254
   0.52551872  0.09920111  0.45191642
   0.52413547  0.26725062  0.45702687
   0.57089483  0.02626222  0.44980000
   0.56880927  0.35406049  0.46117015
   0.61619608  0.10821543  0.44963881
   0.61443494  0.27746420  0.45368657
   0.65887344  0.02118802  0.45526567
   0.65940463  0.35351481  0.46371642
   0.70529412  0.10249877  0.46531045
   0.70484135  0.27074444  0.46879403
   0.74760784  0.01738074  0.47503881
   0.74423173  0.35485926  0.48469851
   0.79053119  0.10459926  0.48651343
   0.78683779  0.26874444  0.49326567
   0.83070232  0.02697259  0.50035821
   0.82767558  0.35748765  0.50686269
   0.87441355  0.11351148  0.50772239
   0.87303387  0.27656790  0.51310746
   0.91669519  0.02892037  0.52177910
   0.91433868  0.36473210  0.52447463
   0.95854545  0.10988420  0.52410746
   0.95719430  0.28122593  0.52937910
   0.00460788  0.60338889  0.55288657
   0.00264535  0.77704691  0.55283881
   0.04917291  0.52378642  0.55000299
   0.04792834  0.85521728  0.54332836
   0.09356471  0.60216914  0.54781493
   0.09206916  0.76973210  0.54283881
   0.13871907  0.51787160  0.54481194
   0.13582389  0.84842593  0.53663582
   0.18240000  0.60246667  0.53463284
   0.17956756  0.76711975  0.52792836
   0.22468877  0.52028025  0.52500597
   0.22078788  0.84777284  0.51162388
   0.26694688  0.60286667  0.51219104
   0.26426809  0.76881728  0.50337313
   0.30995187  0.52172963  0.50173134
   0.30390267  0.84898395  0.48897910
   0.35198930  0.60157531  0.49031642
   0.34957005  0.77150864  0.48321791
   0.39510517  0.52624691  0.48143881
   0.39195365  0.85294198  0.46834925
   0.43726203  0.60850123  0.47291940
   0.43536542  0.77200741  0.46484179
   0.48115152  0.52406914  0.47057015
   0.48110517  0.85434444  0.45880896
   0.52698396  0.59959753  0.46691343
   0.52555080  0.76719877  0.45719403
   0.56981105  0.52033210  0.46669254
   0.56975045  0.85144074  0.45013433
   0.61313012  0.60610741  0.46580597
   0.61438503  0.77485185  0.45871940
   0.65603209  0.52014815  0.47340597
   0.65818538  0.85669012  0.46334030
   0.69965419  0.60591235  0.47966567
   0.69988235  0.77371358  0.47445075
   0.74301248  0.52351852  0.48939701
   0.74443137  0.85074568  0.48205970
   0.78326560  0.60390247  0.50364478
   0.78453832  0.77430864  0.49735224
   0.82550802  0.52454815  0.51334030
   0.82703387  0.86011728  0.50737612
   0.87018182  0.60939136  0.52302687
   0.86906239  0.77866296  0.52235522
   0.91342246  0.53175309  0.53114627
   0.91240998  0.86594568  0.53228060
   0.95462032  0.61407901  0.54377015
   0.95300178  0.78557531  0.54590149
 
 position of ions in cartesian coordinates  (Angst):
   0.15433900  0.79860900 18.14660000
   0.14172900  2.18024000 18.23730000
   1.39107000  0.15421000 18.17680000
   1.34079000  2.84412000 18.35060000
   2.63854000  0.82863200 18.16810000
   2.67000000  2.18155000 18.26900000
   3.80918000  0.13856800 17.84490000
   3.90080000  2.81797000 18.18480000
   5.04847000  0.79902000 17.60790000
   5.11123000  2.16496000 17.85270000
   6.18893000  0.16646800 17.14500000
   6.33258000  2.84315000 17.65690000
   7.45211000  0.82300100 16.97420000
   7.52199000  2.19077000 17.21220000
   8.53204000  0.16306800 16.40910000
   8.69251000  2.81493000 16.89200000
   9.76074000  0.84522400 16.09960000
   9.83369000  2.16834000 16.43280000
  11.01690000  0.15749000 15.65630000
  11.03040000  2.89973000 16.22660000
  12.25320000  0.85245500 15.54460000
  12.25420000  2.22196000 15.78650000
  13.47760000  0.19947100 15.26340000
  13.50800000  2.84066000 15.60740000
  14.74080000  0.80352900 15.13920000
  14.70200000  2.16473000 15.31040000
  16.01360000  0.21272400 15.06830000
  15.95510000  2.86789000 15.44920000
  17.28430000  0.87654500 15.06290000
  17.23490000  2.24746000 15.19850000
  18.48140000  0.17162300 15.25140000
  18.49630000  2.86347000 15.53450000
  19.78350000  0.83024000 15.58790000
  19.77080000  2.19303000 15.70460000
  20.97040000  0.14078400 15.91380000
  20.87570000  2.87436000 16.23740000
  22.17440000  0.84725400 16.29820000
  22.07080000  2.17683000 16.52440000
  23.30120000  0.21847800 16.76200000
  23.21630000  2.89565000 16.97990000
  24.52730000  0.91944300 17.00870000
  24.48860000  2.24020000 17.18910000
  25.71330000  0.23425500 17.47960000
  25.64720000  2.95433000 17.56990000
  26.88720000  0.89006200 17.55760000
  26.84930000  2.27793000 17.73420000
   0.12925100  4.88745000 18.52170000
   0.07420210  6.29408000 18.52010000
   1.37930000  4.24267000 18.42510000
   1.34439000  6.92726000 18.20150000
   2.62449000  4.87757000 18.35180000
   2.58254000  6.23483000 18.18510000
   3.89107000  4.19476000 18.25120000
   3.80986000  6.87225000 17.97730000
   5.11632000  4.87998000 17.91020000
   5.03687000  6.21367000 17.68560000
   6.30252000  4.21427000 17.58770000
   6.19310000  6.86696000 17.13940000
   7.48786000  4.88322000 17.15840000
   7.41272000  6.22742000 16.86300000
   8.69415000  4.22601000 16.80800000
   8.52447000  6.87677000 16.38080000
   9.87330000  4.87276000 16.42560000
   9.80544000  6.24922000 16.18780000
  11.08270000  4.26260000 16.12820000
  10.99430000  6.90883000 15.68970000
  12.26520000  4.92886000 15.84280000
  12.21200000  6.25326000 15.57220000
  13.49630000  4.24496000 15.76410000
  13.49500000  6.92019000 15.37010000
  14.78190000  4.85674000 15.64160000
  14.74170000  6.21431000 15.31600000
  15.98320000  4.21469000 15.63420000
  15.98150000  6.89667000 15.07950000
  17.19830000  4.90947000 15.60450000
  17.23350000  6.27630000 15.36710000
  18.40170000  4.21320000 15.85910000
  18.46210000  6.93919000 15.52190000
  19.62530000  4.90789000 16.06880000
  19.63170000  6.26708000 15.89410000
  20.84150000  4.24050000 16.39480000
  20.88130000  6.89104000 16.14900000
  21.97060000  4.89161000 16.87210000
  22.00630000  6.27190000 16.66130000
  23.15550000  4.24884000 17.19690000
  23.19830000  6.96695000 16.99710000
  24.40860000  4.93607000 17.52140000
  24.37720000  6.30717000 17.49890000
  25.62150000  4.30720000 17.79340000
  25.59310000  7.01416000 17.83140000
  26.77710000  4.97404000 18.21630000
  26.73170000  6.36316000 18.28770000
 


--------------------------------------------------------------------------------------------------------


 k-point     1 :   0.0000 0.0000 0.0000  plane waves:  193173
 k-point     2 :   0.0000 0.2500 0.0000  plane waves:  193166
 k-point     3 :   0.0000 0.5000 0.0000  plane waves:  193226

 maximum and minimum number of plane-waves per node :    193226   193166

 maximum number of plane-waves:    193226
 maximum index in each direction: 
   IXMAX=   51   IYMAX=   14   IZMAX=   61
   IXMIN=  -51   IYMIN=  -15   IZMIN=  -61


 serial   3D FFT for wavefunctions
 parallel 3D FFT for charge:
    minimum data exchange during FFTs selected (reduces bandwidth)


 total amount of memory used by VASP MPI-rank0  2294516. kBytes
=======================================================================

   base                                    :      30000. kBytes
   nonlr-proj                              :      15082. kBytes
   fftplans                                :     436558. kBytes
   grid                                    :     732614. kBytes
   one-center                              :        282. kBytes
   wavefun                                 :    1079980. kBytes
 
     INWAV:  cpu time      0.0000: real time      0.0000
 Broyden mixing: mesh for mixing (old mesh)
   NGX =103   NGY = 29   NGZ =123
  (NGX  =420   NGY  =120   NGZ  =500)
  gives a total of 367401 points

 initial charge density was supplied:
 charge density of overlapping atoms calculated
 number of electron     368.0000000 magnetization 
 keeping initial charge density in first step


--------------------------------------------------------------------------------------------------------


 Maximum index for non-local projection operator          1873
 Maximum index for augmentation-charges          2381 (set IRDMAX)


--------------------------------------------------------------------------------------------------------


 First call to EWALD:  gamma=   0.090
 Maximum number of real-space cells   2x   6x   2
 Maximum number of reciprocal cells   4x   1x   4

    FEWALD:  cpu time      0.1645: real time      0.1645


--------------------------------------- Ionic step        1  -------------------------------------------




--------------------------------------- Iteration      1(   1)  ---------------------------------------


    POTLOK:  cpu time      0.4201: real time      0.4496
    SETDIJ:  cpu time      0.0417: real time      0.0417
     EDDAV:  cpu time     11.1818: real time     11.1881
       DOS:  cpu time      0.0008: real time      0.0008
    --------------------------------------------
      LOOP:  cpu time     11.6443: real time     11.6802

 eigenvalue-minimisations  :  1736
 total energy-change (2. order) : 0.3631969E+04  (-0.1197721E+05)
 number of electron     368.0000000 magnetization 
 augmentation part      368.0000000 magnetization 

 Free energy of the ion-electron system (eV)
  ---------------------------------------------------
  alpha Z        PSCENC =        91.34886789
  Ewald energy   TEWEN  =    120000.79983386
  -Hartree energ DENC   =   -129322.60637823
  -exchange      EXHF   =         0.00000000
  -V(xc)+E(xc)   XCENC  =      1221.76579998
  PAW double counting   =      9984.02826696   -10036.41360137
  entropy T*S    EENTRO =        -0.85690147
  eigenvalues    EBANDS =     -1843.75149671
  atomic energy  EATOM  =     13537.65479391
  Solvation  Ediel_sol  =         0.00000000
  ---------------------------------------------------
  free energy    TOTEN  =      3631.96918482 eV

  energy without entropy =     3632.82608629  energy(sigma->0) =     3632.39763556


--------------------------------------------------------------------------------------------------------




--------------------------------------- Iteration      1(   2)  ---------------------------------------


     EDDAV:  cpu time     13.0319: real time     13.0361
       DOS:  cpu time      0.0007: real time      0.0007
    --------------------------------------------
      LOOP:  cpu time     13.0326: real time     13.0368

 eigenvalue-minimisations  :  2128
 total energy-change (2. order) :-0.3456973E+04  (-0.3199293E+04)
 number of electron     368.0000000 magnetization 
 augmentation part      368.0000000 magnetization 

 Free energy of the ion-electron system (eV)
  ---------------------------------------------------
  alpha Z        PSCENC =        91.34886789
  Ewald energy   TEWEN  =    120000.79983386
  -Hartree energ DENC   =   -129322.60637823
  -exchange      EXHF   =         0.00000000
  -V(xc)+E(xc)   XCENC  =      1221.76579998
  PAW double counting   =      9984.02826696   -10036.41360137
  entropy T*S    EENTRO =        -0.19105904
  eigenvalues    EBANDS =     -5301.39003022
  atomic energy  EATOM  =     13537.65479391
  Solvation  Ediel_sol  =         0.00000000
  ---------------------------------------------------
  free energy    TOTEN  =       174.99649374 eV

  energy without entropy =      175.18755278  energy(sigma->0) =      175.09202326


--------------------------------------------------------------------------------------------------------




--------------------------------------- Iteration      1(   3)  ---------------------------------------


     EDDAV:  cpu time     11.2973: real time     11.3012
       DOS:  cpu time      0.0007: real time      0.0007
    --------------------------------------------
      LOOP:  cpu time     11.2980: real time     11.3019

 eigenvalue-minimisations  :  1792
 total energy-change (2. order) :-0.1010006E+04  (-0.9864212E+03)
 number of electron     368.0000000 magnetization 
 augmentation part      368.0000000 magnetization 

 Free energy of the ion-electron system (eV)
  ---------------------------------------------------
  alpha Z        PSCENC =        91.34886789
  Ewald energy   TEWEN  =    120000.79983386
  -Hartree energ DENC   =   -129322.60637823
  -exchange      EXHF   =         0.00000000
  -V(xc)+E(xc)   XCENC  =      1221.76579998
  PAW double counting   =      9984.02826696   -10036.41360137
  entropy T*S    EENTRO =        -0.04811185
  eigenvalues    EBANDS =     -6311.53871237
  atomic energy  EATOM  =     13537.65479391
  Solvation  Ediel_sol  =         0.00000000
  ---------------------------------------------------
  free energy    TOTEN  =      -835.00924122 eV

  energy without entropy =     -834.96112937  energy(sigma->0) =     -834.98518529


--------------------------------------------------------------------------------------------------------




--------------------------------------- Iteration      1(   4)  ---------------------------------------


     EDDAV:  cpu time     10.9242: real time     10.9282
       DOS:  cpu time      0.0007: real time      0.0007
    --------------------------------------------
      LOOP:  cpu time     10.9248: real time     10.9289

 eigenvalue-minimisations  :  1720
 total energy-change (2. order) :-0.6155469E+02  (-0.6053780E+02)
 number of electron     368.0000000 magnetization 
 augmentation part      368.0000000 magnetization 

 Free energy of the ion-electron system (eV)
  ---------------------------------------------------
  alpha Z        PSCENC =        91.34886789
  Ewald energy   TEWEN  =    120000.79983386
  -Hartree energ DENC   =   -129322.60637823
  -exchange      EXHF   =         0.00000000
  -V(xc)+E(xc)   XCENC  =      1221.76579998
  PAW double counting   =      9984.02826696   -10036.41360137
  entropy T*S    EENTRO =        -0.06867086
  eigenvalues    EBANDS =     -6373.07284058
  atomic energy  EATOM  =     13537.65479391
  Solvation  Ediel_sol  =         0.00000000
  ---------------------------------------------------
  free energy    TOTEN  =      -896.56392843 eV

  energy without entropy =     -896.49525757  energy(sigma->0) =     -896.52959300


--------------------------------------------------------------------------------------------------------




--------------------------------------- Iteration      1(   5)  ---------------------------------------


     EDDAV:  cpu time     11.4230: real time     11.4272
       DOS:  cpu time      0.0007: real time      0.0007
    CHARGE:  cpu time      1.2048: real time      1.2064
    MIXING:  cpu time      0.2752: real time      0.2765
    --------------------------------------------
      LOOP:  cpu time     12.9038: real time     12.9108

 eigenvalue-minimisations  :  1824
 total energy-change (2. order) :-0.1516891E+01  (-0.1495557E+01)
 number of electron     368.0000005 magnetization 
 augmentation part       10.1712638 magnetization 

 Broyden mixing:
  rms(total) = 0.45554E+01    rms(broyden)= 0.45548E+01
  rms(prec ) = 0.46728E+01
  weight for this iteration     100.00

 Free energy of the ion-electron system (eV)
  ---------------------------------------------------
  alpha Z        PSCENC =        91.34886789
  Ewald energy   TEWEN  =    120000.79983386
  -Hartree energ DENC   =   -129322.60637823
  -exchange      EXHF   =         0.00000000
  -V(xc)+E(xc)   XCENC  =      1221.76579998
  PAW double counting   =      9984.02826696   -10036.41360137
  entropy T*S    EENTRO =        -0.06945605
  eigenvalues    EBANDS =     -6374.58894603
  atomic energy  EATOM  =     13537.65479391
  Solvation  Ediel_sol  =         0.00000000
  ---------------------------------------------------
  free energy    TOTEN  =      -898.08081908 eV

  energy without entropy =     -898.01136303  energy(sigma->0) =     -898.04609106


--------------------------------------------------------------------------------------------------------




--------------------------------------- Iteration      1(   6)  ---------------------------------------


    POTLOK:  cpu time      0.3225: real time      0.3225
    SETDIJ:  cpu time      0.0403: real time      0.0404
     EDDAV:  cpu time     10.2457: real time     10.2491
       DOS:  cpu time      0.0007: real time      0.0007
    CHARGE:  cpu time      1.1571: real time      1.1583
    MIXING:  cpu time      0.2796: real time      0.2795
    --------------------------------------------
      LOOP:  cpu time     12.0460: real time     12.0505

 eigenvalue-minimisations  :  1584
 total energy-change (2. order) : 0.4968546E+02  (-0.4762803E+01)
 number of electron     368.0000005 magnetization 
 augmentation part        9.7416816 magnetization 

 Broyden mixing:
  rms(total) = 0.26742E+01    rms(broyden)= 0.26742E+01
  rms(prec ) = 0.27324E+01
  weight for this iteration     100.00

 eigenvalues of (default mixing * dielectric matrix)
  average eigenvalue GAMMA=   2.1803
  2.1803

 Free energy of the ion-electron system (eV)
  ---------------------------------------------------
  alpha Z        PSCENC =        91.34886789
  Ewald energy   TEWEN  =    120000.79983386
  -Hartree energ DENC   =   -129894.37044005
  -exchange      EXHF   =         0.00000000
  -V(xc)+E(xc)   XCENC  =      1245.12791030
  PAW double counting   =     18961.30495441   -19021.32925136
  entropy T*S    EENTRO =        -0.07736941
  eigenvalues    EBANDS =     -5768.85465373
  atomic energy  EATOM  =     13537.65479391
  Solvation  Ediel_sol  =         0.00000000
  ---------------------------------------------------
  free energy    TOTEN  =      -848.39535418 eV

  energy without entropy =     -848.31798477  energy(sigma->0) =     -848.35666948


--------------------------------------------------------------------------------------------------------




--------------------------------------- Iteration      1(   7)  ---------------------------------------


    POTLOK:  cpu time      0.3219: real time      0.3220
    SETDIJ:  cpu time      0.0403: real time      0.0403
     EDDAV:  cpu time     10.1179: real time     10.1214
       DOS:  cpu time      0.0007: real time      0.0007
    CHARGE:  cpu time      1.1566: real time      1.1567
    MIXING:  cpu time      0.2794: real time      0.2800
    --------------------------------------------
      LOOP:  cpu time     11.9169: real time     11.9211

 eigenvalue-minimisations  :  1560
 total energy-change (2. order) : 0.1848385E+02  (-0.6530250E+01)
 number of electron     368.0000005 magnetization 
 augmentation part        9.1861409 magnetization 

 Broyden mixing:
  rms(total) = 0.73369E+00    rms(broyden)= 0.73342E+00
  rms(prec ) = 0.74344E+00
  weight for this iteration     100.00

 eigenvalues of (default mixing * dielectric matrix)
  average eigenvalue GAMMA=   2.1882
  2.1882  2.1882

 Free energy of the ion-electron system (eV)
  ---------------------------------------------------
  alpha Z        PSCENC =        91.34886789
  Ewald energy   TEWEN  =    120000.79983386
  -Hartree energ DENC   =   -130659.62774540
  -exchange      EXHF   =         0.00000000
  -V(xc)+E(xc)   XCENC  =      1276.21958385
  PAW double counting   =     36607.42219105   -36674.35374836
  entropy T*S    EENTRO =        -0.08615755
  eigenvalues    EBANDS =     -5009.28912027
  atomic energy  EATOM  =     13537.65479391
  Solvation  Ediel_sol  =         0.00000000
  ---------------------------------------------------
  free energy    TOTEN  =      -829.91150101 eV

  energy without entropy =     -829.82534346  energy(sigma->0) =     -829.86842224


--------------------------------------------------------------------------------------------------------




--------------------------------------- Iteration      1(   8)  ---------------------------------------


    POTLOK:  cpu time      0.3207: real time      0.3206
    SETDIJ:  cpu time      0.0405: real time      0.0405
     EDDAV:  cpu time     10.4072: real time     10.4108
       DOS:  cpu time      0.0007: real time      0.0007
    CHARGE:  cpu time      1.1535: real time      1.1538
    MIXING:  cpu time      0.2809: real time      0.2826
    --------------------------------------------
      LOOP:  cpu time     12.2035: real time     12.2090

 eigenvalue-minimisations  :  1616
 total energy-change (2. order) : 0.2912517E+00  (-0.2392308E+00)
 number of electron     368.0000005 magnetization 
 augmentation part        9.1706551 magnetization 

 Broyden mixing:
  rms(total) = 0.10046E+00    rms(broyden)= 0.10043E+00
  rms(prec ) = 0.12284E+00
  weight for this iteration     100.00

 eigenvalues of (default mixing * dielectric matrix)
  average eigenvalue GAMMA=   1.8492
  1.1767  2.4255  1.9455

 Free energy of the ion-electron system (eV)
  ---------------------------------------------------
  alpha Z        PSCENC =        91.34886789
  Ewald energy   TEWEN  =    120000.79983386
  -Hartree energ DENC   =   -130754.31557422
  -exchange      EXHF   =         0.00000000
  -V(xc)+E(xc)   XCENC  =      1276.07449787
  PAW double counting   =     40883.91957016   -40948.21912027
  entropy T*S    EENTRO =        -0.08415082
  eigenvalues    EBANDS =     -4916.79896768
  atomic energy  EATOM  =     13537.65479391
  Solvation  Ediel_sol  =         0.00000000
  ---------------------------------------------------
  free energy    TOTEN  =      -829.62024930 eV

  energy without entropy =     -829.53609848  energy(sigma->0) =     -829.57817389


--------------------------------------------------------------------------------------------------------




--------------------------------------- Iteration      1(   9)  ---------------------------------------


    POTLOK:  cpu time      0.3215: real time      0.3216
    SETDIJ:  cpu time      0.0403: real time      0.0403
     EDDAV:  cpu time     10.5676: real time     10.5725
       DOS:  cpu time      0.0007: real time      0.0007
    CHARGE:  cpu time      1.1531: real time      1.1555
    MIXING:  cpu time      0.2867: real time      0.2867
    --------------------------------------------
      LOOP:  cpu time     12.3699: real time     12.3773

 eigenvalue-minimisations  :  1648
 total energy-change (2. order) : 0.1058861E+00  (-0.2510568E-01)
 number of electron     368.0000005 magnetization 
 augmentation part        9.1486144 magnetization 

 Broyden mixing:
  rms(total) = 0.56855E-01    rms(broyden)= 0.56846E-01
  rms(prec ) = 0.78710E-01
  weight for this iteration     100.00

 eigenvalues of (default mixing * dielectric matrix)
  average eigenvalue GAMMA=   1.6603
  2.1928  2.1928  0.9627  1.2931

 Free energy of the ion-electron system (eV)
  ---------------------------------------------------
  alpha Z        PSCENC =        91.34886789
  Ewald energy   TEWEN  =    120000.79983386
  -Hartree energ DENC   =   -130822.18844545
  -exchange      EXHF   =         0.00000000
  -V(xc)+E(xc)   XCENC  =      1277.41033714
  PAW double counting   =     41425.24562587   -41489.57836086
  entropy T*S    EENTRO =        -0.08352913
  eigenvalues    EBANDS =     -4850.12348646
  atomic energy  EATOM  =     13537.65479391
  Solvation  Ediel_sol  =         0.00000000
  ---------------------------------------------------
  free energy    TOTEN  =      -829.51436322 eV

  energy without entropy =     -829.43083410  energy(sigma->0) =     -829.47259866


--------------------------------------------------------------------------------------------------------




--------------------------------------- Iteration      1(  10)  ---------------------------------------


    POTLOK:  cpu time      0.3219: real time      0.3219
    SETDIJ:  cpu time      0.0402: real time      0.0402
     EDDAV:  cpu time     11.1991: real time     11.2029
       DOS:  cpu time      0.0007: real time      0.0007
    CHARGE:  cpu time      1.1533: real time      1.1549
    MIXING:  cpu time      0.2922: real time      0.2923
    --------------------------------------------
      LOOP:  cpu time     13.0075: real time     13.0129

 eigenvalue-minimisations  :  1776
 total energy-change (2. order) : 0.3592447E-01  (-0.4782891E-02)
 number of electron     368.0000005 magnetization 
 augmentation part        9.1377674 magnetization 

 Broyden mixing:
  rms(total) = 0.38344E-01    rms(broyden)= 0.38341E-01
  rms(prec ) = 0.58229E-01
  weight for this iteration     100.00

 eigenvalues of (default mixing * dielectric matrix)
  average eigenvalue GAMMA=   1.6847
  2.4082  2.4082  1.5528  1.2216  0.8330

 Free energy of the ion-electron system (eV)
  ---------------------------------------------------
  alpha Z        PSCENC =        91.34886789
  Ewald energy   TEWEN  =    120000.79983386
  -Hartree energ DENC   =   -130867.05505734
  -exchange      EXHF   =         0.00000000
  -V(xc)+E(xc)   XCENC  =      1277.75612371
  PAW double counting   =     41252.91709043   -41317.14630859
  entropy T*S    EENTRO =        -0.08372776
  eigenvalues    EBANDS =     -4805.67005487
  atomic energy  EATOM  =     13537.65479391
  Solvation  Ediel_sol  =         0.00000000
  ---------------------------------------------------
  free energy    TOTEN  =      -829.47843875 eV

  energy without entropy =     -829.39471099  energy(sigma->0) =     -829.43657487


--------------------------------------------------------------------------------------------------------




--------------------------------------- Iteration      1(  11)  ---------------------------------------


    POTLOK:  cpu time      0.3218: real time      0.3218
    SETDIJ:  cpu time      0.0402: real time      0.0403
     EDDAV:  cpu time     10.1083: real time     10.1118
       DOS:  cpu time      0.0007: real time      0.0007
    CHARGE:  cpu time      1.1601: real time      1.1630
    MIXING:  cpu time      0.3002: real time      0.3012
    --------------------------------------------
      LOOP:  cpu time     11.9313: real time     11.9388

 eigenvalue-minimisations  :  1560
 total energy-change (2. order) : 0.3170303E-01  (-0.1966667E-02)
 number of electron     368.0000005 magnetization 
 augmentation part        9.1338492 magnetization 

 Broyden mixing:
  rms(total) = 0.24341E-01    rms(broyden)= 0.24339E-01
  rms(prec ) = 0.39025E-01
  weight for this iteration     100.00

 eigenvalues of (default mixing * dielectric matrix)
  average eigenvalue GAMMA=   1.7747
  3.0911  2.5158  1.9130  0.9666  1.0809  1.0809

 Free energy of the ion-electron system (eV)
  ---------------------------------------------------
  alpha Z        PSCENC =        91.34886789
  Ewald energy   TEWEN  =    120000.79983386
  -Hartree energ DENC   =   -130930.74395853
  -exchange      EXHF   =         0.00000000
  -V(xc)+E(xc)   XCENC  =      1278.27249977
  PAW double counting   =     41146.22872073   -41210.33516221
  entropy T*S    EENTRO =        -0.08390908
  eigenvalues    EBANDS =     -4742.58842205
  atomic energy  EATOM  =     13537.65479391
  Solvation  Ediel_sol  =         0.00000000
  ---------------------------------------------------
  free energy    TOTEN  =      -829.44673572 eV

  energy without entropy =     -829.36282663  energy(sigma->0) =     -829.40478118


--------------------------------------------------------------------------------------------------------




--------------------------------------- Iteration      1(  12)  ---------------------------------------


    POTLOK:  cpu time      0.3219: real time      0.3219
    SETDIJ:  cpu time      0.0402: real time      0.0402
     EDDAV:  cpu time     10.1454: real time     10.1490
       DOS:  cpu time      0.0007: real time      0.0007
    CHARGE:  cpu time      1.1536: real time      1.1551
    MIXING:  cpu time      0.3069: real time      0.3072
    --------------------------------------------
      LOOP:  cpu time     11.9687: real time     11.9740

 eigenvalue-minimisations  :  1568
 total energy-change (2. order) : 0.7076314E-02  (-0.2694448E-02)
 number of electron     368.0000005 magnetization 
 augmentation part        9.1264391 magnetization 

 Broyden mixing:
  rms(total) = 0.15401E-01    rms(broyden)= 0.15397E-01
  rms(prec ) = 0.23505E-01
  weight for this iteration     100.00

 eigenvalues of (default mixing * dielectric matrix)
  average eigenvalue GAMMA=   2.0391
  4.6891  2.3470  2.3470  1.8430  1.1230  0.9622  0.9622

 Free energy of the ion-electron system (eV)
  ---------------------------------------------------
  alpha Z        PSCENC =        91.34886789
  Ewald energy   TEWEN  =    120000.79983386
  -Hartree energ DENC   =   -131001.08525509
  -exchange      EXHF   =         0.00000000
  -V(xc)+E(xc)   XCENC  =      1278.95051037
  PAW double counting   =     41188.02062323   -41252.09881895
  entropy T*S    EENTRO =        -0.08377113
  eigenvalues    EBANDS =     -4672.94644350
  atomic energy  EATOM  =     13537.65479391
  Solvation  Ediel_sol  =         0.00000000
  ---------------------------------------------------
  free energy    TOTEN  =      -829.43965941 eV

  energy without entropy =     -829.35588827  energy(sigma->0) =     -829.39777384


--------------------------------------------------------------------------------------------------------




--------------------------------------- Iteration      1(  13)  ---------------------------------------


    POTLOK:  cpu time      0.3224: real time      0.3222
    SETDIJ:  cpu time      0.0403: real time      0.0403
     EDDAV:  cpu time     10.0207: real time     10.0243
       DOS:  cpu time      0.0008: real time      0.0008
    CHARGE:  cpu time      1.1554: real time      1.1557
    MIXING:  cpu time      0.3153: real time      0.3153
    --------------------------------------------
      LOOP:  cpu time     11.8549: real time     11.8585

 eigenvalue-minimisations  :  1544
 total energy-change (2. order) :-0.1308265E-01  (-0.9617721E-03)
 number of electron     368.0000005 magnetization 
 augmentation part        9.1229567 magnetization 

 Broyden mixing:
  rms(total) = 0.80710E-02    rms(broyden)= 0.80682E-02
  rms(prec ) = 0.11781E-01
  weight for this iteration     100.00

 eigenvalues of (default mixing * dielectric matrix)
  average eigenvalue GAMMA=   2.0623
  5.5131  2.5627  2.1222  2.1222  1.1630  1.1630  0.9259  0.9259

 Free energy of the ion-electron system (eV)
  ---------------------------------------------------
  alpha Z        PSCENC =        91.34886789
  Ewald energy   TEWEN  =    120000.79983386
  -Hartree energ DENC   =   -131053.91034484
  -exchange      EXHF   =         0.00000000
  -V(xc)+E(xc)   XCENC  =      1279.19377792
  PAW double counting   =     41165.41103369   -41229.50118869
  entropy T*S    EENTRO =        -0.08382418
  eigenvalues    EBANDS =     -4620.36569161
  atomic energy  EATOM  =     13537.65479391
  Solvation  Ediel_sol  =         0.00000000
  ---------------------------------------------------
  free energy    TOTEN  =      -829.45274205 eV

  energy without entropy =     -829.36891787  energy(sigma->0) =     -829.41082996


--------------------------------------------------------------------------------------------------------




--------------------------------------- Iteration      1(  14)  ---------------------------------------


    POTLOK:  cpu time      0.3217: real time      0.3218
    SETDIJ:  cpu time      0.0406: real time      0.0406
     EDDAV:  cpu time     10.2208: real time     10.2244
       DOS:  cpu time      0.0010: real time      0.0010
    CHARGE:  cpu time      1.1527: real time      1.1548
    MIXING:  cpu time      0.3222: real time      0.3232
    --------------------------------------------
      LOOP:  cpu time     12.0590: real time     12.0657

 eigenvalue-minimisations  :  1584
 total energy-change (2. order) :-0.1519669E-01  (-0.1005276E-03)
 number of electron     368.0000005 magnetization 
 augmentation part        9.1227812 magnetization 

 Broyden mixing:
  rms(total) = 0.58947E-02    rms(broyden)= 0.58945E-02
  rms(prec ) = 0.82377E-02
  weight for this iteration     100.00

 eigenvalues of (default mixing * dielectric matrix)
  average eigenvalue GAMMA=   2.1741
  6.2259  2.7167  2.7167  1.8272  1.8272  1.3242  1.0866  0.9211  0.9211

 Free energy of the ion-electron system (eV)
  ---------------------------------------------------
  alpha Z        PSCENC =        91.34886789
  Ewald energy   TEWEN  =    120000.79983386
  -Hartree energ DENC   =   -131066.55329369
  -exchange      EXHF   =         0.00000000
  -V(xc)+E(xc)   XCENC  =      1279.16187930
  PAW double counting   =     41133.88357562   -41197.97082494
  entropy T*S    EENTRO =        -0.08378177
  eigenvalues    EBANDS =     -4607.70898892
  atomic energy  EATOM  =     13537.65479391
  Solvation  Ediel_sol  =         0.00000000
  ---------------------------------------------------
  free energy    TOTEN  =      -829.46793874 eV

  energy without entropy =     -829.38415697  energy(sigma->0) =     -829.42604785


--------------------------------------------------------------------------------------------------------




--------------------------------------- Iteration      1(  15)  ---------------------------------------


    POTLOK:  cpu time      0.3228: real time      0.3228
    SETDIJ:  cpu time      0.0403: real time      0.0403
     EDDAV:  cpu time     10.1857: real time     10.1894
       DOS:  cpu time      0.0008: real time      0.0008
    CHARGE:  cpu time      1.1552: real time      1.1567
    MIXING:  cpu time      0.3324: real time      0.3325
    --------------------------------------------
      LOOP:  cpu time     12.0373: real time     12.0424

 eigenvalue-minimisations  :  1576
 total energy-change (2. order) :-0.2157877E-01  (-0.1986996E-03)
 number of electron     368.0000005 magnetization 
 augmentation part        9.1221447 magnetization 

 Broyden mixing:
  rms(total) = 0.32151E-02    rms(broyden)= 0.32147E-02
  rms(prec ) = 0.43764E-02
  weight for this iteration     100.00

 eigenvalues of (default mixing * dielectric matrix)
  average eigenvalue GAMMA=   2.2321
  7.1600  3.4927  2.2692  1.9646  1.9646  1.2985  1.2985  1.0251  0.9242  0.9242

 Free energy of the ion-electron system (eV)
  ---------------------------------------------------
  alpha Z        PSCENC =        91.34886789
  Ewald energy   TEWEN  =    120000.79983386
  -Hartree energ DENC   =   -131078.48872593
  -exchange      EXHF   =         0.00000000
  -V(xc)+E(xc)   XCENC  =      1279.16757987
  PAW double counting   =     41165.18760154   -41229.27679346
  entropy T*S    EENTRO =        -0.08379713
  eigenvalues    EBANDS =     -4595.79887805
  atomic energy  EATOM  =     13537.65479391
  Solvation  Ediel_sol  =         0.00000000
  ---------------------------------------------------
  free energy    TOTEN  =      -829.48951750 eV

  energy without entropy =     -829.40572037  energy(sigma->0) =     -829.44761894


--------------------------------------------------------------------------------------------------------




--------------------------------------- Iteration      1(  16)  ---------------------------------------


    POTLOK:  cpu time      0.3214: real time      0.3214
    SETDIJ:  cpu time      0.0404: real time      0.0404
     EDDAV:  cpu time     10.3839: real time     10.3876
       DOS:  cpu time      0.0008: real time      0.0008
    CHARGE:  cpu time      1.1640: real time      1.1642
    MIXING:  cpu time      0.3399: real time      0.3410
    --------------------------------------------
      LOOP:  cpu time     12.2503: real time     12.2554

 eigenvalue-minimisations  :  1616
 total energy-change (2. order) :-0.8488868E-02  (-0.4482014E-04)
 number of electron     368.0000005 magnetization 
 augmentation part        9.1220237 magnetization 

 Broyden mixing:
  rms(total) = 0.22736E-02    rms(broyden)= 0.22735E-02
  rms(prec ) = 0.28677E-02
  weight for this iteration     100.00

 eigenvalues of (default mixing * dielectric matrix)
  average eigenvalue GAMMA=   2.3143
  7.7325  3.9664  2.4810  2.4810  1.8026  1.5191  1.5191  0.9385  0.9385  0.9623
  1.1166

 Free energy of the ion-electron system (eV)
  ---------------------------------------------------
  alpha Z        PSCENC =        91.34886789
  Ewald energy   TEWEN  =    120000.79983386
  -Hartree energ DENC   =   -131082.55761434
  -exchange      EXHF   =         0.00000000
  -V(xc)+E(xc)   XCENC  =      1279.14472805
  PAW double counting   =     41144.90386799   -41208.99638689
  entropy T*S    EENTRO =        -0.08379510
  eigenvalues    EBANDS =     -4591.71230173
  atomic energy  EATOM  =     13537.65479391
  Solvation  Ediel_sol  =         0.00000000
  ---------------------------------------------------
  free energy    TOTEN  =      -829.49800637 eV

  energy without entropy =     -829.41421127  energy(sigma->0) =     -829.45610882


--------------------------------------------------------------------------------------------------------




--------------------------------------- Iteration      1(  17)  ---------------------------------------


    POTLOK:  cpu time      0.3225: real time      0.3225
    SETDIJ:  cpu time      0.0402: real time      0.0402
     EDDAV:  cpu time     10.3384: real time     10.3423
       DOS:  cpu time      0.0008: real time      0.0008
    CHARGE:  cpu time      1.1562: real time      1.1569
    MIXING:  cpu time      0.3505: real time      0.3506
    --------------------------------------------
      LOOP:  cpu time     12.2086: real time     12.2133

 eigenvalue-minimisations  :  1608
 total energy-change (2. order) :-0.5967275E-02  (-0.4242481E-04)
 number of electron     368.0000005 magnetization 
 augmentation part        9.1220545 magnetization 

 Broyden mixing:
  rms(total) = 0.11145E-02    rms(broyden)= 0.11145E-02
  rms(prec ) = 0.14318E-02
  weight for this iteration     100.00

 eigenvalues of (default mixing * dielectric matrix)
  average eigenvalue GAMMA=   2.3314
  8.3585  4.5146  2.5173  2.1866  2.1866  1.4804  1.4804  1.2218  1.2218  0.9259
  0.9259  0.9571

 Free energy of the ion-electron system (eV)
  ---------------------------------------------------
  alpha Z        PSCENC =        91.34886789
  Ewald energy   TEWEN  =    120000.79983386
  -Hartree energ DENC   =   -131084.65921428
  -exchange      EXHF   =         0.00000000
  -V(xc)+E(xc)   XCENC  =      1279.13701492
  PAW double counting   =     41151.48612811   -41215.57087316
  entropy T*S    EENTRO =        -0.08378292
  eigenvalues    EBANDS =     -4589.61674198
  atomic energy  EATOM  =     13537.65479391
  Solvation  Ediel_sol  =         0.00000000
  ---------------------------------------------------
  free energy    TOTEN  =      -829.50397365 eV

  energy without entropy =     -829.42019073  energy(sigma->0) =     -829.46208219


--------------------------------------------------------------------------------------------------------




--------------------------------------- Iteration      1(  18)  ---------------------------------------


    POTLOK:  cpu time      0.3214: real time      0.3214
    SETDIJ:  cpu time      0.0403: real time      0.0403
     EDDAV:  cpu time     10.7921: real time     10.7959
       DOS:  cpu time      0.0008: real time      0.0008
    CHARGE:  cpu time      1.1588: real time      1.1586
    MIXING:  cpu time      0.3619: real time      0.3621
    --------------------------------------------
      LOOP:  cpu time     12.6752: real time     12.6790

 eigenvalue-minimisations  :  1696
 total energy-change (2. order) :-0.1698438E-02  (-0.6386852E-05)
 number of electron     368.0000005 magnetization 
 augmentation part        9.1218557 magnetization 

 Broyden mixing:
  rms(total) = 0.72330E-03    rms(broyden)= 0.72321E-03
  rms(prec ) = 0.92110E-03
  weight for this iteration     100.00

 eigenvalues of (default mixing * dielectric matrix)
  average eigenvalue GAMMA=   2.3813
  8.8524  4.9147  2.8982  2.5724  1.7695  1.7695  1.4713  1.4713  0.9289  0.9289
  0.9948  1.1923  1.1923

 Free energy of the ion-electron system (eV)
  ---------------------------------------------------
  alpha Z        PSCENC =        91.34886789
  Ewald energy   TEWEN  =    120000.79983386
  -Hartree energ DENC   =   -131085.72792181
  -exchange      EXHF   =         0.00000000
  -V(xc)+E(xc)   XCENC  =      1279.14278673
  PAW double counting   =     41152.51134899   -41216.59882433
  entropy T*S    EENTRO =        -0.08379621
  eigenvalues    EBANDS =     -4588.55276112
  atomic energy  EATOM  =     13537.65479391
  Solvation  Ediel_sol  =         0.00000000
  ---------------------------------------------------
  free energy    TOTEN  =      -829.50567209 eV

  energy without entropy =     -829.42187588  energy(sigma->0) =     -829.46377398


--------------------------------------------------------------------------------------------------------




--------------------------------------- Iteration      1(  19)  ---------------------------------------


    POTLOK:  cpu time      0.3226: real time      0.3226
    SETDIJ:  cpu time      0.0402: real time      0.0402
     EDDAV:  cpu time     10.0575: real time     10.0611
       DOS:  cpu time      0.0007: real time      0.0007
    CHARGE:  cpu time      1.1552: real time      1.1576
    MIXING:  cpu time      0.3737: real time      0.3738
    --------------------------------------------
      LOOP:  cpu time     11.9500: real time     11.9560

 eigenvalue-minimisations  :  1552
 total energy-change (2. order) :-0.1280240E-02  (-0.5276701E-05)
 number of electron     368.0000005 magnetization 
 augmentation part        9.1219530 magnetization 

 Broyden mixing:
  rms(total) = 0.43445E-03    rms(broyden)= 0.43443E-03
  rms(prec ) = 0.52409E-03
  weight for this iteration     100.00

 eigenvalues of (default mixing * dielectric matrix)
  average eigenvalue GAMMA=   2.3823
  8.9315  5.4976  3.1124  2.3355  2.2399  2.0055  1.5077  1.5077  1.2096  1.2096
  0.9274  0.9274  0.9701  0.9701

 Free energy of the ion-electron system (eV)
  ---------------------------------------------------
  alpha Z        PSCENC =        91.34886789
  Ewald energy   TEWEN  =    120000.79983386
  -Hartree energ DENC   =   -131085.94582260
  -exchange      EXHF   =         0.00000000
  -V(xc)+E(xc)   XCENC  =      1279.13610182
  PAW double counting   =     41148.85895462   -41212.94378116
  entropy T*S    EENTRO =        -0.08379078
  eigenvalues    EBANDS =     -4588.33210989
  atomic energy  EATOM  =     13537.65479391
  Solvation  Ediel_sol  =         0.00000000
  ---------------------------------------------------
  free energy    TOTEN  =      -829.50695233 eV

  energy without entropy =     -829.42316155  energy(sigma->0) =     -829.46505694


--------------------------------------------------------------------------------------------------------




--------------------------------------- Iteration      1(  20)  ---------------------------------------


    POTLOK:  cpu time      0.3211: real time      0.3212
    SETDIJ:  cpu time      0.0403: real time      0.0403
     EDDAV:  cpu time      9.2167: real time      9.2199
       DOS:  cpu time      0.0007: real time      0.0008
    CHARGE:  cpu time      1.1569: real time      1.1590
    MIXING:  cpu time      0.3837: real time      0.3853
    --------------------------------------------
      LOOP:  cpu time     11.1194: real time     11.1265

 eigenvalue-minimisations  :  1376
 total energy-change (2. order) :-0.4062419E-03  (-0.8041807E-06)
 number of electron     368.0000005 magnetization 
 augmentation part        9.1219087 magnetization 

 Broyden mixing:
  rms(total) = 0.24280E-03    rms(broyden)= 0.24279E-03
  rms(prec ) = 0.29784E-03
  weight for this iteration     100.00

 eigenvalues of (default mixing * dielectric matrix)
  average eigenvalue GAMMA=   2.4139
  9.1854  5.7883  3.5878  2.5574  2.3073  2.0421  1.4911  1.4911  1.4049  1.4049
  0.9300  0.9300  1.0115  1.0383  1.0383

 Free energy of the ion-electron system (eV)
  ---------------------------------------------------
  alpha Z        PSCENC =        91.34886789
  Ewald energy   TEWEN  =    120000.79983386
  -Hartree energ DENC   =   -131086.19234363
  -exchange      EXHF   =         0.00000000
  -V(xc)+E(xc)   XCENC  =      1279.13780541
  PAW double counting   =     41149.66555101   -41213.75156562
  entropy T*S    EENTRO =        -0.08379249
  eigenvalues    EBANDS =     -4588.08650890
  atomic energy  EATOM  =     13537.65479391
  Solvation  Ediel_sol  =         0.00000000
  ---------------------------------------------------
  free energy    TOTEN  =      -829.50735857 eV

  energy without entropy =     -829.42356608  energy(sigma->0) =     -829.46546232


--------------------------------------------------------------------------------------------------------




--------------------------------------- Iteration      1(  21)  ---------------------------------------


    POTLOK:  cpu time      0.3209: real time      0.3210
    SETDIJ:  cpu time      0.0404: real time      0.0403
     EDDAV:  cpu time      8.6538: real time      8.6571
       DOS:  cpu time      0.0008: real time      0.0008
    CHARGE:  cpu time      1.1681: real time      1.1691
    MIXING:  cpu time      0.3978: real time      0.3979
    --------------------------------------------
      LOOP:  cpu time     10.5818: real time     10.5862

 eigenvalue-minimisations  :  1264
 total energy-change (2. order) :-0.2445898E-03  (-0.3158932E-06)
 number of electron     368.0000005 magnetization 
 augmentation part        9.1219000 magnetization 

 Broyden mixing:
  rms(total) = 0.11015E-03    rms(broyden)= 0.11014E-03
  rms(prec ) = 0.13885E-03
  weight for this iteration     100.00

 eigenvalues of (default mixing * dielectric matrix)
  average eigenvalue GAMMA=   2.4058
  9.1791  6.1826  3.8641  2.5901  2.5081  1.9189  1.9189  1.5474  1.5474  1.2233
  1.2233  0.9298  0.9298  1.0057  0.9619  0.9619

 Free energy of the ion-electron system (eV)
  ---------------------------------------------------
  alpha Z        PSCENC =        91.34886789
  Ewald energy   TEWEN  =    120000.79983386
  -Hartree energ DENC   =   -131086.30009406
  -exchange      EXHF   =         0.00000000
  -V(xc)+E(xc)   XCENC  =      1279.13744877
  PAW double counting   =     41148.99072003   -41213.07728134
  entropy T*S    EENTRO =        -0.08379266
  eigenvalues    EBANDS =     -4587.97809956
  atomic energy  EATOM  =     13537.65479391
  Solvation  Ediel_sol  =         0.00000000
  ---------------------------------------------------
  free energy    TOTEN  =      -829.50760316 eV

  energy without entropy =     -829.42381050  energy(sigma->0) =     -829.46570683


[...]
   -.155E+02 0.986E+00 -.686E+01   0.159E+02 -.107E+01 0.666E+01   0.388E+00 0.634E+00 -.570E-01   0.508E-05 -.308E-05 -.990E-06
   0.378E+02 -.266E+02 0.158E+03   -.388E+02 0.286E+02 -.158E+03   -.867E+00 0.825E+00 0.967E+00   0.914E-05 -.232E-06 -.324E-05
   -.141E+02 0.222E+02 -.282E+02   0.153E+02 -.232E+02 0.286E+02   0.141E+01 -.114E+01 -.196E+01   0.832E-05 -.456E-05 -.166E-05
   0.193E+02 0.358E+01 0.118E+03   -.199E+02 -.300E+01 -.118E+03   -.316E+00 -.259E+00 -.678E+00   0.104E-04 -.141E-05 -.248E-05
   0.175E+02 -.836E+01 0.480E+02   -.188E+02 0.880E+01 -.479E+02   0.484E+00 -.948E+00 0.390E-01   0.930E-05 -.572E-05 -.299E-05
   0.191E+02 -.955E+01 0.164E+03   -.193E+02 0.900E+01 -.165E+03   0.521E+00 -.943E+00 0.627E+00   0.918E-05 0.247E-06 -.359E-06
   0.455E+01 0.481E+01 0.657E+02   -.501E+01 -.402E+01 -.652E+02   -.777E+00 0.764E+00 0.298E+00   0.891E-05 -.480E-05 -.221E-05
   0.494E+01 0.125E+02 0.174E+03   -.471E+01 -.126E+02 -.174E+03   -.348E+00 0.174E+01 0.306E+00   0.424E-05 -.289E-06 0.137E-05
   0.307E+01 -.135E+02 0.134E+03   -.225E+01 0.139E+02 -.135E+03   0.755E+00 0.142E+01 0.150E+01   0.558E-05 -.679E-05 -.131E-06
   -.682E+01 -.702E+01 0.175E+03   0.756E+01 0.598E+01 -.175E+03   -.990E+00 -.122E+01 -.118E+01   0.723E-06 0.753E-06 0.164E-05
   -.418E-01 0.233E+02 0.631E+02   -.120E+00 -.251E+02 -.627E+02   0.105E+01 -.120E+00 -.165E+01   0.178E-05 0.608E-06 0.355E-06
   -.145E+02 0.576E+01 0.214E+03   0.140E+02 -.554E+01 -.214E+03   -.106E+01 -.742E+00 0.165E+00   -.305E-05 -.440E-07 0.154E-05
   -.113E+02 -.209E+02 0.187E+03   0.113E+02 0.218E+02 -.187E+03   0.697E+00 -.925E+00 0.172E+01   -.305E-05 -.671E-05 0.779E-06
   -.358E+02 -.171E+02 0.197E+03   0.376E+02 0.182E+02 -.197E+03   0.971E+00 0.646E+00 0.132E+01   -.101E-04 -.495E-06 -.608E-06
   -.188E+02 0.135E+02 0.118E+03   0.189E+02 -.141E+02 -.118E+03   -.817E+00 0.688E+00 0.352E+00   -.609E-05 -.322E-05 -.140E-05
   -.134E+02 0.142E+02 0.150E+03   0.123E+02 -.152E+02 -.151E+03   -.434E+00 0.261E+00 -.925E+00   -.113E-04 0.330E-05 -.358E-05
   -.145E+02 -.147E+02 0.128E+03   0.141E+02 0.153E+02 -.129E+03   -.154E+01 0.523E+00 0.640E+00   -.921E-05 -.255E-05 -.322E-05
   -.337E+02 -.822E+01 0.139E+03   0.344E+02 0.855E+01 -.139E+03   -.462E+00 0.760E+00 0.654E+00   -.958E-05 -.579E-06 -.430E-05
   -.143E+01 0.782E+01 0.238E+02   0.160E+01 -.808E+01 -.234E+02   0.176E+00 -.417E+00 -.645E+00   -.105E-04 -.173E-06 -.345E-05
   -.198E+02 0.102E+02 0.117E+03   0.188E+02 -.111E+02 -.119E+03   -.129E+01 0.520E-01 0.972E+00   -.638E-05 -.134E-05 -.408E-05
   -.309E+01 -.120E+02 0.115E+02   0.314E+01 0.135E+02 -.113E+02   0.601E+00 0.125E+01 -.450E+00   -.677E-05 0.285E-05 -.181E-05
   -.268E+02 -.184E+00 0.351E+02   0.280E+02 0.863E-01 -.345E+02   0.213E+00 -.395E+00 -.762E+00   0.379E-06 -.393E-05 0.331E-06
   -.730E+00 0.959E+01 -.281E+02   0.975E+00 -.103E+02 0.280E+02   0.432E+00 -.377E+00 0.387E+00   -.300E-06 0.406E-05 0.134E-05
   -.244E+02 0.230E+02 0.748E+02   0.251E+02 -.251E+02 -.756E+02   -.545E+00 -.873E+00 0.188E+01   0.646E-05 -.567E-05 0.115E-05
   -.140E+01 -.234E+02 -.830E+01   0.527E+00 0.252E+02 0.827E+01   -.331E+00 0.838E+00 -.839E+00   0.471E-05 0.675E-05 0.271E-05
   -.701E+00 0.905E+01 -.963E+01   -.584E+00 -.861E+01 0.101E+02   -.589E+00 -.308E+00 -.196E+01   0.661E-05 -.864E-05 0.443E-05
   -.639E+01 -.514E+01 -.397E+02   0.666E+01 0.489E+01 0.402E+02   0.133E+01 -.102E+01 -.281E+00   0.355E-05 0.100E-04 0.343E-05
   -.279E+02 0.527E+02 0.676E+02   0.260E+02 -.536E+02 -.703E+02   0.312E+00 0.120E+01 0.335E+01   0.122E-04 -.836E-06 0.474E-05
   -.925E+01 -.712E+02 -.235E+02   0.609E+01 0.731E+02 0.222E+02   0.109E+01 -.242E+01 0.147E+00   0.107E-04 -.409E-05 0.357E-05
   0.147E+02 0.705E+02 -.220E+03   -.112E+02 -.716E+02 0.222E+03   -.105E+01 0.285E+01 -.139E+01   0.792E-05 0.663E-05 -.239E-05
   0.350E+01 -.659E+02 -.236E+03   0.236E+01 0.676E+02 0.238E+03   0.280E+00 -.167E+01 -.308E+01   0.117E-04 0.230E-05 -.294E-05
   0.155E+02 0.168E+01 -.158E+03   -.158E+02 -.288E+01 0.158E+03   -.147E+01 -.340E+00 0.684E+00   0.533E-05 0.693E-05 -.227E-05
   0.221E+02 0.222E+02 -.789E+02   -.235E+02 -.245E+02 0.783E+02   0.160E+00 -.946E+00 0.194E+01   0.160E-05 -.519E-06 -.112E-05
   -.114E+02 0.160E+02 -.162E+03   0.123E+02 -.164E+02 0.162E+03   -.248E+00 -.139E+00 -.180E+00   -.672E-05 0.714E-05 -.171E-05
   0.453E+01 -.601E+01 -.103E+03   -.516E+01 0.596E+01 0.103E+03   0.626E+00 -.726E-01 0.329E+00   -.865E-05 -.148E-05 -.150E-06
   -.151E+02 -.142E+02 -.178E+03   0.155E+02 0.148E+02 0.178E+03   -.138E+00 0.464E+00 -.556E+00   -.557E-05 0.674E-06 -.337E-06
   -.135E+02 0.124E+02 -.101E+03   0.140E+02 -.126E+02 0.101E+03   0.253E+00 0.537E+00 -.155E+01   -.102E-04 -.254E-05 0.907E-06
   -.156E+02 0.107E+02 -.138E+03   0.147E+02 -.115E+02 0.138E+03   -.601E+00 -.433E+00 -.426E+00   -.589E-05 0.597E-06 0.159E-05
   -.689E+01 -.153E+02 -.558E+02   0.707E+01 0.163E+02 0.554E+02   0.211E+00 0.256E+00 -.360E-01   -.814E-05 -.280E-05 0.351E-05
   -.201E+02 -.111E+02 -.924E+02   0.205E+02 0.112E+02 0.921E+02   0.750E+00 0.218E-01 0.857E+00   -.104E-04 -.109E-05 0.467E-05
   0.217E+02 0.111E+02 0.457E+02   -.224E+02 -.108E+02 -.459E+02   -.133E+00 0.637E+00 0.834E+00   -.735E-05 0.345E-06 0.194E-05
   -.137E+02 0.834E+01 -.684E+02   0.139E+02 -.868E+01 0.688E+02   -.915E-01 -.161E+00 -.117E+01   -.681E-05 0.124E-05 0.346E-05
   0.129E+02 -.205E+01 0.344E+02   -.135E+02 0.157E+01 -.339E+02   -.605E+00 -.374E+00 0.924E-02   -.435E-05 0.146E-05 0.109E-05
   -.376E+01 -.652E+01 -.271E+02   0.315E+01 0.563E+01 0.273E+02   0.133E+00 -.526E+00 0.120E+01   -.120E-05 -.333E-06 0.146E-05
   0.143E+02 0.101E+02 0.114E+03   -.130E+02 -.101E+02 -.115E+03   0.111E+01 0.688E+00 0.971E+00   -.132E-05 0.336E-05 -.138E-05
   -.233E+00 -.220E-01 -.133E+02   0.457E-01 0.131E+01 0.134E+02   -.538E+00 0.117E+01 -.840E+00   0.436E-05 0.166E-06 -.778E-06
   0.888E+01 -.158E+02 0.581E+02   -.905E+01 0.158E+02 -.577E+02   -.424E+00 -.270E+00 -.120E+01   0.400E-05 0.514E-05 -.201E-05
   -.279E+01 -.577E+01 0.245E+02   0.277E+01 0.552E+01 -.247E+02   -.880E+00 -.103E+01 0.154E+01   0.100E-04 -.224E-06 -.250E-05
   0.389E+02 0.139E+02 0.152E+03   -.402E+02 -.148E+02 -.152E+03   -.580E-01 -.135E+00 0.102E+01   0.971E-05 0.489E-05 -.393E-05
   -.492E+01 0.846E+01 0.335E+02   0.580E+01 -.871E+01 -.335E+02   0.846E-01 -.101E+01 -.256E+00   0.859E-05 0.276E-05 -.268E-05
   0.479E+01 -.134E+02 0.130E+03   -.326E+01 0.145E+02 -.131E+03   0.842E+00 -.110E+00 0.635E+00   0.923E-05 0.360E-05 -.186E-05
   -.266E+00 -.620E+01 0.490E+01   0.962E+00 0.555E+01 -.470E+01   0.869E+00 -.681E+00 -.524E+00   0.886E-05 -.520E-06 -.157E-05
   0.981E+01 0.149E+02 0.120E+03   -.103E+02 -.155E+02 -.120E+03   -.613E+00 -.576E+00 -.686E+00   0.720E-05 0.648E-05 -.123E-05
   0.105E+02 -.187E+01 0.766E+01   -.122E+02 0.263E+01 -.737E+01   -.137E+01 0.148E+01 -.846E+00   0.984E-05 0.250E-06 -.117E-05
   0.850E+01 -.798E+01 0.129E+03   -.853E+01 0.806E+01 -.128E+03   0.223E+00 0.891E+00 0.364E-01   0.489E-05 0.208E-05 0.347E-06
   -.644E+01 -.337E+01 0.467E+01   0.744E+01 0.340E+01 -.438E+01   -.542E+00 -.489E-01 -.541E+00   0.129E-05 -.904E-06 -.962E-06
   0.255E+01 0.121E+02 0.210E+03   -.270E+01 -.114E+02 -.210E+03   0.622E+00 0.265E+00 0.203E+01   0.263E-05 0.544E-05 0.186E-05
   -.497E+01 0.172E+01 0.492E+02   0.552E+01 -.130E+01 -.496E+02   0.144E+00 -.508E+00 0.105E+01   -.560E-05 0.147E-06 -.948E-06
   -.536E+01 -.859E+01 0.123E+03   0.475E+01 0.861E+01 -.123E+03   -.388E+00 -.119E+01 0.222E-01   -.202E-05 0.279E-05 -.413E-06
   0.424E+01 0.862E+00 -.169E+02   -.398E+01 -.114E+01 0.176E+02   0.100E+01 0.459E+00 -.178E+01   -.752E-05 -.975E-06 -.226E-05
   -.117E+02 0.755E+01 0.937E+02   0.115E+02 -.776E+01 -.936E+02   -.292E+00 -.409E+00 -.105E+01   -.823E-05 0.400E-05 -.272E-05
   0.936E+00 0.121E+02 0.459E+01   -.135E+01 -.126E+02 -.453E+01   -.225E-01 -.638E-01 0.200E+00   -.846E-05 0.377E-06 -.231E-05
   -.786E+01 -.121E+02 0.585E+02   0.825E+01 0.122E+02 -.582E+02   0.600E+00 -.179E+00 0.518E+00   -.110E-04 0.238E-05 -.309E-05
   0.887E+01 -.558E+01 -.875E+01   -.937E+01 0.569E+01 0.834E+01   -.778E+00 -.506E+00 0.683E+00   -.672E-05 -.147E-05 -.187E-05
   -.586E+01 0.981E+01 0.559E+02   0.519E+01 -.980E+01 -.562E+02   0.813E-01 0.749E+00 -.544E+00   -.791E-05 0.704E-06 -.318E-05
   0.198E+02 0.107E+01 -.969E+02   -.199E+02 -.228E+00 0.977E+02   0.380E+00 0.597E+00 -.138E+01   -.226E-05 0.283E-06 0.116E-05
   -.684E+01 -.566E+01 -.141E+02   0.760E+01 0.519E+01 0.145E+02   0.222E+00 -.449E-01 0.779E+00   -.257E-05 -.110E-05 0.227E-07
   0.632E+01 -.102E+02 -.104E+03   -.516E+01 0.104E+02 0.104E+03   0.664E+00 -.230E+00 -.332E+00   0.426E-05 0.536E-05 0.338E-05
   0.165E+01 0.122E+02 -.410E+02   -.130E+01 -.128E+02 0.412E+02   0.754E+00 -.284E+00 -.158E+00   0.343E-05 -.571E-05 0.321E-05
   0.222E+02 0.145E+02 -.872E+02   -.233E+02 -.144E+02 0.871E+02   -.913E+00 0.391E+00 0.287E+00   0.858E-05 0.418E-06 0.303E-05
   0.179E+02 -.176E+02 -.956E+02   -.182E+02 0.181E+02 0.957E+02   0.275E+00 0.425E+00 0.273E-01   0.776E-05 -.274E-05 0.422E-05
   -.182E+01 0.391E+00 -.990E+02   0.259E+01 -.192E+00 0.998E+02   -.600E-01 -.209E+00 -.368E+00   -.152E-05 0.369E-05 0.213E-06
   0.231E+02 -.529E+00 -.131E+03   -.240E+02 0.180E+00 0.130E+03   0.945E+00 -.663E+00 0.768E-01   0.129E-06 -.142E-05 0.184E-05
   0.192E+02 0.672E+02 -.156E+03   -.239E+02 -.691E+02 0.156E+03   0.646E+00 0.923E+00 -.160E+00   0.115E-05 0.125E-05 -.118E-05
   0.298E+02 -.658E+02 -.204E+03   -.341E+02 0.675E+02 0.204E+03   0.139E+01 -.266E+01 -.636E+00   0.486E-05 0.322E-06 -.911E-06
 -----------------------------------------------------------------------------------------------
   -.714E-01 0.105E-01 0.229E+01   0.796E-12 -.526E-12 -.284E-12   0.182E+00 0.917E-01 -.236E+01   -.594E-05 -.154E-05 -.145E-04
 
 
 POSITION                                       TOTAL-FORCE (eV/Angst)
 -----------------------------------------------------------------------------------
      0.15434      0.79861     18.14660         2.200173      1.535787     -0.093836
      0.14173      2.18024     18.23730         2.864789      0.136648      0.513166
      1.39107      0.15421     18.17680        -0.888698      2.367322     -0.228403
      1.34079      2.84412     18.35060         2.394884      0.681075      0.308152
      2.63854      0.82863     18.16810        -0.760086     -0.604249     -0.658367
      2.67000      2.18155     18.26900        -2.887915      0.511499      0.282394
      3.80918      0.13857     17.84490         1.061124      0.360743      0.614621
      3.90080      2.81797     18.18480         0.445764      0.893893      0.118563
      5.04847      0.79902     17.60790        -0.918354      0.758941      0.205781
      5.11123      2.16496     17.85270        -0.199551     -0.301959      0.170929
      6.18893      0.16647     17.14500         1.274657     -1.009949      0.360370
      6.33258      2.84315     17.65690         0.227307     -0.476917     -0.603071
      7.45211      0.82300     16.97420        -1.712418      0.310296     -0.482871
      7.52199      2.19077     17.21220        -1.743477     -1.297432      0.515172
      8.53204      0.16307     16.40910         1.733221      0.317982     -0.531764
      8.69251      2.81493     16.89200         0.515223      2.550685     -0.195892
      9.76074      0.84522     16.09960         1.446084     -1.759890     -0.176829
      9.83369      2.16834     16.43280         0.864948      0.547532     -0.255826
     11.01690      0.15749     15.65630        -1.943589      2.753875      0.921328
     11.03040      2.89973     16.22660         2.546831     -2.145697     -1.563034
     12.25320      0.85246     15.54460        -0.877530      0.313668     -0.292456
     12.25420      2.22196     15.78650        -0.815840     -0.511419      0.152099
     13.47760      0.19947     15.26340         0.274040     -1.494248      0.035747
     13.50800      2.84066     15.60740        -1.240068      1.555726      0.834350
     14.74080      0.80353     15.13920        -0.119243      1.588543      0.025309
     14.70200      2.16473     15.31040         1.576047      1.781556      0.817389
     16.01360      0.21272     15.06830        -0.250572     -2.261391     -1.013746
     15.95510      2.86789     15.44920         0.887871     -1.952838     -1.246062
     17.28430      0.87655     15.06290        -1.535540     -0.519045     -0.068926
     17.23490      2.24746     15.19850         0.744652      0.018933      1.248002
     18.48140      0.17162     15.25140         2.761168      1.783974      0.952843
     18.49630      2.86347     15.53450        -0.780505      0.122242      0.490956
     19.78350      0.83024     15.58790        -1.573788     -0.812392     -1.228391
     19.77080      2.19303     15.70460        -2.004251      1.110090     -0.065239
     20.97040      0.14078     15.91380         0.230728      1.090534      0.417572
     20.87570      2.87436     16.23740         0.350891     -0.671113     -0.198134
     22.17440      0.84725     16.29820        -2.265221     -0.938317     -0.385682
     22.07080      2.17683     16.52440         0.651751      2.691558     -0.235119
     23.30120      0.21848     16.76200         1.406048     -0.493637     -0.150973
     23.21630      2.89565     16.97990         0.676513     -1.137828      0.316571
     24.52730      0.91944     17.00870         0.172558     -2.885394      1.068095
     24.48860      2.24020     17.18910        -1.203522      2.588391     -0.867179
     25.71330      0.23426     17.47960        -1.874271      0.129100     -1.520559
     25.64720      2.95433     17.56990         1.593011     -1.268944      0.228231
     26.88720      0.89006     17.55760        -1.651979      0.250340      0.659977
     26.84930      2.27793     17.73420        -2.072916     -0.555193     -1.165297
      0.12925      4.88745     18.52170         2.419327      1.739149      0.230716
      0.07420      6.29408     18.52010         6.135692      0.041820     -0.791413
      1.37930      4.24267     18.42510        -1.798725     -1.540971      0.280319
      1.34439      6.92726     18.20150        -1.212362     -3.214910      1.307618
      2.62449      4.87757     18.35180         0.651679     -0.526273     -0.008039
      2.58254      6.23483     18.18510        -0.011339     -0.123689      0.444968
      3.89107      4.19476     18.25120         0.196846      1.052977     -0.277682
      3.80986      6.87225     17.97730         0.719786      0.396849     -1.407246
      5.11632      4.87998     17.91020        -1.479558     -1.271401      0.156787
      5.03687      6.21367     17.68560         0.384256      1.236852     -0.363696
      6.30252      4.21427     17.58770         1.158538      0.181542      0.548025
      6.19310      6.86696     17.13940        -0.838986      0.935764      0.589930
      7.48786      4.88322     17.15840         0.039228     -0.498057     -0.687184
      7.41272      6.22742     16.86300        -1.256749     -0.850665      0.489746
      8.69415      4.22601     16.80800        -0.483956     -1.417076      1.384518
      8.52447      6.87677     16.38080         2.434153      0.621072     -0.313279
      9.87330      4.87276     16.42560        -0.726046      2.455318     -0.756478
      9.80544      6.24922     16.18780        -0.595696     -0.234665     -0.802126
     11.08270      4.26260     16.12820        -0.902024     -1.282287      1.280365
     10.99430      6.90883     15.68970        -1.396385     -1.063866      0.803010
     12.26520      4.92886     15.84280         0.963151     -1.260897     -0.208288
     12.21200      6.25326     15.57220         2.371821      1.037704      0.120423
     13.49630      4.24496     15.76410         1.563907     -1.333510     -0.327155
     13.49500      6.92019     15.37010        -1.135085     -1.094051     -0.708557
     14.78190      4.85674     15.64160        -3.076280      2.244171     -0.551005
     14.74170      6.21431     15.31600         0.198361      0.979444      0.260109
     15.98320      4.21469     15.63420         0.460793     -0.019295     -0.253389
     15.98150      6.89667     15.07950         0.467078      0.902060      1.358119
     17.19830      4.90947     15.60450         0.686315     -0.091687      0.652774
     17.23350      6.27630     15.36710        -0.993989     -1.169961      0.140889
     18.40170      4.21320     15.85910         1.260833      0.180878     -1.087514
     18.46210      6.93919     15.52190        -0.514989     -0.618803     -0.963044
     19.62530      4.90789     16.06880        -0.440220     -0.618717      0.265592
     19.63170      6.26708     15.89410         0.989486     -0.141243      0.782471
     20.84150      4.24050     16.39480        -1.285526     -0.390267      0.273908
     20.88130      6.89104     16.14900        -0.592417      0.759755     -0.841790
     21.97060      4.89161     16.87210         0.283669      1.441346     -0.610555
     22.00630      6.27190     16.66130         0.986871     -0.513170      1.193167
     23.15550      4.24884     17.19690         1.823402     -0.027878      0.211586
     23.19830      6.96695     16.99710         1.103932     -0.880102      0.003996
     24.40860      4.93607     17.52140        -2.015736      0.444710      0.168156
     24.37720      6.30717     17.49890        -0.050640      0.842602      0.141799
     25.62150      4.30720     17.79340         0.711299     -0.010650      0.466793
     25.59310      7.01416     17.83140         0.101772     -1.013616     -0.157938
     26.77710      4.97404     18.21630        -4.012351     -0.917288     -0.097486
     26.73170      6.36316     18.28770        -2.874083     -1.022101     -0.371880
 -----------------------------------------------------------------------------------
    total drift:                                0.110233      0.102238     -0.072269


--------------------------------------------------------------------------------------------------------



  FREE ENERGIE OF THE ION-ELECTRON SYSTEM (eV)
  ---------------------------------------------------
  free  energy   TOTEN  =      -829.50773848 eV

  energy  without entropy=     -829.42394591  energy(sigma->0) =     -829.46584220
 


--------------------------------------------------------------------------------------------------------


    POTLOK:  cpu time      0.4532: real time      0.4531


--------------------------------------------------------------------------------------------------------


     LOOP+:  cpu time    335.0146: real time    335.2032
    4ORBIT:  cpu time      0.0000: real time      0.0000

 total amount of memory used by VASP MPI-rank0  2294516. kBytes
=======================================================================

   base                                    :      30000. kBytes
   nonlr-proj                              :      15082. kBytes
   fftplans                                :     436558. kBytes
   grid                                    :     732614. kBytes
   one-center                              :        282. kBytes
   wavefun                                 :    1079980. kBytes
 
  
  
 General timing and accounting informations for this job:
 ========================================================
  
                  Total CPU time used (sec):      368.355
                            User time (sec):      359.970
                          System time (sec):        8.385
                         Elapsed time (sec):      368.594
  
                   Maximum memory used (kb):     3731420.
                   Average memory used (kb):          N/A
  
                          Minor page faults:      3179012
                          Major page faults:         6330
                 Voluntary context switches:        10177
