  92  92   0   0
  0.8273226E+02  0.2805000E-08  0.8100000E-09  0.3350000E-08  0.5000000E-15
   1.0000000000000000E-004
  CAR 
 unknown system                          
      3.92178789    -25.28585758  301     -3.21419384      1.00000000
    -25.286  0.0000E+00  0.0000E+00
    -25.188  0.0000E+00  0.0000E+00
    -25.091  0.0000E+00  0.0000E+00
    -24.994  0.0000E+00  0.0000E+00
    -24.896  0.0000E+00  0.0000E+00
    -24.799  0.0000E+00  0.0000E+00
    -24.702  0.0000E+00  0.0000E+00
    -24.604  0.0000E+00  0.0000E+00
    -24.507  0.0000E+00  0.0000E+00
    -24.410  0.4846E-14  0.4718E-15
    -24.312  0.1044E-11  0.1021E-12
    -24.215  0.1357E-09  0.1332E-10
    -24.118  0.1115E-07  0.1098E-08
    -24.020  0.5796E-06  0.5753E-07
    -23.923  0.1917E-04  0.1924E-05
    -23.825  0.4049E-03  0.4135E-04
    -23.728  0.5494E-02  0.5762E-03
    -23.631  0.4819E-01  0.5268E-02
    -23.533  0.2754E+00  0.3208E-01
    -23.436  0.1039E+01  0.1332E+00
    -23.339  0.2651E+01  0.3913E+00
    -23.241  0.4838E+01  0.8624E+00
    -23.144  0.7041E+01  0.1548E+01
    -23.047  0.9285E+01  0.2452E+01
    -22.949  0.1152E+02  0.3574E+01
    -22.852  0.1314E+02  0.4852E+01
    -22.755  0.1443E+02  0.6257E+01
    -22.657  0.1609E+02  0.7823E+01
    -22.560  0.1685E+02  0.9464E+01
    -22.462  0.1500E+02  0.1092E+02
    -22.365  0.1183E+02  0.1208E+02
    -22.268  0.1048E+02  0.1310E+02
    -22.170  0.1189E+02  0.1425E+02
    -22.073  0.1408E+02  0.1563E+02
    -21.976  0.1498E+02  0.1708E+02
    -21.878  0.1451E+02  0.1850E+02
    -21.781  0.1354E+02  0.1982E+02
    -21.684  0.1242E+02  0.2103E+02
    -21.586  0.1139E+02  0.2213E+02
    -21.489  0.1106E+02  0.2321E+02
    -21.392  0.1179E+02  0.2436E+02
    -21.294  0.1319E+02  0.2564E+02
    -21.197  0.1464E+02  0.2707E+02
    -21.099  0.1584E+02  0.2861E+02
    -21.002  0.1623E+02  0.3019E+02
    -20.905  0.1501E+02  0.3165E+02
    -20.807  0.1260E+02  0.3288E+02
    -20.710  0.1106E+02  0.3395E+02
    -20.613  0.1169E+02  0.3509E+02
    -20.515  0.1327E+02  0.3638E+02
    -20.418  0.1398E+02  0.3775E+02
    -20.321  0.1403E+02  0.3911E+02
    -20.223  0.1461E+02  0.4053E+02
    -20.126  0.1559E+02  0.4205E+02
    -20.028  0.1595E+02  0.4361E+02
    -19.931  0.1516E+02  0.4508E+02
    -19.834  0.1338E+02  0.4638E+02
    -19.736  0.1173E+02  0.4753E+02
    -19.639  0.1218E+02  0.4871E+02
    -19.542  0.1480E+02  0.5015E+02
    -19.444  0.1657E+02  0.5177E+02
    -19.347  0.1555E+02  0.5328E+02
    -19.250  0.1369E+02  0.5461E+02
    -19.152  0.1365E+02  0.5594E+02
    -19.055  0.1506E+02  0.5741E+02
    -18.958  0.1551E+02  0.5892E+02
    -18.860  0.1424E+02  0.6030E+02
    -18.763  0.1348E+02  0.6162E+02
    -18.665  0.1494E+02  0.6307E+02
    -18.568  0.1673E+02  0.6470E+02
    -18.471  0.1642E+02  0.6630E+02
    -18.373  0.1499E+02  0.6776E+02
    -18.276  0.1509E+02  0.6923E+02
    -18.179  0.1698E+02  0.7088E+02
    -18.081  0.1809E+02  0.7264E+02
    -17.984  0.1656E+02  0.7425E+02
    -17.887  0.1403E+02  0.7562E+02
    -17.789  0.1323E+02  0.7691E+02
    -17.692  0.1342E+02  0.7821E+02
    -17.595  0.1239E+02  0.7942E+02
    -17.497  0.1098E+02  0.8049E+02
    -17.400  0.1116E+02  0.8157E+02
    -17.302  0.1209E+02  0.8275E+02
    -17.205  0.1189E+02  0.8391E+02
    -17.108  0.1060E+02  0.8494E+02
    -17.010  0.9427E+01  0.8586E+02
    -16.913  0.9115E+01  0.8675E+02
    -16.816  0.9847E+01  0.8770E+02
    -16.718  0.1136E+02  0.8881E+02
    -16.621  0.1312E+02  0.9009E+02
    -16.524  0.1457E+02  0.9151E+02
    -16.426  0.1551E+02  0.9302E+02
    -16.329  0.1622E+02  0.9460E+02
    -16.231  0.1678E+02  0.9623E+02
    -16.134  0.1680E+02  0.9787E+02
    -16.037  0.1628E+02  0.9945E+02
    -15.939  0.1585E+02  0.1010E+03
    -15.842  0.1556E+02  0.1025E+03
    -15.745  0.1464E+02  0.1039E+03
    -15.647  0.1290E+02  0.1052E+03
    -15.550  0.1130E+02  0.1063E+03
    -15.453  0.1144E+02  0.1074E+03
    -15.355  0.1420E+02  0.1088E+03
    -15.258  0.1832E+02  0.1106E+03
    -15.161  0.2173E+02  0.1127E+03
    -15.063  0.2378E+02  0.1150E+03
    -14.966  0.2401E+02  0.1173E+03
    -14.868  0.2165E+02  0.1194E+03
    -14.771  0.1725E+02  0.1211E+03
    -14.674  0.1250E+02  0.1223E+03
    -14.576  0.9019E+01  0.1232E+03
    -14.479  0.7792E+01  0.1240E+03
    -14.382  0.8936E+01  0.1248E+03
    -14.284  0.1126E+02  0.1259E+03
    -14.187  0.1285E+02  0.1272E+03
    -14.090  0.1310E+02  0.1285E+03
    -13.992  0.1322E+02  0.1298E+03
    -13.895  0.1423E+02  0.1311E+03
    -13.798  0.1600E+02  0.1327E+03
    -13.700  0.1795E+02  0.1344E+03
    -13.603  0.1935E+02  0.1363E+03
    -13.505  0.1938E+02  0.1382E+03
    -13.408  0.1843E+02  0.1400E+03
    -13.311  0.1789E+02  0.1418E+03
    -13.213  0.1802E+02  0.1435E+03
    -13.116  0.1770E+02  0.1452E+03
    -13.019  0.1675E+02  0.1469E+03
    -12.921  0.1633E+02  0.1485E+03
    -12.824  0.1656E+02  0.1501E+03
    -12.727  0.1594E+02  0.1516E+03
    -12.629  0.1385E+02  0.1530E+03
    -12.532  0.1205E+02  0.1541E+03
    -12.434  0.1225E+02  0.1553E+03
    -12.337  0.1424E+02  0.1567E+03
    -12.240  0.1772E+02  0.1584E+03
    -12.142  0.2205E+02  0.1606E+03
    -12.045  0.2473E+02  0.1630E+03
    -11.948  0.2394E+02  0.1653E+03
    -11.850  0.2147E+02  0.1674E+03
    -11.753  0.2019E+02  0.1694E+03
    -11.656  0.1996E+02  0.1713E+03
    -11.558  0.1881E+02  0.1732E+03
    -11.461  0.1695E+02  0.1748E+03
    -11.364  0.1649E+02  0.1764E+03
    -11.266  0.1813E+02  0.1782E+03
    -11.169  0.2123E+02  0.1803E+03
    -11.071  0.2565E+02  0.1827E+03
    -10.974  0.3058E+02  0.1857E+03
    -10.877  0.3390E+02  0.1890E+03
    -10.779  0.3461E+02  0.1924E+03
    -10.682  0.3417E+02  0.1957E+03
    -10.585  0.3507E+02  0.1991E+03
    -10.487  0.3745E+02  0.2028E+03
    -10.390  0.3856E+02  0.2065E+03
    -10.293  0.3734E+02  0.2102E+03
    -10.195  0.3588E+02  0.2137E+03
    -10.098  0.3516E+02  0.2171E+03
    -10.001  0.3404E+02  0.2204E+03
     -9.903  0.3275E+02  0.2236E+03
     -9.806  0.3300E+02  0.2268E+03
     -9.708  0.3508E+02  0.2302E+03
     -9.611  0.3779E+02  0.2339E+03
     -9.514  0.4026E+02  0.2378E+03
     -9.416  0.4179E+02  0.2419E+03
     -9.319  0.4083E+02  0.2459E+03
     -9.222  0.3652E+02  0.2494E+03
     -9.124  0.3141E+02  0.2525E+03
     -9.027  0.2984E+02  0.2554E+03
     -8.930  0.3261E+02  0.2586E+03
     -8.832  0.3627E+02  0.2621E+03
     -8.735  0.3796E+02  0.2658E+03
     -8.637  0.3765E+02  0.2694E+03
     -8.540  0.3599E+02  0.2730E+03
     -8.443  0.3339E+02  0.2762E+03
     -8.345  0.3044E+02  0.2792E+03
     -8.248  0.2763E+02  0.2819E+03
     -8.151  0.2560E+02  0.2843E+03
     -8.053  0.2506E+02  0.2868E+03
     -7.956  0.2562E+02  0.2893E+03
     -7.859  0.2651E+02  0.2919E+03
     -7.761  0.2794E+02  0.2946E+03
     -7.664  0.2969E+02  0.2975E+03
     -7.567  0.3042E+02  0.3004E+03
     -7.469  0.2971E+02  0.3033E+03
     -7.372  0.2845E+02  0.3061E+03
     -7.274  0.2720E+02  0.3087E+03
     -7.177  0.2616E+02  0.3113E+03
     -7.080  0.2561E+02  0.3138E+03
     -6.982  0.2554E+02  0.3163E+03
     -6.885  0.2580E+02  0.3188E+03
     -6.788  0.2633E+02  0.3213E+03
     -6.690  0.2681E+02  0.3240E+03
     -6.593  0.2612E+02  0.3265E+03
     -6.496  0.2356E+02  0.3288E+03
     -6.398  0.2070E+02  0.3308E+03
     -6.301  0.1959E+02  0.3327E+03
     -6.204  0.2070E+02  0.3347E+03
     -6.106  0.2339E+02  0.3370E+03
     -6.009  0.2588E+02  0.3395E+03
     -5.911  0.2605E+02  0.3421E+03
     -5.814  0.2355E+02  0.3444E+03
     -5.717  0.1998E+02  0.3463E+03
     -5.619  0.1684E+02  0.3479E+03
     -5.522  0.1444E+02  0.3494E+03
     -5.425  0.1253E+02  0.3506E+03
     -5.327  0.1133E+02  0.3517E+03
     -5.230  0.1127E+02  0.3528E+03
     -5.133  0.1158E+02  0.3539E+03
     -5.035  0.1088E+02  0.3550E+03
     -4.938  0.9470E+01  0.3559E+03
     -4.841  0.9139E+01  0.3568E+03
     -4.743  0.1044E+02  0.3578E+03
     -4.646  0.1246E+02  0.3590E+03
     -4.548  0.1442E+02  0.3604E+03
     -4.451  0.1518E+02  0.3619E+03
     -4.354  0.1324E+02  0.3632E+03
     -4.256  0.9115E+01  0.3641E+03
     -4.159  0.5271E+01  0.3646E+03
     -4.062  0.3144E+01  0.3649E+03
     -3.964  0.2391E+01  0.3651E+03
     -3.867  0.2318E+01  0.3653E+03
     -3.770  0.2649E+01  0.3656E+03
     -3.672  0.3405E+01  0.3659E+03
     -3.575  0.4391E+01  0.3664E+03
     -3.477  0.5114E+01  0.3669E+03
     -3.380  0.5078E+01  0.3673E+03
     -3.283  0.4235E+01  0.3678E+03
     -3.185  0.3519E+01  0.3681E+03
     -3.088  0.3894E+01  0.3685E+03
     -2.991  0.4871E+01  0.3690E+03
     -2.893  0.5354E+01  0.3695E+03
     -2.796  0.5622E+01  0.3700E+03
     -2.699  0.6756E+01  0.3707E+03
     -2.601  0.8194E+01  0.3715E+03
     -2.504  0.8068E+01  0.3723E+03
     -2.407  0.6356E+01  0.3729E+03
     -2.309  0.5085E+01  0.3734E+03
     -2.212  0.5460E+01  0.3739E+03
     -2.114  0.6656E+01  0.3746E+03
     -2.017  0.6976E+01  0.3752E+03
     -1.920  0.6012E+01  0.3758E+03
     -1.822  0.5520E+01  0.3764E+03
     -1.725  0.7472E+01  0.3771E+03
     -1.628  0.1212E+02  0.3783E+03
     -1.530  0.1783E+02  0.3800E+03
     -1.433  0.2206E+02  0.3821E+03
     -1.336  0.2307E+02  0.3844E+03
     -1.238  0.2149E+02  0.3865E+03
     -1.141  0.1984E+02  0.3884E+03
     -1.044  0.1944E+02  0.3903E+03
     -0.946  0.1887E+02  0.3921E+03
     -0.849  0.1644E+02  0.3937E+03
     -0.751  0.1295E+02  0.3950E+03
     -0.654  0.1073E+02  0.3961E+03
     -0.557  0.1078E+02  0.3971E+03
     -0.459  0.1187E+02  0.3983E+03
     -0.362  0.1256E+02  0.3995E+03
     -0.265  0.1309E+02  0.4008E+03
     -0.167  0.1430E+02  0.4022E+03
     -0.070  0.1611E+02  0.4037E+03
      0.027  0.1833E+02  0.4055E+03
      0.125  0.2079E+02  0.4075E+03
      0.222  0.2253E+02  0.4097E+03
      0.320  0.2263E+02  0.4119E+03
      0.417  0.2095E+02  0.4140E+03
      0.514  0.1916E+02  0.4158E+03
      0.612  0.1994E+02  0.4178E+03
      0.709  0.2364E+02  0.4201E+03
      0.806  0.2775E+02  0.4228E+03
      0.904  0.3058E+02  0.4258E+03
      1.001  0.3343E+02  0.4290E+03
      1.098  0.3766E+02  0.4327E+03
      1.196  0.4248E+02  0.4368E+03
      1.293  0.4695E+02  0.4414E+03
      1.390  0.4988E+02  0.4462E+03
      1.488  0.4916E+02  0.4510E+03
      1.585  0.4416E+02  0.4553E+03
      1.683  0.3608E+02  0.4588E+03
      1.780  0.2606E+02  0.4614E+03
      1.877  0.1563E+02  0.4629E+03
      1.975  0.7446E+01  0.4636E+03
      2.072  0.2824E+01  0.4639E+03
      2.169  0.8679E+00  0.4640E+03
      2.267  0.2092E+00  0.4640E+03
      2.364  0.3663E-01  0.4640E+03
      2.461  0.4352E-02  0.4640E+03
      2.559  0.3372E-03  0.4640E+03
      2.656  0.1670E-04  0.4640E+03
      2.753  0.5237E-06  0.4640E+03
      2.851  0.1036E-07  0.4640E+03
      2.948  0.1288E-09  0.4640E+03
      3.046  0.1006E-11  0.4640E+03
      3.143  0.4561E-14  0.4640E+03
      3.240  0.0000E+00  0.4640E+03
      3.338  0.0000E+00  0.4640E+03
      3.435  0.0000E+00  0.4640E+03
      3.532  0.0000E+00  0.4640E+03
      3.630  0.0000E+00  0.4640E+03
      3.727  0.0000E+00  0.4640E+03
      3.824  0.0000E+00  0.4640E+03
      3.922  0.0000E+00  0.4640E+03
