 vasp.6.5.0 16Dec24 (build Feb 19 2025 19:45:31) complex                         
 executed on              LinuxNV date 2025.10.25  11:14:12
 running    2 mpi-ranks, on    1 nodes
 distrk:  each k-point on    2 cores,    1 groups
 distr:  one band on NCORE=   1 cores,    2 groups
 Offloading initialized ...    2 GPUs detected


--------------------------------------------------------------------------------------------------------


 INCAR:
   ISTART = 0            (Not Read existing wavefunction
   ISPIN = 1            (Non-Spin polarised DFT, Default\=1)
   ICHARG = 2            (The initial guess charge density is generated by superposition of atomic charge density)
   LREAL = Auto         (Projection operators: automatic)
   ENCUT = 500          (Cut-off energy for plane wave basis set, in eV)
   LWAVE = .FALSE.       (Write WAVECAR or not)
   LCHARG = .FALSE.       (Write CHGCAR or not)
   PREC = Accurate   (Precision level)
   KGAMMA = .TRUE.
   ALGO = Normal
   NSW = 0           (Default: NSW \= 0)
   IBRION = -1           (Ions are not moved)
   ISMEAR = 0
   EDIFF = 1E-06        (SCF energy convergence
   NELM = 150          (Max electronic SCF steps)

 POTCAR:    PAW_PBE C 08Apr2002                   
 POTCAR:    PAW_PBE C 08Apr2002                   
   SHA256 =  253f7b50bb8d59471dbedb8285d89021f4a42ed1a2c5d38a03a736e69125dd95 C/POTCAR              
   COPYR  = (c) Copyright 08Apr2002 Georg Kresse                                                    
   COPYR  = This file is part of the software VASP. Any use, copying, and all other rights are regul
   COPYR  = If you do not have a valid VASP license, you may not use, copy or distribute this file. 
   VRHFIN =C: s2p2                                                                                  
   LEXCH  = PE                                                                                      
   EATOM  =   147.1560 eV,   10.8157 Ry                                                             
                                                                                                    
   TITEL  = PAW_PBE C 08Apr2002                                                                     
   LULTRA =        F    use ultrasoft PP ?                                                          
   IUNSCR =        1    unscreen: 0-lin 1-nonlin 2-no                                               
   RPACOR =    1.200    partial core radius                                                         
   POMASS =   12.011; ZVAL   =    4.000    mass and valenz                                          
   RCORE  =    1.500    outmost cutoff radius                                                       
   RWIGS  =    1.630; RWIGS  =    0.863    wigner-seitz radius (au A)                               
   ENMAX  =  400.000; ENMIN  =  300.000 eV                                                          
   ICORE  =        2    local potential                                                             
   LCOR   =        T    correct aug charges                                                         
   LPAW   =        T    paw PP                                                                      
   EAUG   =  644.873                                                                                
   DEXC   =    0.000                                                                                
   RMAX   =    1.529    core radius for proj-oper                                                   
   RAUG   =    1.300    factor for augmentation sphere                                              
   RDEP   =    1.501    radius for radial grids                                                     
   RDEPT  =    1.300    core radius for aug-charge                                                  
                                                                                                    
   Atomic configuration                                                                             
    4 entries                                                                                       
     n  l   j            E        occ.                                                              
     1  0  0.50      -273.3789   2.0000                                                             
     2  0  0.50       -13.7508   2.0000                                                             
     2  1  0.50        -5.2854   2.0000                                                             
     3  2  1.50        -5.4423   0.0000                                                             
   Description                                                                                      
     l       E           TYP  RCUT    TYP  RCUT                                                     
     0    -13.7508458     23  1.200                                                                 
     0     -8.2022199     23  1.200                                                                 
     1     -5.2854383     23  1.500                                                                 
     1     34.0145650     23  1.500                                                                 
     2     -5.4423304      7  1.500                                                                 
  local pseudopotential read in
  partial core-charges read in
  partial kinetic energy density read in
  atomic valenz-charges read in
  non local Contribution for L=            0  read in
    real space projection operators read in
  non local Contribution for L=            0  read in
    real space projection operators read in
  non local Contribution for L=            1  read in
    real space projection operators read in
  non local Contribution for L=            1  read in
    real space projection operators read in
    PAW grid and wavefunctions read in
 
   number of l-projection  operators is LMAX  =            4
   number of lm-projection operators is LMMAX =            8
 
 Optimization of the real space projectors (new method)

 maximal supplied QI-value         = 25.13
 optimisation between [QCUT,QGAM] = [ 11.31, 22.87] = [ 35.82,146.48] Ry 
 Optimized for a Real-space Cutoff    1.03 Angstroem

   l    n(q)    QCUT    max X(q) W(low)/X(q) W(high)/X(q)  e(spline) 
   0      7    11.310   115.676    0.20E-03    0.90E-03    0.20E-06
   0      7    11.310    87.132    0.20E-03    0.89E-03    0.19E-06
   1      6    11.310     4.429    0.16E-03    0.28E-03    0.12E-06
   1      6    11.310     2.733    0.12E-03    0.21E-03    0.99E-07
  PAW_PBE C 08Apr2002                   :
 energy of atom  1       EATOM= -147.1560
 kinetic energy error for atom=    0.0076 (will be added to EATOM!!)
 
 
 POSCAR:  C
  positions in cartesian coordinates
  No initial velocities read in


 exchange-correlation table for PE
   RHO(1)=    0.500       N(1)  =     2000
   RHO(2)=  100.500       N(2)  =     4000
 


--------------------------------------------------------------------------------------------------------


 ion  position               nearest neighbor table
   1  0.005  0.097  0.484-   3 1.36   2 1.42  45 1.44  46 2.02
   2  0.004  0.272  0.482-   1 1.42  46 1.42   4 1.45  45 2.00
   3  0.047  0.018  0.478-   1 1.36  50 1.37   5 1.44
   4  0.047  0.354  0.470-  49 1.36   2 1.45   6 1.46
   5  0.091  0.103  0.470-   6 1.38   7 1.39   3 1.44
   6  0.093  0.270  0.462-   5 1.38   8 1.43   4 1.46
   7  0.135  0.024  0.464-   5 1.39  54 1.40   9 1.46
   8  0.134  0.361  0.451-  53 1.34   6 1.43  10 1.44
   9  0.180  0.104  0.455-  10 1.40  11 1.40   7 1.46
  10  0.179  0.274  0.449-   9 1.40  12 1.43   8 1.44
  11  0.224  0.022  0.455-   9 1.40  13 1.41  58 1.41
  12  0.224  0.358  0.448-  57 1.35  10 1.43  14 1.45
  13  0.268  0.107  0.459-  14 1.37  11 1.41  15 1.42
  14  0.269  0.275  0.453-  13 1.37  16 1.41  12 1.45
  15  0.311  0.027  0.469-  62 1.40  17 1.40  13 1.42
  16  0.314  0.348  0.459-  61 1.37  14 1.41  18 1.46
  17  0.354  0.103  0.479-  18 1.36  15 1.40  19 1.41
  18  0.358  0.269  0.473-  17 1.36  20 1.43  16 1.46
  19  0.398  0.024  0.489-  66 1.34  17 1.41  21 1.43
  20  0.400  0.356  0.483-  65 1.38  22 1.41  18 1.43
  21  0.439  0.107  0.503-  22 1.37  23 1.41  19 1.43
  22  0.441  0.276  0.499-  21 1.37  20 1.41  24 1.41
  23  0.479  0.023  0.518-  70 1.37  21 1.41  25 1.43
  24  0.483  0.357  0.511-  69 1.38  26 1.40  22 1.41
  25  0.523  0.108  0.526-  26 1.37  27 1.41  23 1.43
  26  0.525  0.277  0.521-  25 1.37  24 1.40  28 1.43
  27  0.564  0.026  0.540-  74 1.36  29 1.40  25 1.41
  28  0.567  0.361  0.534-  73 1.33  30 1.42  26 1.43
  29  0.607  0.106  0.547-  30 1.34  27 1.40  31 1.47
  30  0.609  0.270  0.543-  29 1.34  32 1.40  28 1.42
  31  0.652  0.020  0.555-  78 1.36  33 1.45  29 1.47
  32  0.653  0.354  0.549-  77 1.34  30 1.40  34 1.43
  33  0.697  0.105  0.551-  34 1.35  35 1.43  31 1.45
  34  0.697  0.271  0.547-  33 1.35  32 1.43  36 1.43
  35  0.742  0.018  0.548-  82 1.33  33 1.43  37 1.44
  36  0.741  0.355  0.541-  81 1.35  34 1.43  38 1.44
  37  0.785  0.102  0.538-  38 1.35  35 1.44  39 1.44
  38  0.785  0.268  0.533-  37 1.35  36 1.44  40 1.45
  39  0.830  0.024  0.530-  86 1.39  37 1.44  41 1.44
  40  0.829  0.347  0.521-  42 1.37  85 1.39  38 1.45
  41  0.873  0.105  0.516-  42 1.36  39 1.44  43 1.45
  42  0.873  0.273  0.516-  41 1.36  40 1.37  44 1.42
  43  0.917  0.019  0.506-  45 1.33  90 1.36  41 1.45
  44  0.915  0.355  0.503-  89 1.33  46 1.35  42 1.42
  45  0.957  0.101  0.499-  43 1.33  46 1.40   1 1.44   2 2.00
  46  0.956  0.273  0.495-  44 1.35  45 1.40   2 1.42   1 2.02
  47  0.003  0.596  0.472-  49 1.40  91 1.44  48 1.44
  48  0.005  0.772  0.479-  50 1.36  47 1.44  92 1.45  91 1.98
  49  0.047  0.520  0.465-   4 1.36  47 1.40  51 1.44
  50  0.048  0.850  0.475-  48 1.36   3 1.37  52 1.44
  51  0.092  0.605  0.460-  52 1.38  53 1.43  49 1.44
  52  0.093  0.771  0.468-  51 1.38  54 1.38  50 1.44
  53  0.135  0.526  0.449-   8 1.34  55 1.43  51 1.43
  54  0.136  0.852  0.465-  52 1.38   7 1.40  56 1.43
  55  0.180  0.607  0.444-  56 1.40  53 1.43  57 1.43
  56  0.180  0.775  0.453-  55 1.40  58 1.40  54 1.43
  57  0.225  0.523  0.443-  12 1.35  55 1.43  59 1.46
  58  0.225  0.847  0.455-  56 1.40  11 1.41  60 1.42
  59  0.271  0.604  0.445-  60 1.40  57 1.46  61 1.46
  60  0.271  0.771  0.456-  62 1.38  59 1.40  58 1.42
  61  0.316  0.517  0.455-  16 1.37  59 1.46  63 1.49
  62  0.311  0.854  0.469-  64 1.38  60 1.38  15 1.40
  63  0.359  0.606  0.469-  64 1.37  65 1.41  61 1.49
  64  0.354  0.773  0.474-  63 1.37  62 1.38  66 1.48
  65  0.400  0.525  0.483-  20 1.38  63 1.41  67 1.43
  66  0.397  0.858  0.489-  19 1.34  68 1.42  64 1.48
  67  0.441  0.608  0.499-  68 1.37  69 1.40  65 1.43
  68  0.439  0.776  0.502-  67 1.37  70 1.41  66 1.42
  69  0.481  0.527  0.513-  24 1.38  67 1.40  71 1.47
  70  0.479  0.854  0.518-  23 1.37  68 1.41  72 1.42
  71  0.523  0.612  0.530-  72 1.33  73 1.42  69 1.47
  72  0.520  0.774  0.534-  71 1.33  70 1.42  74 1.43
  73  0.566  0.524  0.538-  28 1.33  75 1.40  71 1.42
  74  0.563  0.860  0.545-  27 1.36  76 1.42  72 1.43
  75  0.608  0.608  0.547-  76 1.35  73 1.40  77 1.47
  76  0.607  0.775  0.549-  75 1.35  74 1.42  78 1.45
  77  0.654  0.519  0.549-  32 1.34  79 1.40  75 1.47
  78  0.653  0.852  0.553-  31 1.36  80 1.40  76 1.45
  79  0.698  0.599  0.550-  77 1.40  81 1.41  80 1.43
  80  0.698  0.775  0.550-  78 1.40  79 1.43  82 1.43
  81  0.742  0.522  0.538-  36 1.35  79 1.41  83 1.43
  82  0.743  0.854  0.546-  35 1.33  84 1.42  80 1.43
  83  0.786  0.600  0.532-  85 1.39  84 1.41  81 1.43
  84  0.787  0.773  0.538-  83 1.41  82 1.42  86 1.43
  85  0.828  0.519  0.521-  40 1.39  83 1.39  87 1.48
  86  0.832  0.853  0.531-  39 1.39  88 1.41  84 1.43
  87  0.873  0.607  0.511-  88 1.38  89 1.42  85 1.48
  88  0.874  0.774  0.518-  87 1.38  90 1.39  86 1.41
  89  0.915  0.519  0.499-  44 1.33  91 1.40  87 1.42
  90  0.917  0.852  0.508-  43 1.36  88 1.39  92 1.40
  91  0.959  0.597  0.494-  89 1.40  92 1.41  47 1.44  48 1.98
  92  0.960  0.770  0.500-  90 1.40  91 1.41  48 1.45
 
  LATTYP: Found a simple orthorhombic cell.
 ALAT       =     8.1000000000
 B/A-ratio  =     3.4629629630
 C/A-ratio  =     4.1358024691
  
  Lattice vectors:
  
 A1 = (   0.0000000000,  -8.1000000000,   0.0000000000)
 A2 = (  28.0500000000,   0.0000000000,   0.0000000000)
 A3 = (   0.0000000000,   0.0000000000,  33.5000000000)


Analysis of symmetry for initial positions (statically):
=====================================================================
 Subroutine PRICEL returns:
 Original cell was already a primitive cell.
 

 Routine SETGRP: Setting up the symmetry group for a 
 simple orthorhombic supercell.


 Subroutine GETGRP returns: Found  1 space group operations
 (whereof  1 operations were pure point group operations)
 out of a pool of  8 trial point group operations.


The static configuration has the point symmetry C_1 .


Analysis of symmetry for dynamics (positions and initial velocities):
=====================================================================
 Subroutine PRICEL returns:
 Original cell was already a primitive cell.
 

 Routine SETGRP: Setting up the symmetry group for a 
 simple orthorhombic supercell.


 Subroutine GETGRP returns: Found  1 space group operations
 (whereof  1 operations were pure point group operations)
 out of a pool of  8 trial point group operations.


The dynamic configuration has the point symmetry C_1 .


 Subroutine INISYM returns: Found  1 space group operations
 (whereof  1 operations are pure point group operations),
 and found     1 'primitive' translations


----------------------------------------------------------------------------------------

                                     Primitive cell                                     

  volume of cell :    7611.3675

  direct lattice vectors                    reciprocal lattice vectors
    28.050000000  0.000000000  0.000000000     0.035650624  0.000000000  0.000000000
     0.000000000  8.100000000  0.000000000     0.000000000  0.123456790  0.000000000
     0.000000000  0.000000000 33.500000000     0.000000000  0.000000000  0.029850746

  length of vectors
    28.050000000  8.100000000 33.500000000     0.035650624  0.123456790  0.029850746

  position of ions in fractional coordinates (direct lattice)
     0.004795223  0.097228519  0.483835821
     0.003577540  0.271832099  0.481602985
     0.047043137  0.018315062  0.477701493
     0.047324421  0.353827160  0.469608955
     0.091210695  0.102610864  0.470131343
     0.092600357  0.270292593  0.462214925
     0.134563993  0.024390988  0.463662687
     0.134192513  0.361166667  0.450952239
     0.180151872  0.103603457  0.455092537
     0.179030303  0.273827160  0.448779104
     0.224152941  0.021667531  0.455253731
     0.224073797  0.357644444  0.447785075
     0.267671301  0.107334938  0.458507463
     0.269348663  0.274614815  0.452579104
     0.310904813  0.027186543  0.469432836
     0.314221390  0.348346914  0.458868657
     0.354332620  0.103470741  0.479119403
     0.357761141  0.268619753  0.473056716
     0.397561497  0.023698765  0.488659701
     0.400320856  0.355602469  0.482928358
     0.439208556  0.107017160  0.502600000
     0.440830660  0.275538272  0.498620896
     0.479372549  0.023007531  0.517895522
     0.482966132  0.356641975  0.510704478
     0.522983957  0.108477531  0.526044776
     0.525351159  0.276669136  0.521089552
     0.564121212  0.026074198  0.539540299
     0.567490196  0.361109877  0.534074627
     0.607219251  0.106195802  0.547194030
     0.609418895  0.270156790  0.543349254
     0.652310160  0.019575679  0.554829851
     0.652513369  0.353875309  0.548698507
     0.697465241  0.105002469  0.551050746
     0.697237077  0.270793827  0.546501493
     0.741782531  0.018229506  0.547961194
     0.741458111  0.355280247  0.540880597
     0.785201426  0.102417654  0.538014925
     0.785058824  0.267622222  0.532608955
     0.830192513  0.023652346  0.530116418
     0.829472371  0.347203704  0.521179104
     0.872531194  0.104665309  0.515761194
     0.873076649  0.272506173  0.516286567
     0.916677362  0.018849753  0.506471642
     0.914634581  0.355443210  0.502719403
     0.956762923  0.100635926  0.499146269
     0.955639929  0.272927160  0.495259701
     0.002804257  0.595759259  0.472044776
     0.004932941  0.771624691  0.478874627
     0.047069875  0.520388889  0.464940299
     0.047643850  0.849661728  0.474844776
     0.091649554  0.604939506  0.459853731
     0.092981462  0.771454321  0.467925373
     0.135234581  0.525943210  0.448973134
     0.136269875  0.852369136  0.465092537
     0.179963993  0.606980247  0.444185075
     0.180014973  0.775037037  0.453459701
     0.224870588  0.522860494  0.443343284
     0.225266310  0.847155556  0.455373134
     0.271286631  0.603759259  0.445480597
     0.270865241  0.771379012  0.455644776
     0.315518004  0.516839506  0.454931343
     0.310822816  0.854200000  0.469014925
     0.358573975  0.606398765  0.469146269
     0.353633512  0.773083951  0.473576119
     0.399836007  0.525380247  0.483176119
     0.396691622  0.858091358  0.488564179
     0.440802139  0.607713580  0.498782090
     0.438577540  0.776238272  0.502050746
     0.481415330  0.526970370  0.513038806
     0.479044563  0.854029630  0.518247761
     0.523276292  0.612019753  0.529644776
     0.520224599  0.774472840  0.533680597
     0.565836007  0.524154321  0.537907463
     0.562887701  0.859754321  0.544949254
     0.608231729  0.608260494  0.546988060
     0.606823529  0.774580247  0.549495522
     0.653975045  0.519369136  0.549435821
     0.653315508  0.852366667  0.552591045
     0.698434938  0.598792593  0.549970149
     0.697864528  0.774751852  0.550026866
     0.741500891  0.521862963  0.538319403
     0.743308378  0.853787654  0.545671642
     0.786463458  0.600330864  0.532140299
     0.787140820  0.772943210  0.537728358
     0.828024955  0.518513580  0.520707463
     0.831789661  0.852792593  0.531155224
     0.872944742  0.606897531  0.511041791
     0.874196078  0.774244444  0.518423881
     0.914541889  0.519297531  0.498892537
     0.916834225  0.851524691  0.508238806
     0.958880570  0.597320988  0.494388060
     0.959586453  0.769844444  0.499668657

  ion indices of the primitive-cell ions
   primitive index   ion index
                 1           1
                 2           2
                 3           3
                 4           4
                 5           5
                 6           6
                 7           7
                 8           8
                 9           9
                10          10
                11          11
                12          12
                13          13
                14          14
                15          15
                16          16
                17          17
                18          18
                19          19
                20          20
                21          21
                22          22
                23          23
                24          24
                25          25
                26          26
                27          27
                28          28
                29          29
                30          30
                31          31
                32          32
                33          33
                34          34
                35          35
                36          36
                37          37
                38          38
                39          39
                40          40
                41          41
                42          42
                43          43
                44          44
                45          45
                46          46
                47          47
                48          48
                49          49
                50          50
                51          51
                52          52
                53          53
                54          54
                55          55
                56          56
                57          57
                58          58
                59          59
                60          60
                61          61
                62          62
                63          63
                64          64
                65          65
                66          66
                67          67
                68          68
                69          69
                70          70
                71          71
                72          72
                73          73
                74          74
                75          75
                76          76
                77          77
                78          78
                79          79
                80          80
                81          81
                82          82
                83          83
                84          84
                85          85
                86          86
                87          87
                88          88
                89          89
                90          90
                91          91
                92          92

----------------------------------------------------------------------------------------

 
 
 KPOINTS: K-Spacing Value to Generate K-Mesh: 0.03

Automatic generation of k-mesh.
 Grid dimensions read from file:
 generate k-points for:    1    4    1

 Generating k-lattice:

  Cartesian coordinates                     Fractional coordinates (reciprocal lattice)
     0.035650624  0.000000000  0.000000000     1.000000000  0.000000000  0.000000000
     0.000000000  0.030864198  0.000000000     0.000000000  0.250000000  0.000000000
     0.000000000  0.000000000  0.029850746     0.000000000  0.000000000  1.000000000

  Length of vectors
     0.035650624  0.030864198  0.029850746

  Shift w.r.t. Gamma in fractional coordinates (k-lattice)
     0.000000000  0.000000000  0.000000000

 
 Subroutine IBZKPT returns following result:
 ===========================================
 
 Found      3 irreducible k-points:
 
 Following reciprocal coordinates:
            Coordinates               Weight
  0.000000  0.000000  0.000000      1.000000
  0.000000  0.250000  0.000000      2.000000
  0.000000  0.500000  0.000000      1.000000
 
 Following cartesian coordinates:
            Coordinates               Weight
  0.000000  0.000000  0.000000      1.000000
  0.000000  0.030864  0.000000      2.000000
  0.000000  0.061728  0.000000      1.000000
 


--------------------------------------------------------------------------------------------------------




 Dimension of arrays:
   k-points           NKPTS =      3   k-points in BZ     NKDIM =      3   number of bands    NBANDS=    232
   number of dos      NEDOS =    301   number of ions     NIONS =     92
   non local maximal  LDIM  =      4   non local SUM 2l+1 LMDIM =      8
   total plane-waves  NPLWV = ******
   max r-space proj   IRMAX =   1967   max aug-charges    IRDMAX=   5083
   dimension x,y,z NGX =   210 NGY =   60 NGZ =  250
   dimension x,y,z NGXF=   420 NGYF=  120 NGZF=  500
   support grid    NGXF=   420 NGYF=  120 NGZF=  500
   ions per type =              92
   NGX,Y,Z   is equivalent  to a cutoff of  12.45, 12.31, 12.41 a.u.
   NGXF,Y,Z  is equivalent  to a cutoff of  24.89, 24.63, 24.81 a.u.

 SYSTEM =  unknown system                          
 POSCAR =   C                                      

 Startparameter for this run:
   NWRITE =      2    write-flag & timer
   PREC   = accura    normal or accurate (medium, high low for compatibility)
   ISTART =      0    job   : 0-new  1-cont  2-samecut
   ICHARG =      2    charge: 1-file 2-atom 10-const
   ISPIN  =      1    spin polarized calculation?
   LNONCOLLINEAR =      F non collinear calculations
   LSORBIT =      F    spin-orbit coupling
   INIWAV =      1    electr: 0-lowe 1-rand  2-diag
   LASPH  =      F    aspherical Exc in radial PAW
 Electronic Relaxation 1
   ENCUT  =  500.0 eV  36.75 Ry    6.06 a.u.  51.14 14.77 61.08*2*pi/ulx,y,z
   ENINI  =  500.0     initial cutoff
   ENAUG  =  644.9 eV  augmentation charge cutoff
   NELM   =    150;   NELMIN=  2; NELMDL= -5     # of ELM steps 
   EDIFF  = 0.1E-05   stopping-criterion for ELM
   LREAL  =      T    real-space projection
   NLSPLINE    = F    spline interpolate recip. space projectors
   LCOMPAT=      F    compatible to vasp.4.4
   GGA_COMPAT  = T    GGA compatible to vasp.4.4-vasp.4.6
   LMAXPAW     = -100 max onsite density
   LMAXMIX     =    2 max onsite mixed and CHGCAR
   VOSKOWN=      0    Vosko Wilk Nusair interpolation
   ROPT   =   -0.00025
 Ionic relaxation
   EDIFFG = 0.1E-04   stopping-criterion for IOM
   NSW    =      0    number of steps for IOM
   NBLOCK =      1;   KBLOCK =      1    inner block; outer block 
   IBRION =     -1    ionic relax: 0-MD 1-quasi-New 2-CG
   NFREE  =      0    steps in history (QN), initial steepest desc. (CG)
   ISIF   =      2    stress and relaxation
   IWAVPR =     10    prediction:  0-non 1-charg 2-wave 3-comb
   ISYM   =      2    0-nonsym 1-usesym 2-fastsym
   LCORR  =      T    Harris-Foulkes like correction to forces

   POTIM  = 0.5000    time-step for ionic-motion
   TEIN   =    0.0    initial temperature
   TEBEG  =    0.0;   TEEND  =   0.0 temperature during run
   SMASS  =  -3.00    Nose mass-parameter (am)
   estimated Nose-frequenzy (Omega)   =  0.10E-29 period in steps = 0.13E+47 mass=  -0.180E-25a.u.
   SCALEE = 1.0000    scale energy and forces
   NPACO  =    256;   APACO  = 10.0  distance and # of slots for P.C.
   PSTRESS=    0.0 pullay stress

  Mass of Ions in am
   POMASS =  12.01
  Ionic Valenz
   ZVAL   =   4.00
  Atomic Wigner-Seitz radii
   RWIGS  =  -1.00
  virtual crystal weights 
   VCA    =   1.00
   NELECT =     368.0000    total number of electrons
   NUPDOWN=      -1.0000    fix difference up-down

 DOS related values:
   EMIN   =  10.00;   EMAX   =-10.00  energy-range for DOS
   EFERMI =   0.00;   METHOD = LEGACY      
   ISMEAR =     0;   SIGMA  =   0.20  broadening in eV -4-tet -1-fermi 0-gaus
   EFERMI_NEDOS =   21; number of points for ismear=-14 and -15

 Electronic relaxation 2 (details)
   IALGO  =     38    algorithm
   LDIAG  =      T    sub-space diagonalisation (order eigenvalues)
   LSUBROT=      F    optimize rotation matrix (better conditioning)
   TURBO    =      0    0=normal 1=particle mesh
   IRESTART =      0    0=no restart 2=restart with 2 vectors
   NREBOOT  =      0    no. of reboots
   NMIN     =      0    reboot dimension
   EREF     =   0.00    reference energy to select bands
   IMIX   =      4    mixing-type and parameters
     AMIX     =   0.40;   BMIX     =  1.00
     AMIX_MAG =   1.60;   BMIX_MAG =  1.00
     AMIN     =   0.10
     WC   =   100.;   INIMIX=   1;  MIXPRE=   1;  MAXMIX= -45

 Intra band minimization:
   WEIMIN = 0.0000     energy-eigenvalue tresh-hold
   EBREAK =  0.11E-08  absolut break condition
   DEPER  =   0.30     relativ break condition  

   TIME   =   0.40     timestep for ELM

  volume/ion in A,a.u.               =      82.73       558.30
  Fermi-wavevector in a.u.,A,eV,Ry     =   0.596398  1.127030  4.839472  0.355691
  Thomas-Fermi vector in A             =   1.646729
 
 Write flags
   LWAVE        =      F    write WAVECAR
   LDOWNSAMPLE  =      F    k-point downsampling of WAVECAR
   LCHARG       =      F    write CHGCAR
   LVTOT        =      F    write LOCPOT, total local potential
   LVHAR        =      F    write LOCPOT, Hartree potential only
   WRT_POTENTIAL= false  ! write potential to hdf5 file
   LELF         =      F    write electronic localiz. function (ELF)
   LORBIT       =      0    0 simple, 1 ext, 2 COOP (PROOUT), +10 PAW based schemes


 Python interface
   PLUGINS active      =      F    recompile with -DPLUGINS to activate
 
 Dipole corrections
   LMONO      =      F    monopole corrections only (constant potential shift)
   LDIPOL     =      F    correct potential (dipole corrections)
   IDIPOL     =      0    1-x, 2-y, 3-z, 4-all directions 
   EPSILON    =  1.0000000 bulk dielectric constant
   LVACPOTAV  =      F  vacuum potentials using an averaging scheme for the charge density
   VACPOTFLAT =  0.1000000 required flatness to determine vacuum potential
 
Coulomb truncation method
  LTRUNCATE          =      F  Coulomb kernel truncation to be used
  IDIMENSIONALITY    =      3  Dimensionality of cutoff (0 molecules / 2 surfaces)
  ISURFACE           =     -1  Direction of surface normal
  LCOARSEN           =      F  Coarsen the charge grid before padding, preferred

 
 Exchange correlation treatment:
   GGA     = PE    functional components
   XC_C    = 1    coefficients multiplying the functional components
   LIBXC   =     F    Libxc                    
   VOSKOWN =     0    Vosko Wilk Nusair interpolation
   LHFCALC =     F    Hartree Fock is set to
   LHFONE  =     F    Hartree Fock one center treatment
   AEXX    =    0.0000 exact exchange contribution

 Parameters of functionals:
   PE:
     No parameter
 
 Van der Waals corrections
   IVDW    =     0    specifies the selected vdW correction

 Linear response parameters
   LEPSILON=     F    determine dielectric tensor
   LRPA    =     F    only Hartree local field effects (RPA)
   LNABLA  =     F    use nabla operator in PAW spheres
   LVEL    =     F    velocity operator in full k-point grid
   CSHIFT  =0.1000    complex shift for real part using Kramers Kronig
   OMEGAMAX=  -1.0    maximum frequency
   DEG_THRESHOLD= 0.2000000E-02 threshold for treating states as degnerate
   RTIME   =   -0.100 relaxation time in fs
  (WPLASMAI=    0.000 imaginary part of plasma frequency in eV, 0.658/RTIME)
   DFIELD  = 0.0000000 0.0000000 0.0000000 field for delta impulse in time
 
  Optional k-point grid parameters
   LKPOINTS_OPT  =     F    use optional k-point grid
   KPOINTS_OPT_MODE=     1    mode for optional k-point grid
 
 Orbital magnetization related:
   ORBITALMAG=     F  switch on orbital magnetization
   LCHIMAG   =     F  perturbation theory with respect to B field
   DQ        =  0.001000  dq finite difference perturbation B field
   LLRAUG    =     F  two centre corrections for induced B field
   LBONE     =     F  B-component reconstruction in AE one-centre
   LVGVCALC  =     T  calculate vGv susceptibility
   LVGVAPPL  =     F  apply vGv susceptibility instead of pGv for G=0

 Random number generation:
   RANDOM_GENERATOR = DEFAULT
   PCG_SEED         = not used


--------------------------------------------------------------------------------------------------------


 Static calculation
 charge density and potential will be updated during run
 non-spin polarized calculation
 Variant of blocked Davidson
 Davidson routine will perform the subspace rotation
 perform sub-space diagonalisation
    after iterative eigenvector-optimisation
 modified Broyden-mixing scheme, WC =      100.0
 initial mixing is a Kerker type mixing with AMIX =  0.4000 and BMIX =      1.0000
 Hartree-type preconditioning will be used
 using additional bands            48
 real space projection scheme for non local part
 use partial core corrections
 calculate Harris-corrections to forces 
   (improved forces if not selfconsistent)
 use gradient corrections 
 use of overlap-Matrix (Vanderbilt PP)
 Gauss-broadening in eV      SIGMA  =   0.20


--------------------------------------------------------------------------------------------------------


  energy-cutoff  :      500.00
  volume of cell :     7611.37
      direct lattice vectors                 reciprocal lattice vectors
    28.050000000  0.000000000  0.000000000     0.035650624  0.000000000  0.000000000
     0.000000000  8.100000000  0.000000000     0.000000000  0.123456790  0.000000000
     0.000000000  0.000000000 33.500000000     0.000000000  0.000000000  0.029850746

  length of vectors
    28.050000000  8.100000000 33.500000000     0.035650624  0.123456790  0.029850746


 
 k-points in units of 2pi/SCALE and weight: K-Spacing Value to Generate K-Mesh: 0.03
   0.00000000  0.00000000  0.00000000       0.250
   0.00000000  0.03086420  0.00000000       0.500
   0.00000000  0.06172840  0.00000000       0.250
 
 k-points in reciprocal lattice and weights: K-Spacing Value to Generate K-Mesh: 0.03
   0.00000000  0.00000000  0.00000000       0.250
   0.00000000  0.25000000  0.00000000       0.500
   0.00000000  0.50000000  0.00000000       0.250
 
 position of ions in fractional coordinates (direct lattice) 
   0.00479522  0.09722852  0.48383582
   0.00357754  0.27183210  0.48160299
   0.04704314  0.01831506  0.47770149
   0.04732442  0.35382716  0.46960896
   0.09121070  0.10261086  0.47013134
   0.09260036  0.27029259  0.46221493
   0.13456399  0.02439099  0.46366269
   0.13419251  0.36116667  0.45095224
   0.18015187  0.10360346  0.45509254
   0.17903030  0.27382716  0.44877910
   0.22415294  0.02166753  0.45525373
   0.22407380  0.35764444  0.44778507
   0.26767130  0.10733494  0.45850746
   0.26934866  0.27461481  0.45257910
   0.31090481  0.02718654  0.46943284
   0.31422139  0.34834691  0.45886866
   0.35433262  0.10347074  0.47911940
   0.35776114  0.26861975  0.47305672
   0.39756150  0.02369877  0.48865970
   0.40032086  0.35560247  0.48292836
   0.43920856  0.10701716  0.50260000
   0.44083066  0.27553827  0.49862090
   0.47937255  0.02300753  0.51789552
   0.48296613  0.35664198  0.51070448
   0.52298396  0.10847753  0.52604478
   0.52535116  0.27666914  0.52108955
   0.56412121  0.02607420  0.53954030
   0.56749020  0.36110988  0.53407463
   0.60721925  0.10619580  0.54719403
   0.60941889  0.27015679  0.54334925
   0.65231016  0.01957568  0.55482985
   0.65251337  0.35387531  0.54869851
   0.69746524  0.10500247  0.55105075
   0.69723708  0.27079383  0.54650149
   0.74178253  0.01822951  0.54796119
   0.74145811  0.35528025  0.54088060
   0.78520143  0.10241765  0.53801493
   0.78505882  0.26762222  0.53260896
   0.83019251  0.02365235  0.53011642
   0.82947237  0.34720370  0.52117910
   0.87253119  0.10466531  0.51576119
   0.87307665  0.27250617  0.51628657
   0.91667736  0.01884975  0.50647164
   0.91463458  0.35544321  0.50271940
   0.95676292  0.10063593  0.49914627
   0.95563993  0.27292716  0.49525970
   0.00280426  0.59575926  0.47204478
   0.00493294  0.77162469  0.47887463
   0.04706988  0.52038889  0.46494030
   0.04764385  0.84966173  0.47484478
   0.09164955  0.60493951  0.45985373
   0.09298146  0.77145432  0.46792537
   0.13523458  0.52594321  0.44897313
   0.13626988  0.85236914  0.46509254
   0.17996399  0.60698025  0.44418507
   0.18001497  0.77503704  0.45345970
   0.22487059  0.52286049  0.44334328
   0.22526631  0.84715556  0.45537313
   0.27128663  0.60375926  0.44548060
   0.27086524  0.77137901  0.45564478
   0.31551800  0.51683951  0.45493134
   0.31082282  0.85420000  0.46901493
   0.35857398  0.60639877  0.46914627
   0.35363351  0.77308395  0.47357612
   0.39983601  0.52538025  0.48317612
   0.39669162  0.85809136  0.48856418
   0.44080214  0.60771358  0.49878209
   0.43857754  0.77623827  0.50205075
   0.48141533  0.52697037  0.51303881
   0.47904456  0.85402963  0.51824776
   0.52327629  0.61201975  0.52964478
   0.52022460  0.77447284  0.53368060
   0.56583601  0.52415432  0.53790746
   0.56288770  0.85975432  0.54494925
   0.60823173  0.60826049  0.54698806
   0.60682353  0.77458025  0.54949552
   0.65397504  0.51936914  0.54943582
   0.65331551  0.85236667  0.55259104
   0.69843494  0.59879259  0.54997015
   0.69786453  0.77475185  0.55002687
   0.74150089  0.52186296  0.53831940
   0.74330838  0.85378765  0.54567164
   0.78646346  0.60033086  0.53214030
   0.78714082  0.77294321  0.53772836
   0.82802496  0.51851358  0.52070746
   0.83178966  0.85279259  0.53115522
   0.87294474  0.60689753  0.51104179
   0.87419608  0.77424444  0.51842388
   0.91454189  0.51929753  0.49889254
   0.91683422  0.85152469  0.50823881
   0.95888057  0.59732099  0.49438806
   0.95958645  0.76984444  0.49966866
 
 position of ions in cartesian coordinates  (Angst):
   0.13450600  0.78755100 16.20850000
   0.10035000  2.20184000 16.13370000
   1.31956000  0.14835200 16.00300000
   1.32745000  2.86600000 15.73190000
   2.55846000  0.83114800 15.74940000
   2.59744000  2.18937000 15.48420000
   3.77452000  0.19756700 15.53270000
   3.76410000  2.92545000 15.10690000
   5.05326000  0.83918800 15.24560000
   5.02180000  2.21800000 15.03410000
   6.28749000  0.17550700 15.25100000
   6.28527000  2.89692000 15.00080000
   7.50818000  0.86941300 15.36000000
   7.55523000  2.22438000 15.16140000
   8.72088000  0.22021100 15.72600000
   8.81391000  2.82161000 15.37210000
   9.93903000  0.83811300 16.05050000
  10.03520000  2.17582000 15.84740000
  11.15160000  0.19196000 16.37010000
  11.22900000  2.88038000 16.17810000
  12.31980000  0.86683900 16.83710000
  12.36530000  2.23186000 16.70380000
  13.44640000  0.18636100 17.34950000
  13.54720000  2.88880000 17.10860000
  14.66970000  0.87866800 17.62250000
  14.73610000  2.24102000 17.45650000
  15.82360000  0.21120100 18.07460000
  15.91810000  2.92499000 17.89150000
  17.03250000  0.86018600 18.33100000
  17.09420000  2.18827000 18.20220000
  18.29730000  0.15856300 18.58680000
  18.30300000  2.86639000 18.38140000
  19.56390000  0.85052000 18.46020000
  19.55750000  2.19343000 18.30780000
  20.80700000  0.14765900 18.35670000
  20.79790000  2.87777000 18.11950000
  22.02490000  0.82958300 18.02350000
  22.02090000  2.16774000 17.84240000
  23.28690000  0.19158400 17.75890000
  23.26670000  2.81235000 17.45950000
  24.47450000  0.84778900 17.27800000
  24.48980000  2.20730000 17.29560000
  25.71280000  0.15268300 16.96680000
  25.65550000  2.87909000 16.84110000
  26.83720000  0.81515100 16.72140000
  26.80570000  2.21071000 16.59120000
   0.07865940  4.82565000 15.81350000
   0.13836900  6.25016000 16.04230000
   1.32031000  4.21515000 15.57550000
   1.33641000  6.88226000 15.90730000
   2.57077000  4.90001000 15.40510000
   2.60813000  6.24878000 15.67550000
   3.79333000  4.26014000 15.04060000
   3.82237000  6.90419000 15.58060000
   5.04799000  4.91654000 14.88020000
   5.04942000  6.27780000 15.19090000
   6.30762000  4.23517000 14.85200000
   6.31872000  6.86196000 15.25500000
   7.60959000  4.89045000 14.92360000
   7.59777000  6.24817000 15.26410000
   8.85028000  4.18640000 15.24020000
   8.71858000  6.91902000 15.71200000
  10.05800000  4.91183000 15.71640000
   9.91942000  6.26198000 15.86480000
  11.21540000  4.25558000 16.18640000
  11.12720000  6.95054000 16.36690000
  12.36450000  4.92248000 16.70920000
  12.30210000  6.28753000 16.81870000
  13.50370000  4.26846000 17.18680000
  13.43720000  6.91764000 17.36130000
  14.67790000  4.95736000 17.74310000
  14.59230000  6.27323000 17.87830000
  15.87170000  4.24565000 18.01990000
  15.78900000  6.96401000 18.25580000
  17.06090000  4.92691000 18.32410000
  17.02140000  6.27410000 18.40810000
  18.34400000  4.20689000 18.40610000
  18.32550000  6.90417000 18.51180000
  19.59110000  4.85022000 18.42400000
  19.57510000  6.27549000 18.42590000
  20.79910000  4.22709000 18.03370000
  20.84980000  6.91568000 18.28000000
  22.06030000  4.86268000 17.82670000
  22.07930000  6.26084000 18.01390000
  23.22610000  4.19996000 17.44370000
  23.33170000  6.90762000 17.79370000
  24.48610000  4.91587000 17.11990000
  24.52120000  6.27138000 17.36720000
  25.65290000  4.20631000 16.71290000
  25.71720000  6.89735000 17.02600000
  26.89660000  4.83830000 16.56200000
  26.91640000  6.23574000 16.73890000
 


--------------------------------------------------------------------------------------------------------


 k-point     1 :   0.0000 0.0000 0.0000  plane waves:  193173
 k-point     2 :   0.0000 0.2500 0.0000  plane waves:  193166
 k-point     3 :   0.0000 0.5000 0.0000  plane waves:  193226

 maximum and minimum number of plane-waves per node :    193226   193166

 maximum number of plane-waves:    193226
 maximum index in each direction: 
   IXMAX=   51   IYMAX=   14   IZMAX=   61
   IXMIN=  -51   IYMIN=  -15   IZMIN=  -61


 serial   3D FFT for wavefunctions
 parallel 3D FFT for charge:
    minimum data exchange during FFTs selected (reduces bandwidth)


 total amount of memory used by VASP MPI-rank0  2294501. kBytes
=======================================================================

   base                                    :      30000. kBytes
   nonlr-proj                              :      15067. kBytes
   fftplans                                :     436558. kBytes
   grid                                    :     732614. kBytes
   one-center                              :        282. kBytes
   wavefun                                 :    1079980. kBytes
 
     INWAV:  cpu time      0.0000: real time      0.0000
 Broyden mixing: mesh for mixing (old mesh)
   NGX =103   NGY = 29   NGZ =123
  (NGX  =420   NGY  =120   NGZ  =500)
  gives a total of 367401 points

 initial charge density was supplied:
 charge density of overlapping atoms calculated
 number of electron     368.0000000 magnetization 
 keeping initial charge density in first step


--------------------------------------------------------------------------------------------------------


 Maximum index for non-local projection operator          1873
 Maximum index for augmentation-charges          2385 (set IRDMAX)


--------------------------------------------------------------------------------------------------------


 First call to EWALD:  gamma=   0.090
 Maximum number of real-space cells   2x   6x   2
 Maximum number of reciprocal cells   4x   1x   4

    FEWALD:  cpu time      0.1594: real time      0.1594


--------------------------------------- Ionic step        1  -------------------------------------------




--------------------------------------- Iteration      1(   1)  ---------------------------------------


    POTLOK:  cpu time      0.4208: real time      0.4373
    SETDIJ:  cpu time      0.0418: real time      0.0418
     EDDAV:  cpu time     11.0131: real time     11.0186
       DOS:  cpu time      0.0008: real time      0.0008
    --------------------------------------------
      LOOP:  cpu time     11.4766: real time     11.4985

 eigenvalue-minimisations  :  1704
 total energy-change (2. order) : 0.3707192E+04  (-0.1188896E+05)
 number of electron     368.0000000 magnetization 
 augmentation part      368.0000000 magnetization 

 Free energy of the ion-electron system (eV)
  ---------------------------------------------------
  alpha Z        PSCENC =        91.34886789
  Ewald energy   TEWEN  =    119353.28540767
  -Hartree energ DENC   =   -128681.45834957
  -exchange      EXHF   =         0.00000000
  -V(xc)+E(xc)   XCENC  =      1221.28078248
  PAW double counting   =      9984.02826696   -10036.41360137
  entropy T*S    EENTRO =        -0.82531266
  eigenvalues    EBANDS =     -1761.70849143
  atomic energy  EATOM  =     13537.65479391
  Solvation  Ediel_sol  =         0.00000000
  ---------------------------------------------------
  free energy    TOTEN  =      3707.19236388 eV

  energy without entropy =     3708.01767654  energy(sigma->0) =     3707.60502021


--------------------------------------------------------------------------------------------------------




--------------------------------------- Iteration      1(   2)  ---------------------------------------


     EDDAV:  cpu time     13.0494: real time     13.0541
       DOS:  cpu time      0.0007: real time      0.0007
    --------------------------------------------
      LOOP:  cpu time     13.0501: real time     13.0547

 eigenvalue-minimisations  :  2136
 total energy-change (2. order) :-0.3523635E+04  (-0.3262362E+04)
 number of electron     368.0000000 magnetization 
 augmentation part      368.0000000 magnetization 

 Free energy of the ion-electron system (eV)
  ---------------------------------------------------
  alpha Z        PSCENC =        91.34886789
  Ewald energy   TEWEN  =    119353.28540767
  -Hartree energ DENC   =   -128681.45834957
  -exchange      EXHF   =         0.00000000
  -V(xc)+E(xc)   XCENC  =      1221.28078248
  PAW double counting   =      9984.02826696   -10036.41360137
  entropy T*S    EENTRO =        -0.17712396
  eigenvalues    EBANDS =     -5285.99161299
  atomic energy  EATOM  =     13537.65479391
  Solvation  Ediel_sol  =         0.00000000
  ---------------------------------------------------
  free energy    TOTEN  =       183.55743102 eV

  energy without entropy =      183.73455498  energy(sigma->0) =      183.64599300


--------------------------------------------------------------------------------------------------------




--------------------------------------- Iteration      1(   3)  ---------------------------------------


     EDDAV:  cpu time     11.3394: real time     11.3436
       DOS:  cpu time      0.0007: real time      0.0007
    --------------------------------------------
      LOOP:  cpu time     11.3401: real time     11.3443

 eigenvalue-minimisations  :  1800
 total energy-change (2. order) :-0.1017195E+04  (-0.9959636E+03)
 number of electron     368.0000000 magnetization 
 augmentation part      368.0000000 magnetization 

 Free energy of the ion-electron system (eV)
  ---------------------------------------------------
  alpha Z        PSCENC =        91.34886789
  Ewald energy   TEWEN  =    119353.28540767
  -Hartree energ DENC   =   -128681.45834957
  -exchange      EXHF   =         0.00000000
  -V(xc)+E(xc)   XCENC  =      1221.28078248
  PAW double counting   =      9984.02826696   -10036.41360137
  entropy T*S    EENTRO =        -0.06253482
  eigenvalues    EBANDS =     -6303.30121332
  atomic energy  EATOM  =     13537.65479391
  Solvation  Ediel_sol  =         0.00000000
  ---------------------------------------------------
  free energy    TOTEN  =      -833.63758017 eV

  energy without entropy =     -833.57504535  energy(sigma->0) =     -833.60631276


--------------------------------------------------------------------------------------------------------




--------------------------------------- Iteration      1(   4)  ---------------------------------------


     EDDAV:  cpu time     10.9652: real time     10.9724
       DOS:  cpu time      0.0007: real time      0.0007
    --------------------------------------------
      LOOP:  cpu time     10.9658: real time     10.9730

 eigenvalue-minimisations  :  1728
 total energy-change (2. order) :-0.6205981E+02  (-0.6101839E+02)
 number of electron     368.0000000 magnetization 
 augmentation part      368.0000000 magnetization 

 Free energy of the ion-electron system (eV)
  ---------------------------------------------------
  alpha Z        PSCENC =        91.34886789
  Ewald energy   TEWEN  =    119353.28540767
  -Hartree energ DENC   =   -128681.45834957
  -exchange      EXHF   =         0.00000000
  -V(xc)+E(xc)   XCENC  =      1221.28078248
  PAW double counting   =      9984.02826696   -10036.41360137
  entropy T*S    EENTRO =        -0.07882887
  eigenvalues    EBANDS =     -6365.34472645
  atomic energy  EATOM  =     13537.65479391
  Solvation  Ediel_sol  =         0.00000000
  ---------------------------------------------------
  free energy    TOTEN  =      -895.69738735 eV

  energy without entropy =     -895.61855848  energy(sigma->0) =     -895.65797292


--------------------------------------------------------------------------------------------------------




--------------------------------------- Iteration      1(   5)  ---------------------------------------


     EDDAV:  cpu time     11.1459: real time     11.1500
       DOS:  cpu time      0.0007: real time      0.0007
    CHARGE:  cpu time      1.2093: real time      1.2103
    MIXING:  cpu time      0.2742: real time      0.2756
    --------------------------------------------
      LOOP:  cpu time     12.6301: real time     12.6365

 eigenvalue-minimisations  :  1768
 total energy-change (2. order) :-0.1492065E+01  (-0.1471785E+01)
 number of electron     368.0000001 magnetization 
 augmentation part       10.1496212 magnetization 

 Broyden mixing:
  rms(total) = 0.45523E+01    rms(broyden)= 0.45517E+01
  rms(prec ) = 0.46696E+01
  weight for this iteration     100.00

 Free energy of the ion-electron system (eV)
  ---------------------------------------------------
  alpha Z        PSCENC =        91.34886789
  Ewald energy   TEWEN  =    119353.28540767
  -Hartree energ DENC   =   -128681.45834957
  -exchange      EXHF   =         0.00000000
  -V(xc)+E(xc)   XCENC  =      1221.28078248
  PAW double counting   =      9984.02826696   -10036.41360137
  entropy T*S    EENTRO =        -0.08015635
  eigenvalues    EBANDS =     -6366.83546372
  atomic energy  EATOM  =     13537.65479391
  Solvation  Ediel_sol  =         0.00000000
  ---------------------------------------------------
  free energy    TOTEN  =      -897.18945211 eV

  energy without entropy =     -897.10929575  energy(sigma->0) =     -897.14937393


--------------------------------------------------------------------------------------------------------




--------------------------------------- Iteration      1(   6)  ---------------------------------------


    POTLOK:  cpu time      0.3221: real time      0.3221
    SETDIJ:  cpu time      0.0405: real time      0.0405
     EDDAV:  cpu time     10.2500: real time     10.2537
       DOS:  cpu time      0.0007: real time      0.0007
    CHARGE:  cpu time      1.1582: real time      1.1605
    MIXING:  cpu time      0.2767: real time      0.2782
    --------------------------------------------
      LOOP:  cpu time     12.0483: real time     12.0557

 eigenvalue-minimisations  :  1584
 total energy-change (2. order) : 0.4961864E+02  (-0.4736116E+01)
 number of electron     368.0000001 magnetization 
 augmentation part        9.7281253 magnetization 

 Broyden mixing:
  rms(total) = 0.26743E+01    rms(broyden)= 0.26742E+01
  rms(prec ) = 0.27324E+01
  weight for this iteration     100.00

 eigenvalues of (default mixing * dielectric matrix)
  average eigenvalue GAMMA=   2.1819
  2.1819

 Free energy of the ion-electron system (eV)
  ---------------------------------------------------
  alpha Z        PSCENC =        91.34886789
  Ewald energy   TEWEN  =    119353.28540767
  -Hartree energ DENC   =   -129251.29115201
  -exchange      EXHF   =         0.00000000
  -V(xc)+E(xc)   XCENC  =      1244.61271569
  PAW double counting   =     18933.79188039   -18993.79134905
  entropy T*S    EENTRO =        -0.08841731
  eigenvalues    EBANDS =     -5763.09355796
  atomic energy  EATOM  =     13537.65479391
  Solvation  Ediel_sol  =         0.00000000
  ---------------------------------------------------
  free energy    TOTEN  =      -847.57081079 eV

  energy without entropy =     -847.48239347  energy(sigma->0) =     -847.52660213


--------------------------------------------------------------------------------------------------------




--------------------------------------- Iteration      1(   7)  ---------------------------------------


    POTLOK:  cpu time      0.3216: real time      0.3215
    SETDIJ:  cpu time      0.0403: real time      0.0403
     EDDAV:  cpu time     10.0724: real time     10.0761
       DOS:  cpu time      0.0007: real time      0.0007
    CHARGE:  cpu time      1.1525: real time      1.1538
    MIXING:  cpu time      0.2818: real time      0.2817
    --------------------------------------------
      LOOP:  cpu time     11.8694: real time     11.8742

 eigenvalue-minimisations  :  1552
 total energy-change (2. order) : 0.1848266E+02  (-0.6551206E+01)
 number of electron     368.0000001 magnetization 
 augmentation part        9.1748501 magnetization 

 Broyden mixing:
  rms(total) = 0.73414E+00    rms(broyden)= 0.73386E+00
  rms(prec ) = 0.74391E+00
  weight for this iteration     100.00

 eigenvalues of (default mixing * dielectric matrix)
  average eigenvalue GAMMA=   2.1758
  2.1758  2.1758

 Free energy of the ion-electron system (eV)
  ---------------------------------------------------
  alpha Z        PSCENC =        91.34886789
  Ewald energy   TEWEN  =    119353.28540767
  -Hartree energ DENC   =   -130015.27633940
  -exchange      EXHF   =         0.00000000
  -V(xc)+E(xc)   XCENC  =      1275.69775312
  PAW double counting   =     36539.82155796   -36606.72664701
  entropy T*S    EENTRO =        -0.09689621
  eigenvalues    EBANDS =     -5004.79665298
  atomic energy  EATOM  =     13537.65479391
  Solvation  Ediel_sol  =         0.00000000
  ---------------------------------------------------
  free energy    TOTEN  =      -829.08815505 eV

  energy without entropy =     -828.99125884  energy(sigma->0) =     -829.03970695


--------------------------------------------------------------------------------------------------------




--------------------------------------- Iteration      1(   8)  ---------------------------------------


    POTLOK:  cpu time      0.3213: real time      0.3213
    SETDIJ:  cpu time      0.0403: real time      0.0403
     EDDAV:  cpu time     10.2344: real time     10.2378
       DOS:  cpu time      0.0007: real time      0.0007
    CHARGE:  cpu time      1.1552: real time      1.1559
    MIXING:  cpu time      0.2820: real time      0.2832
    --------------------------------------------
      LOOP:  cpu time     12.0339: real time     12.0394

 eigenvalue-minimisations  :  1584
 total energy-change (2. order) : 0.2883168E+00  (-0.2386424E+00)
 number of electron     368.0000001 magnetization 
 augmentation part        9.1574488 magnetization 

 Broyden mixing:
  rms(total) = 0.10532E+00    rms(broyden)= 0.10529E+00
  rms(prec ) = 0.12700E+00
  weight for this iteration     100.00

 eigenvalues of (default mixing * dielectric matrix)
  average eigenvalue GAMMA=   1.8405
  1.1451  1.9624  2.4139

 Free energy of the ion-electron system (eV)
  ---------------------------------------------------
  alpha Z        PSCENC =        91.34886789
  Ewald energy   TEWEN  =    119353.28540767
  -Hartree energ DENC   =   -130108.13373618
  -exchange      EXHF   =         0.00000000
  -V(xc)+E(xc)   XCENC  =      1275.50328053
  PAW double counting   =     40715.41426410   -40779.72103027
  entropy T*S    EENTRO =        -0.09366529
  eigenvalues    EBANDS =     -4914.05802057
  atomic energy  EATOM  =     13537.65479391
  Solvation  Ediel_sol  =         0.00000000
  ---------------------------------------------------
  free energy    TOTEN  =      -828.79983821 eV

  energy without entropy =     -828.70617292  energy(sigma->0) =     -828.75300557


--------------------------------------------------------------------------------------------------------




--------------------------------------- Iteration      1(   9)  ---------------------------------------


    POTLOK:  cpu time      0.3214: real time      0.3214
    SETDIJ:  cpu time      0.0402: real time      0.0402
     EDDAV:  cpu time     10.5006: real time     10.5044
       DOS:  cpu time      0.0007: real time      0.0007
    CHARGE:  cpu time      1.1535: real time      1.1564
    MIXING:  cpu time      0.2858: real time      0.2862
    --------------------------------------------
      LOOP:  cpu time     12.3023: real time     12.3094

 eigenvalue-minimisations  :  1632
 total energy-change (2. order) : 0.1070359E+00  (-0.2499344E-01)
 number of electron     368.0000001 magnetization 
 augmentation part        9.1362394 magnetization 

 Broyden mixing:
  rms(total) = 0.57727E-01    rms(broyden)= 0.57719E-01
  rms(prec ) = 0.79647E-01
  weight for this iteration     100.00

 eigenvalues of (default mixing * dielectric matrix)
  average eigenvalue GAMMA=   1.6551
  2.1895  2.1895  0.9818  1.2597

 Free energy of the ion-electron system (eV)
  ---------------------------------------------------
  alpha Z        PSCENC =        91.34886789
  Ewald energy   TEWEN  =    119353.28540767
  -Hartree energ DENC   =   -130176.16388303
  -exchange      EXHF   =         0.00000000
  -V(xc)+E(xc)   XCENC  =      1276.82861090
  PAW double counting   =     41323.92534842   -41388.22370282
  entropy T*S    EENTRO =        -0.09352279
  eigenvalues    EBANDS =     -4847.25472250
  atomic energy  EATOM  =     13537.65479391
  Solvation  Ediel_sol  =         0.00000000
  ---------------------------------------------------
  free energy    TOTEN  =      -828.69280235 eV

  energy without entropy =     -828.59927956  energy(sigma->0) =     -828.64604096


--------------------------------------------------------------------------------------------------------




--------------------------------------- Iteration      1(  10)  ---------------------------------------


    POTLOK:  cpu time      0.3210: real time      0.3210
    SETDIJ:  cpu time      0.0402: real time      0.0402
     EDDAV:  cpu time     10.9334: real time     10.9373
       DOS:  cpu time      0.0007: real time      0.0007
    CHARGE:  cpu time      1.1551: real time      1.1554
    MIXING:  cpu time      0.2928: real time      0.2931
    --------------------------------------------
      LOOP:  cpu time     12.7433: real time     12.7478

 eigenvalue-minimisations  :  1720
 total energy-change (2. order) : 0.3660616E-01  (-0.4686013E-02)
 number of electron     368.0000001 magnetization 
 augmentation part        9.1257245 magnetization 

 Broyden mixing:
  rms(total) = 0.39087E-01    rms(broyden)= 0.39085E-01
  rms(prec ) = 0.59142E-01
  weight for this iteration     100.00

 eigenvalues of (default mixing * dielectric matrix)
  average eigenvalue GAMMA=   1.6868
  2.3929  2.3929  1.5476  1.2249  0.8756

 Free energy of the ion-electron system (eV)
  ---------------------------------------------------
  alpha Z        PSCENC =        91.34886789
  Ewald energy   TEWEN  =    119353.28540767
  -Hartree energ DENC   =   -130220.51686220
  -exchange      EXHF   =         0.00000000
  -V(xc)+E(xc)   XCENC  =      1277.19081425
  PAW double counting   =     41151.22301997   -41215.42968212
  entropy T*S    EENTRO =        -0.09380283
  eigenvalues    EBANDS =     -4803.31875271
  atomic energy  EATOM  =     13537.65479391
  Solvation  Ediel_sol  =         0.00000000
  ---------------------------------------------------
  free energy    TOTEN  =      -828.65619618 eV

  energy without entropy =     -828.56239335  energy(sigma->0) =     -828.60929477


--------------------------------------------------------------------------------------------------------




--------------------------------------- Iteration      1(  11)  ---------------------------------------


    POTLOK:  cpu time      0.3211: real time      0.3210
    SETDIJ:  cpu time      0.0404: real time      0.0404
     EDDAV:  cpu time     10.1501: real time     10.1567
       DOS:  cpu time      0.0008: real time      0.0007
    CHARGE:  cpu time      1.1653: real time      1.1657
    MIXING:  cpu time      0.3032: real time      0.3038
    --------------------------------------------
      LOOP:  cpu time     11.9807: real time     11.9884

 eigenvalue-minimisations  :  1568
 total energy-change (2. order) : 0.3366632E-01  (-0.2312881E-02)
 number of electron     368.0000001 magnetization 
 augmentation part        9.1211076 magnetization 

 Broyden mixing:
  rms(total) = 0.24469E-01    rms(broyden)= 0.24467E-01
  rms(prec ) = 0.39330E-01
  weight for this iteration     100.00

 eigenvalues of (default mixing * dielectric matrix)
  average eigenvalue GAMMA=   1.7506
  2.8224  2.6704  1.8948  0.9890  1.0635  1.0635

 Free energy of the ion-electron system (eV)
  ---------------------------------------------------
  alpha Z        PSCENC =        91.34886789
  Ewald energy   TEWEN  =    119353.28540767
  -Hartree energ DENC   =   -130285.70329380
  -exchange      EXHF   =         0.00000000
  -V(xc)+E(xc)   XCENC  =      1277.74154880
  PAW double counting   =     41058.66856429   -41122.75395645
  entropy T*S    EENTRO =        -0.09388743
  eigenvalues    EBANDS =     -4738.77057474
  atomic energy  EATOM  =     13537.65479391
  Solvation  Ediel_sol  =         0.00000000
  ---------------------------------------------------
  free energy    TOTEN  =      -828.62252987 eV

  energy without entropy =     -828.52864243  energy(sigma->0) =     -828.57558615


--------------------------------------------------------------------------------------------------------




--------------------------------------- Iteration      1(  12)  ---------------------------------------


    POTLOK:  cpu time      0.3211: real time      0.3212
    SETDIJ:  cpu time      0.0402: real time      0.0402
     EDDAV:  cpu time     10.1713: real time     10.1749
       DOS:  cpu time      0.0007: real time      0.0007
    CHARGE:  cpu time      1.1515: real time      1.1564
    MIXING:  cpu time      0.3058: real time      0.3062
    --------------------------------------------
      LOOP:  cpu time     11.9907: real time     11.9997

 eigenvalue-minimisations  :  1568
 total energy-change (2. order) : 0.6511812E-02  (-0.2332333E-02)
 number of electron     368.0000001 magnetization 
 augmentation part        9.1142653 magnetization 

 Broyden mixing:
  rms(total) = 0.16213E-01    rms(broyden)= 0.16210E-01
  rms(prec ) = 0.24711E-01
  weight for this iteration     100.00

 eigenvalues of (default mixing * dielectric matrix)
  average eigenvalue GAMMA=   2.0004
  4.4784  2.2557  2.2557  1.9242  1.0404  1.0243  1.0243

 Free energy of the ion-electron system (eV)
  ---------------------------------------------------
  alpha Z        PSCENC =        91.34886789
  Ewald energy   TEWEN  =    119353.28540767
  -Hartree energ DENC   =   -130351.74832415
  -exchange      EXHF   =         0.00000000
  -V(xc)+E(xc)   XCENC  =      1278.36679542
  PAW double counting   =     41077.65134938   -41141.70644466
  entropy T*S    EENTRO =        -0.09377337
  eigenvalues    EBANDS =     -4673.37469014
  atomic energy  EATOM  =     13537.65479391
  Solvation  Ediel_sol  =         0.00000000
  ---------------------------------------------------
  free energy    TOTEN  =      -828.61601805 eV

  energy without entropy =     -828.52224468  energy(sigma->0) =     -828.56913137


--------------------------------------------------------------------------------------------------------




--------------------------------------- Iteration      1(  13)  ---------------------------------------


    POTLOK:  cpu time      0.3215: real time      0.3216
    SETDIJ:  cpu time      0.0401: real time      0.0401
     EDDAV:  cpu time     10.0832: real time     10.0868
       DOS:  cpu time      0.0007: real time      0.0007
    CHARGE:  cpu time      1.1536: real time      1.1553
    MIXING:  cpu time      0.3129: real time      0.3129
    --------------------------------------------
      LOOP:  cpu time     11.9120: real time     11.9174

 eigenvalue-minimisations  :  1552
 total energy-change (2. order) :-0.1217662E-01  (-0.1044742E-02)
 number of electron     368.0000001 magnetization 
 augmentation part        9.1106174 magnetization 

 Broyden mixing:
  rms(total) = 0.85517E-02    rms(broyden)= 0.85487E-02
  rms(prec ) = 0.12518E-01
  weight for this iteration     100.00

 eigenvalues of (default mixing * dielectric matrix)
  average eigenvalue GAMMA=   2.0204
  5.3555  2.3401  2.3401  2.0156  1.1158  1.1158  0.9402  0.9402

 Free energy of the ion-electron system (eV)
  ---------------------------------------------------
  alpha Z        PSCENC =        91.34886789
  Ewald energy   TEWEN  =    119353.28540767
  -Hartree energ DENC   =   -130406.37258270
  -exchange      EXHF   =         0.00000000
  -V(xc)+E(xc)   XCENC  =      1278.64182101
  PAW double counting   =     41071.40834342   -41135.46321316
  entropy T*S    EENTRO =        -0.09383649
  eigenvalues    EBANDS =     -4619.03779622
  atomic energy  EATOM  =     13537.65479391
  Solvation  Ediel_sol  =         0.00000000
  ---------------------------------------------------
  free energy    TOTEN  =      -828.62819467 eV

  energy without entropy =     -828.53435818  energy(sigma->0) =     -828.58127643


--------------------------------------------------------------------------------------------------------




--------------------------------------- Iteration      1(  14)  ---------------------------------------


    POTLOK:  cpu time      0.3168: real time      0.3197
    SETDIJ:  cpu time      0.0406: real time      0.0406
     EDDAV:  cpu time     10.3473: real time     10.3508
       DOS:  cpu time      0.0007: real time      0.0007
    CHARGE:  cpu time      1.1538: real time      1.1564
    MIXING:  cpu time      0.3220: real time      0.3223
    --------------------------------------------
      LOOP:  cpu time     12.1813: real time     12.1905

 eigenvalue-minimisations  :  1608
 total energy-change (2. order) :-0.1208795E-01  (-0.1096255E-03)
 number of electron     368.0000001 magnetization 
 augmentation part        9.1100757 magnetization 

 Broyden mixing:
  rms(total) = 0.67274E-02    rms(broyden)= 0.67271E-02
  rms(prec ) = 0.92011E-02
  weight for this iteration     100.00

 eigenvalues of (default mixing * dielectric matrix)
  average eigenvalue GAMMA=   2.1217
  5.9864  2.6029  2.6029  1.6939  1.6939  1.5521  1.0834  0.9399  0.9399

 Free energy of the ion-electron system (eV)
  ---------------------------------------------------
  alpha Z        PSCENC =        91.34886789
  Ewald energy   TEWEN  =    119353.28540767
  -Hartree energ DENC   =   -130420.61311602
  -exchange      EXHF   =         0.00000000
  -V(xc)+E(xc)   XCENC  =      1278.64423341
  PAW double counting   =     41040.57273637   -41104.63085542
  entropy T*S    EENTRO =        -0.09378515
  eigenvalues    EBANDS =     -4604.80856529
  atomic energy  EATOM  =     13537.65479391
  Solvation  Ediel_sol  =         0.00000000
  ---------------------------------------------------
  free energy    TOTEN  =      -828.64028263 eV

  energy without entropy =     -828.54649748  energy(sigma->0) =     -828.59339005


--------------------------------------------------------------------------------------------------------




--------------------------------------- Iteration      1(  15)  ---------------------------------------


    POTLOK:  cpu time      0.3220: real time      0.3219
    SETDIJ:  cpu time      0.0402: real time      0.0402
     EDDAV:  cpu time      9.8990: real time      9.9054
       DOS:  cpu time      0.0007: real time      0.0007
    CHARGE:  cpu time      1.1560: real time      1.1563
    MIXING:  cpu time      0.3304: real time      0.3304
    --------------------------------------------
      LOOP:  cpu time     11.7482: real time     11.7550

 eigenvalue-minimisations  :  1520
 total energy-change (2. order) :-0.2216373E-01  (-0.1964075E-03)
 number of electron     368.0000001 magnetization 
 augmentation part        9.1094896 magnetization 

 Broyden mixing:
  rms(total) = 0.32871E-02    rms(broyden)= 0.32865E-02
  rms(prec ) = 0.46945E-02
  weight for this iteration     100.00

 eigenvalues of (default mixing * dielectric matrix)
  average eigenvalue GAMMA=   2.2111
  7.1195  3.4187  2.1894  2.1395  1.7683  1.2758  1.2758  0.9425  0.9425  1.0390

 Free energy of the ion-electron system (eV)
  ---------------------------------------------------
  alpha Z        PSCENC =        91.34886789
  Ewald energy   TEWEN  =    119353.28540767
  -Hartree energ DENC   =   -130433.12442922
  -exchange      EXHF   =         0.00000000
  -V(xc)+E(xc)   XCENC  =      1278.64491414
  PAW double counting   =     41060.96102979   -41125.02191104
  entropy T*S    EENTRO =        -0.09378772
  eigenvalues    EBANDS =     -4592.31733177
  atomic energy  EATOM  =     13537.65479391
  Solvation  Ediel_sol  =         0.00000000
  ---------------------------------------------------
  free energy    TOTEN  =      -828.66244636 eV

  energy without entropy =     -828.56865863  energy(sigma->0) =     -828.61555250


--------------------------------------------------------------------------------------------------------




--------------------------------------- Iteration      1(  16)  ---------------------------------------


    POTLOK:  cpu time      0.3215: real time      0.3215
    SETDIJ:  cpu time      0.0402: real time      0.0402
     EDDAV:  cpu time     10.4127: real time     10.4191
       DOS:  cpu time      0.0008: real time      0.0008
    CHARGE:  cpu time      1.1684: real time      1.1683
    MIXING:  cpu time      0.3387: real time      0.3403
    --------------------------------------------
      LOOP:  cpu time     12.2823: real time     12.2902

 eigenvalue-minimisations  :  1616
 total energy-change (2. order) :-0.9880470E-02  (-0.5705490E-04)
 number of electron     368.0000001 magnetization 
 augmentation part        9.1094104 magnetization 

 Broyden mixing:
  rms(total) = 0.28735E-02    rms(broyden)= 0.28734E-02
  rms(prec ) = 0.34644E-02
  weight for this iteration     100.00

 eigenvalues of (default mixing * dielectric matrix)
  average eigenvalue GAMMA=   2.2639
  7.4806  3.6965  2.3838  2.3838  1.7959  1.5960  1.5960  0.9742  0.9742  1.0602
  0.9620

 Free energy of the ion-electron system (eV)
  ---------------------------------------------------
  alpha Z        PSCENC =        91.34886789
  Ewald energy   TEWEN  =    119353.28540767
  -Hartree energ DENC   =   -130438.10962291
  -exchange      EXHF   =         0.00000000
  -V(xc)+E(xc)   XCENC  =      1278.61363469
  PAW double counting   =     41040.85623103   -41104.92021841
  entropy T*S    EENTRO =        -0.09379831
  eigenvalues    EBANDS =     -4587.30762238
  atomic energy  EATOM  =     13537.65479391
  Solvation  Ediel_sol  =         0.00000000
  ---------------------------------------------------
  free energy    TOTEN  =      -828.67232683 eV

  energy without entropy =     -828.57852852  energy(sigma->0) =     -828.62542767


--------------------------------------------------------------------------------------------------------




--------------------------------------- Iteration      1(  17)  ---------------------------------------


    POTLOK:  cpu time      0.3224: real time      0.3223
    SETDIJ:  cpu time      0.0401: real time      0.0401
     EDDAV:  cpu time     10.3213: real time     10.3248
       DOS:  cpu time      0.0007: real time      0.0007
    CHARGE:  cpu time      1.1529: real time      1.1564
    MIXING:  cpu time      0.3504: real time      0.3503
    --------------------------------------------
      LOOP:  cpu time     12.1878: real time     12.1947

 eigenvalue-minimisations  :  1600
 total energy-change (2. order) :-0.6266850E-02  (-0.4314864E-04)
 number of electron     368.0000001 magnetization 
 augmentation part        9.1093698 magnetization 

 Broyden mixing:
  rms(total) = 0.12879E-02    rms(broyden)= 0.12877E-02
  rms(prec ) = 0.16665E-02
  weight for this iteration     100.00

 eigenvalues of (default mixing * dielectric matrix)
  average eigenvalue GAMMA=   2.3201
  8.3034  4.4283  2.5436  2.1480  2.1480  1.5009  1.5009  1.2120  1.2120  0.9468
  0.9468  0.9502

 Free energy of the ion-electron system (eV)
  ---------------------------------------------------
  alpha Z        PSCENC =        91.34886789
  Ewald energy   TEWEN  =    119353.28540767
  -Hartree energ DENC   =   -130440.35196520
  -exchange      EXHF   =         0.00000000
  -V(xc)+E(xc)   XCENC  =      1278.60832901
  PAW double counting   =     41046.89855703   -41110.95678170
  entropy T*S    EENTRO =        -0.09378791
  eigenvalues    EBANDS =     -4585.07201438
  atomic energy  EATOM  =     13537.65479391
  Solvation  Ediel_sol  =         0.00000000
  ---------------------------------------------------
  free energy    TOTEN  =      -828.67859368 eV

  energy without entropy =     -828.58480577  energy(sigma->0) =     -828.63169972


--------------------------------------------------------------------------------------------------------




--------------------------------------- Iteration      1(  18)  ---------------------------------------


    POTLOK:  cpu time      0.3222: real time      0.3223
    SETDIJ:  cpu time      0.0406: real time      0.0433
     EDDAV:  cpu time     10.2809: real time     10.2848
       DOS:  cpu time      0.0007: real time      0.0007
    CHARGE:  cpu time      1.1534: real time      1.1545
    MIXING:  cpu time      0.3583: real time      0.3602
    --------------------------------------------
      LOOP:  cpu time     12.1562: real time     12.1658

 eigenvalue-minimisations  :  1592
 total energy-change (2. order) :-0.2436802E-02  (-0.1277082E-04)
 number of electron     368.0000001 magnetization 
 augmentation part        9.1091764 magnetization 

 Broyden mixing:
  rms(total) = 0.10329E-02    rms(broyden)= 0.10328E-02
  rms(prec ) = 0.12066E-02
  weight for this iteration     100.00

 eigenvalues of (default mixing * dielectric matrix)
  average eigenvalue GAMMA=   2.3301
  8.6546  4.6961  2.6485  2.6485  1.4948  1.4948  1.7802  1.7024  1.1501  1.1501
  0.9448  0.9448  0.9818

 Free energy of the ion-electron system (eV)
  ---------------------------------------------------
  alpha Z        PSCENC =        91.34886789
  Ewald energy   TEWEN  =    119353.28540767
  -Hartree energ DENC   =   -130441.68562106
  -exchange      EXHF   =         0.00000000
  -V(xc)+E(xc)   XCENC  =      1278.61305930
  PAW double counting   =     41051.62891874   -41115.68857908
  entropy T*S    EENTRO =        -0.09379531
  eigenvalues    EBANDS =     -4583.74408254
  atomic energy  EATOM  =     13537.65479391
  Solvation  Ediel_sol  =         0.00000000
  ---------------------------------------------------
  free energy    TOTEN  =      -828.68103048 eV

  energy without entropy =     -828.58723517  energy(sigma->0) =     -828.63413283


--------------------------------------------------------------------------------------------------------




--------------------------------------- Iteration      1(  19)  ---------------------------------------


    POTLOK:  cpu time      0.3199: real time      0.3200
    SETDIJ:  cpu time      0.0405: real time      0.0405
     EDDAV:  cpu time     10.2882: real time     10.2920
       DOS:  cpu time      0.0008: real time      0.0008
    CHARGE:  cpu time      1.1528: real time      1.1555
    MIXING:  cpu time      0.3691: real time      0.3716
    --------------------------------------------
      LOOP:  cpu time     12.1714: real time     12.1803

 eigenvalue-minimisations  :  1592
 total energy-change (2. order) :-0.1214457E-02  (-0.4500571E-05)
 number of electron     368.0000001 magnetization 
 augmentation part        9.1092716 magnetization 

 Broyden mixing:
  rms(total) = 0.49236E-03    rms(broyden)= 0.49231E-03
  rms(prec ) = 0.60838E-03
  weight for this iteration     100.00

 eigenvalues of (default mixing * dielectric matrix)
  average eigenvalue GAMMA=   2.3523
  8.8953  5.3424  3.0095  2.4072  1.9646  1.9646  1.5823  1.5823  1.2064  1.2064
  0.9377  0.9377  0.9870  0.9085

 Free energy of the ion-electron system (eV)
  ---------------------------------------------------
  alpha Z        PSCENC =        91.34886789
  Ewald energy   TEWEN  =    119353.28540767
  -Hartree energ DENC   =   -130441.90528152
  -exchange      EXHF   =         0.00000000
  -V(xc)+E(xc)   XCENC  =      1278.60625620
  PAW double counting   =     41046.41747615   -41110.47427873
  entropy T*S    EENTRO =        -0.09378741
  eigenvalues    EBANDS =     -4583.52169910
  atomic energy  EATOM  =     13537.65479391
  Solvation  Ediel_sol  =         0.00000000
  ---------------------------------------------------
  free energy    TOTEN  =      -828.68224494 eV

  energy without entropy =     -828.58845753  energy(sigma->0) =     -828.63535123


--------------------------------------------------------------------------------------------------------




--------------------------------------- Iteration      1(  20)  ---------------------------------------


    POTLOK:  cpu time      0.3199: real time      0.3198
    SETDIJ:  cpu time      0.0403: real time      0.0403
     EDDAV:  cpu time      9.2968: real time      9.3032
       DOS:  cpu time      0.0008: real time      0.0008
    CHARGE:  cpu time      1.1558: real time      1.1559
    MIXING:  cpu time      0.3818: real time      0.3842
    --------------------------------------------
      LOOP:  cpu time     11.1953: real time     11.2041

 eigenvalue-minimisations  :  1392
 total energy-change (2. order) :-0.5627381E-03  (-0.1530556E-05)
 number of electron     368.0000001 magnetization 
 augmentation part        9.1092336 magnetization 

 Broyden mixing:
  rms(total) = 0.39936E-03    rms(broyden)= 0.39934E-03
  rms(prec ) = 0.45251E-03
  weight for this iteration     100.00

 eigenvalues of (default mixing * dielectric matrix)
  average eigenvalue GAMMA=   2.3608
  9.0937  5.5963  3.3544  2.5219  2.0774  2.0774  1.5184  1.5184  1.3199  1.3199
  0.9520  0.9520  1.0374  1.0362  1.0362

 Free energy of the ion-electron system (eV)
  ---------------------------------------------------
  alpha Z        PSCENC =        91.34886789
  Ewald energy   TEWEN  =    119353.28540767
  -Hartree energ DENC   =   -130442.19970052
  -exchange      EXHF   =         0.00000000
  -V(xc)+E(xc)   XCENC  =      1278.60740980
  PAW double counting   =     41047.68637486   -41111.74369590
  entropy T*S    EENTRO =        -0.09378576
  eigenvalues    EBANDS =     -4583.22847963
  atomic energy  EATOM  =     13537.65479391
  Solvation  Ediel_sol  =         0.00000000
  ---------------------------------------------------
  free energy    TOTEN  =      -828.68280768 eV

  energy without entropy =     -828.58902192  energy(sigma->0) =     -828.63591480


--------------------------------------------------------------------------------------------------------




--------------------------------------- Iteration      1(  21)  ---------------------------------------


    POTLOK:  cpu time      0.3203: real time      0.3204
    SETDIJ:  cpu time      0.0404: real time      0.0404
     EDDAV:  cpu time      8.8754: real time      8.8787
       DOS:  cpu time      0.0007: real time      0.0007
    CHARGE:  cpu time      1.1624: real time      1.1678
    MIXING:  cpu time      0.3970: real time      0.3971
    --------------------------------------------
      LOOP:  cpu time     10.7962: real time     10.8050

 eigenvalue-minimisations  :  1304
 total energy-change (2. order) :-0.2758501E-03  (-0.3892727E-06)
 number of electron     368.0000001 magnetization 
 augmentation part        9.1092205 magnetization 

 Broyden mixing:
  rms(total) = 0.17183E-03    rms(broyden)= 0.17182E-03
  rms(prec ) = 0.20709E-03
  weight for this iteration     100.00

 eigenvalues of (default mixing * dielectric matrix)
  average eigenvalue GAMMA=   2.3704
  9.1409  6.0307  3.6359  2.4917  2.4917  1.5810  1.5810  1.9735  1.7060  1.1889
  1.1889  1.1013  0.9439  0.9439  0.9632  0.9632

 Free energy of the ion-electron system (eV)
  ---------------------------------------------------
  alpha Z        PSCENC =        91.34886789
  Ewald energy   TEWEN  =    119353.28540767
  -Hartree energ DENC   =   -130442.32291445
  -exchange      EXHF   =         0.00000000
  -V(xc)+E(xc)   XCENC  =      1278.60719547
  PAW double counting   =     41046.61254065   -41110.67058559
  entropy T*S    EENTRO =        -0.09378859
  eigenvalues    EBANDS =     -4583.10460049
  atomic energy  EATOM  =     13537.65479391
  Solvation  Ediel_sol  =         0.00000000
  ---------------------------------------------------
  free energy    TOTEN  =      -828.68308353 eV

  energy without entropy =     -828.58929494  energy(sigma->0) =     -828.63618923


[...]
   -.124E+02 -.214E+02 0.886E+02   0.120E+02 0.223E+02 -.889E+02   -.109E+01 0.866E+00 -.195E+00   0.969E-06 0.126E-06 0.100E-05
   -.932E+01 -.158E+02 0.322E+02   0.983E+01 0.167E+02 -.322E+02   -.762E+00 0.358E-01 0.119E+01   0.423E-06 0.313E-05 0.668E-06
   -.142E+02 0.837E+01 0.869E+02   0.141E+02 -.851E+01 -.875E+02   -.499E+00 -.232E+00 0.709E+00   0.401E-05 0.359E-05 0.149E-05
   0.113E+02 0.898E+01 -.251E+02   -.113E+02 -.937E+01 0.251E+02   -.316E+00 -.223E+00 -.511E+00   0.102E-05 0.310E-05 0.345E-06
   -.242E+01 -.111E+02 0.190E+02   0.246E+01 0.113E+02 -.190E+02   0.971E-01 -.344E+00 -.832E-01   0.595E-06 0.679E-06 0.278E-06
   0.210E+02 -.133E+02 -.863E+02   -.208E+02 0.138E+02 0.867E+02   0.404E+00 0.683E+00 -.995E+00   -.258E-05 0.295E-06 -.471E-06
   0.735E+00 0.627E+01 0.369E+00   -.783E+00 -.589E+01 -.442E+00   -.231E+00 0.522E+00 -.281E+00   -.582E-05 -.180E-05 -.211E-05
   0.158E+02 0.998E+01 -.563E+02   -.162E+02 -.103E+02 0.563E+02   0.131E+00 -.357E+00 0.168E+00   -.216E-06 -.203E-05 -.610E-08
   -.104E+02 -.891E+01 0.790E+01   0.112E+02 0.931E+01 -.797E+01   -.655E+00 -.340E+00 0.108E+01   -.220E-05 -.686E-06 -.994E-06
   0.189E+02 -.989E+01 -.114E+03   -.193E+02 0.104E+02 0.113E+03   0.123E+00 -.500E-01 0.740E+00   0.452E-06 -.896E-06 -.580E-06
   0.821E+01 0.157E+02 -.592E+02   -.836E+01 -.180E+02 0.589E+02   -.721E+00 -.119E+01 -.448E+00   0.151E-05 -.234E-05 -.551E-06
   0.347E+01 0.195E+02 -.153E+03   -.235E+01 -.214E+02 0.154E+03   0.856E+00 -.255E+00 -.357E-01   -.481E-05 0.245E-05 -.380E-05
   0.808E+01 -.108E+02 -.101E+03   -.844E+01 0.120E+02 0.101E+03   -.296E+00 0.125E+01 0.368E+00   -.658E-06 -.258E-05 -.203E-05
   0.587E+01 -.185E+02 -.214E+03   -.608E+01 0.198E+02 0.214E+03   0.178E+00 0.101E+01 -.168E+01   0.126E-05 -.637E-06 -.303E-05
   -.182E+01 0.133E+02 -.147E+03   0.226E+01 -.145E+02 0.147E+03   0.824E+00 -.298E+00 -.103E+01   0.529E-06 -.578E-05 -.289E-05
   -.104E+02 0.153E+02 -.162E+03   0.987E+01 -.167E+02 0.163E+03   0.664E-01 -.712E+00 0.307E+00   0.109E-04 -.134E-05 -.366E-05
   -.125E+02 -.118E+02 -.105E+03   0.126E+02 0.130E+02 0.104E+03   0.266E+00 0.170E+00 0.975E+00   0.440E-05 -.110E-05 -.218E-05
   -.208E+02 -.190E+02 -.167E+03   0.208E+02 0.208E+02 0.168E+03   0.667E+00 0.113E+01 -.111E+01   0.234E-05 -.599E-05 -.207E-05
   -.192E+02 0.157E+02 -.963E+02   0.196E+02 -.168E+02 0.965E+02   -.968E-01 -.957E+00 -.144E+01   0.735E-06 0.395E-06 -.688E-06
   -.199E+02 0.167E+02 -.110E+03   0.198E+02 -.178E+02 0.111E+03   0.983E+00 -.686E-01 -.891E-01   -.108E-04 -.302E-05 0.258E-05
   -.109E+02 -.189E+02 -.450E+02   0.109E+02 0.201E+02 0.447E+02   0.286E+00 0.585E+00 0.364E+00   -.515E-05 -.157E-05 0.203E-05
   -.227E+02 -.130E+02 -.102E+03   0.227E+02 0.134E+02 0.102E+03   0.129E+00 -.437E+00 -.713E+00   -.758E-05 -.401E-05 0.241E-05
   0.951E+01 0.791E+01 -.383E+01   -.112E+02 -.769E+01 0.375E+01   -.855E+00 0.120E+01 0.117E+01   -.318E-05 -.103E-05 0.243E-05
   -.436E+01 0.221E+02 -.147E+02   0.428E+01 -.231E+02 0.142E+02   0.286E+00 -.385E+00 0.168E+01   -.403E-05 -.319E-05 0.166E-05
   -.229E+02 -.137E+02 -.625E+02   0.240E+02 0.135E+02 0.630E+02   -.752E+00 -.429E+00 -.210E+01   -.474E-05 0.754E-05 0.229E-05
   0.158E+01 0.263E+00 -.120E+02   -.348E+01 -.230E+00 0.122E+02   -.500E+00 0.609E+00 0.101E+01   0.140E-05 -.182E-04 0.306E-06
   -.195E+00 0.470E+01 0.124E+02   -.695E+00 -.573E+01 -.126E+02   0.305E+00 -.872E+00 0.199E+00   -.599E-05 0.133E-04 0.336E-06
   -.304E+02 0.510E+02 -.485E+02   0.287E+02 -.512E+02 0.499E+02   0.110E+01 0.190E+01 -.218E+01   0.173E-04 -.437E-05 -.570E-05
   -.140E+02 -.554E+02 0.540E+01   0.113E+02 0.561E+02 -.414E+01   0.137E+01 -.200E+01 -.532E+00   0.139E-04 -.233E-05 -.488E-05
   0.488E+02 0.536E+02 0.180E+03   -.462E+02 -.535E+02 -.182E+03   0.600E+00 0.308E+01 0.298E+01   -.466E-06 0.549E-05 0.881E-06
   0.307E+02 -.536E+02 0.887E+02   -.286E+02 0.528E+02 -.908E+02   -.483E+00 -.191E+01 0.106E+01   -.100E-05 -.187E-05 0.396E-06
   0.312E+02 -.783E+01 0.139E+03   -.312E+02 0.837E+01 -.139E+03   -.896E+00 0.304E+00 -.226E+00   -.729E-06 0.372E-05 -.410E-07
   0.750E+01 0.663E+01 0.402E+02   -.650E+01 -.698E+01 -.396E+02   0.184E+00 0.460E+00 -.174E+00   -.215E-05 0.226E-05 -.248E-06
   0.242E+02 0.123E+02 0.117E+03   -.242E+02 -.121E+02 -.117E+03   -.253E+00 0.176E-01 -.381E+00   0.308E-05 0.502E-06 -.542E-06
   0.135E+02 -.760E+01 0.226E+02   -.146E+02 0.709E+01 -.226E+02   -.727E+00 -.413E+00 -.527E+00   -.258E-05 -.224E-05 -.525E-06
   0.228E+02 -.193E+02 0.189E+03   -.227E+02 0.213E+02 -.190E+03   -.514E+00 -.362E+00 0.426E+00   -.167E-05 -.286E-05 0.214E-05
   -.763E+01 0.927E+01 0.684E+00   0.871E+01 -.839E+01 -.232E-01   0.290E-01 0.225E+00 -.176E+01   -.308E-05 -.505E-05 0.311E-06
   0.970E+01 0.315E+01 0.226E+03   -.964E+01 -.255E+01 -.226E+03   -.393E+00 -.154E+00 0.131E+01   -.554E-05 -.208E-05 0.379E-05
   0.144E+02 -.118E+02 0.118E+03   -.150E+02 0.112E+02 -.118E+03   0.409E+00 -.104E+01 0.543E+00   -.172E-05 -.357E-05 0.151E-05
   -.961E+01 -.203E+02 0.217E+03   0.100E+02 0.216E+02 -.217E+03   0.187E+00 0.657E+00 -.300E+00   -.337E-05 -.434E-05 0.392E-05
   -.239E+01 0.888E+01 0.912E+02   0.282E+01 -.809E+01 -.906E+02   -.483E+00 0.198E+01 -.675E+00   0.472E-05 -.321E-05 0.227E-05
   -.268E+02 0.869E+01 0.250E+03   0.273E+02 -.901E+01 -.250E+03   -.531E-01 -.153E-02 0.210E+01   0.660E-06 0.580E-05 0.490E-05
   -.764E+01 -.187E+01 0.127E+03   0.710E+01 0.832E+00 -.128E+03   -.163E+01 -.245E+00 -.677E-01   0.970E-05 0.540E-05 0.597E-05
   -.365E+02 -.177E+02 0.190E+03   0.368E+02 0.186E+02 -.190E+03   -.691E-01 0.102E+01 0.604E-01   0.551E-05 -.206E-05 0.401E-05
   0.495E+01 0.451E+01 0.202E+02   -.524E+01 -.332E+01 -.194E+02   0.586E+00 -.630E-01 -.183E+01   0.165E-05 -.572E-05 0.117E-06
   -.201E+02 0.159E+02 0.131E+03   0.190E+02 -.169E+02 -.132E+03   -.105E+01 -.344E+00 -.119E+00   0.293E-05 0.446E-05 0.290E-05
   -.219E+02 -.869E+01 0.745E+02   0.235E+02 0.920E+01 -.744E+02   0.166E+01 0.169E+00 0.141E+01   -.774E-05 -.471E-07 -.999E-06
   -.124E+02 -.122E+02 0.696E+02   0.128E+02 0.125E+02 -.696E+02   0.104E+00 -.142E+00 -.632E+00   0.250E-05 -.134E-05 0.137E-05
   0.649E+01 0.249E+02 0.231E+02   -.750E+01 -.265E+02 -.231E+02   0.617E+00 -.535E+00 -.354E+00   -.877E-06 -.164E-05 -.185E-06
   -.748E+00 0.108E+02 0.259E+02   0.372E+00 -.110E+02 -.261E+02   -.562E+00 -.167E+00 0.326E+00   -.297E-05 -.231E-06 -.903E-06
   0.119E+02 -.988E+01 -.125E+02   -.125E+02 0.101E+02 0.123E+02   0.354E+00 -.355E+00 -.190E-01   0.169E-05 -.392E-05 0.697E-06
   0.740E+00 -.110E+02 -.322E+02   0.463E+00 0.113E+02 0.327E+02   0.355E+00 -.763E-01 -.137E+00   -.564E-05 -.171E-05 -.230E-05
   0.195E+02 0.125E+02 -.749E+02   -.195E+02 -.128E+02 0.749E+02   -.140E+00 0.716E+00 0.638E+00   -.259E-05 0.967E-06 -.690E-06
   0.268E+02 0.237E+02 -.951E+02   -.275E+02 -.260E+02 0.944E+02   -.944E+00 -.148E+01 -.357E+00   -.206E-05 0.133E-05 -.693E-06
   0.381E+02 -.183E+02 -.154E+03   -.379E+02 0.202E+02 0.155E+03   0.363E+00 0.327E+00 -.626E+00   -.230E-05 0.194E-05 -.105E-05
   0.207E+02 -.131E+02 -.110E+03   -.207E+02 0.150E+02 0.110E+03   0.771E-01 0.652E+00 -.158E+00   -.107E-05 -.237E-05 -.155E-05
   0.315E+02 0.112E+02 -.195E+03   -.320E+02 -.118E+02 0.196E+03   0.353E+00 -.700E+00 -.118E+01   -.124E-05 0.605E-05 -.138E-05
   -.277E+01 0.139E+02 -.145E+03   0.375E+01 -.149E+02 0.146E+03   0.322E+00 -.687E+00 -.781E-01   -.118E-05 0.200E-05 -.167E-05
   0.844E+01 -.172E+02 -.168E+03   -.802E+01 0.181E+02 0.168E+03   0.847E+00 -.801E-01 0.434E+00   -.178E-06 0.181E-05 -.191E-05
   0.666E+01 -.236E+02 -.145E+03   -.770E+01 0.253E+02 0.145E+03   -.554E+00 0.675E+00 0.661E+00   0.952E-06 -.137E-05 -.211E-05
   0.365E+01 0.198E+02 -.165E+03   -.445E+01 -.203E+02 0.165E+03   -.363E+00 0.550E+00 0.437E+00   0.701E-06 0.373E-06 -.249E-05
   -.173E+02 0.308E+00 -.172E+03   0.177E+02 0.124E+01 0.173E+03   -.408E+00 0.104E+01 -.218E+01   0.656E-05 0.219E-06 -.241E-05
   -.141E+02 -.288E+01 -.141E+03   0.147E+02 0.127E+01 0.141E+03   0.628E-01 -.103E+01 0.482E+00   0.749E-05 0.472E-05 -.269E-05
   -.107E+02 -.219E+02 -.404E+02   0.109E+02 0.229E+02 0.394E+02   0.332E+00 -.431E+00 0.222E+01   0.581E-05 -.127E-05 -.807E-06
   -.193E+02 0.247E+02 -.127E+03   0.189E+02 -.263E+02 0.126E+03   -.670E+00 -.323E+00 0.643E+00   0.340E-05 0.996E-05 -.108E-05
   -.967E+01 0.229E+01 -.511E+02   0.941E+01 -.139E+01 0.515E+02   -.813E+00 0.601E+00 -.255E+00   -.331E-05 0.339E-05 0.181E-05
   -.210E+02 -.300E+01 -.111E+03   0.217E+02 0.216E+01 0.111E+03   0.107E+00 -.545E+00 -.137E+00   -.397E-05 -.962E-06 0.491E-06
   -.968E+01 -.148E+02 0.420E+01   0.111E+02 0.151E+02 -.468E+01   0.420E+00 0.509E+00 -.940E-01   -.543E-05 0.470E-05 0.298E-05
   -.276E+02 0.151E+02 -.123E+03   0.271E+02 -.149E+02 0.124E+03   -.518E+00 0.243E+00 -.560E+00   0.593E-06 -.717E-05 0.944E-07
   0.120E+02 0.106E+02 0.217E+02   -.128E+02 -.112E+02 -.215E+02   -.796E+00 -.819E+00 0.667E+00   0.546E-05 0.892E-05 -.154E-07
   -.123E+02 -.611E+01 -.730E+02   0.120E+02 0.548E+01 0.734E+02   -.160E+00 -.918E+00 -.631E+00   0.688E-05 0.882E-06 -.112E-05
   0.983E+01 -.153E+02 0.756E+02   -.100E+02 0.175E+02 -.772E+02   0.379E+00 0.868E+00 0.243E+01   -.157E-05 0.479E-05 -.178E-06
   -.242E+02 0.840E+01 -.381E+02   0.247E+02 -.897E+01 0.375E+02   0.905E+00 -.884E-02 0.838E+00   -.470E-05 -.787E-05 0.155E-05
   -.167E+02 0.602E+02 -.224E+02   0.135E+02 -.611E+02 0.248E+02   -.108E+00 0.212E+01 -.218E+01   -.197E-05 0.914E-05 -.816E-06
   -.314E+02 -.541E+02 -.823E+02   0.287E+02 0.544E+02 0.842E+02   0.261E+00 -.187E+01 -.217E+01   -.492E-05 -.336E-05 -.157E-07
 -----------------------------------------------------------------------------------------------
   -.180E+00 -.495E+00 0.368E+00   -.227E-12 -.355E-12 -.369E-12   0.220E+00 0.550E+00 -.404E+00   -.373E-05 -.365E-05 0.129E-04
 
 
 POSITION                                       TOTAL-FORCE (eV/Angst)
 -----------------------------------------------------------------------------------
      0.13451      0.78755     16.20850         1.751236      2.443124      0.170322
      0.10035      2.20184     16.13370         4.837725     -0.646275     -1.397622
      1.31956      0.14835     16.00300         1.164868      0.644875      0.101486
      1.32745      2.86600     15.73190        -0.515960     -2.144231     -0.243376
      2.55846      0.83115     15.74940         0.174225      0.891811     -0.799534
      2.59744      2.18937     15.48420        -2.500569      1.118972      0.796162
      3.77452      0.19757     15.53270         2.339104     -1.172848      0.208334
      3.76410      2.92545     15.10690         1.057006     -4.292424      0.133591
      5.05326      0.83919     15.24560        -2.005364      0.703252      0.129922
      5.02180      2.21800     15.03410         0.336557      0.132239      0.559862
      6.28749      0.17551     15.25100         0.268752     -1.146396      0.780066
      6.28527      2.89692     15.00080         0.527249     -1.896240     -0.805634
      7.50818      0.86941     15.36000         0.742745     -0.539631      0.181743
      7.55523      2.22438     15.16140        -0.830621     -0.245639      0.565450
      8.72088      0.22021     15.72600        -0.552074     -1.255817      0.290537
      8.81391      2.82161     15.37210         1.126936      0.632704      0.036287
      9.93903      0.83811     16.05050         0.376016      0.243918     -0.765178
     10.03520      2.17582     15.84740        -1.516572      1.798961     -0.477793
     11.15160      0.19196     16.37010        -0.256352      0.898783      1.259180
     11.22900      2.88038     16.17810        -0.556877     -0.368737      0.158349
     12.31980      0.86684     16.83710        -0.352200     -0.611622     -0.508046
     12.36530      2.23186     16.70380         0.145932     -0.137636     -0.081785
     13.44640      0.18636     17.34950         0.537479      1.249968     -0.549742
     13.54720      2.88880     17.10860        -0.279219      0.900980     -0.353529
     14.66970      0.87867     17.62250        -0.311718     -0.711719      0.101087
     14.73610      2.24102     17.45650         0.182089      0.060454      1.010071
     15.82360      0.21120     18.07460        -0.257913      0.423071      0.457471
     15.91810      2.92499     17.89150        -0.877489     -3.446796     -0.716987
     17.03250      0.86019     18.33100         1.976578     -2.147667      0.287013
     17.09420      2.18827     18.20220        -0.652541      2.468539     -0.007238
     18.29730      0.15856     18.58680        -0.028355      2.312220     -1.150207
     18.30300      2.86639     18.38140         1.268958     -1.506209     -0.658904
     19.56390      0.85052     18.46020        -0.436252     -2.131536      0.369979
     19.55750      2.19343     18.30780         0.354540      1.328236      0.618106
     20.80700      0.14766     18.35670         0.662340      2.908312     -0.552948
     20.79790      2.87777     18.11950         0.307346     -2.068758     -1.192981
     22.02490      0.82958     18.02350         0.841150     -1.136252      0.086227
     22.02090      2.16774     17.84240         0.272244      1.821277      0.078072
     23.28690      0.19158     17.75890         0.193932     -0.124481     -0.410711
     23.26670      2.81235     17.45950        -2.498524      1.421256      1.091108
     24.47450      0.84779     17.27800         0.209441     -1.362031      1.193129
     24.48980      2.20730     17.29560         0.376390     -0.595622     -1.508715
     25.71280      0.15268     16.96680        -2.404952      0.640204      1.176746
     25.65550      2.87909     16.84110        -0.585135     -1.907778      0.040104
     26.83720      0.81515     16.72140        -0.526754      1.688930     -0.735241
     26.80570      2.21071     16.59120        -1.356328     -1.385510      0.720090
      0.07866      4.82565     15.81350         3.139209      3.206105      0.386133
      0.13837      6.25016     16.04230         1.634233     -2.669822     -1.080886
      1.32031      4.21515     15.57550        -0.854371      0.844655     -0.045551
      1.33641      6.88226     15.90730         1.186641      0.106454      0.399849
      2.57077      4.90001     15.40510        -0.240410      0.187120     -0.370792
      2.60813      6.24878     15.67550        -1.759090     -0.922562     -0.527798
      3.79333      4.26014     15.04060        -0.451548      1.609802      0.181362
      3.82237      6.90419     15.58060         1.111532      1.098046     -1.101169
      5.04799      4.91654     14.88020        -0.335884      0.443723      0.972405
      5.04942      6.27780     15.19090        -0.157665     -1.591930      0.101031
      6.30762      4.23517     14.85200         0.610129      2.044803     -0.565742
      6.31872      6.86196     15.25500        -0.049715      2.773741     -0.022147
      7.60959      4.89045     14.92360         0.511625     -0.324970      1.663276
      7.59777      6.24817     15.26410        -2.165357     -1.283842     -0.757547
      8.85028      4.18640     15.24020         0.280864      1.928461      0.222922
      8.71858      6.91902     15.71200         0.302979      1.125946     -0.982467
     10.05800      4.91183     15.71640        -2.151581     -1.379824     -0.746950
      9.91942      6.26198     15.86480         3.189953      0.681806      1.520748
     11.21540      4.25558     16.18640         0.438449      0.216137     -0.556334
     11.12720      6.95054     16.36690        -0.385039     -2.128077     -0.325820
     12.36450      4.92248     16.70920        -0.937780     -0.408017      0.116473
     12.30210      6.28753     16.81870        -0.214587     -0.169888     -0.158983
     13.50370      4.26846     17.18680         1.557185      0.207333      0.398531
     13.43720      6.91764     17.36130        -0.124217      0.470595      0.659837
     14.67790      4.95736     17.74310        -1.690410     -3.747145     -1.006918
     14.59230      6.27323     17.87830         0.523844      2.167406     -0.091287
     15.87170      4.24565     18.01990         0.019311      2.492124      0.082761
     15.78900      6.96401     18.25580        -0.143374     -1.275959     -0.626629
     17.06090      4.92691     18.32410         1.307106     -1.738967      0.283225
     17.02140      6.27410     18.40810         1.272806      0.787025      0.513680
     18.34400      4.20689     18.40610        -1.593824      2.397182      0.176804
     18.32550      6.90417     18.51180        -1.157669      0.004989      0.395399
     19.59110      4.85022     18.42400        -0.057568      2.584646     -1.401609
     19.57510      6.27549     18.42590         0.746763     -2.647344      0.139740
     20.79910      4.22709     18.03370         0.467241      0.576669      1.223638
     20.84980      6.91568     18.28000        -1.024969     -1.882436      0.567451
     22.06030      4.86268     17.82670        -1.068584      1.496346      0.132652
     22.07930      6.26084     18.01390         0.796124     -1.388659     -0.411941
     23.22610      4.19996     17.44370         1.884451      0.763458     -0.576071
     23.33170      6.90762     17.79370        -1.061760      0.480619     -0.116335
     24.48610      4.91587     17.11990        -1.590193     -1.383031      0.926463
     24.52120      6.27138     17.36720        -0.510398     -1.555242     -0.285029
     25.65290      4.20631     16.71290         0.167013      3.068333      0.775460
     25.71720      6.89735     17.02600         1.456636     -0.586021      0.313842
     26.89660      4.83830     16.56200        -3.260198      1.167107      0.169690
     26.91640      6.23574     16.73890        -2.346969     -1.597128     -0.249690
 -----------------------------------------------------------------------------------
    total drift:                                0.039544      0.054930     -0.035767


--------------------------------------------------------------------------------------------------------



  FREE ENERGIE OF THE ION-ELECTRON SYSTEM (eV)
  ---------------------------------------------------
  free  energy   TOTEN  =      -828.68329257 eV

  energy  without entropy=     -828.58950454  energy(sigma->0) =     -828.63639855
 


--------------------------------------------------------------------------------------------------------


    POTLOK:  cpu time      0.4517: real time      0.4516


--------------------------------------------------------------------------------------------------------


     LOOP+:  cpu time    344.0346: real time    344.2491
    4ORBIT:  cpu time      0.0000: real time      0.0000

 total amount of memory used by VASP MPI-rank0  2294501. kBytes
=======================================================================

   base                                    :      30000. kBytes
   nonlr-proj                              :      15067. kBytes
   fftplans                                :     436558. kBytes
   grid                                    :     732614. kBytes
   one-center                              :        282. kBytes
   wavefun                                 :    1079980. kBytes
 
  
  
 General timing and accounting informations for this job:
 ========================================================
  
                  Total CPU time used (sec):      377.472
                            User time (sec):      369.083
                          System time (sec):        8.389
                         Elapsed time (sec):      377.774
  
                   Maximum memory used (kb):     3733776.
                   Average memory used (kb):          N/A
  
                          Minor page faults:      3266087
                          Major page faults:         5028
                 Voluntary context switches:        10025
