  92  92   0   0
  0.8273226E+02  0.2805000E-08  0.8100000E-09  0.3350000E-08  0.5000000E-15
   1.0000000000000000E-004
  CAR 
 unknown system                          
      3.78809907    -25.16023706  301     -3.14837011      1.00000000
    -25.160  0.0000E+00  0.0000E+00
    -25.064  0.0000E+00  0.0000E+00
    -24.967  0.0000E+00  0.0000E+00
    -24.871  0.0000E+00  0.0000E+00
    -24.774  0.0000E+00  0.0000E+00
    -24.678  0.0000E+00  0.0000E+00
    -24.581  0.0000E+00  0.0000E+00
    -24.485  0.0000E+00  0.0000E+00
    -24.388  0.0000E+00  0.0000E+00
    -24.292  0.3164E-14  0.3053E-15
    -24.195  0.6532E-12  0.6334E-13
    -24.099  0.8434E-10  0.8202E-11
    -24.002  0.6921E-08  0.6761E-09
    -23.906  0.3624E-06  0.3564E-07
    -23.809  0.1217E-04  0.1210E-05
    -23.713  0.2641E-03  0.2669E-04
    -23.616  0.3741E-02  0.3877E-03
    -23.520  0.3507E-01  0.3772E-02
    -23.423  0.2213E+00  0.2512E-01
    -23.327  0.9587E+00  0.1176E+00
    -23.230  0.2912E+01  0.3986E+00
    -23.134  0.6338E+01  0.1010E+01
    -23.037  0.1016E+02  0.1990E+01
    -22.941  0.1256E+02  0.3202E+01
    -22.844  0.1325E+02  0.4481E+01
    -22.748  0.1390E+02  0.5822E+01
    -22.651  0.1555E+02  0.7323E+01
    -22.555  0.1668E+02  0.8932E+01
    -22.458  0.1581E+02  0.1046E+02
    -22.362  0.1418E+02  0.1183E+02
    -22.265  0.1379E+02  0.1316E+02
    -22.169  0.1425E+02  0.1453E+02
    -22.072  0.1423E+02  0.1590E+02
    -21.976  0.1388E+02  0.1724E+02
    -21.879  0.1387E+02  0.1858E+02
    -21.783  0.1393E+02  0.1993E+02
    -21.686  0.1351E+02  0.2123E+02
    -21.590  0.1252E+02  0.2244E+02
    -21.493  0.1138E+02  0.2354E+02
    -21.397  0.1093E+02  0.2459E+02
    -21.300  0.1195E+02  0.2574E+02
    -21.204  0.1411E+02  0.2711E+02
    -21.107  0.1605E+02  0.2865E+02
    -21.011  0.1639E+02  0.3024E+02
    -20.914  0.1473E+02  0.3166E+02
    -20.818  0.1235E+02  0.3285E+02
    -20.721  0.1146E+02  0.3395E+02
    -20.625  0.1266E+02  0.3518E+02
    -20.529  0.1402E+02  0.3653E+02
    -20.432  0.1389E+02  0.3787E+02
    -20.336  0.1303E+02  0.3913E+02
    -20.239  0.1299E+02  0.4038E+02
    -20.143  0.1384E+02  0.4172E+02
    -20.046  0.1451E+02  0.4312E+02
    -19.950  0.1455E+02  0.4452E+02
    -19.853  0.1423E+02  0.4589E+02
    -19.757  0.1363E+02  0.4721E+02
    -19.660  0.1378E+02  0.4854E+02
    -19.564  0.1558E+02  0.5004E+02
    -19.467  0.1697E+02  0.5168E+02
    -19.371  0.1563E+02  0.5318E+02
    -19.274  0.1311E+02  0.5445E+02
    -19.178  0.1230E+02  0.5564E+02
    -19.081  0.1315E+02  0.5691E+02
    -18.985  0.1373E+02  0.5823E+02
    -18.888  0.1349E+02  0.5953E+02
    -18.792  0.1364E+02  0.6085E+02
    -18.695  0.1526E+02  0.6232E+02
    -18.599  0.1747E+02  0.6401E+02
    -18.502  0.1796E+02  0.6574E+02
    -18.406  0.1651E+02  0.6733E+02
    -18.309  0.1556E+02  0.6884E+02
    -18.213  0.1644E+02  0.7042E+02
    -18.116  0.1757E+02  0.7212E+02
    -18.020  0.1668E+02  0.7373E+02
    -17.923  0.1390E+02  0.7507E+02
    -17.827  0.1181E+02  0.7621E+02
    -17.730  0.1170E+02  0.7734E+02
    -17.634  0.1206E+02  0.7850E+02
    -17.537  0.1181E+02  0.7964E+02
    -17.441  0.1179E+02  0.8078E+02
    -17.344  0.1235E+02  0.8197E+02
    -17.248  0.1254E+02  0.8318E+02
    -17.151  0.1211E+02  0.8435E+02
    -17.055  0.1171E+02  0.8548E+02
    -16.958  0.1125E+02  0.8656E+02
    -16.862  0.1061E+02  0.8759E+02
    -16.765  0.1056E+02  0.8860E+02
    -16.669  0.1172E+02  0.8974E+02
    -16.572  0.1341E+02  0.9103E+02
    -16.476  0.1449E+02  0.9243E+02
    -16.379  0.1500E+02  0.9388E+02
    -16.283  0.1556E+02  0.9538E+02
    -16.186  0.1637E+02  0.9696E+02
    -16.090  0.1719E+02  0.9861E+02
    -15.993  0.1733E+02  0.1003E+03
    -15.897  0.1648E+02  0.1019E+03
    -15.800  0.1506E+02  0.1033E+03
    -15.704  0.1351E+02  0.1046E+03
    -15.607  0.1210E+02  0.1058E+03
    -15.511  0.1154E+02  0.1069E+03
    -15.414  0.1307E+02  0.1082E+03
    -15.318  0.1685E+02  0.1098E+03
    -15.221  0.2102E+02  0.1118E+03
    -15.125  0.2355E+02  0.1141E+03
    -15.028  0.2365E+02  0.1164E+03
    -14.932  0.2136E+02  0.1184E+03
    -14.835  0.1754E+02  0.1201E+03
    -14.739  0.1364E+02  0.1215E+03
    -14.642  0.1065E+02  0.1225E+03
    -14.546  0.9118E+01  0.1234E+03
    -14.449  0.9319E+01  0.1243E+03
    -14.353  0.1065E+02  0.1253E+03
    -14.256  0.1178E+02  0.1264E+03
    -14.160  0.1224E+02  0.1276E+03
    -14.063  0.1291E+02  0.1289E+03
    -13.967  0.1427E+02  0.1302E+03
    -13.870  0.1574E+02  0.1317E+03
    -13.774  0.1690E+02  0.1334E+03
    -13.677  0.1773E+02  0.1351E+03
    -13.581  0.1820E+02  0.1368E+03
    -13.484  0.1840E+02  0.1386E+03
    -13.388  0.1863E+02  0.1404E+03
    -13.291  0.1887E+02  0.1422E+03
    -13.195  0.1865E+02  0.1440E+03
    -13.098  0.1746E+02  0.1457E+03
    -13.002  0.1599E+02  0.1473E+03
    -12.905  0.1552E+02  0.1488E+03
    -12.809  0.1581E+02  0.1503E+03
    -12.712  0.1533E+02  0.1518E+03
    -12.616  0.1375E+02  0.1531E+03
    -12.519  0.1257E+02  0.1543E+03
    -12.423  0.1301E+02  0.1556E+03
    -12.326  0.1489E+02  0.1570E+03
    -12.230  0.1799E+02  0.1587E+03
    -12.133  0.2194E+02  0.1609E+03
    -12.037  0.2483E+02  0.1633E+03
    -11.940  0.2493E+02  0.1657E+03
    -11.844  0.2282E+02  0.1679E+03
    -11.748  0.2027E+02  0.1698E+03
    -11.651  0.1822E+02  0.1716E+03
    -11.555  0.1678E+02  0.1732E+03
    -11.458  0.1623E+02  0.1748E+03
    -11.362  0.1709E+02  0.1764E+03
    -11.265  0.1933E+02  0.1783E+03
    -11.169  0.2269E+02  0.1805E+03
    -11.072  0.2705E+02  0.1831E+03
    -10.976  0.3108E+02  0.1861E+03
    -10.879  0.3294E+02  0.1893E+03
    -10.783  0.3304E+02  0.1924E+03
    -10.686  0.3335E+02  0.1957E+03
    -10.590  0.3499E+02  0.1990E+03
    -10.493  0.3744E+02  0.2026E+03
    -10.397  0.3896E+02  0.2064E+03
    -10.300  0.3812E+02  0.2101E+03
    -10.204  0.3581E+02  0.2135E+03
    -10.107  0.3410E+02  0.2168E+03
    -10.011  0.3332E+02  0.2200E+03
     -9.914  0.3266E+02  0.2232E+03
     -9.818  0.3292E+02  0.2264E+03
     -9.721  0.3532E+02  0.2298E+03
     -9.625  0.3884E+02  0.2335E+03
     -9.528  0.4181E+02  0.2376E+03
     -9.432  0.4346E+02  0.2418E+03
     -9.335  0.4255E+02  0.2459E+03
     -9.239  0.3819E+02  0.2495E+03
     -9.142  0.3233E+02  0.2527E+03
     -9.046  0.2876E+02  0.2554E+03
     -8.949  0.2929E+02  0.2583E+03
     -8.853  0.3228E+02  0.2614E+03
     -8.756  0.3500E+02  0.2648E+03
     -8.660  0.3625E+02  0.2683E+03
     -8.563  0.3604E+02  0.2717E+03
     -8.467  0.3448E+02  0.2751E+03
     -8.370  0.3230E+02  0.2782E+03
     -8.274  0.3053E+02  0.2811E+03
     -8.177  0.2884E+02  0.2839E+03
     -8.081  0.2661E+02  0.2865E+03
     -7.984  0.2489E+02  0.2889E+03
     -7.888  0.2508E+02  0.2913E+03
     -7.791  0.2657E+02  0.2939E+03
     -7.695  0.2743E+02  0.2965E+03
     -7.598  0.2758E+02  0.2992E+03
     -7.502  0.2839E+02  0.3019E+03
     -7.405  0.2955E+02  0.3048E+03
     -7.309  0.2942E+02  0.3076E+03
     -7.212  0.2781E+02  0.3103E+03
     -7.116  0.2619E+02  0.3128E+03
     -7.019  0.2549E+02  0.3153E+03
     -6.923  0.2539E+02  0.3177E+03
     -6.826  0.2551E+02  0.3202E+03
     -6.730  0.2580E+02  0.3227E+03
     -6.633  0.2578E+02  0.3252E+03
     -6.537  0.2421E+02  0.3275E+03
     -6.440  0.2108E+02  0.3295E+03
     -6.344  0.1875E+02  0.3313E+03
     -6.247  0.1925E+02  0.3332E+03
     -6.151  0.2158E+02  0.3353E+03
     -6.054  0.2412E+02  0.3376E+03
     -5.958  0.2634E+02  0.3401E+03
     -5.861  0.2696E+02  0.3427E+03
     -5.765  0.2481E+02  0.3451E+03
     -5.668  0.2101E+02  0.3472E+03
     -5.572  0.1721E+02  0.3488E+03
     -5.475  0.1372E+02  0.3502E+03
     -5.379  0.1096E+02  0.3512E+03
     -5.282  0.1036E+02  0.3522E+03
     -5.186  0.1186E+02  0.3534E+03
     -5.089  0.1269E+02  0.3546E+03
     -4.993  0.1107E+02  0.3556E+03
     -4.896  0.8614E+01  0.3565E+03
     -4.800  0.7791E+01  0.3572E+03
     -4.703  0.9286E+01  0.3581E+03
     -4.607  0.1235E+02  0.3593E+03
     -4.510  0.1544E+02  0.3608E+03
     -4.414  0.1604E+02  0.3624E+03
     -4.317  0.1262E+02  0.3636E+03
     -4.221  0.7492E+01  0.3643E+03
     -4.124  0.4175E+01  0.3647E+03
     -4.028  0.3203E+01  0.3650E+03
     -3.931  0.3056E+01  0.3653E+03
     -3.835  0.3044E+01  0.3656E+03
     -3.738  0.3361E+01  0.3659E+03
     -3.642  0.3827E+01  0.3663E+03
     -3.545  0.4051E+01  0.3667E+03
     -3.449  0.3857E+01  0.3671E+03
     -3.352  0.3269E+01  0.3674E+03
     -3.256  0.2852E+01  0.3676E+03
     -3.160  0.3238E+01  0.3680E+03
     -3.063  0.4248E+01  0.3684E+03
     -2.967  0.5236E+01  0.3689E+03
     -2.870  0.6070E+01  0.3695E+03
     -2.774  0.7355E+01  0.3702E+03
     -2.677  0.8937E+01  0.3710E+03
     -2.581  0.9050E+01  0.3719E+03
     -2.484  0.6781E+01  0.3726E+03
     -2.388  0.4072E+01  0.3730E+03
     -2.291  0.3572E+01  0.3733E+03
     -2.195  0.5643E+01  0.3738E+03
     -2.098  0.7879E+01  0.3746E+03
     -2.002  0.7717E+01  0.3753E+03
     -1.905  0.5920E+01  0.3759E+03
     -1.809  0.5874E+01  0.3765E+03
     -1.712  0.9574E+01  0.3774E+03
     -1.616  0.1576E+02  0.3789E+03
     -1.519  0.2124E+02  0.3810E+03
     -1.423  0.2349E+02  0.3832E+03
     -1.326  0.2231E+02  0.3854E+03
     -1.230  0.1984E+02  0.3873E+03
     -1.133  0.1858E+02  0.3891E+03
     -1.037  0.1827E+02  0.3909E+03
     -0.940  0.1703E+02  0.3925E+03
     -0.844  0.1512E+02  0.3940E+03
     -0.747  0.1366E+02  0.3953E+03
     -0.651  0.1269E+02  0.3965E+03
     -0.554  0.1206E+02  0.3977E+03
     -0.458  0.1138E+02  0.3988E+03
     -0.361  0.1067E+02  0.3998E+03
     -0.265  0.1169E+02  0.4009E+03
     -0.168  0.1524E+02  0.4024E+03
     -0.072  0.1900E+02  0.4042E+03
      0.025  0.2095E+02  0.4063E+03
      0.121  0.2164E+02  0.4083E+03
      0.218  0.2170E+02  0.4104E+03
      0.314  0.2073E+02  0.4124E+03
      0.411  0.1891E+02  0.4143E+03
      0.507  0.1779E+02  0.4160E+03
      0.604  0.1912E+02  0.4178E+03
      0.700  0.2297E+02  0.4200E+03
      0.797  0.2762E+02  0.4227E+03
      0.893  0.3119E+02  0.4257E+03
      0.990  0.3384E+02  0.4290E+03
      1.086  0.3710E+02  0.4326E+03
      1.183  0.4152E+02  0.4366E+03
      1.279  0.4636E+02  0.4410E+03
      1.376  0.4996E+02  0.4459E+03
      1.472  0.5025E+02  0.4507E+03
      1.569  0.4615E+02  0.4552E+03
      1.665  0.3800E+02  0.4588E+03
      1.762  0.2723E+02  0.4615E+03
      1.858  0.1608E+02  0.4630E+03
      1.955  0.7271E+01  0.4637E+03
      2.051  0.2358E+01  0.4639E+03
      2.148  0.5245E+00  0.4640E+03
      2.244  0.7807E-01  0.4640E+03
      2.341  0.7670E-02  0.4640E+03
      2.437  0.4936E-03  0.4640E+03
      2.534  0.2071E-04  0.4640E+03
      2.630  0.5641E-06  0.4640E+03
      2.727  0.9944E-08  0.4640E+03
      2.823  0.1130E-09  0.4640E+03
      2.920  0.8244E-12  0.4640E+03
      3.016  0.3452E-14  0.4640E+03
      3.113  0.0000E+00  0.4640E+03
      3.209  0.0000E+00  0.4640E+03
      3.306  0.0000E+00  0.4640E+03
      3.402  0.0000E+00  0.4640E+03
      3.499  0.0000E+00  0.4640E+03
      3.595  0.0000E+00  0.4640E+03
      3.692  0.0000E+00  0.4640E+03
      3.788  0.0000E+00  0.4640E+03
