       N       E                     dE             d eps       ncg     rms          rms(c)
DAV:   1     0.362779570953E+04    0.36278E+04   -0.11975E+05  1728   0.105E+03
DAV:   2     0.168930400593E+03   -0.34589E+04   -0.31979E+04  2136   0.236E+02
DAV:   3    -0.834430243349E+03   -0.10034E+04   -0.98098E+03  1800   0.134E+02
DAV:   4    -0.896126672010E+03   -0.61696E+02   -0.60635E+02  1728   0.425E+01
DAV:   5    -0.897634318099E+03   -0.15076E+01   -0.14850E+01  1752   0.646E+00    0.455E+01
DAV:   6    -0.848169059837E+03    0.49465E+02   -0.47250E+01  1584   0.125E+01    0.267E+01
DAV:   7    -0.829715567939E+03    0.18453E+02   -0.64880E+01  1552   0.143E+01    0.730E+00
DAV:   8    -0.829426546145E+03    0.28902E+00   -0.23736E+00  1624   0.325E+00    0.987E-01
DAV:   9    -0.829320017969E+03    0.10653E+00   -0.23470E-01  1640   0.915E-01    0.561E-01
DAV:  10    -0.829278587625E+03    0.41430E-01   -0.43997E-02  1760   0.398E-01    0.356E-01
DAV:  11    -0.829250542813E+03    0.28045E-01   -0.20669E-02  1584   0.231E-01    0.234E-01
DAV:  12    -0.829246641634E+03    0.39012E-02   -0.25105E-02  1544   0.230E-01    0.144E-01
DAV:  13    -0.829258850861E+03   -0.12209E-01   -0.73434E-03  1576   0.128E-01    0.810E-02
DAV:  14    -0.829278806422E+03   -0.19956E-01   -0.14715E-03  1568   0.647E-02    0.490E-02
DAV:  15    -0.829297349225E+03   -0.18543E-01   -0.14783E-03  1592   0.555E-02    0.288E-02
DAV:  16    -0.829306145863E+03   -0.87966E-02   -0.53555E-04  1624   0.343E-02    0.183E-02
DAV:  17    -0.829310648924E+03   -0.45031E-02   -0.27152E-04  1608   0.217E-02    0.903E-03
DAV:  18    -0.829312375725E+03   -0.17268E-02   -0.58104E-05  1480   0.115E-02    0.534E-03
DAV:  19    -0.829313353511E+03   -0.97779E-03   -0.33264E-05  1344   0.738E-03    0.316E-03
DAV:  20    -0.829313642557E+03   -0.28905E-03   -0.42332E-06  1352   0.309E-03    0.184E-03
DAV:  21    -0.829313832289E+03   -0.18973E-03   -0.21133E-06  1200   0.214E-03    0.772E-04
DAV:  22    -0.829313877632E+03   -0.45343E-04   -0.23531E-07  1048   0.906E-04    0.529E-04
DAV:  23    -0.829313903224E+03   -0.25592E-04   -0.18185E-07   952   0.687E-04    0.268E-04
DAV:  24    -0.829313911880E+03   -0.86557E-05   -0.66318E-08   976   0.428E-04    0.194E-04
DAV:  25    -0.829313916657E+03   -0.47773E-05   -0.30358E-08   888   0.349E-04    0.105E-04
DAV:  26    -0.829313919421E+03   -0.27642E-05   -0.20557E-08   952   0.217E-04    0.992E-05
DAV:  27    -0.829313921018E+03   -0.15969E-05   -0.59417E-09   952   0.186E-04    0.611E-05
DAV:  28    -0.829313922130E+03   -0.11116E-05   -0.48061E-09   960   0.110E-04    0.517E-05
DAV:  29    -0.829313922610E+03   -0.48036E-06   -0.19824E-09   944   0.103E-04
   1 F= -.82931392E+03 E0= -.82927573E+03  d E =-.763938E-01
