 vasp.6.5.0 16Dec24 (build Feb 19 2025 19:45:31) complex                         
 executed on              LinuxNV date 2025.10.25  14:37:49
 running    2 mpi-ranks, on    1 nodes
 distrk:  each k-point on    2 cores,    1 groups
 distr:  one band on NCORE=   1 cores,    2 groups
 Offloading initialized ...    2 GPUs detected


--------------------------------------------------------------------------------------------------------


 INCAR:
   ISTART = 0            (Not Read existing wavefunction
   ISPIN = 1            (Non-Spin polarised DFT, Default\=1)
   ICHARG = 2            (The initial guess charge density is generated by superposition of atomic charge density)
   LREAL = Auto         (Projection operators: automatic)
   ENCUT = 500          (Cut-off energy for plane wave basis set, in eV)
   LWAVE = .FALSE.       (Write WAVECAR or not)
   LCHARG = .FALSE.       (Write CHGCAR or not)
   PREC = Accurate   (Precision level)
   KGAMMA = .TRUE.
   ALGO = Normal
   NSW = 0           (Default: NSW \= 0)
   IBRION = -1           (Ions are not moved)
   ISMEAR = 0
   EDIFF = 1E-06        (SCF energy convergence
   NELM = 150          (Max electronic SCF steps)

 POTCAR:    PAW_PBE C 08Apr2002                   
 POTCAR:    PAW_PBE C 08Apr2002                   
   SHA256 =  253f7b50bb8d59471dbedb8285d89021f4a42ed1a2c5d38a03a736e69125dd95 C/POTCAR              
   COPYR  = (c) Copyright 08Apr2002 Georg Kresse                                                    
   COPYR  = This file is part of the software VASP. Any use, copying, and all other rights are regul
   COPYR  = If you do not have a valid VASP license, you may not use, copy or distribute this file. 
   VRHFIN =C: s2p2                                                                                  
   LEXCH  = PE                                                                                      
   EATOM  =   147.1560 eV,   10.8157 Ry                                                             
                                                                                                    
   TITEL  = PAW_PBE C 08Apr2002                                                                     
   LULTRA =        F    use ultrasoft PP ?                                                          
   IUNSCR =        1    unscreen: 0-lin 1-nonlin 2-no                                               
   RPACOR =    1.200    partial core radius                                                         
   POMASS =   12.011; ZVAL   =    4.000    mass and valenz                                          
   RCORE  =    1.500    outmost cutoff radius                                                       
   RWIGS  =    1.630; RWIGS  =    0.863    wigner-seitz radius (au A)                               
   ENMAX  =  400.000; ENMIN  =  300.000 eV                                                          
   ICORE  =        2    local potential                                                             
   LCOR   =        T    correct aug charges                                                         
   LPAW   =        T    paw PP                                                                      
   EAUG   =  644.873                                                                                
   DEXC   =    0.000                                                                                
   RMAX   =    1.529    core radius for proj-oper                                                   
   RAUG   =    1.300    factor for augmentation sphere                                              
   RDEP   =    1.501    radius for radial grids                                                     
   RDEPT  =    1.300    core radius for aug-charge                                                  
                                                                                                    
   Atomic configuration                                                                             
    4 entries                                                                                       
     n  l   j            E        occ.                                                              
     1  0  0.50      -273.3789   2.0000                                                             
     2  0  0.50       -13.7508   2.0000                                                             
     2  1  0.50        -5.2854   2.0000                                                             
     3  2  1.50        -5.4423   0.0000                                                             
   Description                                                                                      
     l       E           TYP  RCUT    TYP  RCUT                                                     
     0    -13.7508458     23  1.200                                                                 
     0     -8.2022199     23  1.200                                                                 
     1     -5.2854383     23  1.500                                                                 
     1     34.0145650     23  1.500                                                                 
     2     -5.4423304      7  1.500                                                                 
  local pseudopotential read in
  partial core-charges read in
  partial kinetic energy density read in
  atomic valenz-charges read in
  non local Contribution for L=            0  read in
    real space projection operators read in
  non local Contribution for L=            0  read in
    real space projection operators read in
  non local Contribution for L=            1  read in
    real space projection operators read in
  non local Contribution for L=            1  read in
    real space projection operators read in
    PAW grid and wavefunctions read in
 
   number of l-projection  operators is LMAX  =            4
   number of lm-projection operators is LMMAX =            8
 
 Optimization of the real space projectors (new method)

 maximal supplied QI-value         = 25.13
 optimisation between [QCUT,QGAM] = [ 11.31, 22.87] = [ 35.82,146.48] Ry 
 Optimized for a Real-space Cutoff    1.03 Angstroem

   l    n(q)    QCUT    max X(q) W(low)/X(q) W(high)/X(q)  e(spline) 
   0      7    11.310   115.676    0.20E-03    0.90E-03    0.20E-06
   0      7    11.310    87.132    0.20E-03    0.89E-03    0.19E-06
   1      6    11.310     4.429    0.16E-03    0.28E-03    0.12E-06
   1      6    11.310     2.733    0.12E-03    0.21E-03    0.99E-07
  PAW_PBE C 08Apr2002                   :
 energy of atom  1       EATOM= -147.1560
 kinetic energy error for atom=    0.0076 (will be added to EATOM!!)
 
 
 POSCAR:  C
  positions in cartesian coordinates
  No initial velocities read in


 exchange-correlation table for PE
   RHO(1)=    0.500       N(1)  =     2000
   RHO(2)=  100.500       N(2)  =     4000
 


--------------------------------------------------------------------------------------------------------


 ion  position               nearest neighbor table
   1  0.003  0.105  0.487-   2 1.40  45 1.43   3 1.44
   2  0.002  0.277  0.487-   1 1.40   4 1.41  46 1.48  45 1.96
   3  0.047  0.021  0.480-  50 1.39   5 1.41   1 1.44
   4  0.047  0.357  0.483-  49 1.36   2 1.41   6 1.45
   5  0.089  0.103  0.467-   6 1.38   3 1.41   7 1.44
   6  0.090  0.272  0.471-   5 1.38   8 1.40   4 1.45
   7  0.133  0.023  0.458-  54 1.37   9 1.41   5 1.44
   8  0.134  0.351  0.465-  53 1.38  10 1.39   6 1.40
   9  0.177  0.102  0.451-  10 1.37   7 1.41  11 1.43
  10  0.177  0.269  0.456-   9 1.37   8 1.39  12 1.43
  11  0.222  0.017  0.450-  58 1.36  13 1.42   9 1.43
  12  0.222  0.347  0.460-  57 1.34  14 1.42  10 1.43
  13  0.267  0.100  0.455-  14 1.39  11 1.42  15 1.43
  14  0.267  0.269  0.462-  13 1.39  16 1.40  12 1.42
  15  0.311  0.014  0.460-  62 1.40  17 1.43  13 1.43
  16  0.311  0.352  0.465-  61 1.36  14 1.40  18 1.41
  17  0.354  0.093  0.472-  18 1.41  19 1.42  15 1.43
  18  0.354  0.268  0.471-  16 1.41  17 1.41  20 1.42
  19  0.400  0.015  0.474-  66 1.34  21 1.40  17 1.42
  20  0.397  0.351  0.480-  22 1.40  65 1.40  18 1.42
  21  0.440  0.101  0.487-  22 1.38  19 1.40  23 1.46
  22  0.439  0.270  0.491-  21 1.38  20 1.40  24 1.44
  23  0.486  0.021  0.495-  25 1.39  70 1.40  21 1.46
  24  0.483  0.354  0.502-  69 1.37  26 1.43  22 1.44
  25  0.525  0.102  0.511-  26 1.35  23 1.39  27 1.41
  26  0.525  0.269  0.513-  25 1.35  28 1.39  24 1.43
  27  0.569  0.020  0.517-  25 1.41  74 1.42  29 1.44
  28  0.566  0.352  0.527-  73 1.39  26 1.39  30 1.42
  29  0.610  0.105  0.532-  30 1.38  31 1.39  27 1.44
  30  0.609  0.273  0.538-  29 1.38  32 1.40  28 1.42
  31  0.654  0.027  0.539-  33 1.37  29 1.39  78 1.40
  32  0.652  0.357  0.544-  77 1.39  34 1.39  30 1.40
  33  0.696  0.108  0.547-  34 1.36  31 1.37  35 1.44
  34  0.695  0.276  0.550-  33 1.36  32 1.39  36 1.42
  35  0.741  0.024  0.545-  82 1.31  37 1.42  33 1.44
  36  0.740  0.356  0.549-  38 1.39  81 1.40  34 1.42
  37  0.783  0.112  0.536-  38 1.38  35 1.42  39 1.45
  38  0.784  0.276  0.546-  37 1.38  36 1.39  40 1.46
  39  0.828  0.027  0.526-  86 1.38  41 1.41  37 1.45
  40  0.829  0.362  0.540-  85 1.36  42 1.41  38 1.46
  41  0.871  0.114  0.520-  42 1.38  43 1.41  39 1.41
  42  0.871  0.280  0.529-  41 1.38  44 1.39  40 1.41
  43  0.913  0.026  0.514-  90 1.39  41 1.41  45 1.41
  44  0.915  0.358  0.523-  42 1.39  46 1.41  89 1.41
  45  0.955  0.110  0.502-  43 1.41  46 1.42   1 1.43   2 1.96
  46  0.954  0.284  0.504-  44 1.41  45 1.42   2 1.48
  47  0.008  0.603  0.503-  48 1.37  49 1.39  91 1.46  92 2.05
  48  0.008  0.771  0.499-  47 1.37  50 1.43  92 1.48  91 2.00
  49  0.050  0.519  0.494-   4 1.36  47 1.39  51 1.46
  50  0.049  0.850  0.483-   3 1.39  52 1.40  48 1.43
  51  0.095  0.601  0.484-  53 1.39  52 1.40  49 1.46
  52  0.093  0.771  0.477-  50 1.40  51 1.40  54 1.41
  53  0.135  0.518  0.471-   8 1.38  51 1.39  55 1.43
  54  0.134  0.855  0.464-   7 1.37  52 1.41  56 1.42
  55  0.179  0.599  0.462-  56 1.40  57 1.41  53 1.43
  56  0.178  0.771  0.461-  55 1.40  58 1.40  54 1.42
  57  0.223  0.512  0.457-  12 1.34  55 1.41  59 1.41
  58  0.222  0.851  0.456-  11 1.36  56 1.40  60 1.42
  59  0.267  0.597  0.456-  60 1.40  57 1.41  61 1.44
  60  0.267  0.770  0.455-  62 1.38  59 1.40  58 1.42
  61  0.312  0.520  0.465-  16 1.36  63 1.43  59 1.44
  62  0.311  0.842  0.458-  60 1.38  15 1.40  64 1.42
  63  0.356  0.605  0.460-  64 1.32  65 1.42  61 1.43
  64  0.357  0.767  0.456-  63 1.32  62 1.42  66 1.49
  65  0.399  0.519  0.470-  20 1.40  63 1.42  67 1.44
  66  0.402  0.854  0.466-  19 1.34  68 1.41  64 1.49
  67  0.444  0.601  0.478-  68 1.40  69 1.43  65 1.44
  68  0.446  0.772  0.473-  70 1.40  67 1.40  66 1.41
  69  0.484  0.521  0.496-  24 1.37  71 1.42  67 1.43
  70  0.487  0.852  0.486-  23 1.40  68 1.40  72 1.42
  71  0.527  0.604  0.504-  72 1.36  69 1.42  73 1.46
  72  0.529  0.769  0.498-  71 1.36  74 1.39  70 1.42
  73  0.568  0.521  0.522-  28 1.39  75 1.39  71 1.46
  74  0.570  0.845  0.512-  76 1.36  72 1.39  27 1.42
  75  0.610  0.606  0.531-  76 1.35  73 1.39  77 1.41
  76  0.611  0.769  0.523-  75 1.35  74 1.36  78 1.41
  77  0.652  0.528  0.545-  32 1.39  75 1.41  79 1.41
  78  0.653  0.855  0.534-  31 1.40  76 1.41  80 1.42
  79  0.697  0.604  0.548-  80 1.38  81 1.40  77 1.41
  80  0.696  0.774  0.546-  79 1.38  78 1.42  82 1.47
  81  0.742  0.529  0.551-  79 1.40  36 1.40  83 1.41
  82  0.742  0.862  0.542-  35 1.31  84 1.41  80 1.47
  83  0.786  0.608  0.550-  85 1.38  84 1.39  81 1.41
  84  0.785  0.776  0.543-  83 1.39  82 1.41  86 1.44
  85  0.830  0.529  0.545-  40 1.36  83 1.38  87 1.44
  86  0.829  0.860  0.534-  39 1.38  88 1.41  84 1.44
  87  0.875  0.610  0.540-  88 1.37  89 1.40  85 1.44
  88  0.874  0.778  0.535-  87 1.37  90 1.38  86 1.41
  89  0.917  0.531  0.528-  91 1.38  87 1.40  44 1.41
  90  0.915  0.861  0.525-  88 1.38  43 1.39  92 1.41
  91  0.959  0.608  0.518-  89 1.38  92 1.42  47 1.46  48 2.00
  92  0.959  0.784  0.516-  90 1.41  91 1.42  48 1.48  47 2.05
 
  LATTYP: Found a simple orthorhombic cell.
 ALAT       =     8.1000000000
 B/A-ratio  =     3.4629629630
 C/A-ratio  =     4.1358024691
  
  Lattice vectors:
  
 A1 = (   0.0000000000,  -8.1000000000,   0.0000000000)
 A2 = (  28.0500000000,   0.0000000000,   0.0000000000)
 A3 = (   0.0000000000,   0.0000000000,  33.5000000000)


Analysis of symmetry for initial positions (statically):
=====================================================================
 Subroutine PRICEL returns:
 Original cell was already a primitive cell.
 

 Routine SETGRP: Setting up the symmetry group for a 
 simple orthorhombic supercell.


 Subroutine GETGRP returns: Found  1 space group operations
 (whereof  1 operations were pure point group operations)
 out of a pool of  8 trial point group operations.


The static configuration has the point symmetry C_1 .


Analysis of symmetry for dynamics (positions and initial velocities):
=====================================================================
 Subroutine PRICEL returns:
 Original cell was already a primitive cell.
 

 Routine SETGRP: Setting up the symmetry group for a 
 simple orthorhombic supercell.


 Subroutine GETGRP returns: Found  1 space group operations
 (whereof  1 operations were pure point group operations)
 out of a pool of  8 trial point group operations.


The dynamic configuration has the point symmetry C_1 .


 Subroutine INISYM returns: Found  1 space group operations
 (whereof  1 operations are pure point group operations),
 and found     1 'primitive' translations


----------------------------------------------------------------------------------------

                                     Primitive cell                                     

  volume of cell :    7611.3675

  direct lattice vectors                    reciprocal lattice vectors
    28.050000000  0.000000000  0.000000000     0.035650624  0.000000000  0.000000000
     0.000000000  8.100000000  0.000000000     0.000000000  0.123456790  0.000000000
     0.000000000  0.000000000 33.500000000     0.000000000  0.000000000  0.029850746

  length of vectors
    28.050000000  8.100000000 33.500000000     0.035650624  0.123456790  0.029850746

  position of ions in fractional coordinates (direct lattice)
     0.002885002  0.104526296  0.486901493
     0.002394132  0.277362963  0.486582090
     0.047374688  0.020598889  0.479946269
     0.046895544  0.357320988  0.482889552
     0.088565419  0.103054321  0.466725373
     0.090175045  0.272250617  0.470814925
     0.133230303  0.023096914  0.458295522
     0.133894118  0.350628395  0.464680597
     0.177319430  0.101827778  0.450704478
     0.176509091  0.269251852  0.456408955
     0.222127986  0.017275062  0.449994030
     0.222103387  0.346964198  0.459722388
     0.266659537  0.099550494  0.454585075
     0.267378966  0.268522222  0.462211940
     0.311030660  0.014372593  0.459659701
     0.310904100  0.352028395  0.465298507
     0.354210339  0.093318025  0.471761194
     0.354332620  0.267833333  0.470626866
     0.399515152  0.015313704  0.474164179
     0.397461676  0.350907407  0.479570149
     0.439996435  0.100629877  0.487337313
     0.439372549  0.270266667  0.490889552
     0.485657754  0.020735556  0.495301493
     0.482527629  0.354166667  0.502316418
     0.525187166  0.102437160  0.510659701
     0.525322638  0.269033333  0.513277612
     0.568837790  0.019602469  0.516901493
     0.565664884  0.351577778  0.526979104
     0.610213904  0.104903210  0.531770149
     0.608848485  0.272946914  0.538468657
     0.653618538  0.026867407  0.539202985
     0.652010695  0.356900000  0.543797015
     0.695736185  0.107689630  0.546576119
     0.694941176  0.275501235  0.550095522
     0.740894831  0.023911605  0.544826866
     0.739821747  0.356407407  0.549143284
     0.783386809  0.111535432  0.536217910
     0.783686275  0.276372840  0.546217910
     0.827647059  0.027187037  0.526432836
     0.828670232  0.361981481  0.539919403
     0.870627451  0.113617778  0.519811940
     0.871051693  0.279924691  0.529197015
     0.913408200  0.026229259  0.513841791
     0.914563280  0.358245679  0.522982090
     0.955372549  0.109669877  0.502017910
     0.953975045  0.284134568  0.504247761
     0.008100178  0.602770370  0.502913433
     0.007826809  0.771050617  0.499146269
     0.049800357  0.518838272  0.493552239
     0.049233868  0.849769136  0.483229851
     0.094582531  0.600567901  0.483540299
     0.092690553  0.770519753  0.476558209
     0.135295187  0.518341975  0.471062687
     0.133914082  0.855020988  0.463916418
     0.179302674  0.598554321  0.461567164
     0.178303030  0.770718519  0.460776119
     0.222792157  0.512244444  0.457289552
     0.221964349  0.851230864  0.456134328
     0.266788235  0.597406173  0.456474627
     0.266725490  0.769796296  0.455379104
     0.311832086  0.519548148  0.464632836
     0.311084492  0.842011111  0.457916418
     0.356064171  0.604961728  0.460229851
     0.356912656  0.766820988  0.455841791
     0.398784314  0.519464198  0.470017910
     0.402156863  0.854054321  0.465743284
     0.443511586  0.600783951  0.478358209
     0.445889483  0.772387654  0.472776119
     0.483597148  0.520764198  0.495961194
     0.486869875  0.852367901  0.486435821
     0.527030303  0.604265432  0.504014925
     0.529219251  0.769313580  0.497567164
     0.568281640  0.520880247  0.521573134
     0.570142602  0.844870370  0.512286567
     0.609875223  0.606327160  0.531170149
     0.611475936  0.769083951  0.522605970
     0.651711230  0.528125926  0.544856716
     0.653344029  0.855141975  0.533573134
     0.696837790  0.604086420  0.548161194
     0.695757576  0.774416049  0.545782090
     0.741586453  0.528919753  0.551131343
     0.741604278  0.862433333  0.542373134
     0.786456328  0.607722222  0.549943284
     0.785475936  0.776230864  0.542740299
     0.829672014  0.528509877  0.545262687
     0.829468806  0.860362963  0.534489552
     0.875048128  0.610293827  0.540295522
     0.873878788  0.778154321  0.535262687
     0.916866310  0.531049383  0.528000000
     0.915333333  0.860672840  0.524997015
     0.959269162  0.608039506  0.518235821
     0.959358289  0.783687654  0.516173134

  ion indices of the primitive-cell ions
   primitive index   ion index
                 1           1
                 2           2
                 3           3
                 4           4
                 5           5
                 6           6
                 7           7
                 8           8
                 9           9
                10          10
                11          11
                12          12
                13          13
                14          14
                15          15
                16          16
                17          17
                18          18
                19          19
                20          20
                21          21
                22          22
                23          23
                24          24
                25          25
                26          26
                27          27
                28          28
                29          29
                30          30
                31          31
                32          32
                33          33
                34          34
                35          35
                36          36
                37          37
                38          38
                39          39
                40          40
                41          41
                42          42
                43          43
                44          44
                45          45
                46          46
                47          47
                48          48
                49          49
                50          50
                51          51
                52          52
                53          53
                54          54
                55          55
                56          56
                57          57
                58          58
                59          59
                60          60
                61          61
                62          62
                63          63
                64          64
                65          65
                66          66
                67          67
                68          68
                69          69
                70          70
                71          71
                72          72
                73          73
                74          74
                75          75
                76          76
                77          77
                78          78
                79          79
                80          80
                81          81
                82          82
                83          83
                84          84
                85          85
                86          86
                87          87
                88          88
                89          89
                90          90
                91          91
                92          92

----------------------------------------------------------------------------------------

 
 
 KPOINTS: K-Spacing Value to Generate K-Mesh: 0.03

Automatic generation of k-mesh.
 Grid dimensions read from file:
 generate k-points for:    1    4    1

 Generating k-lattice:

  Cartesian coordinates                     Fractional coordinates (reciprocal lattice)
     0.035650624  0.000000000  0.000000000     1.000000000  0.000000000  0.000000000
     0.000000000  0.030864198  0.000000000     0.000000000  0.250000000  0.000000000
     0.000000000  0.000000000  0.029850746     0.000000000  0.000000000  1.000000000

  Length of vectors
     0.035650624  0.030864198  0.029850746

  Shift w.r.t. Gamma in fractional coordinates (k-lattice)
     0.000000000  0.000000000  0.000000000

 
 Subroutine IBZKPT returns following result:
 ===========================================
 
 Found      3 irreducible k-points:
 
 Following reciprocal coordinates:
            Coordinates               Weight
  0.000000  0.000000  0.000000      1.000000
  0.000000  0.250000  0.000000      2.000000
  0.000000  0.500000  0.000000      1.000000
 
 Following cartesian coordinates:
            Coordinates               Weight
  0.000000  0.000000  0.000000      1.000000
  0.000000  0.030864  0.000000      2.000000
  0.000000  0.061728  0.000000      1.000000
 


--------------------------------------------------------------------------------------------------------




 Dimension of arrays:
   k-points           NKPTS =      3   k-points in BZ     NKDIM =      3   number of bands    NBANDS=    232
   number of dos      NEDOS =    301   number of ions     NIONS =     92
   non local maximal  LDIM  =      4   non local SUM 2l+1 LMDIM =      8
   total plane-waves  NPLWV = ******
   max r-space proj   IRMAX =   1967   max aug-charges    IRDMAX=   5083
   dimension x,y,z NGX =   210 NGY =   60 NGZ =  250
   dimension x,y,z NGXF=   420 NGYF=  120 NGZF=  500
   support grid    NGXF=   420 NGYF=  120 NGZF=  500
   ions per type =              92
   NGX,Y,Z   is equivalent  to a cutoff of  12.45, 12.31, 12.41 a.u.
   NGXF,Y,Z  is equivalent  to a cutoff of  24.89, 24.63, 24.81 a.u.

 SYSTEM =  unknown system                          
 POSCAR =   C                                      

 Startparameter for this run:
   NWRITE =      2    write-flag & timer
   PREC   = accura    normal or accurate (medium, high low for compatibility)
   ISTART =      0    job   : 0-new  1-cont  2-samecut
   ICHARG =      2    charge: 1-file 2-atom 10-const
   ISPIN  =      1    spin polarized calculation?
   LNONCOLLINEAR =      F non collinear calculations
   LSORBIT =      F    spin-orbit coupling
   INIWAV =      1    electr: 0-lowe 1-rand  2-diag
   LASPH  =      F    aspherical Exc in radial PAW
 Electronic Relaxation 1
   ENCUT  =  500.0 eV  36.75 Ry    6.06 a.u.  51.14 14.77 61.08*2*pi/ulx,y,z
   ENINI  =  500.0     initial cutoff
   ENAUG  =  644.9 eV  augmentation charge cutoff
   NELM   =    150;   NELMIN=  2; NELMDL= -5     # of ELM steps 
   EDIFF  = 0.1E-05   stopping-criterion for ELM
   LREAL  =      T    real-space projection
   NLSPLINE    = F    spline interpolate recip. space projectors
   LCOMPAT=      F    compatible to vasp.4.4
   GGA_COMPAT  = T    GGA compatible to vasp.4.4-vasp.4.6
   LMAXPAW     = -100 max onsite density
   LMAXMIX     =    2 max onsite mixed and CHGCAR
   VOSKOWN=      0    Vosko Wilk Nusair interpolation
   ROPT   =   -0.00025
 Ionic relaxation
   EDIFFG = 0.1E-04   stopping-criterion for IOM
   NSW    =      0    number of steps for IOM
   NBLOCK =      1;   KBLOCK =      1    inner block; outer block 
   IBRION =     -1    ionic relax: 0-MD 1-quasi-New 2-CG
   NFREE  =      0    steps in history (QN), initial steepest desc. (CG)
   ISIF   =      2    stress and relaxation
   IWAVPR =     10    prediction:  0-non 1-charg 2-wave 3-comb
   ISYM   =      2    0-nonsym 1-usesym 2-fastsym
   LCORR  =      T    Harris-Foulkes like correction to forces

   POTIM  = 0.5000    time-step for ionic-motion
   TEIN   =    0.0    initial temperature
   TEBEG  =    0.0;   TEEND  =   0.0 temperature during run
   SMASS  =  -3.00    Nose mass-parameter (am)
   estimated Nose-frequenzy (Omega)   =  0.10E-29 period in steps = 0.13E+47 mass=  -0.180E-25a.u.
   SCALEE = 1.0000    scale energy and forces
   NPACO  =    256;   APACO  = 10.0  distance and # of slots for P.C.
   PSTRESS=    0.0 pullay stress

  Mass of Ions in am
   POMASS =  12.01
  Ionic Valenz
   ZVAL   =   4.00
  Atomic Wigner-Seitz radii
   RWIGS  =  -1.00
  virtual crystal weights 
   VCA    =   1.00
   NELECT =     368.0000    total number of electrons
   NUPDOWN=      -1.0000    fix difference up-down

 DOS related values:
   EMIN   =  10.00;   EMAX   =-10.00  energy-range for DOS
   EFERMI =   0.00;   METHOD = LEGACY      
   ISMEAR =     0;   SIGMA  =   0.20  broadening in eV -4-tet -1-fermi 0-gaus
   EFERMI_NEDOS =   21; number of points for ismear=-14 and -15

 Electronic relaxation 2 (details)
   IALGO  =     38    algorithm
   LDIAG  =      T    sub-space diagonalisation (order eigenvalues)
   LSUBROT=      F    optimize rotation matrix (better conditioning)
   TURBO    =      0    0=normal 1=particle mesh
   IRESTART =      0    0=no restart 2=restart with 2 vectors
   NREBOOT  =      0    no. of reboots
   NMIN     =      0    reboot dimension
   EREF     =   0.00    reference energy to select bands
   IMIX   =      4    mixing-type and parameters
     AMIX     =   0.40;   BMIX     =  1.00
     AMIX_MAG =   1.60;   BMIX_MAG =  1.00
     AMIN     =   0.10
     WC   =   100.;   INIMIX=   1;  MIXPRE=   1;  MAXMIX= -45

 Intra band minimization:
   WEIMIN = 0.0000     energy-eigenvalue tresh-hold
   EBREAK =  0.11E-08  absolut break condition
   DEPER  =   0.30     relativ break condition  

   TIME   =   0.40     timestep for ELM

  volume/ion in A,a.u.               =      82.73       558.30
  Fermi-wavevector in a.u.,A,eV,Ry     =   0.596398  1.127030  4.839472  0.355691
  Thomas-Fermi vector in A             =   1.646729
 
 Write flags
   LWAVE        =      F    write WAVECAR
   LDOWNSAMPLE  =      F    k-point downsampling of WAVECAR
   LCHARG       =      F    write CHGCAR
   LVTOT        =      F    write LOCPOT, total local potential
   LVHAR        =      F    write LOCPOT, Hartree potential only
   WRT_POTENTIAL= false  ! write potential to hdf5 file
   LELF         =      F    write electronic localiz. function (ELF)
   LORBIT       =      0    0 simple, 1 ext, 2 COOP (PROOUT), +10 PAW based schemes


 Python interface
   PLUGINS active      =      F    recompile with -DPLUGINS to activate
 
 Dipole corrections
   LMONO      =      F    monopole corrections only (constant potential shift)
   LDIPOL     =      F    correct potential (dipole corrections)
   IDIPOL     =      0    1-x, 2-y, 3-z, 4-all directions 
   EPSILON    =  1.0000000 bulk dielectric constant
   LVACPOTAV  =      F  vacuum potentials using an averaging scheme for the charge density
   VACPOTFLAT =  0.1000000 required flatness to determine vacuum potential
 
Coulomb truncation method
  LTRUNCATE          =      F  Coulomb kernel truncation to be used
  IDIMENSIONALITY    =      3  Dimensionality of cutoff (0 molecules / 2 surfaces)
  ISURFACE           =     -1  Direction of surface normal
  LCOARSEN           =      F  Coarsen the charge grid before padding, preferred

 
 Exchange correlation treatment:
   GGA     = PE    functional components
   XC_C    = 1    coefficients multiplying the functional components
   LIBXC   =     F    Libxc                    
   VOSKOWN =     0    Vosko Wilk Nusair interpolation
   LHFCALC =     F    Hartree Fock is set to
   LHFONE  =     F    Hartree Fock one center treatment
   AEXX    =    0.0000 exact exchange contribution

 Parameters of functionals:
   PE:
     No parameter
 
 Van der Waals corrections
   IVDW    =     0    specifies the selected vdW correction

 Linear response parameters
   LEPSILON=     F    determine dielectric tensor
   LRPA    =     F    only Hartree local field effects (RPA)
   LNABLA  =     F    use nabla operator in PAW spheres
   LVEL    =     F    velocity operator in full k-point grid
   CSHIFT  =0.1000    complex shift for real part using Kramers Kronig
   OMEGAMAX=  -1.0    maximum frequency
   DEG_THRESHOLD= 0.2000000E-02 threshold for treating states as degnerate
   RTIME   =   -0.100 relaxation time in fs
  (WPLASMAI=    0.000 imaginary part of plasma frequency in eV, 0.658/RTIME)
   DFIELD  = 0.0000000 0.0000000 0.0000000 field for delta impulse in time
 
  Optional k-point grid parameters
   LKPOINTS_OPT  =     F    use optional k-point grid
   KPOINTS_OPT_MODE=     1    mode for optional k-point grid
 
 Orbital magnetization related:
   ORBITALMAG=     F  switch on orbital magnetization
   LCHIMAG   =     F  perturbation theory with respect to B field
   DQ        =  0.001000  dq finite difference perturbation B field
   LLRAUG    =     F  two centre corrections for induced B field
   LBONE     =     F  B-component reconstruction in AE one-centre
   LVGVCALC  =     T  calculate vGv susceptibility
   LVGVAPPL  =     F  apply vGv susceptibility instead of pGv for G=0

 Random number generation:
   RANDOM_GENERATOR = DEFAULT
   PCG_SEED         = not used


--------------------------------------------------------------------------------------------------------


 Static calculation
 charge density and potential will be updated during run
 non-spin polarized calculation
 Variant of blocked Davidson
 Davidson routine will perform the subspace rotation
 perform sub-space diagonalisation
    after iterative eigenvector-optimisation
 modified Broyden-mixing scheme, WC =      100.0
 initial mixing is a Kerker type mixing with AMIX =  0.4000 and BMIX =      1.0000
 Hartree-type preconditioning will be used
 using additional bands            48
 real space projection scheme for non local part
 use partial core corrections
 calculate Harris-corrections to forces 
   (improved forces if not selfconsistent)
 use gradient corrections 
 use of overlap-Matrix (Vanderbilt PP)
 Gauss-broadening in eV      SIGMA  =   0.20


--------------------------------------------------------------------------------------------------------


  energy-cutoff  :      500.00
  volume of cell :     7611.37
      direct lattice vectors                 reciprocal lattice vectors
    28.050000000  0.000000000  0.000000000     0.035650624  0.000000000  0.000000000
     0.000000000  8.100000000  0.000000000     0.000000000  0.123456790  0.000000000
     0.000000000  0.000000000 33.500000000     0.000000000  0.000000000  0.029850746

  length of vectors
    28.050000000  8.100000000 33.500000000     0.035650624  0.123456790  0.029850746


 
 k-points in units of 2pi/SCALE and weight: K-Spacing Value to Generate K-Mesh: 0.03
   0.00000000  0.00000000  0.00000000       0.250
   0.00000000  0.03086420  0.00000000       0.500
   0.00000000  0.06172840  0.00000000       0.250
 
 k-points in reciprocal lattice and weights: K-Spacing Value to Generate K-Mesh: 0.03
   0.00000000  0.00000000  0.00000000       0.250
   0.00000000  0.25000000  0.00000000       0.500
   0.00000000  0.50000000  0.00000000       0.250
 
 position of ions in fractional coordinates (direct lattice) 
   0.00288500  0.10452630  0.48690149
   0.00239413  0.27736296  0.48658209
   0.04737469  0.02059889  0.47994627
   0.04689554  0.35732099  0.48288955
   0.08856542  0.10305432  0.46672537
   0.09017504  0.27225062  0.47081493
   0.13323030  0.02309691  0.45829552
   0.13389412  0.35062840  0.46468060
   0.17731943  0.10182778  0.45070448
   0.17650909  0.26925185  0.45640896
   0.22212799  0.01727506  0.44999403
   0.22210339  0.34696420  0.45972239
   0.26665954  0.09955049  0.45458507
   0.26737897  0.26852222  0.46221194
   0.31103066  0.01437259  0.45965970
   0.31090410  0.35202840  0.46529851
   0.35421034  0.09331802  0.47176119
   0.35433262  0.26783333  0.47062687
   0.39951515  0.01531370  0.47416418
   0.39746168  0.35090741  0.47957015
   0.43999643  0.10062988  0.48733731
   0.43937255  0.27026667  0.49088955
   0.48565775  0.02073556  0.49530149
   0.48252763  0.35416667  0.50231642
   0.52518717  0.10243716  0.51065970
   0.52532264  0.26903333  0.51327761
   0.56883779  0.01960247  0.51690149
   0.56566488  0.35157778  0.52697910
   0.61021390  0.10490321  0.53177015
   0.60884848  0.27294691  0.53846866
   0.65361854  0.02686741  0.53920299
   0.65201070  0.35690000  0.54379701
   0.69573619  0.10768963  0.54657612
   0.69494118  0.27550123  0.55009552
   0.74089483  0.02391160  0.54482687
   0.73982175  0.35640741  0.54914328
   0.78338681  0.11153543  0.53621791
   0.78368627  0.27637284  0.54621791
   0.82764706  0.02718704  0.52643284
   0.82867023  0.36198148  0.53991940
   0.87062745  0.11361778  0.51981194
   0.87105169  0.27992469  0.52919701
   0.91340820  0.02622926  0.51384179
   0.91456328  0.35824568  0.52298209
   0.95537255  0.10966988  0.50201791
   0.95397504  0.28413457  0.50424776
   0.00810018  0.60277037  0.50291343
   0.00782681  0.77105062  0.49914627
   0.04980036  0.51883827  0.49355224
   0.04923387  0.84976914  0.48322985
   0.09458253  0.60056790  0.48354030
   0.09269055  0.77051975  0.47655821
   0.13529519  0.51834198  0.47106269
   0.13391408  0.85502099  0.46391642
   0.17930267  0.59855432  0.46156716
   0.17830303  0.77071852  0.46077612
   0.22279216  0.51224444  0.45728955
   0.22196435  0.85123086  0.45613433
   0.26678824  0.59740617  0.45647463
   0.26672549  0.76979630  0.45537910
   0.31183209  0.51954815  0.46463284
   0.31108449  0.84201111  0.45791642
   0.35606417  0.60496173  0.46022985
   0.35691266  0.76682099  0.45584179
   0.39878431  0.51946420  0.47001791
   0.40215686  0.85405432  0.46574328
   0.44351159  0.60078395  0.47835821
   0.44588948  0.77238765  0.47277612
   0.48359715  0.52076420  0.49596119
   0.48686988  0.85236790  0.48643582
   0.52703030  0.60426543  0.50401493
   0.52921925  0.76931358  0.49756716
   0.56828164  0.52088025  0.52157313
   0.57014260  0.84487037  0.51228657
   0.60987522  0.60632716  0.53117015
   0.61147594  0.76908395  0.52260597
   0.65171123  0.52812593  0.54485672
   0.65334403  0.85514198  0.53357313
   0.69683779  0.60408642  0.54816119
   0.69575758  0.77441605  0.54578209
   0.74158645  0.52891975  0.55113134
   0.74160428  0.86243333  0.54237313
   0.78645633  0.60772222  0.54994328
   0.78547594  0.77623086  0.54274030
   0.82967201  0.52850988  0.54526269
   0.82946881  0.86036296  0.53448955
   0.87504813  0.61029383  0.54029552
   0.87387879  0.77815432  0.53526269
   0.91686631  0.53104938  0.52800000
   0.91533333  0.86067284  0.52499701
   0.95926916  0.60803951  0.51823582
   0.95935829  0.78368765  0.51617313
 
 position of ions in cartesian coordinates  (Angst):
   0.08092430  0.84666300 16.31120000
   0.06715540  2.24664000 16.30050000
   1.32886000  0.16685100 16.07820000
   1.31542000  2.89430000 16.17680000
   2.48426000  0.83474000 15.63530000
   2.52941000  2.20523000 15.77230000
   3.73711000  0.18708500 15.35290000
   3.75573000  2.84009000 15.56680000
   4.97381000  0.82480500 15.09860000
   4.95108000  2.18094000 15.28970000
   6.23069000  0.13992800 15.07480000
   6.23000000  2.81041000 15.40070000
   7.47980000  0.80635900 15.22860000
   7.49998000  2.17503000 15.48410000
   8.72441000  0.11641800 15.39860000
   8.72086000  2.85143000 15.58750000
   9.93560000  0.75587600 15.80400000
   9.93903000  2.16945000 15.76600000
  11.20640000  0.12404100 15.88450000
  11.14880000  2.84235000 16.06560000
  12.34190000  0.81510200 16.32580000
  12.32440000  2.18916000 16.44480000
  13.62270000  0.16795800 16.59260000
  13.53490000  2.86875000 16.82760000
  14.73150000  0.82974100 17.10710000
  14.73530000  2.17917000 17.19480000
  15.95590000  0.15878000 17.31620000
  15.86690000  2.84778000 17.65380000
  17.11650000  0.84971600 17.81430000
  17.07820000  2.21087000 18.03870000
  18.33400000  0.21762600 18.06330000
  18.28890000  2.89089000 18.21720000
  19.51540000  0.87228600 18.31030000
  19.49310000  2.23156000 18.42820000
  20.78210000  0.19368400 18.25170000
  20.75200000  2.88690000 18.39630000
  21.97400000  0.90343700 17.96330000
  21.98240000  2.23862000 18.29830000
  23.21550000  0.22021500 17.63550000
  23.24420000  2.93205000 18.08730000
  24.42110000  0.92030400 17.41370000
  24.43300000  2.26739000 17.72810000
  25.62110000  0.21245700 17.21370000
  25.65350000  2.90179000 17.51990000
  26.79820000  0.88832600 16.81760000
  26.75900000  2.30149000 16.89230000
   0.22721000  4.88244000 16.84760000
   0.21954200  6.24551000 16.72140000
   1.39690000  4.20259000 16.53400000
   1.38101000  6.88313000 16.18820000
   2.65304000  4.86460000 16.19860000
   2.59997000  6.24121000 15.96470000
   3.79503000  4.19857000 15.78060000
   3.75629000  6.92567000 15.54120000
   5.02944000  4.84829000 15.46250000
   5.00140000  6.24282000 15.43600000
   6.24932000  4.14918000 15.31920000
   6.22610000  6.89497000 15.28050000
   7.48341000  4.83899000 15.29190000
   7.48165000  6.23535000 15.25520000
   8.74689000  4.20834000 15.56520000
   8.72592000  6.82029000 15.34020000
   9.98760000  4.90019000 15.41770000
  10.01140000  6.21125000 15.27070000
  11.18590000  4.20766000 15.74560000
  11.28050000  6.91784000 15.60240000
  12.44050000  4.86635000 16.02500000
  12.50720000  6.25634000 15.83800000
  13.56490000  4.21819000 16.61470000
  13.65670000  6.90418000 16.29560000
  14.78320000  4.89455000 16.88450000
  14.84460000  6.23144000 16.66850000
  15.94030000  4.21913000 17.47270000
  15.99250000  6.84345000 17.16160000
  17.10700000  4.91125000 17.79420000
  17.15190000  6.22958000 17.50730000
  18.28050000  4.27782000 18.25270000
  18.32630000  6.92665000 17.87470000
  19.54630000  4.89310000 18.36340000
  19.51600000  6.27277000 18.28370000
  20.80150000  4.28425000 18.46290000
  20.80200000  6.98571000 18.16950000
  22.06010000  4.92255000 18.42310000
  22.03260000  6.28747000 18.18180000
  23.27230000  4.28093000 18.26630000
  23.26660000  6.96894000 17.90540000
  24.54510000  4.94338000 18.09990000
  24.51230000  6.30305000 17.93130000
  25.71810000  4.30150000 17.68800000
  25.67510000  6.97145000 17.58740000
  26.90750000  4.92512000 17.36090000
  26.91000000  6.34787000 17.29180000
 


--------------------------------------------------------------------------------------------------------


 k-point     1 :   0.0000 0.0000 0.0000  plane waves:  193173
 k-point     2 :   0.0000 0.2500 0.0000  plane waves:  193166
 k-point     3 :   0.0000 0.5000 0.0000  plane waves:  193226

 maximum and minimum number of plane-waves per node :    193226   193166

 maximum number of plane-waves:    193226
 maximum index in each direction: 
   IXMAX=   51   IYMAX=   14   IZMAX=   61
   IXMIN=  -51   IYMIN=  -15   IZMIN=  -61


 serial   3D FFT for wavefunctions
 parallel 3D FFT for charge:
    minimum data exchange during FFTs selected (reduces bandwidth)


 total amount of memory used by VASP MPI-rank0  2294508. kBytes
=======================================================================

   base                                    :      30000. kBytes
   nonlr-proj                              :      15074. kBytes
   fftplans                                :     436558. kBytes
   grid                                    :     732614. kBytes
   one-center                              :        282. kBytes
   wavefun                                 :    1079980. kBytes
 
     INWAV:  cpu time      0.0000: real time      0.0000
 Broyden mixing: mesh for mixing (old mesh)
   NGX =103   NGY = 29   NGZ =123
  (NGX  =420   NGY  =120   NGZ  =500)
  gives a total of 367401 points

 initial charge density was supplied:
 charge density of overlapping atoms calculated
 number of electron     368.0000000 magnetization 
 keeping initial charge density in first step


--------------------------------------------------------------------------------------------------------


 Maximum index for non-local projection operator          1872
 Maximum index for augmentation-charges          2388 (set IRDMAX)


--------------------------------------------------------------------------------------------------------


 First call to EWALD:  gamma=   0.090
 Maximum number of real-space cells   2x   6x   2
 Maximum number of reciprocal cells   4x   1x   4

    FEWALD:  cpu time      0.1594: real time      0.1595


--------------------------------------- Ionic step        1  -------------------------------------------




--------------------------------------- Iteration      1(   1)  ---------------------------------------


    POTLOK:  cpu time      0.4188: real time      0.4457
    SETDIJ:  cpu time      0.0419: real time      0.0419
     EDDAV:  cpu time     11.1486: real time     11.1546
       DOS:  cpu time      0.0008: real time      0.0008
    --------------------------------------------
      LOOP:  cpu time     11.6101: real time     11.6430

 eigenvalue-minimisations  :  1728
 total energy-change (2. order) : 0.3627796E+04  (-0.1197503E+05)
 number of electron     368.0000000 magnetization 
 augmentation part      368.0000000 magnetization 

 Free energy of the ion-electron system (eV)
  ---------------------------------------------------
  alpha Z        PSCENC =        91.34886789
  Ewald energy   TEWEN  =    119850.35845622
  -Hartree energ DENC   =   -129177.14112836
  -exchange      EXHF   =         0.00000000
  -V(xc)+E(xc)   XCENC  =      1221.53381795
  PAW double counting   =      9984.02826696   -10036.41360137
  entropy T*S    EENTRO =        -0.89286032
  eigenvalues    EBANDS =     -1842.68090336
  atomic energy  EATOM  =     13537.65479391
  Solvation  Ediel_sol  =         0.00000000
  ---------------------------------------------------
  free energy    TOTEN  =      3627.79570953 eV

  energy without entropy =     3628.68856985  energy(sigma->0) =     3628.24213969


--------------------------------------------------------------------------------------------------------




--------------------------------------- Iteration      1(   2)  ---------------------------------------


     EDDAV:  cpu time     13.0770: real time     13.0817
       DOS:  cpu time      0.0007: real time      0.0007
    --------------------------------------------
      LOOP:  cpu time     13.0777: real time     13.0824

 eigenvalue-minimisations  :  2136
 total energy-change (2. order) :-0.3458865E+04  (-0.3197861E+04)
 number of electron     368.0000000 magnetization 
 augmentation part      368.0000000 magnetization 

 Free energy of the ion-electron system (eV)
  ---------------------------------------------------
  alpha Z        PSCENC =        91.34886789
  Ewald energy   TEWEN  =    119850.35845622
  -Hartree energ DENC   =   -129177.14112836
  -exchange      EXHF   =         0.00000000
  -V(xc)+E(xc)   XCENC  =      1221.53381795
  PAW double counting   =      9984.02826696   -10036.41360137
  entropy T*S    EENTRO =        -0.16780045
  eigenvalues    EBANDS =     -5302.27127216
  atomic energy  EATOM  =     13537.65479391
  Solvation  Ediel_sol  =         0.00000000
  ---------------------------------------------------
  free energy    TOTEN  =       168.93040059 eV

  energy without entropy =      169.09820105  energy(sigma->0) =      169.01430082


--------------------------------------------------------------------------------------------------------




--------------------------------------- Iteration      1(   3)  ---------------------------------------


     EDDAV:  cpu time     11.3464: real time     11.3504
       DOS:  cpu time      0.0007: real time      0.0007
    --------------------------------------------
      LOOP:  cpu time     11.3471: real time     11.3512

 eigenvalue-minimisations  :  1800
 total energy-change (2. order) :-0.1003361E+04  (-0.9809772E+03)
 number of electron     368.0000000 magnetization 
 augmentation part      368.0000000 magnetization 

 Free energy of the ion-electron system (eV)
  ---------------------------------------------------
  alpha Z        PSCENC =        91.34886789
  Ewald energy   TEWEN  =    119850.35845622
  -Hartree energ DENC   =   -129177.14112836
  -exchange      EXHF   =         0.00000000
  -V(xc)+E(xc)   XCENC  =      1221.53381795
  PAW double counting   =      9984.02826696   -10036.41360137
  entropy T*S    EENTRO =        -0.01775565
  eigenvalues    EBANDS =     -6305.78196091
  atomic energy  EATOM  =     13537.65479391
  Solvation  Ediel_sol  =         0.00000000
  ---------------------------------------------------
  free energy    TOTEN  =      -834.43024335 eV

  energy without entropy =     -834.41248770  energy(sigma->0) =     -834.42136552


--------------------------------------------------------------------------------------------------------




--------------------------------------- Iteration      1(   4)  ---------------------------------------


     EDDAV:  cpu time     10.9658: real time     10.9695
       DOS:  cpu time      0.0007: real time      0.0007
    --------------------------------------------
      LOOP:  cpu time     10.9664: real time     10.9702

 eigenvalue-minimisations  :  1728
 total energy-change (2. order) :-0.6169643E+02  (-0.6063466E+02)
 number of electron     368.0000000 magnetization 
 augmentation part      368.0000000 magnetization 

 Free energy of the ion-electron system (eV)
  ---------------------------------------------------
  alpha Z        PSCENC =        91.34886789
  Ewald energy   TEWEN  =    119850.35845622
  -Hartree energ DENC   =   -129177.14112836
  -exchange      EXHF   =         0.00000000
  -V(xc)+E(xc)   XCENC  =      1221.53381795
  PAW double counting   =      9984.02826696   -10036.41360137
  entropy T*S    EENTRO =        -0.05750866
  eigenvalues    EBANDS =     -6367.43863656
  atomic energy  EATOM  =     13537.65479391
  Solvation  Ediel_sol  =         0.00000000
  ---------------------------------------------------
  free energy    TOTEN  =      -896.12667201 eV

  energy without entropy =     -896.06916335  energy(sigma->0) =     -896.09791768


--------------------------------------------------------------------------------------------------------




--------------------------------------- Iteration      1(   5)  ---------------------------------------


     EDDAV:  cpu time     11.0673: real time     11.0712
       DOS:  cpu time      0.0007: real time      0.0007
    CHARGE:  cpu time      1.2080: real time      1.2097
    MIXING:  cpu time      0.2737: real time      0.2746
    --------------------------------------------
      LOOP:  cpu time     12.5497: real time     12.5562

 eigenvalue-minimisations  :  1752
 total energy-change (2. order) :-0.1507646E+01  (-0.1485003E+01)
 number of electron     367.9999992 magnetization 
 augmentation part       10.1507374 magnetization 

 Broyden mixing:
  rms(total) = 0.45451E+01    rms(broyden)= 0.45446E+01
  rms(prec ) = 0.46624E+01
  weight for this iteration     100.00

 Free energy of the ion-electron system (eV)
  ---------------------------------------------------
  alpha Z        PSCENC =        91.34886789
  Ewald energy   TEWEN  =    119850.35845622
  -Hartree energ DENC   =   -129177.14112836
  -exchange      EXHF   =         0.00000000
  -V(xc)+E(xc)   XCENC  =      1221.53381795
  PAW double counting   =      9984.02826696   -10036.41360137
  entropy T*S    EENTRO =        -0.06009941
  eigenvalues    EBANDS =     -6368.94369190
  atomic energy  EATOM  =     13537.65479391
  Solvation  Ediel_sol  =         0.00000000
  ---------------------------------------------------
  free energy    TOTEN  =      -897.63431810 eV

  energy without entropy =     -897.57421869  energy(sigma->0) =     -897.60426839


--------------------------------------------------------------------------------------------------------




--------------------------------------- Iteration      1(   6)  ---------------------------------------


    POTLOK:  cpu time      0.3233: real time      0.3231
    SETDIJ:  cpu time      0.0402: real time      0.0402
     EDDAV:  cpu time     10.2508: real time     10.2544
       DOS:  cpu time      0.0007: real time      0.0007
    CHARGE:  cpu time      1.1615: real time      1.1618
    MIXING:  cpu time      0.2785: real time      0.2786
    --------------------------------------------
      LOOP:  cpu time     12.0550: real time     12.0588

 eigenvalue-minimisations  :  1584
 total energy-change (2. order) : 0.4946526E+02  (-0.4725034E+01)
 number of electron     367.9999992 magnetization 
 augmentation part        9.7264615 magnetization 

 Broyden mixing:
  rms(total) = 0.26692E+01    rms(broyden)= 0.26692E+01
  rms(prec ) = 0.27273E+01
  weight for this iteration     100.00

 eigenvalues of (default mixing * dielectric matrix)
  average eigenvalue GAMMA=   2.1824
  2.1824

 Free energy of the ion-electron system (eV)
  ---------------------------------------------------
  alpha Z        PSCENC =        91.34886789
  Ewald energy   TEWEN  =    119850.35845622
  -Hartree energ DENC   =   -129747.44284698
  -exchange      EXHF   =         0.00000000
  -V(xc)+E(xc)   XCENC  =      1244.82757604
  PAW double counting   =     18935.88700778   -18995.88108531
  entropy T*S    EENTRO =        -0.06987038
  eigenvalues    EBANDS =     -5764.85195901
  atomic energy  EATOM  =     13537.65479391
  Solvation  Ediel_sol  =         0.00000000
  ---------------------------------------------------
  free energy    TOTEN  =      -848.16905984 eV

  energy without entropy =     -848.09918945  energy(sigma->0) =     -848.13412464


--------------------------------------------------------------------------------------------------------




--------------------------------------- Iteration      1(   7)  ---------------------------------------


    POTLOK:  cpu time      0.3231: real time      0.3230
    SETDIJ:  cpu time      0.0400: real time      0.0400
     EDDAV:  cpu time     10.0812: real time     10.0847
       DOS:  cpu time      0.0007: real time      0.0007
    CHARGE:  cpu time      1.1562: real time      1.1561
    MIXING:  cpu time      0.2795: real time      0.2796
    --------------------------------------------
      LOOP:  cpu time     11.8807: real time     11.8841

 eigenvalue-minimisations  :  1552
 total energy-change (2. order) : 0.1845349E+02  (-0.6487979E+01)
 number of electron     367.9999992 magnetization 
 augmentation part        9.1733812 magnetization 

 Broyden mixing:
  rms(total) = 0.72954E+00    rms(broyden)= 0.72927E+00
  rms(prec ) = 0.73931E+00
  weight for this iteration     100.00

 eigenvalues of (default mixing * dielectric matrix)
  average eigenvalue GAMMA=   2.1922
  2.1922  2.1922

 Free energy of the ion-electron system (eV)
  ---------------------------------------------------
  alpha Z        PSCENC =        91.34886789
  Ewald energy   TEWEN  =    119850.35845622
  -Hartree energ DENC   =   -130511.94906466
  -exchange      EXHF   =         0.00000000
  -V(xc)+E(xc)   XCENC  =      1275.86614211
  PAW double counting   =     36538.26038815   -36605.15166844
  entropy T*S    EENTRO =        -0.08021266
  eigenvalues    EBANDS =     -5006.02327046
  atomic energy  EATOM  =     13537.65479391
  Solvation  Ediel_sol  =         0.00000000
  ---------------------------------------------------
  free energy    TOTEN  =      -829.71556794 eV

  energy without entropy =     -829.63535528  energy(sigma->0) =     -829.67546161


--------------------------------------------------------------------------------------------------------




--------------------------------------- Iteration      1(   8)  ---------------------------------------


    POTLOK:  cpu time      0.3224: real time      0.3224
    SETDIJ:  cpu time      0.0423: real time      0.0423
     EDDAV:  cpu time     10.4419: real time     10.4458
       DOS:  cpu time      0.0007: real time      0.0007
    CHARGE:  cpu time      1.1564: real time      1.1565
    MIXING:  cpu time      0.2809: real time      0.2820
    --------------------------------------------
      LOOP:  cpu time     12.2446: real time     12.2497

 eigenvalue-minimisations  :  1624
 total energy-change (2. order) : 0.2890218E+00  (-0.2373630E+00)
 number of electron     367.9999992 magnetization 
 augmentation part        9.1565121 magnetization 

 Broyden mixing:
  rms(total) = 0.98660E-01    rms(broyden)= 0.98628E-01
  rms(prec ) = 0.12112E+00
  weight for this iteration     100.00

 eigenvalues of (default mixing * dielectric matrix)
  average eigenvalue GAMMA=   1.8534
  1.1861  2.4312  1.9431

 Free energy of the ion-electron system (eV)
  ---------------------------------------------------
  alpha Z        PSCENC =        91.34886789
  Ewald energy   TEWEN  =    119850.35845622
  -Hartree energ DENC   =   -130606.86519345
  -exchange      EXHF   =         0.00000000
  -V(xc)+E(xc)   XCENC  =      1275.71407350
  PAW double counting   =     40770.25669171   -40834.51825866
  entropy T*S    EENTRO =        -0.07433203
  eigenvalues    EBANDS =     -4913.30164523
  atomic energy  EATOM  =     13537.65479391
  Solvation  Ediel_sol  =         0.00000000
  ---------------------------------------------------
  free energy    TOTEN  =      -829.42654615 eV

  energy without entropy =     -829.35221411  energy(sigma->0) =     -829.38938013


--------------------------------------------------------------------------------------------------------




--------------------------------------- Iteration      1(   9)  ---------------------------------------


    POTLOK:  cpu time      0.3226: real time      0.3226
    SETDIJ:  cpu time      0.0401: real time      0.0401
     EDDAV:  cpu time     10.5245: real time     10.5284
       DOS:  cpu time      0.0007: real time      0.0007
    CHARGE:  cpu time      1.1531: real time      1.1558
    MIXING:  cpu time      0.2861: real time      0.2862
    --------------------------------------------
      LOOP:  cpu time     12.3272: real time     12.3338

 eigenvalue-minimisations  :  1640
 total energy-change (2. order) : 0.1065282E+00  (-0.2346984E-01)
 number of electron     367.9999992 magnetization 
 augmentation part        9.1338199 magnetization 

 Broyden mixing:
  rms(total) = 0.56141E-01    rms(broyden)= 0.56133E-01
  rms(prec ) = 0.78026E-01
  weight for this iteration     100.00

 eigenvalues of (default mixing * dielectric matrix)
  average eigenvalue GAMMA=   1.7132
  2.2205  2.2205  1.0734  1.3386

 Free energy of the ion-electron system (eV)
  ---------------------------------------------------
  alpha Z        PSCENC =        91.34886789
  Ewald energy   TEWEN  =    119850.35845622
  -Hartree energ DENC   =   -130675.46567533
  -exchange      EXHF   =         0.00000000
  -V(xc)+E(xc)   XCENC  =      1277.06544267
  PAW double counting   =     41323.08859701   -41387.38158495
  entropy T*S    EENTRO =        -0.07628540
  eigenvalues    EBANDS =     -4845.91262998
  atomic energy  EATOM  =     13537.65479391
  Solvation  Ediel_sol  =         0.00000000
  ---------------------------------------------------
  free energy    TOTEN  =      -829.32001797 eV

  energy without entropy =     -829.24373257  energy(sigma->0) =     -829.28187527


--------------------------------------------------------------------------------------------------------




--------------------------------------- Iteration      1(  10)  ---------------------------------------


    POTLOK:  cpu time      0.3224: real time      0.3224
    SETDIJ:  cpu time      0.0403: real time      0.0403
     EDDAV:  cpu time     11.1195: real time     11.1235
       DOS:  cpu time      0.0008: real time      0.0008
    CHARGE:  cpu time      1.1575: real time      1.1586
    MIXING:  cpu time      0.2912: real time      0.2930
    --------------------------------------------
      LOOP:  cpu time     12.9317: real time     12.9386

 eigenvalue-minimisations  :  1760
 total energy-change (2. order) : 0.4143034E-01  (-0.4399738E-02)
 number of electron     367.9999992 magnetization 
 augmentation part        9.1247700 magnetization 

 Broyden mixing:
  rms(total) = 0.35591E-01    rms(broyden)= 0.35588E-01
  rms(prec ) = 0.54975E-01
  weight for this iteration     100.00

 eigenvalues of (default mixing * dielectric matrix)
  average eigenvalue GAMMA=   1.7098
  2.4420  2.4420  1.6316  1.1940  0.8394

 Free energy of the ion-electron system (eV)
  ---------------------------------------------------
  alpha Z        PSCENC =        91.34886789
  Ewald energy   TEWEN  =    119850.35845622
  -Hartree energ DENC   =   -130728.42606223
  -exchange      EXHF   =         0.00000000
  -V(xc)+E(xc)   XCENC  =      1277.43986647
  PAW double counting   =     41095.80340780   -41159.96210794
  entropy T*S    EENTRO =        -0.07643810
  eigenvalues    EBANDS =     -4793.41937166
  atomic energy  EATOM  =     13537.65479391
  Solvation  Ediel_sol  =         0.00000000
  ---------------------------------------------------
  free energy    TOTEN  =      -829.27858763 eV

  energy without entropy =     -829.20214953  energy(sigma->0) =     -829.24036858


--------------------------------------------------------------------------------------------------------




--------------------------------------- Iteration      1(  11)  ---------------------------------------


    POTLOK:  cpu time      0.3212: real time      0.3210
    SETDIJ:  cpu time      0.0405: real time      0.0405
     EDDAV:  cpu time     10.2470: real time     10.2507
       DOS:  cpu time      0.0007: real time      0.0007
    CHARGE:  cpu time      1.1707: real time      1.1705
    MIXING:  cpu time      0.2987: real time      0.2993
    --------------------------------------------
      LOOP:  cpu time     12.0788: real time     12.0828

 eigenvalue-minimisations  :  1584
 total energy-change (2. order) : 0.2804481E-01  (-0.2066939E-02)
 number of electron     367.9999992 magnetization 
 augmentation part        9.1196652 magnetization 

 Broyden mixing:
  rms(total) = 0.23414E-01    rms(broyden)= 0.23412E-01
  rms(prec ) = 0.37499E-01
  weight for this iteration     100.00

 eigenvalues of (default mixing * dielectric matrix)
  average eigenvalue GAMMA=   1.8113
  3.1784  2.4871  1.9363  0.9270  1.1694  1.1694

 Free energy of the ion-electron system (eV)
  ---------------------------------------------------
  alpha Z        PSCENC =        91.34886789
  Ewald energy   TEWEN  =    119850.35845622
  -Hartree energ DENC   =   -130790.07771000
  -exchange      EXHF   =         0.00000000
  -V(xc)+E(xc)   XCENC  =      1277.99919818
  PAW double counting   =     41051.67864045   -41115.74575975
  entropy T*S    EENTRO =        -0.07621312
  eigenvalues    EBANDS =     -4732.39081659
  atomic energy  EATOM  =     13537.65479391
  Solvation  Ediel_sol  =         0.00000000
  ---------------------------------------------------
  free energy    TOTEN  =      -829.25054281 eV

  energy without entropy =     -829.17432969  energy(sigma->0) =     -829.21243625


--------------------------------------------------------------------------------------------------------




--------------------------------------- Iteration      1(  12)  ---------------------------------------


    POTLOK:  cpu time      0.3210: real time      0.3210
    SETDIJ:  cpu time      0.0402: real time      0.0402
     EDDAV:  cpu time     10.0569: real time     10.0605
       DOS:  cpu time      0.0007: real time      0.0007
    CHARGE:  cpu time      1.1544: real time      1.1562
    MIXING:  cpu time      0.3049: real time      0.3069
    --------------------------------------------
      LOOP:  cpu time     11.8781: real time     11.8855

 eigenvalue-minimisations  :  1544
 total energy-change (2. order) : 0.3901179E-02  (-0.2510490E-02)
 number of electron     367.9999992 magnetization 
 augmentation part        9.1124827 magnetization 

 Broyden mixing:
  rms(total) = 0.14400E-01    rms(broyden)= 0.14396E-01
  rms(prec ) = 0.22098E-01
  weight for this iteration     100.00

 eigenvalues of (default mixing * dielectric matrix)
  average eigenvalue GAMMA=   2.0795
  4.9272  2.3573  2.1374  1.9886  0.9579  1.0940  1.0940

 Free energy of the ion-electron system (eV)
  ---------------------------------------------------
  alpha Z        PSCENC =        91.34886789
  Ewald energy   TEWEN  =    119850.35845622
  -Hartree energ DENC   =   -130859.85468395
  -exchange      EXHF   =         0.00000000
  -V(xc)+E(xc)   XCENC  =      1278.63982071
  PAW double counting   =     41085.78999428   -41149.83283030
  entropy T*S    EENTRO =        -0.07644634
  eigenvalues    EBANDS =     -4663.27461406
  atomic energy  EATOM  =     13537.65479391
  Solvation  Ediel_sol  =         0.00000000
  ---------------------------------------------------
  free energy    TOTEN  =      -829.24664163 eV

  energy without entropy =     -829.17019530  energy(sigma->0) =     -829.20841846


--------------------------------------------------------------------------------------------------------




--------------------------------------- Iteration      1(  13)  ---------------------------------------


    POTLOK:  cpu time      0.3217: real time      0.3217
    SETDIJ:  cpu time      0.0401: real time      0.0401
     EDDAV:  cpu time     10.2018: real time     10.2056
       DOS:  cpu time      0.0008: real time      0.0008
    CHARGE:  cpu time      1.1568: real time      1.1585
    MIXING:  cpu time      0.3152: real time      0.3157
    --------------------------------------------
      LOOP:  cpu time     12.0363: real time     12.0422

 eigenvalue-minimisations  :  1576
 total energy-change (2. order) :-0.1220923E-01  (-0.7343436E-03)
 number of electron     367.9999992 magnetization 
 augmentation part        9.1100086 magnetization 

 Broyden mixing:
  rms(total) = 0.81033E-02    rms(broyden)= 0.81015E-02
  rms(prec ) = 0.11632E-01
  weight for this iteration     100.00

 eigenvalues of (default mixing * dielectric matrix)
  average eigenvalue GAMMA=   2.1222
  5.5679  2.5263  2.5263  1.8964  1.1992  1.1992  0.9002  1.1623

 Free energy of the ion-electron system (eV)
  ---------------------------------------------------
  alpha Z        PSCENC =        91.34886789
  Ewald energy   TEWEN  =    119850.35845622
  -Hartree energ DENC   =   -130907.59346759
  -exchange      EXHF   =         0.00000000
  -V(xc)+E(xc)   XCENC  =      1278.81602535
  PAW double counting   =     41043.74546218   -41107.78783002
  entropy T*S    EENTRO =        -0.07627191
  eigenvalues    EBANDS =     -4615.72488688
  atomic energy  EATOM  =     13537.65479391
  Solvation  Ediel_sol  =         0.00000000
  ---------------------------------------------------
  free energy    TOTEN  =      -829.25885086 eV

  energy without entropy =     -829.18257895  energy(sigma->0) =     -829.22071491


--------------------------------------------------------------------------------------------------------




--------------------------------------- Iteration      1(  14)  ---------------------------------------


    POTLOK:  cpu time      0.3215: real time      0.3216
    SETDIJ:  cpu time      0.0404: real time      0.0404
     EDDAV:  cpu time     10.1775: real time     10.1826
       DOS:  cpu time      0.0007: real time      0.0007
    CHARGE:  cpu time      1.1556: real time      1.1599
    MIXING:  cpu time      0.3204: real time      0.3211
    --------------------------------------------
      LOOP:  cpu time     12.0160: real time     12.0263

 eigenvalue-minimisations  :  1568
 total energy-change (2. order) :-0.1995556E-01  (-0.1471476E-03)
 number of electron     367.9999992 magnetization 
 augmentation part        9.1089979 magnetization 

 Broyden mixing:
  rms(total) = 0.48967E-02    rms(broyden)= 0.48961E-02
  rms(prec ) = 0.70405E-02
  weight for this iteration     100.00

 eigenvalues of (default mixing * dielectric matrix)
  average eigenvalue GAMMA=   2.2191
  6.5103  3.0195  2.4761  1.9933  1.7340  1.1550  1.1550  0.9541  0.9743

 Free energy of the ion-electron system (eV)
  ---------------------------------------------------
  alpha Z        PSCENC =        91.34886789
  Ewald energy   TEWEN  =    119850.35845622
  -Hartree energ DENC   =   -130923.34186138
  -exchange      EXHF   =         0.00000000
  -V(xc)+E(xc)   XCENC  =      1278.83018136
  PAW double counting   =     41046.07629473   -41110.13268554
  entropy T*S    EENTRO =        -0.07638993
  eigenvalues    EBANDS =     -4599.99646368
  atomic energy  EATOM  =     13537.65479391
  Solvation  Ediel_sol  =         0.00000000
  ---------------------------------------------------
  free energy    TOTEN  =      -829.27880642 eV

  energy without entropy =     -829.20241649  energy(sigma->0) =     -829.24061146


--------------------------------------------------------------------------------------------------------




--------------------------------------- Iteration      1(  15)  ---------------------------------------


    POTLOK:  cpu time      0.3217: real time      0.3217
    SETDIJ:  cpu time      0.0403: real time      0.0403
     EDDAV:  cpu time     10.3078: real time     10.3146
       DOS:  cpu time      0.0007: real time      0.0007
    CHARGE:  cpu time      1.1561: real time      1.1565
    MIXING:  cpu time      0.3313: real time      0.3325
    --------------------------------------------
      LOOP:  cpu time     12.1579: real time     12.1664

 eigenvalue-minimisations  :  1592
 total energy-change (2. order) :-0.1854280E-01  (-0.1478304E-03)
 number of electron     367.9999992 magnetization 
 augmentation part        9.1088787 magnetization 

 Broyden mixing:
  rms(total) = 0.28813E-02    rms(broyden)= 0.28811E-02
  rms(prec ) = 0.39526E-02
  weight for this iteration     100.00

 eigenvalues of (default mixing * dielectric matrix)
  average eigenvalue GAMMA=   2.2890
  7.2554  3.6425  2.2937  2.2937  1.8135  1.2995  1.2995  1.0754  0.9582  0.9582

 Free energy of the ion-electron system (eV)
  ---------------------------------------------------
  alpha Z        PSCENC =        91.34886789
  Ewald energy   TEWEN  =    119850.35845622
  -Hartree energ DENC   =   -130932.19712426
  -exchange      EXHF   =         0.00000000
  -V(xc)+E(xc)   XCENC  =      1278.79725974
  PAW double counting   =     41046.78703292   -41110.83966429
  entropy T*S    EENTRO =        -0.07642017
  eigenvalues    EBANDS =     -4591.13055117
  atomic energy  EATOM  =     13537.65479391
  Solvation  Ediel_sol  =         0.00000000
  ---------------------------------------------------
  free energy    TOTEN  =      -829.29734923 eV

  energy without entropy =     -829.22092905  energy(sigma->0) =     -829.25913914


--------------------------------------------------------------------------------------------------------




--------------------------------------- Iteration      1(  16)  ---------------------------------------


    POTLOK:  cpu time      0.3208: real time      0.3208
    SETDIJ:  cpu time      0.0401: real time      0.0401
     EDDAV:  cpu time     10.4746: real time     10.4796
       DOS:  cpu time      0.0007: real time      0.0008
    CHARGE:  cpu time      1.1650: real time      1.1679
    MIXING:  cpu time      0.3401: real time      0.3401
    --------------------------------------------
      LOOP:  cpu time     12.3414: real time     12.3493

 eigenvalue-minimisations  :  1624
 total energy-change (2. order) :-0.8796638E-02  (-0.5355504E-04)
 number of electron     367.9999992 magnetization 
 augmentation part        9.1087440 magnetization 

 Broyden mixing:
  rms(total) = 0.18322E-02    rms(broyden)= 0.18321E-02
  rms(prec ) = 0.23579E-02
  weight for this iteration     100.00

 eigenvalues of (default mixing * dielectric matrix)
  average eigenvalue GAMMA=   2.3729
  8.0859  4.1629  2.4576  2.4576  1.9020  1.4879  1.4879  0.9357  0.9845  1.0699
  1.0699

 Free energy of the ion-electron system (eV)
  ---------------------------------------------------
  alpha Z        PSCENC =        91.34886789
  Ewald energy   TEWEN  =    119850.35845622
  -Hartree energ DENC   =   -130936.29175303
  -exchange      EXHF   =         0.00000000
  -V(xc)+E(xc)   XCENC  =      1278.78631007
  PAW double counting   =     41043.36329300   -41107.41404410
  entropy T*S    EENTRO =        -0.07638752
  eigenvalues    EBANDS =     -4587.03568228
  atomic energy  EATOM  =     13537.65479391
  Solvation  Ediel_sol  =         0.00000000
  ---------------------------------------------------
  free energy    TOTEN  =      -829.30614586 eV

  energy without entropy =     -829.22975834  energy(sigma->0) =     -829.26795210


--------------------------------------------------------------------------------------------------------




--------------------------------------- Iteration      1(  17)  ---------------------------------------


    POTLOK:  cpu time      0.3208: real time      0.3209
    SETDIJ:  cpu time      0.0401: real time      0.0402
     EDDAV:  cpu time     10.3892: real time     10.3937
       DOS:  cpu time      0.0008: real time      0.0008
    CHARGE:  cpu time      1.1578: real time      1.1585
    MIXING:  cpu time      0.3491: real time      0.3506
    --------------------------------------------
      LOOP:  cpu time     12.2578: real time     12.2647

 eigenvalue-minimisations  :  1608
 total energy-change (2. order) :-0.4503061E-02  (-0.2715201E-04)
 number of electron     367.9999992 magnetization 
 augmentation part        9.1086536 magnetization 

 Broyden mixing:
  rms(total) = 0.90339E-03    rms(broyden)= 0.90330E-03
  rms(prec ) = 0.12056E-02
  weight for this iteration     100.00

 eigenvalues of (default mixing * dielectric matrix)
  average eigenvalue GAMMA=   2.3885
  8.4496  4.6880  2.5097  2.5097  2.0108  1.4259  1.4259  1.4784  0.9524  1.0612
  1.0751  1.0751

 Free energy of the ion-electron system (eV)
  ---------------------------------------------------
  alpha Z        PSCENC =        91.34886789
  Ewald energy   TEWEN  =    119850.35845622
  -Hartree energ DENC   =   -130938.15810309
  -exchange      EXHF   =         0.00000000
  -V(xc)+E(xc)   XCENC  =      1278.78569424
  PAW double counting   =     41047.05130691   -41111.09950708
  entropy T*S    EENTRO =        -0.07640157
  eigenvalues    EBANDS =     -4585.17575634
  atomic energy  EATOM  =     13537.65479391
  Solvation  Ediel_sol  =         0.00000000
  ---------------------------------------------------
  free energy    TOTEN  =      -829.31064892 eV

  energy without entropy =     -829.23424735  energy(sigma->0) =     -829.27244814


--------------------------------------------------------------------------------------------------------




--------------------------------------- Iteration      1(  18)  ---------------------------------------


    POTLOK:  cpu time      0.3221: real time      0.3221
    SETDIJ:  cpu time      0.0403: real time      0.0403
     EDDAV:  cpu time      9.7772: real time      9.7807
       DOS:  cpu time      0.0008: real time      0.0008
    CHARGE:  cpu time      1.1561: real time      1.1580
    MIXING:  cpu time      0.3623: real time      0.3624
    --------------------------------------------
      LOOP:  cpu time     11.6589: real time     11.6643

 eigenvalue-minimisations  :  1480
 total energy-change (2. order) :-0.1726801E-02  (-0.5810426E-05)
 number of electron     367.9999992 magnetization 
 augmentation part        9.1085991 magnetization 

 Broyden mixing:
  rms(total) = 0.53443E-03    rms(broyden)= 0.53437E-03
  rms(prec ) = 0.70702E-03
  weight for this iteration     100.00

 eigenvalues of (default mixing * dielectric matrix)
  average eigenvalue GAMMA=   2.4435
  8.9226  5.1262  3.0201  2.3126  2.3126  1.8550  1.4773  1.4773  0.9540  0.9540
  1.0991  1.0991  1.1557

 Free energy of the ion-electron system (eV)
  ---------------------------------------------------
  alpha Z        PSCENC =        91.34886789
  Ewald energy   TEWEN  =    119850.35845622
  -Hartree energ DENC   =   -130938.85841800
  -exchange      EXHF   =         0.00000000
  -V(xc)+E(xc)   XCENC  =      1278.78525528
  PAW double counting   =     41046.44281099   -41110.49095252
  entropy T*S    EENTRO =        -0.07638767
  eigenvalues    EBANDS =     -4584.47680182
  atomic energy  EATOM  =     13537.65479391
  Solvation  Ediel_sol  =         0.00000000
  ---------------------------------------------------
  free energy    TOTEN  =      -829.31237573 eV

  energy without entropy =     -829.23598805  energy(sigma->0) =     -829.27418189


--------------------------------------------------------------------------------------------------------




--------------------------------------- Iteration      1(  19)  ---------------------------------------


    POTLOK:  cpu time      0.3212: real time      0.3212
    SETDIJ:  cpu time      0.0401: real time      0.0401
     EDDAV:  cpu time      9.0938: real time      9.0994
       DOS:  cpu time      0.0007: real time      0.0007
    CHARGE:  cpu time      1.1583: real time      1.1586
    MIXING:  cpu time      0.3727: real time      0.3742
    --------------------------------------------
      LOOP:  cpu time     10.9868: real time     10.9942

 eigenvalue-minimisations  :  1344
 total energy-change (2. order) :-0.9777856E-03  (-0.3326365E-05)
 number of electron     367.9999992 magnetization 
 augmentation part        9.1085996 magnetization 

 Broyden mixing:
  rms(total) = 0.31640E-03    rms(broyden)= 0.31638E-03
  rms(prec ) = 0.39108E-03
  weight for this iteration     100.00

 eigenvalues of (default mixing * dielectric matrix)
  average eigenvalue GAMMA=   2.4371
  8.9821  5.6532  3.2555  2.4088  2.4088  1.9697  1.3961  1.3961  1.3379  1.3379
  0.9563  0.9563  1.0304  1.0304

 Free energy of the ion-electron system (eV)
  ---------------------------------------------------
  alpha Z        PSCENC =        91.34886789
  Ewald energy   TEWEN  =    119850.35845622
  -Hartree energ DENC   =   -130939.17464082
  -exchange      EXHF   =         0.00000000
  -V(xc)+E(xc)   XCENC  =      1278.78381938
  PAW double counting   =     41045.89622431   -41109.94386206
  entropy T*S    EENTRO =        -0.07639316
  eigenvalues    EBANDS =     -4584.16061918
  atomic energy  EATOM  =     13537.65479391
  Solvation  Ediel_sol  =         0.00000000
  ---------------------------------------------------
  free energy    TOTEN  =      -829.31335351 eV

  energy without entropy =     -829.23696035  energy(sigma->0) =     -829.27515693


--------------------------------------------------------------------------------------------------------




--------------------------------------- Iteration      1(  20)  ---------------------------------------


    POTLOK:  cpu time      0.3216: real time      0.3217
    SETDIJ:  cpu time      0.0404: real time      0.0404
     EDDAV:  cpu time      9.1440: real time      9.1472
       DOS:  cpu time      0.0007: real time      0.0007
    CHARGE:  cpu time      1.1557: real time      1.1580
    MIXING:  cpu time      0.3866: real time      0.3866
    --------------------------------------------
      LOOP:  cpu time     11.0491: real time     11.0546

 eigenvalue-minimisations  :  1352
 total energy-change (2. order) :-0.2890456E-03  (-0.4233208E-06)
 number of electron     367.9999992 magnetization 
 augmentation part        9.1085985 magnetization 

 Broyden mixing:
  rms(total) = 0.18391E-03    rms(broyden)= 0.18391E-03
  rms(prec ) = 0.22963E-03
  weight for this iteration     100.00

 eigenvalues of (default mixing * dielectric matrix)
  average eigenvalue GAMMA=   2.4815
  9.2069  6.0331  3.7876  2.5475  2.5475  1.9471  1.7372  1.5166  1.5166  1.1977
  1.1627  0.9597  0.9597  1.0515  1.0515

 Free energy of the ion-electron system (eV)
  ---------------------------------------------------
  alpha Z        PSCENC =        91.34886789
  Ewald energy   TEWEN  =    119850.35845622
  -Hartree energ DENC   =   -130939.27811020
  -exchange      EXHF   =         0.00000000
  -V(xc)+E(xc)   XCENC  =      1278.78285014
  PAW double counting   =     41045.51746897   -41109.56525769
  entropy T*S    EENTRO =        -0.07639315
  eigenvalues    EBANDS =     -4584.05631864
  atomic energy  EATOM  =     13537.65479391
  Solvation  Ediel_sol  =         0.00000000
  ---------------------------------------------------
  free energy    TOTEN  =      -829.31364256 eV

  energy without entropy =     -829.23724940  energy(sigma->0) =     -829.27544598


--------------------------------------------------------------------------------------------------------




--------------------------------------- Iteration      1(  21)  ---------------------------------------


    POTLOK:  cpu time      0.3222: real time      0.3222
    SETDIJ:  cpu time      0.0404: real time      0.0404
     EDDAV:  cpu time      8.3741: real time      8.3771
       DOS:  cpu time      0.0007: real time      0.0007
    CHARGE:  cpu time      1.1670: real time      1.1696
    MIXING:  cpu time      0.3979: real time      0.3989
    --------------------------------------------
      LOOP:  cpu time     10.3024: real time     10.3090

 eigenvalue-minimisations  :  1200
 total energy-change (2. order) :-0.1897328E-03  (-0.2113259E-06)
 number of electron     367.9999992 magnetization 
 augmentation part        9.1085918 magnetization 

 Broyden mixing:
  rms(total) = 0.77151E-04    rms(broyden)= 0.77141E-04
  rms(prec ) = 0.10057E-03
  weight for this iteration     100.00

 eigenvalues of (default mixing * dielectric matrix)
  average eigenvalue GAMMA=   2.4593
  9.2253  6.2853  4.0449  2.7064  2.3613  2.2559  1.9161  1.4214  1.4214  1.3495
  1.3495  1.0307  1.0307  0.9524  0.9524  1.0460

 Free energy of the ion-electron system (eV)
  ---------------------------------------------------
  alpha Z        PSCENC =        91.34886789
  Ewald energy   TEWEN  =    119850.35845622
  -Hartree energ DENC   =   -130939.38002034
  -exchange      EXHF   =         0.00000000
  -V(xc)+E(xc)   XCENC  =      1278.78264236
  PAW double counting   =     41045.28101434   -41109.32914059
  entropy T*S    EENTRO =        -0.07639432
  eigenvalues    EBANDS =     -4583.95405175
  atomic energy  EATOM  =     13537.65479391
  Solvation  Ediel_sol  =         0.00000000
  ---------------------------------------------------
  free energy    TOTEN  =      -829.31383229 eV

  energy without entropy =     -829.23743796  energy(sigma->0) =     -829.27563513


[...]
   -.484E+01 -.349E+00 0.550E+02   0.519E+01 -.820E+00 -.554E+02   -.894E-01 -.391E+00 0.154E+01   0.961E-06 0.376E-05 0.121E-05
   -.335E+01 -.155E+02 0.632E+02   0.291E+01 0.167E+02 -.634E+02   -.506E+00 0.411E+00 0.778E+00   0.133E-05 -.287E-05 0.668E-07
   0.528E+01 0.776E+00 0.554E+00   -.588E+01 0.532E-01 -.221E+00   -.113E+00 0.340E+00 -.147E+01   -.963E-07 -.910E-06 -.217E-06
   -.198E+01 0.112E+02 0.204E+01   0.325E+01 -.116E+02 -.125E+01   0.860E+00 0.102E+00 -.663E-01   -.889E-05 0.992E-06 -.298E-05
   0.571E+01 -.105E+02 -.329E+02   -.480E+01 0.107E+02 0.333E+02   -.108E+00 -.191E+00 0.201E+00   -.753E-05 -.798E-06 -.229E-05
   0.750E+01 -.914E+01 0.136E+02   -.896E+01 0.899E+01 -.144E+02   -.122E+01 -.342E+00 -.386E+00   -.761E-05 -.354E-05 -.328E-05
   0.219E+02 0.104E+02 -.635E+02   -.221E+02 -.113E+02 0.639E+02   -.394E+00 -.367E+00 -.860E+00   -.961E-05 0.243E-05 -.367E-05
   0.185E+02 0.142E+02 -.605E+02   -.180E+02 -.153E+02 0.614E+02   0.569E+00 -.412E+00 -.129E+01   -.122E-04 0.679E-06 -.364E-05
   0.229E+02 -.128E+02 -.604E+02   -.236E+02 0.140E+02 0.600E+02   -.105E+01 0.383E+00 0.109E+01   -.114E-04 -.159E-05 -.377E-05
   -.143E+01 -.545E+01 -.174E+02   0.205E+01 0.472E+01 0.169E+02   0.570E-01 0.803E-01 0.113E+01   -.117E-04 -.146E-05 -.425E-05
   0.339E+02 0.478E+01 -.135E+03   -.333E+02 -.452E+01 0.135E+03   0.535E+00 0.672E+00 -.625E+00   -.131E-04 -.375E-05 -.342E-05
   0.270E+02 0.131E+02 -.862E+02   -.278E+02 -.133E+02 0.859E+02   -.220E+00 -.112E+00 0.484E+00   -.814E-05 -.266E-05 -.336E-05
   0.377E+02 -.618E+01 -.178E+03   -.384E+02 0.616E+01 0.179E+03   -.427E+00 -.257E+00 -.183E+01   -.873E-05 0.128E-05 -.430E-06
   0.158E+02 0.318E+01 -.118E+03   -.164E+02 -.425E+01 0.117E+03   -.482E+00 -.105E+01 -.112E+01   -.723E-06 0.573E-06 -.881E-06
   0.167E+02 0.274E+01 -.136E+03   -.169E+02 -.194E+01 0.136E+03   -.551E+00 -.123E+00 0.205E+01   -.692E-06 -.441E-06 -.227E-05
   -.445E+01 0.128E+02 -.157E+03   0.576E+01 -.130E+02 0.157E+03   0.120E+00 -.297E+00 0.298E+00   0.850E-05 -.371E-05 -.725E-06
   0.224E+01 -.106E+02 -.196E+03   -.175E+01 0.109E+02 0.197E+03   0.822E+00 -.132E+00 -.163E+01   0.672E-05 0.186E-05 -.299E-06
   -.750E+01 -.192E+02 -.139E+03   0.762E+01 0.220E+02 0.140E+03   -.474E+00 0.980E+00 -.203E+01   0.788E-05 -.306E-05 -.143E-05
   -.344E+01 0.625E+01 -.147E+03   0.297E+01 -.536E+01 0.147E+03   0.513E+00 0.377E+00 0.148E+01   0.988E-05 0.270E-05 -.222E-05
   -.138E+02 0.622E+01 -.179E+02   0.143E+02 -.659E+01 0.170E+02   0.560E+00 -.806E+00 0.179E+01   0.725E-05 -.153E-05 -.245E-05
   -.296E+02 -.505E+01 -.167E+03   0.309E+02 0.516E+01 0.168E+03   0.484E+00 0.940E-01 -.282E+01   0.105E-04 0.321E-05 -.124E-05
   0.779E+01 -.841E+01 0.436E+02   -.838E+01 0.921E+01 -.438E+02   -.555E+00 0.120E+00 0.103E+01   0.103E-04 -.590E-06 -.194E-05
   -.158E+02 0.183E+02 -.106E+03   0.146E+02 -.192E+02 0.106E+03   0.179E+00 -.669E+00 0.104E+01   0.982E-05 0.185E-05 -.231E-05
   0.515E+00 0.222E+01 0.486E+02   -.719E+00 -.205E+01 -.489E+02   -.585E+00 -.578E+00 0.114E+01   0.648E-05 0.292E-05 0.352E-06
   -.168E+02 -.563E+01 -.776E+02   0.163E+02 0.516E+01 0.779E+02   0.419E+00 -.354E+00 -.123E+01   0.555E-05 -.771E-06 -.142E-05
   -.192E+02 0.610E+01 0.279E+02   0.199E+02 -.634E+01 -.284E+02   0.545E+00 0.809E+00 0.419E+00   -.170E-05 -.109E-06 0.196E-05
   -.447E+02 0.308E+01 -.837E+02   0.455E+02 -.195E+01 0.843E+02   0.117E+01 0.539E+00 -.173E+01   -.408E-05 -.212E-06 0.165E-05
   0.876E+00 0.622E+02 0.389E+02   -.532E+01 -.633E+02 -.375E+02   0.343E+00 0.128E+01 -.280E+00   -.271E-05 0.255E-05 0.173E-05
   -.611E+01 -.673E+02 0.327E+02   0.296E+01 0.679E+02 -.327E+02   0.177E+01 -.256E+01 0.308E+00   -.303E-05 -.416E-05 0.187E-05
   -.239E+00 0.650E+02 -.511E+02   0.273E+01 -.662E+02 0.503E+02   -.945E+00 0.162E+01 0.865E+00   -.504E-05 -.213E-05 0.272E-05
   0.459E+01 -.715E+02 -.553E+01   -.753E+00 0.729E+02 0.452E+01   -.123E+01 -.514E+00 0.270E+00   -.535E-05 -.195E-05 0.234E-05
   -.803E+01 -.218E+01 -.756E+02   0.920E+01 0.255E+01 0.761E+02   -.241E+00 0.734E+00 -.118E+01   -.511E-05 -.260E-05 0.217E-05
   0.375E+02 0.369E+01 0.560E+02   -.387E+02 -.349E+01 -.562E+02   -.957E+00 0.440E+00 0.136E+01   -.140E-05 -.259E-06 -.788E-07
   0.276E+01 0.578E+01 -.555E+02   -.374E+01 -.533E+01 0.564E+02   -.795E+00 0.422E+00 -.102E+01   -.430E-05 -.543E-06 0.180E-05
   0.144E+02 -.548E+01 0.439E+02   -.140E+02 0.479E+01 -.437E+02   -.434E+00 -.130E+00 0.298E+00   -.244E-05 0.218E-05 -.151E-06
   0.559E+01 -.104E+02 0.286E+02   -.450E+01 0.106E+02 -.286E+02   0.385E+00 -.133E+00 -.381E+00   -.474E-07 -.158E-05 0.632E-06
   0.216E+02 0.115E+02 0.107E+03   -.213E+02 -.117E+02 -.107E+03   0.425E+00 -.755E+00 0.462E+00   -.120E-05 -.850E-06 0.853E-06
   0.135E+02 0.423E+01 0.962E+02   -.140E+02 -.397E+01 -.963E+02   -.679E+00 0.435E+00 0.688E+00   0.552E-05 -.160E-05 0.271E-06
   0.168E+02 -.491E+01 0.859E+02   -.174E+02 0.437E+01 -.857E+02   0.379E+00 -.329E+00 -.416E+00   0.576E-05 0.366E-05 0.688E-06
   0.555E+01 -.164E+02 0.125E+03   -.539E+01 0.175E+02 -.125E+03   -.239E+00 0.127E+01 0.680E+00   0.113E-04 -.121E-05 0.964E-06
   0.399E+01 0.125E+02 0.101E+03   -.395E+01 -.128E+02 -.101E+03   0.587E+00 0.573E-01 -.128E+01   0.126E-04 -.421E-06 0.837E-06
   -.192E+01 0.945E+01 0.132E+03   0.256E+01 -.940E+01 -.132E+03   0.916E-01 0.258E+00 0.139E+01   0.923E-05 0.219E-05 0.209E-05
   0.742E+01 -.661E+01 0.128E+03   -.830E+01 0.559E+01 -.129E+03   0.174E+00 -.117E+01 0.470E+00   0.103E-04 0.199E-05 0.172E-05
   -.817E+00 -.167E+02 0.282E+02   0.247E+00 0.183E+02 -.274E+02   -.635E+00 -.870E-01 -.296E+01   0.911E-05 -.354E-05 0.217E-07
   -.129E+02 0.481E+01 0.107E+03   0.138E+02 -.384E+01 -.107E+03   0.262E+00 0.168E+01 -.168E+01   0.398E-05 -.228E-05 0.360E-06
   -.183E+02 0.242E+02 0.156E+03   0.184E+02 -.264E+02 -.156E+03   0.310E+00 -.174E+01 0.112E+01   0.131E-05 0.349E-05 0.142E-05
   -.352E+02 -.294E+02 0.214E+03   0.363E+02 0.322E+02 -.215E+03   -.325E+00 0.345E+00 0.218E+01   -.365E-06 -.660E-05 0.351E-05
   -.227E+02 -.287E+01 0.120E+03   0.233E+02 0.281E+01 -.120E+03   0.900E+00 -.760E-01 0.125E+01   -.464E-05 -.144E-05 0.101E-05
   -.151E+02 0.165E+02 0.162E+03   0.143E+02 -.183E+02 -.163E+03   -.543E+00 -.662E+00 -.705E+00   0.998E-06 0.567E-05 0.258E-05
   -.153E+02 0.148E+02 0.992E+02   0.147E+02 -.150E+02 -.995E+02   0.727E-01 0.256E+00 -.238E+00   -.193E-05 0.328E-05 -.835E-06
   -.328E+02 -.193E+01 0.174E+03   0.326E+02 0.112E+01 -.174E+03   -.513E+00 -.389E+00 0.110E+01   -.317E-05 0.375E-06 0.208E-06
   0.925E+01 -.117E+02 0.654E-01   -.929E+01 0.124E+02 0.567E-01   0.228E+00 0.334E-01 -.550E+00   -.966E-05 -.148E-05 -.320E-05
   -.231E+02 -.513E-01 0.109E+03   0.234E+02 0.879E+00 -.108E+03   0.717E+00 0.444E+00 0.161E+00   -.923E-05 -.258E-06 -.342E-05
   -.501E+01 0.224E+02 0.149E+02   0.564E+01 -.239E+02 -.147E+02   0.100E+00 -.692E+00 0.190E+00   -.140E-04 0.139E-05 -.547E-05
   -.192E+02 -.114E+02 0.101E+03   0.189E+02 0.118E+02 -.103E+03   -.111E+00 -.384E+00 0.143E+01   -.118E-04 0.337E-05 -.475E-05
   0.265E+02 -.716E+01 -.637E+02   -.278E+02 0.718E+01 0.633E+02   -.861E+00 0.364E+00 -.511E-01   -.104E-04 0.112E-05 -.394E-05
   0.821E+00 -.809E+01 0.199E+02   -.183E+01 0.101E+02 -.199E+02   0.734E-01 0.221E+01 -.115E+01   -.115E-04 -.113E-05 -.468E-05
   0.164E+02 0.119E+02 -.102E+03   -.161E+02 -.129E+02 0.102E+03   0.415E+00 -.493E+00 -.393E+00   -.521E-05 0.118E-05 -.153E-05
   -.191E+02 -.969E+01 0.159E+02   0.206E+02 0.102E+02 -.162E+02   0.147E+00 0.336E+00 0.156E+01   -.812E-05 0.230E-05 -.512E-05
   0.234E+02 -.137E+02 -.183E+03   -.235E+02 0.134E+02 0.184E+03   0.702E+00 -.937E+00 -.155E+01   -.646E-06 0.409E-05 0.569E-07
   0.314E+00 0.427E+01 -.375E+02   0.237E+00 -.391E+01 0.370E+02   0.297E+00 -.789E-02 0.162E+01   -.298E-05 -.195E-05 -.429E-05
   0.417E+01 0.772E+01 -.160E+03   -.428E+01 -.715E+01 0.159E+03   -.427E+00 0.132E+01 0.842E+00   0.756E-05 -.259E-05 -.108E-05
   0.255E+00 -.137E+02 -.163E+03   0.325E+00 0.143E+02 0.164E+03   0.721E+00 0.200E+00 -.246E+01   0.900E-05 0.109E-05 0.578E-06
   -.971E+01 -.106E+02 -.178E+03   0.998E+01 0.952E+01 0.179E+03   -.646E+00 -.943E+00 -.354E+00   0.124E-04 0.277E-05 -.183E-05
   -.859E+00 0.271E+02 -.761E+02   -.187E+00 -.302E+02 0.751E+02   -.461E+00 -.152E+01 0.206E+01   0.114E-04 -.989E-06 -.244E-05
   -.140E+02 0.195E+01 -.194E+03   0.136E+02 -.127E+01 0.195E+03   -.735E+00 0.732E+00 -.109E+01   0.961E-05 0.826E-06 -.203E-05
   -.147E+02 -.791E+01 -.102E+03   0.152E+02 0.835E+01 0.102E+03   0.307E+00 0.481E+00 -.114E+00   0.714E-05 -.284E-05 -.123E-05
   -.365E+02 -.105E+02 -.168E+03   0.378E+02 0.107E+02 0.168E+03   0.516E+00 -.270E+00 0.226E+00   0.614E-05 0.169E-05 -.194E-05
   -.113E+02 0.955E+01 -.604E+02   0.105E+02 -.101E+02 0.605E+02   -.359E+00 -.183E+00 -.305E-01   0.101E-04 -.432E-05 -.425E-06
   -.374E+02 0.139E+02 -.192E+03   0.368E+02 -.141E+02 0.193E+03   -.595E+00 0.401E+00 -.133E+01   0.472E-05 0.411E-05 -.255E-05
   -.267E+02 -.138E+02 -.134E+03   0.259E+02 0.134E+02 0.134E+03   0.147E+00 0.593E+00 0.596E-02   0.682E-05 -.159E-05 -.866E-06
   -.443E+02 0.681E+01 -.112E+03   0.445E+02 -.805E+01 0.112E+03   0.722E+00 -.630E+00 0.750E+00   -.423E-05 0.564E-06 0.157E-05
   -.492E+02 -.727E+01 -.108E+03   0.500E+02 0.790E+01 0.107E+03   0.180E+01 0.236E+00 -.173E+01   -.759E-05 -.144E-05 0.236E-05
   -.389E+02 0.579E+02 -.102E+03   0.363E+02 -.576E+02 0.103E+03   0.712E+00 0.162E+01 -.893E+00   -.685E-05 -.100E-05 0.258E-05
   -.395E+02 -.709E+02 -.839E+02   0.368E+02 0.712E+02 0.854E+02   0.694E+00 -.256E+01 -.553E+00   -.898E-05 -.647E-06 0.341E-05
 -----------------------------------------------------------------------------------------------
   0.139E+00 -.109E+01 0.159E+00   0.213E-13 0.469E-12 -.327E-12   -.142E+00 0.108E+01 -.257E+00   0.166E-04 -.307E-05 -.246E-04
 
 
 POSITION                                       TOTAL-FORCE (eV/Angst)
 -----------------------------------------------------------------------------------
      0.08092      0.84666     16.31120         3.253372      0.579868     -1.120139
      0.06716      2.24664     16.30050         3.055669     -0.055630     -0.085373
      1.32886      0.16685     16.07820        -2.126289      0.116538     -0.634944
      1.31542      2.89430     16.17680        -0.160442     -1.739625      0.043353
      2.48426      0.83474     15.63530         0.919356      0.439803      0.213818
      2.52941      2.20523     15.77230        -1.649936      0.012213     -0.330413
      3.73711      0.18708     15.35290        -0.783077     -0.514492     -0.143485
      3.75573      2.84009     15.56680        -0.273924      0.298717      0.506890
      4.97381      0.82481     15.09860        -0.325678     -0.405771      0.576199
      4.95108      2.18094     15.28970         1.678207     -0.059603      0.002110
      6.23069      0.13993     15.07480        -0.233959      1.487330      0.519679
      6.23000      2.81041     15.40070         0.160249     -1.062405     -0.373429
      7.47980      0.80636     15.22860         1.011745     -0.071587      0.844661
      7.49998      2.17503     15.48410        -1.467231     -0.942028     -1.267627
      8.72441      0.11642     15.39860        -0.026048      0.087238      0.660425
      8.72086      2.85143     15.58750         0.537289     -1.087806      0.730881
      9.93560      0.75588     15.80400        -0.511843      1.654689     -1.576678
      9.93903      2.16945     15.76600         0.264417     -1.560784      1.153818
     11.20640      0.12404     15.88450        -0.941631      1.652484      0.493969
     11.14880      2.84235     16.06560        -0.717466      1.169534     -1.138650
     12.34190      0.81510     16.32580         2.124907     -0.278261      0.721163
     12.32440      2.18916     16.44480         0.800614      0.006068      0.598342
     13.62270      0.16796     16.59260        -2.685573     -0.487058     -1.205266
     13.53490      2.86875     16.82760        -0.582875     -1.240989     -0.442575
     14.73150      0.82974     17.10710         1.099043     -1.474565     -0.464153
     14.73530      2.17917     17.19480        -1.711117      1.571914      0.703423
     15.95590      0.15878     17.31620         0.673375     -0.649448      0.648964
     15.86690      2.84778     17.65380         1.071779      0.930440      0.040943
     17.11650      0.84972     17.81430        -0.980927     -0.354132      0.149888
     17.07820      2.21087     18.03870        -1.094139     -0.276890     -1.201570
     18.33400      0.21763     18.06330        -1.096498     -2.113052     -1.213563
     18.28890      2.89089     18.21720        -0.809383      0.680317      1.526336
     19.51540      0.87229     18.31030         1.430914     -0.529296      0.480016
     19.49310      2.23156     18.42820         1.311906      0.256764     -0.820499
     20.78210      0.19368     18.25170        -0.354661      3.742715     -1.339536
     20.75200      2.88690     18.39630         0.044926      1.261516      1.358014
     21.97400      0.90344     17.96330         1.087496     -1.173793      0.911677
     21.98240      2.23862     18.29830         1.715870      0.205204     -2.082176
     23.21550      0.22022     17.63550        -1.140646      0.921105      0.885299
     23.24420      2.93205     18.08730        -1.005526     -1.481345      0.957529
     24.42110      0.92030     17.41370        -0.788765     -0.408915      0.798246
     24.43300      2.26739     17.72810        -0.100879     -0.827354     -0.881333
     25.62110      0.21246     17.21370         1.288503      0.570691     -0.130804
     25.65350      2.90179     17.51990         1.959059      1.673316     -1.109174
     26.79820      0.88833     16.81760        -4.097379      0.114208      1.059501
     26.75900      2.30149     16.89230        -1.389319     -2.021267      0.342730
      0.22721      4.88244     16.84760         1.547679      0.347289      0.028738
      0.21954      6.24551     16.72140         2.599224      0.901430     -0.742863
      1.39690      4.20259     16.53400         0.926929      1.104396     -0.618205
      1.38101      6.88313     16.18820        -2.057759      0.645376      1.197801
      2.65304      4.86460     16.19860        -1.767093      0.867914     -0.132010
      2.59997      6.24121     15.96470        -0.014584     -0.823473      0.494882
      3.79503      4.19857     15.78060         1.469323      0.101699     -0.434046
      3.75629      6.92567     15.54120         0.689954     -0.960217      0.055759
      5.02944      4.84829     15.46250        -1.195341      0.699735      0.577945
      5.00140      6.24282     15.43600        -0.204276     -0.869638     -0.164169
      6.24932      4.14918     15.31920        -0.081279      2.407117      0.582196
      6.22610      6.89497     15.28050         0.623934     -0.260536     -0.971723
      7.48341      4.83899     15.29190         0.729723      0.307697      0.990860
      7.48165      6.23535     15.25520        -0.708330     -2.190399      0.182123
      8.74689      4.20834     15.56520        -1.204720      1.548556     -2.186210
      8.72592      6.82029     15.34020         1.206786      2.650592     -1.196251
      9.98760      4.90019     15.41770         0.441036     -3.946307      0.991524
     10.01140      6.21125     15.27070         0.781203      3.145552      1.253191
     11.18590      4.20766     15.74560         1.476858     -0.129945      1.227981
     11.28050      6.91784     15.60240        -1.323977     -2.483882     -1.213132
     12.44050      4.86635     16.02500        -0.590469      0.036442     -0.623608
     12.50720      6.25634     15.83800        -0.771766     -1.194007      0.331984
     13.56490      4.21819     16.61470         0.186212      0.670698     -0.426404
     13.65670      6.90418     16.29560         0.957650      1.271037      0.397396
     14.78320      4.89455     16.88450         0.731409     -2.113040      0.393936
     14.84460      6.23144     16.66850        -0.459710      0.034306      0.380775
     15.94030      4.21913     17.47270        -2.132992      0.386383     -0.417270
     15.99250      6.84345     17.16160        -0.937490      4.255923     -1.082126
     17.10700      4.91125     17.79420         0.692616     -1.456204     -0.086454
     17.15190      6.22958     17.50730         1.682981      0.823024      1.261255
     18.28050      4.27782     18.25270         0.563809     -1.246020     -0.735986
     18.32630      6.92665     17.87470         0.848080      0.351446      1.186434
     19.54630      4.89310     18.36340        -0.540718      1.884984      0.317163
     19.51600      6.27277     18.28370         1.300242      0.758427     -1.705396
     20.80150      4.28425     18.46290        -0.367604     -1.984497      0.125337
     20.80200      6.98571     18.16950        -1.507346     -4.663220      1.126912
     22.06010      4.92255     18.42310        -1.211046      1.414609     -0.478194
     22.03260      6.28747     18.18180         0.843803      0.926394      0.019247
     23.27230      4.28093     18.26630         1.828258     -0.029999      0.212049
     23.26660      6.96894     17.90540        -1.166145     -0.764702      0.155131
     24.54510      4.94338     18.09990        -1.210529      0.114838     -0.354266
     24.51230      6.30305     17.93130        -0.623834      0.220174      0.344194
     25.71810      4.30150     17.68800         0.836576     -1.874121      0.509081
     25.67510      6.97145     17.58740         2.547844      0.865280     -1.947293
     26.90750      4.92512     17.36090        -1.835333      1.901125      0.841440
     26.91000      6.34787     17.29180        -2.033271     -2.268819      0.963785
 -----------------------------------------------------------------------------------
    total drift:                               -0.003164     -0.010469     -0.097828


--------------------------------------------------------------------------------------------------------



  FREE ENERGIE OF THE ION-ELECTRON SYSTEM (eV)
  ---------------------------------------------------
  free  energy   TOTEN  =      -829.31392261 eV

  energy  without entropy=     -829.23752879  energy(sigma->0) =     -829.27572570
 


--------------------------------------------------------------------------------------------------------


    POTLOK:  cpu time      0.4554: real time      0.4552


--------------------------------------------------------------------------------------------------------


     LOOP+:  cpu time    332.9600: real time    333.1530
    4ORBIT:  cpu time      0.0000: real time      0.0000

 total amount of memory used by VASP MPI-rank0  2294508. kBytes
=======================================================================

   base                                    :      30000. kBytes
   nonlr-proj                              :      15074. kBytes
   fftplans                                :     436558. kBytes
   grid                                    :     732614. kBytes
   one-center                              :        282. kBytes
   wavefun                                 :    1079980. kBytes
 
  
  
 General timing and accounting informations for this job:
 ========================================================
  
                  Total CPU time used (sec):      366.430
                            User time (sec):      358.025
                          System time (sec):        8.405
                         Elapsed time (sec):      366.666
  
                   Maximum memory used (kb):     3734572.
                   Average memory used (kb):          N/A
  
                          Minor page faults:      3179058
                          Major page faults:         5021
                 Voluntary context switches:        10022
