<?xml version="1.0" encoding="ISO-8859-1"?>
<modeling>
 <generator>
  <i name="program" type="string">vasp </i>
  <i name="version" type="string">6.5.0  </i>
  <i name="subversion" type="string">16Dec24 (build Feb 19 2025 19:45:31) complex                          parallel </i>
  <i name="platform" type="string">LinuxNV </i>
  <i name="date" type="string">2025 10 25 </i>
  <i name="time" type="string">14:37:49 </i>
 </generator>
 <incar>
  <i type="int" name="ISTART">     0</i>
  <i type="string" name="PREC">Accurate   (Precision level)</i>
  <i type="string" name="ALGO">Normal</i>
  <i type="int" name="ISPIN">     1</i>
  <i type="int" name="ICHARG">     2</i>
  <i type="int" name="NELM">   150</i>
  <i type="int" name="IBRION">    -1</i>
  <i name="EDIFF">      0.00000100</i>
  <i type="int" name="NSW">     0</i>
  <i name="ENCUT">    500.00000000</i>
  <i type="string" name="LREAL">Auto         (Projection operators: automatic)</i>
  <i type="int" name="ISMEAR">     0</i>
  <i type="logical" name="KGAMMA"> T  </i>
  <i type="logical" name="LWAVE"> F  </i>
  <i type="logical" name="LCHARG"> F  </i>
 </incar>
 <primitive_cell>
  <structure name="primitive_cell" >
   <crystal>
    <varray name="basis" >
     <v>      28.05000000       0.00000000       0.00000000 </v>
     <v>       0.00000000       8.10000000       0.00000000 </v>
     <v>       0.00000000       0.00000000      33.50000000 </v>
    </varray>
    <i name="volume">   7611.36750000 </i>
    <varray name="rec_basis" >
     <v>       0.03565062       0.00000000       0.00000000 </v>
     <v>       0.00000000       0.12345679       0.00000000 </v>
     <v>       0.00000000       0.00000000       0.02985075 </v>
    </varray>
   </crystal>
   <varray name="positions" >
    <v>       0.00288500       0.10452630       0.48690149 </v>
    <v>       0.00239413       0.27736296       0.48658209 </v>
    <v>       0.04737469       0.02059889       0.47994627 </v>
    <v>       0.04689554       0.35732099       0.48288955 </v>
    <v>       0.08856542       0.10305432       0.46672537 </v>
    <v>       0.09017504       0.27225062       0.47081493 </v>
    <v>       0.13323030       0.02309691       0.45829552 </v>
    <v>       0.13389412       0.35062840       0.46468060 </v>
    <v>       0.17731943       0.10182778       0.45070448 </v>
    <v>       0.17650909       0.26925185       0.45640896 </v>
    <v>       0.22212799       0.01727506       0.44999403 </v>
    <v>       0.22210339       0.34696420       0.45972239 </v>
    <v>       0.26665954       0.09955049       0.45458507 </v>
    <v>       0.26737897       0.26852222       0.46221194 </v>
    <v>       0.31103066       0.01437259       0.45965970 </v>
    <v>       0.31090410       0.35202840       0.46529851 </v>
    <v>       0.35421034       0.09331802       0.47176119 </v>
    <v>       0.35433262       0.26783333       0.47062687 </v>
    <v>       0.39951515       0.01531370       0.47416418 </v>
    <v>       0.39746168       0.35090741       0.47957015 </v>
    <v>       0.43999643       0.10062988       0.48733731 </v>
    <v>       0.43937255       0.27026667       0.49088955 </v>
    <v>       0.48565775       0.02073556       0.49530149 </v>
    <v>       0.48252763       0.35416667       0.50231642 </v>
    <v>       0.52518717       0.10243716       0.51065970 </v>
    <v>       0.52532264       0.26903333       0.51327761 </v>
    <v>       0.56883779       0.01960247       0.51690149 </v>
    <v>       0.56566488       0.35157778       0.52697910 </v>
    <v>       0.61021390       0.10490321       0.53177015 </v>
    <v>       0.60884848       0.27294691       0.53846866 </v>
    <v>       0.65361854       0.02686741       0.53920299 </v>
    <v>       0.65201070       0.35690000       0.54379701 </v>
    <v>       0.69573619       0.10768963       0.54657612 </v>
    <v>       0.69494118       0.27550123       0.55009552 </v>
    <v>       0.74089483       0.02391160       0.54482687 </v>
    <v>       0.73982175       0.35640741       0.54914328 </v>
    <v>       0.78338681       0.11153543       0.53621791 </v>
    <v>       0.78368627       0.27637284       0.54621791 </v>
    <v>       0.82764706       0.02718704       0.52643284 </v>
    <v>       0.82867023       0.36198148       0.53991940 </v>
    <v>       0.87062745       0.11361778       0.51981194 </v>
    <v>       0.87105169       0.27992469       0.52919701 </v>
    <v>       0.91340820       0.02622926       0.51384179 </v>
    <v>       0.91456328       0.35824568       0.52298209 </v>
    <v>       0.95537255       0.10966988       0.50201791 </v>
    <v>       0.95397504       0.28413457       0.50424776 </v>
    <v>       0.00810018       0.60277037       0.50291343 </v>
    <v>       0.00782681       0.77105062       0.49914627 </v>
    <v>       0.04980036       0.51883827       0.49355224 </v>
    <v>       0.04923387       0.84976914       0.48322985 </v>
    <v>       0.09458253       0.60056790       0.48354030 </v>
    <v>       0.09269055       0.77051975       0.47655821 </v>
    <v>       0.13529519       0.51834198       0.47106269 </v>
    <v>       0.13391408       0.85502099       0.46391642 </v>
    <v>       0.17930267       0.59855432       0.46156716 </v>
    <v>       0.17830303       0.77071852       0.46077612 </v>
    <v>       0.22279216       0.51224444       0.45728955 </v>
    <v>       0.22196435       0.85123086       0.45613433 </v>
    <v>       0.26678824       0.59740617       0.45647463 </v>
    <v>       0.26672549       0.76979630       0.45537910 </v>
    <v>       0.31183209       0.51954815       0.46463284 </v>
    <v>       0.31108449       0.84201111       0.45791642 </v>
    <v>       0.35606417       0.60496173       0.46022985 </v>
    <v>       0.35691266       0.76682099       0.45584179 </v>
    <v>       0.39878431       0.51946420       0.47001791 </v>
    <v>       0.40215686       0.85405432       0.46574328 </v>
    <v>       0.44351159       0.60078395       0.47835821 </v>
    <v>       0.44588948       0.77238765       0.47277612 </v>
    <v>       0.48359715       0.52076420       0.49596119 </v>
    <v>       0.48686988       0.85236790       0.48643582 </v>
    <v>       0.52703030       0.60426543       0.50401493 </v>
    <v>       0.52921925       0.76931358       0.49756716 </v>
    <v>       0.56828164       0.52088025       0.52157313 </v>
    <v>       0.57014260       0.84487037       0.51228657 </v>
    <v>       0.60987522       0.60632716       0.53117015 </v>
    <v>       0.61147594       0.76908395       0.52260597 </v>
    <v>       0.65171123       0.52812593       0.54485672 </v>
    <v>       0.65334403       0.85514198       0.53357313 </v>
    <v>       0.69683779       0.60408642       0.54816119 </v>
    <v>       0.69575758       0.77441605       0.54578209 </v>
    <v>       0.74158645       0.52891975       0.55113134 </v>
    <v>       0.74160428       0.86243333       0.54237313 </v>
    <v>       0.78645633       0.60772222       0.54994328 </v>
    <v>       0.78547594       0.77623086       0.54274030 </v>
    <v>       0.82967201       0.52850988       0.54526269 </v>
    <v>       0.82946881       0.86036296       0.53448955 </v>
    <v>       0.87504813       0.61029383       0.54029552 </v>
    <v>       0.87387879       0.77815432       0.53526269 </v>
    <v>       0.91686631       0.53104938       0.52800000 </v>
    <v>       0.91533333       0.86067284       0.52499701 </v>
    <v>       0.95926916       0.60803951       0.51823582 </v>
    <v>       0.95935829       0.78368765       0.51617313 </v>
   </varray>
  </structure>
  <varray name="primitive_index" >
   <v type="int" >        1 </v>
   <v type="int" >        2 </v>
   <v type="int" >        3 </v>
   <v type="int" >        4 </v>
   <v type="int" >        5 </v>
   <v type="int" >        6 </v>
   <v type="int" >        7 </v>
   <v type="int" >        8 </v>
   <v type="int" >        9 </v>
   <v type="int" >       10 </v>
   <v type="int" >       11 </v>
   <v type="int" >       12 </v>
   <v type="int" >       13 </v>
   <v type="int" >       14 </v>
   <v type="int" >       15 </v>
   <v type="int" >       16 </v>
   <v type="int" >       17 </v>
   <v type="int" >       18 </v>
   <v type="int" >       19 </v>
   <v type="int" >       20 </v>
   <v type="int" >       21 </v>
   <v type="int" >       22 </v>
   <v type="int" >       23 </v>
   <v type="int" >       24 </v>
   <v type="int" >       25 </v>
   <v type="int" >       26 </v>
   <v type="int" >       27 </v>
   <v type="int" >       28 </v>
   <v type="int" >       29 </v>
   <v type="int" >       30 </v>
   <v type="int" >       31 </v>
   <v type="int" >       32 </v>
   <v type="int" >       33 </v>
   <v type="int" >       34 </v>
   <v type="int" >       35 </v>
   <v type="int" >       36 </v>
   <v type="int" >       37 </v>
   <v type="int" >       38 </v>
   <v type="int" >       39 </v>
   <v type="int" >       40 </v>
   <v type="int" >       41 </v>
   <v type="int" >       42 </v>
   <v type="int" >       43 </v>
   <v type="int" >       44 </v>
   <v type="int" >       45 </v>
   <v type="int" >       46 </v>
   <v type="int" >       47 </v>
   <v type="int" >       48 </v>
   <v type="int" >       49 </v>
   <v type="int" >       50 </v>
   <v type="int" >       51 </v>
   <v type="int" >       52 </v>
   <v type="int" >       53 </v>
   <v type="int" >       54 </v>
   <v type="int" >       55 </v>
   <v type="int" >       56 </v>
   <v type="int" >       57 </v>
   <v type="int" >       58 </v>
   <v type="int" >       59 </v>
   <v type="int" >       60 </v>
   <v type="int" >       61 </v>
   <v type="int" >       62 </v>
   <v type="int" >       63 </v>
   <v type="int" >       64 </v>
   <v type="int" >       65 </v>
   <v type="int" >       66 </v>
   <v type="int" >       67 </v>
   <v type="int" >       68 </v>
   <v type="int" >       69 </v>
   <v type="int" >       70 </v>
   <v type="int" >       71 </v>
   <v type="int" >       72 </v>
   <v type="int" >       73 </v>
   <v type="int" >       74 </v>
   <v type="int" >       75 </v>
   <v type="int" >       76 </v>
   <v type="int" >       77 </v>
   <v type="int" >       78 </v>
   <v type="int" >       79 </v>
   <v type="int" >       80 </v>
   <v type="int" >       81 </v>
   <v type="int" >       82 </v>
   <v type="int" >       83 </v>
   <v type="int" >       84 </v>
   <v type="int" >       85 </v>
   <v type="int" >       86 </v>
   <v type="int" >       87 </v>
   <v type="int" >       88 </v>
   <v type="int" >       89 </v>
   <v type="int" >       90 </v>
   <v type="int" >       91 </v>
   <v type="int" >       92 </v>
  </varray>
 </primitive_cell>
 <kpoints>
  <generation param="Gamma">
   <v type="int" name="divisions">       1        4        1 </v>
   <v name="usershift">      0.00000000       0.00000000       0.00000000 </v>
   <v name="genvec1">      1.00000000       0.00000000       0.00000000 </v>
   <v name="genvec2">      0.00000000       0.25000000       0.00000000 </v>
   <v name="genvec3">      0.00000000       0.00000000       1.00000000 </v>
   <v name="shift">      0.00000000       0.00000000       0.00000000 </v>
  </generation>
  <varray name="kpointlist" >
   <v>       0.00000000       0.00000000       0.00000000 </v>
   <v>       0.00000000       0.25000000       0.00000000 </v>
   <v>       0.00000000       0.50000000       0.00000000 </v>
  </varray>
  <varray name="weights" >
   <v>       0.25000000 </v>
   <v>       0.50000000 </v>
   <v>       0.25000000 </v>
  </varray>
 </kpoints>
 <parameters>
  <separator name="general" >
   <i type="string" name="SYSTEM">unknown system</i>
   <i type="logical" name="LCOMPAT"> F  </i>
  </separator>
  <separator name="electronic" >
   <i type="string" name="PREC">accura</i>
   <i name="ENMAX">    500.00000000</i>
   <i name="ENAUG">    644.87300000</i>
   <i name="EDIFF">      0.00000100</i>
   <i type="int" name="IALGO">    38</i>
   <i type="int" name="IWAVPR">    10</i>
   <i type="int" name="NBANDS">   232</i>
   <i type="int" name="NBANDSLOW">    -1</i>
   <i type="int" name="NBANDSHIGH">    -1</i>
   <i name="NELECT">    368.00000000</i>
   <i type="int" name="TURBO">     0</i>
   <i type="int" name="IRESTART">     0</i>
   <i type="int" name="NREBOOT">     0</i>
   <i type="int" name="NMIN">     0</i>
   <i name="EREF">      0.00000000</i>
   <separator name="electronic smearing" >
    <i type="int" name="ISMEAR">     0</i>
    <i name="SIGMA">      0.20000000</i>
    <i name="KSPACING">      0.50000000</i>
    <i type="logical" name="KGAMMA"> T  </i>
    <i type="logical" name="KBLOWUP"> T  </i>
   </separator>
   <separator name="electronic projectors" >
    <i type="logical" name="LREAL"> T  </i>
    <v name="ROPT">     -0.00025000</v>
    <i type="int" name="LMAXPAW">  -100</i>
    <i type="int" name="LMAXMIX">     2</i>
    <i type="logical" name="NLSPLINE"> F  </i>
   </separator>
   <separator name="electronic startup" >
    <i type="int" name="ISTART">     0</i>
    <i type="int" name="ICHARG">     2</i>
    <i type="int" name="INIWAV">     1</i>
   </separator>
   <separator name="electronic spin" >
    <i type="int" name="ISPIN">     1</i>
    <i type="logical" name="LNONCOLLINEAR"> F  </i>
    <v name="MAGMOM">      1.00000000      1.00000000      1.00000000      1.00000000      1.00000000      1.00000000      1.00000000      1.00000000      1.00000000      1.00000000      1.00000000      1.00000000      1.00000000      1.00000000      1.00000000      1.00000000      1.00000000      1.00000000      1.00000000      1.00000000
      1.00000000      1.00000000      1.00000000      1.00000000      1.00000000      1.00000000      1.00000000      1.00000000      1.00000000      1.00000000      1.00000000      1.00000000      1.00000000      1.00000000      1.00000000      1.00000000      1.00000000      1.00000000      1.00000000      1.00000000
      1.00000000      1.00000000      1.00000000      1.00000000      1.00000000      1.00000000      1.00000000      1.00000000      1.00000000      1.00000000      1.00000000      1.00000000      1.00000000      1.00000000      1.00000000      1.00000000      1.00000000      1.00000000      1.00000000      1.00000000
      1.00000000      1.00000000      1.00000000      1.00000000      1.00000000      1.00000000      1.00000000      1.00000000      1.00000000      1.00000000      1.00000000      1.00000000      1.00000000      1.00000000      1.00000000      1.00000000      1.00000000      1.00000000      1.00000000      1.00000000
      1.00000000      1.00000000      1.00000000      1.00000000      1.00000000      1.00000000      1.00000000      1.00000000      1.00000000      1.00000000      1.00000000      1.00000000</v>
    <i name="NUPDOWN">     -1.00000000</i>
    <i type="logical" name="LSORBIT"> F  </i>
    <v name="SAXIS">      0.00000000      0.00000000      1.00000000</v>
    <i type="logical" name="LSPIRAL"> F  </i>
    <v name="QSPIRAL">      0.00000000      0.00000000      0.00000000</v>
    <i type="logical" name="LZEROZ"> F  </i>
   </separator>
   <separator name="electronic exchange-correlation" >
    <i type="logical" name="LASPH"> F  </i>
   </separator>
   <separator name="electronic convergence" >
    <i type="int" name="NELM">   150</i>
    <i type="int" name="NELMDL">    -5</i>
    <i type="int" name="NELMIN">     2</i>
    <i name="ENINI">    500.00000000</i>
    <separator name="electronic convergence detail" >
     <i type="logical" name="LDIAG"> T  </i>
     <i type="logical" name="LSUBROT"> F  </i>
     <i name="WEIMIN">      0.00000000</i>
     <i name="EBREAK">      0.00000000</i>
     <i name="DEPER">      0.30000000</i>
     <i type="int" name="NRMM">     4</i>
     <i name="TIME">      0.40000000</i>
    </separator>
   </separator>
   <separator name="electronic mixer" >
    <i name="AMIX">      0.40000000</i>
    <i name="BMIX">      1.00000000</i>
    <i name="AMIN">      0.10000000</i>
    <i name="AMIX_MAG">      1.60000000</i>
    <i name="BMIX_MAG">      1.00000000</i>
    <separator name="electronic mixer details" >
     <i type="int" name="IMIX">     4</i>
     <i type="logical" name="MIXFIRST"> F  </i>
     <i type="int" name="MAXMIX">   -45</i>
     <i name="WC">    100.00000000</i>
     <i type="int" name="INIMIX">     1</i>
     <i type="int" name="MIXPRE">     1</i>
     <i type="int" name="MREMOVE">     5</i>
    </separator>
   </separator>
   <separator name="electronic dipolcorrection" >
    <i type="logical" name="LDIPOL"> F  </i>
    <i type="logical" name="LMONO"> F  </i>
    <i type="int" name="IDIPOL">     0</i>
    <i name="EPSILON">      1.00000000</i>
    <v name="DIPOL">   -100.00000000   -100.00000000   -100.00000000</v>
    <i name="EFIELD">      0.00000000</i>
    <i type="logical" name="LVACPOTAV"> F  </i>
   </separator>
  </separator>
  <separator name="grids" >
   <i type="int" name="NGX">   210</i>
   <i type="int" name="NGY">    60</i>
   <i type="int" name="NGZ">   250</i>
   <i type="int" name="NGXF">   420</i>
   <i type="int" name="NGYF">   120</i>
   <i type="int" name="NGZF">   500</i>
   <i type="logical" name="ADDGRID"> F  </i>
  </separator>
  <separator name="ionic" >
   <i type="int" name="NSW">     0</i>
   <i type="int" name="IBRION">    -1</i>
   <i type="int" name="MDALGO">     0</i>
   <i type="int" name="ISIF">     2</i>
   <i name="PSTRESS">      0.00000000</i>
   <i name="EDIFFG">      0.00001000</i>
   <i type="int" name="NFREE">     0</i>
   <i name="POTIM">      0.50000000</i>
   <i name="SMASS">     -3.00000000</i>
   <i name="SCALEE">      1.00000000</i>
  </separator>
  <separator name="ionic md" >
   <i name="TEBEG">      0.00010000</i>
   <i name="TEEND">      0.00010000</i>
   <i type="int" name="NBLOCK">     1</i>
   <i type="int" name="KBLOCK">     1</i>
   <i type="int" name="NPACO">   256</i>
   <i name="APACO">     10.00000000</i>
  </separator>
  <separator name="symmetry" >
   <i type="int" name="ISYM">     2</i>
   <i name="SYMPREC">      0.00001000</i>
  </separator>
  <separator name="dos" >
   <i type="int" name="LORBIT">     0</i>
   <v name="RWIGS">     -1.00000000</v>
   <i type="int" name="NEDOS">   301</i>
   <i name="EMIN">     10.00000000</i>
   <i name="EMAX">    -10.00000000</i>
   <i name="EFERMI">      0.00000000</i>
  </separator>
  <separator name="writing" >
   <i type="int" name="NWRITE">     2</i>
   <i type="logical" name="LWAVE"> F  </i>
   <i type="logical" name="LDOWNSAMPLE"> F  </i>
   <i type="logical" name="LCHARG"> F  </i>
   <i type="logical" name="LPARD"> F  </i>
   <i type="logical" name="LVTOT"> F  </i>
   <i type="logical" name="LVHAR"> F  </i>
   <i type="logical" name="LELF"> F  </i>
   <i type="logical" name="LOPTICS"> F  </i>
   <v name="STM">      0.00000000      0.00000000      0.00000000      0.00000000      0.00000000      0.00000000      0.00000000</v>
  </separator>
  <separator name="performance" >
   <i type="int" name="NPAR">     2</i>
   <i type="int" name="NSIM">     4</i>
   <i type="int" name="NBLK">    -1</i>
   <i type="logical" name="LPLANE"> T  </i>
   <i type="logical" name="LSCALAPACK"> T  </i>
   <i type="logical" name="LSCAAWARE"> F  </i>
   <i type="logical" name="LSCALU"> F  </i>
   <i type="logical" name="LASYNC"> F  </i>
   <i type="logical" name="LORBITALREAL"> F  </i>
  </separator>
  <separator name="miscellaneous" >
   <i type="int" name="IDIOT">     3</i>
   <i type="int" name="PHON_NSTRUCT">    -1</i>
   <i type="logical" name="LMUSIC"> F  </i>
   <v name="POMASS">     12.01100000</v>
   <v name="DARWINR">      0.00000000</v>
   <v name="DARWINV">      1.00000000</v>
   <i type="logical" name="LCORR"> T  </i>
  </separator>
  <i type="logical" name="GGA_COMPAT"> T  </i>
  <i type="logical" name="LBERRY"> F  </i>
  <i type="int" name="ICORELEVEL">     0</i>
  <i type="logical" name="LDAU"> F  </i>
  <i type="int" name="I_CONSTRAINED_M">     0</i>
  <separator name="electronic exchange-correlation" >
   <i type="string" name="GGA    ">PE</i>
   <i type="string" name="XC_C">1</i>
   <i type="int" name="VOSKOWN">     0</i>
   <i type="logical" name="LHFCALC"> F  </i>
   <i type="string" name="PRECFOCK"></i>
   <i type="logical" name="LSYMGRAD"> F  </i>
   <i type="logical" name="LHFONE"> F  </i>
   <i type="logical" name="LRHFCALC"> F  </i>
   <i type="logical" name="LTHOMAS"> F  </i>
   <i type="logical" name="LMODELHF"> F  </i>
   <i type="logical" name="LFOCKACE"> F  </i>
   <i name="ENCUT4O">     -1.00000000</i>
   <i type="int" name="EXXOEP">     0</i>
   <i type="int" name="FOURORBIT">     0</i>
   <i name="AEXX">      0.00000000</i>
   <i name="HFALPHA">      0.00000000</i>
   <i name="MCALPHA">      0.00000000</i>
   <i name="ALDAX">      1.00000000</i>
   <i name="AGGAX">      1.00000000</i>
   <i name="AMGGAX">      1.00000000</i>
   <i name="ALDAC">      1.00000000</i>
   <i name="AGGAC">      1.00000000</i>
   <i name="AMGGAC">      1.00000000</i>
   <i type="int" name="NKREDX">     1</i>
   <i type="int" name="NKREDY">     1</i>
   <i type="int" name="NKREDZ">     1</i>
   <i type="logical" name="SHIFTRED"> F  </i>
   <i type="logical" name="ODDONLY"> F  </i>
   <i type="logical" name="EVENONLY"> F  </i>
   <i type="int" name="LMAXFOCK">     0</i>
   <i type="int" name="NMAXFOCKAE">     0</i>
   <i type="logical" name="LFOCKAEDFT"> F  </i>
   <i name="HFSCREEN">      0.00000000</i>
   <i name="HFSCREENC">      0.00000000</i>
   <i type="int" name="NBANDSGWLOW">     0</i>
  </separator>
  <separator name="vdW DFT" >
   <i type="logical" name="LUSE_VDW"> F  </i>
   <i type="int" name="IVDW_NL">    -1</i>
   <i type="logical" name="LSPIN_VDW"> F  </i>
   <i name="ZAB_VDW">     -0.84910000</i>
   <i name="GAMMA_VDW">      1.39626340</i>
   <i name="ALPHA_VDW">      0.00000000</i>
   <i name="PARAM1">      0.12340000</i>
   <i name="PARAM2">      1.00000000</i>
   <i name="BPARAM">      6.30000000</i>
   <i name="CPARAM">      0.00930000</i>
  </separator>
  <separator name="model GW" >
   <i type="int" name="MODEL_GW">     0</i>
   <i name="MODEL_EPS0">     49.63935326</i>
   <i name="MODEL_ALPHA">      1.00000000</i>
  </separator>
  <separator name="linear response parameters" >
   <i type="logical" name="LEPSILON"> F  </i>
   <i type="logical" name="LRPA"> F  </i>
   <i type="logical" name="LNABLA"> F  </i>
   <i type="logical" name="LVEL"> F  </i>
   <i name="CSHIFT">      0.10000000</i>
   <i name="OMEGAMAX">     -1.00000000</i>
   <i name="DEG_THRESHOLD">      0.00200000</i>
   <i name="RTIME">     -0.10000000</i>
   <i name="WPLASMAI">      0.00000000</i>
   <v name="DFIELD">      0.00000000      0.00000000      0.00000000</v>
   <v name="WPLASMA">      0.00000000      0.00000000      0.00000000      0.00000000      0.00000000      0.00000000      0.00000000      0.00000000      0.00000000</v>
  </separator>
  <separator name="orbital magnetization" >
   <i type="logical" name="NUCIND"> F  </i>
   <v name="MAGPOS">      0.00000000      0.00000000      0.00000000</v>
   <i type="logical" name="LNICSALL"> T  </i>
   <i type="logical" name="ORBITALMAG"> F  </i>
   <i type="logical" name="LMAGBLOCH"> F  </i>
   <i type="logical" name="LCHIMAG"> F  </i>
   <i type="logical" name="LGAUGE"> T  </i>
   <i type="int" name="MAGATOM">     0</i>
   <v name="MAGDIPOL">      0.00000000      0.00000000      0.00000000</v>
   <v name="AVECCONST">      0.00000000      0.00000000      0.00000000</v>
  </separator>
  <separator name="response functions" >
   <i type="logical" name="LALL_IN_ONE"> F  </i>
   <i type="int" name="IALL_IN_ONE">    -1</i>
   <i type="int" name="NBANDS_WAVE">    -1</i>
   <i type="logical" name="LFINITE_TEMPERATURE"> F  </i>
   <i type="logical" name="LADDER"> F  </i>
   <i type="logical" name="LRPAFORCE"> F  </i>
   <i type="logical" name="LFXC"> F  </i>
   <i type="logical" name="LHARTREE"> T  </i>
   <i type="int" name="IBSE">     2</i>
   <v type="int" name="KPOINT">    -1     0     0     0</v>
   <i type="logical" name="LTCTC"> F  </i>
   <i type="logical" name="LTCTE"> F  </i>
   <i type="logical" name="LTETE"> F  </i>
   <i type="logical" name="LTRIPLET"> F  </i>
   <i type="logical" name="LFXCEPS"> F  </i>
   <i type="logical" name="LFXHEG"> F  </i>
   <i type="int" name="NATURALO">     2</i>
   <i type="logical" name="LHOLEGF"> F  </i>
   <i type="logical" name="L2ORDER"> F  </i>
   <i type="logical" name="LDMP1"> F  </i>
   <i type="logical" name="LMP2LT"> F  </i>
   <i type="logical" name="LSMP2LT"> F  </i>
   <i type="logical" name="LGWLF"> F  </i>
   <i name="ENCUTGW">     -1.60000002</i>
   <i name="ENCUTGWSOFT">     -1.60000002</i>
   <i name="ENCUTLF">     -1.00000000</i>
   <i type="logical" name="ESF_SPLINES"> F  </i>
   <i name="ESF_CONV">      0.01000000</i>
   <i type="int" name="ESF_NINTER">    15</i>
   <i type="int" name="LMAXMP2">    -1</i>
   <i name="SCISSOR">      0.00000000</i>
   <i type="int" name="NOMEGA">     0</i>
   <i type="int" name="NOMEGAR">     0</i>
   <i type="int" name="NBANDSGW">    -1</i>
   <i type="int" name="NBANDSO">    -1</i>
   <i type="int" name="NBANDSV">    -1</i>
   <i type="int" name="NELMGW">     1</i>
   <i type="int" name="NELMHF">     1</i>
   <i type="int" name="DIM">     3</i>
   <i type="int" name="IESPILON">     4</i>
   <i type="int" name="ANTIRES">     0</i>
   <i name="OMEGAMAX">    -30.00000000</i>
   <i name="OMEGAMIN">    -30.00000000</i>
   <i name="OMEGATL">   -200.00000000</i>
   <i type="int" name="OMEGAGRID">     0</i>
   <i name="CSHIFT">     -0.10000000</i>
   <i type="logical" name="LSELFENERGY"> F  </i>
   <i type="logical" name="LSPECTRAL"> F  </i>
   <i type="logical" name="LSPECTRALGW"> F  </i>
   <i type="logical" name="LSINGLES"> F  </i>
   <i type="logical" name="LFERMIGW"> F  </i>
   <i type="logical" name="ODDONLYGW"> F  </i>
   <i type="logical" name="EVENONLYGW"> F  </i>
   <i type="int" name="NKREDLFX">     1</i>
   <i type="int" name="NKREDLFY">     1</i>
   <i type="int" name="NKREDLFZ">     1</i>
   <i type="int" name="MAXMEM">  2800</i>
   <i type="int" name="TELESCOPE">     0</i>
   <i type="int" name="NTAUPAR">    -1</i>
   <i type="int" name="NOMEGAPAR">    -1</i>
   <i name="DAMP_NEWTON">      0.80000001</i>
   <i name="LAMBDA">      1.00000000</i>
  </separator>
  <separator name="External order field" >
   <i name="OFIELD_KAPPA">      0.00000000</i>
   <v name="OFIELD_K">      0.00000000      0.00000000      0.00000000</v>
   <i name="OFIELD_Q6_NEAR">      0.00000000</i>
   <i name="OFIELD_Q6_FAR">      0.00000000</i>
   <i name="OFIELD_A">      0.00000000</i>
  </separator>
  <separator name="optional k-points parameters" >
   <i type="int" name="KPOINTS_OPT_MODE">     1</i>
   <i type="logical" name="LKPOINTS_OPT"> F  </i>
  </separator>
 </parameters>
 <atominfo>
  <atoms>      92 </atoms>
  <types>       1 </types>
  <array name="atoms" >
   <dimension dim="1">ion</dimension>
   <field type="string">element</field>
   <field type="int">atomtype</field>
   <set>
    <rc><c>C </c><c>   1</c></rc>
    <rc><c>C </c><c>   1</c></rc>
    <rc><c>C </c><c>   1</c></rc>
    <rc><c>C </c><c>   1</c></rc>
    <rc><c>C </c><c>   1</c></rc>
    <rc><c>C </c><c>   1</c></rc>
    <rc><c>C </c><c>   1</c></rc>
    <rc><c>C </c><c>   1</c></rc>
    <rc><c>C </c><c>   1</c></rc>
    <rc><c>C </c><c>   1</c></rc>
    <rc><c>C </c><c>   1</c></rc>
    <rc><c>C </c><c>   1</c></rc>
    <rc><c>C </c><c>   1</c></rc>
    <rc><c>C </c><c>   1</c></rc>
    <rc><c>C </c><c>   1</c></rc>
    <rc><c>C </c><c>   1</c></rc>
    <rc><c>C </c><c>   1</c></rc>
    <rc><c>C </c><c>   1</c></rc>
    <rc><c>C </c><c>   1</c></rc>
    <rc><c>C </c><c>   1</c></rc>
    <rc><c>C </c><c>   1</c></rc>
    <rc><c>C </c><c>   1</c></rc>
    <rc><c>C </c><c>   1</c></rc>
    <rc><c>C </c><c>   1</c></rc>
    <rc><c>C </c><c>   1</c></rc>
    <rc><c>C </c><c>   1</c></rc>
    <rc><c>C </c><c>   1</c></rc>
    <rc><c>C </c><c>   1</c></rc>
    <rc><c>C </c><c>   1</c></rc>
    <rc><c>C </c><c>   1</c></rc>
    <rc><c>C </c><c>   1</c></rc>
    <rc><c>C </c><c>   1</c></rc>
    <rc><c>C </c><c>   1</c></rc>
    <rc><c>C </c><c>   1</c></rc>
    <rc><c>C </c><c>   1</c></rc>
    <rc><c>C </c><c>   1</c></rc>
    <rc><c>C </c><c>   1</c></rc>
    <rc><c>C </c><c>   1</c></rc>
    <rc><c>C </c><c>   1</c></rc>
    <rc><c>C </c><c>   1</c></rc>
    <rc><c>C </c><c>   1</c></rc>
    <rc><c>C </c><c>   1</c></rc>
    <rc><c>C </c><c>   1</c></rc>
    <rc><c>C </c><c>   1</c></rc>
    <rc><c>C </c><c>   1</c></rc>
    <rc><c>C </c><c>   1</c></rc>
    <rc><c>C </c><c>   1</c></rc>
    <rc><c>C </c><c>   1</c></rc>
    <rc><c>C </c><c>   1</c></rc>
    <rc><c>C </c><c>   1</c></rc>
    <rc><c>C </c><c>   1</c></rc>
    <rc><c>C </c><c>   1</c></rc>
    <rc><c>C </c><c>   1</c></rc>
    <rc><c>C </c><c>   1</c></rc>
    <rc><c>C </c><c>   1</c></rc>
    <rc><c>C </c><c>   1</c></rc>
    <rc><c>C </c><c>   1</c></rc>
    <rc><c>C </c><c>   1</c></rc>
    <rc><c>C </c><c>   1</c></rc>
    <rc><c>C </c><c>   1</c></rc>
    <rc><c>C </c><c>   1</c></rc>
    <rc><c>C </c><c>   1</c></rc>
    <rc><c>C </c><c>   1</c></rc>
    <rc><c>C </c><c>   1</c></rc>
    <rc><c>C </c><c>   1</c></rc>
    <rc><c>C </c><c>   1</c></rc>
    <rc><c>C </c><c>   1</c></rc>
    <rc><c>C </c><c>   1</c></rc>
    <rc><c>C </c><c>   1</c></rc>
    <rc><c>C </c><c>   1</c></rc>
    <rc><c>C </c><c>   1</c></rc>
    <rc><c>C </c><c>   1</c></rc>
    <rc><c>C </c><c>   1</c></rc>
    <rc><c>C </c><c>   1</c></rc>
    <rc><c>C </c><c>   1</c></rc>
    <rc><c>C </c><c>   1</c></rc>
    <rc><c>C </c><c>   1</c></rc>
    <rc><c>C </c><c>   1</c></rc>
    <rc><c>C </c><c>   1</c></rc>
    <rc><c>C </c><c>   1</c></rc>
    <rc><c>C </c><c>   1</c></rc>
    <rc><c>C </c><c>   1</c></rc>
    <rc><c>C </c><c>   1</c></rc>
    <rc><c>C </c><c>   1</c></rc>
    <rc><c>C </c><c>   1</c></rc>
    <rc><c>C </c><c>   1</c></rc>
    <rc><c>C </c><c>   1</c></rc>
    <rc><c>C </c><c>   1</c></rc>
    <rc><c>C </c><c>   1</c></rc>
    <rc><c>C </c><c>   1</c></rc>
    <rc><c>C </c><c>   1</c></rc>
    <rc><c>C </c><c>   1</c></rc>
   </set>
  </array>
  <array name="atomtypes" >
   <dimension dim="1">type</dimension>
   <field type="int">atomspertype</field>
   <field type="string">element</field>
   <field>mass</field>
   <field>valence</field>
   <field type="string">pseudopotential</field>
   <set>
    <rc><c>  92</c><c>C </c><c>     12.01100000</c><c>      4.00000000</c><c>  PAW_PBE C 08Apr2002                   </c></rc>
   </set>
  </array>
 </atominfo>
 <structure name="initialpos" >
  <crystal>
   <varray name="basis" >
    <v>      28.05000000       0.00000000       0.00000000 </v>
    <v>       0.00000000       8.10000000       0.00000000 </v>
    <v>       0.00000000       0.00000000      33.50000000 </v>
   </varray>
   <i name="volume">   7611.36750000 </i>
   <varray name="rec_basis" >
    <v>       0.03565062       0.00000000       0.00000000 </v>
    <v>       0.00000000       0.12345679       0.00000000 </v>
    <v>       0.00000000       0.00000000       0.02985075 </v>
   </varray>
  </crystal>
  <varray name="positions" >
   <v>       0.00288500       0.10452630       0.48690149 </v>
   <v>       0.00239413       0.27736296       0.48658209 </v>
   <v>       0.04737469       0.02059889       0.47994627 </v>
   <v>       0.04689554       0.35732099       0.48288955 </v>
   <v>       0.08856542       0.10305432       0.46672537 </v>
   <v>       0.09017504       0.27225062       0.47081493 </v>
   <v>       0.13323030       0.02309691       0.45829552 </v>
   <v>       0.13389412       0.35062840       0.46468060 </v>
   <v>       0.17731943       0.10182778       0.45070448 </v>
   <v>       0.17650909       0.26925185       0.45640896 </v>
   <v>       0.22212799       0.01727506       0.44999403 </v>
   <v>       0.22210339       0.34696420       0.45972239 </v>
   <v>       0.26665954       0.09955049       0.45458507 </v>
   <v>       0.26737897       0.26852222       0.46221194 </v>
   <v>       0.31103066       0.01437259       0.45965970 </v>
   <v>       0.31090410       0.35202840       0.46529851 </v>
   <v>       0.35421034       0.09331802       0.47176119 </v>
   <v>       0.35433262       0.26783333       0.47062687 </v>
   <v>       0.39951515       0.01531370       0.47416418 </v>
   <v>       0.39746168       0.35090741       0.47957015 </v>
   <v>       0.43999643       0.10062988       0.48733731 </v>
   <v>       0.43937255       0.27026667       0.49088955 </v>
   <v>       0.48565775       0.02073556       0.49530149 </v>
   <v>       0.48252763       0.35416667       0.50231642 </v>
   <v>       0.52518717       0.10243716       0.51065970 </v>
   <v>       0.52532264       0.26903333       0.51327761 </v>
   <v>       0.56883779       0.01960247       0.51690149 </v>
   <v>       0.56566488       0.35157778       0.52697910 </v>
   <v>       0.61021390       0.10490321       0.53177015 </v>
   <v>       0.60884848       0.27294691       0.53846866 </v>
   <v>       0.65361854       0.02686741       0.53920299 </v>
   <v>       0.65201070       0.35690000       0.54379701 </v>
   <v>       0.69573619       0.10768963       0.54657612 </v>
   <v>       0.69494118       0.27550123       0.55009552 </v>
   <v>       0.74089483       0.02391160       0.54482687 </v>
   <v>       0.73982175       0.35640741       0.54914328 </v>
   <v>       0.78338681       0.11153543       0.53621791 </v>
   <v>       0.78368627       0.27637284       0.54621791 </v>
   <v>       0.82764706       0.02718704       0.52643284 </v>
   <v>       0.82867023       0.36198148       0.53991940 </v>
   <v>       0.87062745       0.11361778       0.51981194 </v>
   <v>       0.87105169       0.27992469       0.52919701 </v>
   <v>       0.91340820       0.02622926       0.51384179 </v>
   <v>       0.91456328       0.35824568       0.52298209 </v>
   <v>       0.95537255       0.10966988       0.50201791 </v>
   <v>       0.95397504       0.28413457       0.50424776 </v>
   <v>       0.00810018       0.60277037       0.50291343 </v>
   <v>       0.00782681       0.77105062       0.49914627 </v>
   <v>       0.04980036       0.51883827       0.49355224 </v>
   <v>       0.04923387       0.84976914       0.48322985 </v>
   <v>       0.09458253       0.60056790       0.48354030 </v>
   <v>       0.09269055       0.77051975       0.47655821 </v>
   <v>       0.13529519       0.51834198       0.47106269 </v>
   <v>       0.13391408       0.85502099       0.46391642 </v>
   <v>       0.17930267       0.59855432       0.46156716 </v>
   <v>       0.17830303       0.77071852       0.46077612 </v>
   <v>       0.22279216       0.51224444       0.45728955 </v>
   <v>       0.22196435       0.85123086       0.45613433 </v>
   <v>       0.26678824       0.59740617       0.45647463 </v>
   <v>       0.26672549       0.76979630       0.45537910 </v>
   <v>       0.31183209       0.51954815       0.46463284 </v>
   <v>       0.31108449       0.84201111       0.45791642 </v>
   <v>       0.35606417       0.60496173       0.46022985 </v>
   <v>       0.35691266       0.76682099       0.45584179 </v>
   <v>       0.39878431       0.51946420       0.47001791 </v>
   <v>       0.40215686       0.85405432       0.46574328 </v>
   <v>       0.44351159       0.60078395       0.47835821 </v>
   <v>       0.44588948       0.77238765       0.47277612 </v>
   <v>       0.48359715       0.52076420       0.49596119 </v>
   <v>       0.48686988       0.85236790       0.48643582 </v>
   <v>       0.52703030       0.60426543       0.50401493 </v>
   <v>       0.52921925       0.76931358       0.49756716 </v>
   <v>       0.56828164       0.52088025       0.52157313 </v>
   <v>       0.57014260       0.84487037       0.51228657 </v>
   <v>       0.60987522       0.60632716       0.53117015 </v>
   <v>       0.61147594       0.76908395       0.52260597 </v>
   <v>       0.65171123       0.52812593       0.54485672 </v>
   <v>       0.65334403       0.85514198       0.53357313 </v>
   <v>       0.69683779       0.60408642       0.54816119 </v>
   <v>       0.69575758       0.77441605       0.54578209 </v>
   <v>       0.74158645       0.52891975       0.55113134 </v>
   <v>       0.74160428       0.86243333       0.54237313 </v>
   <v>       0.78645633       0.60772222       0.54994328 </v>
   <v>       0.78547594       0.77623086       0.54274030 </v>
   <v>       0.82967201       0.52850988       0.54526269 </v>
   <v>       0.82946881       0.86036296       0.53448955 </v>
   <v>       0.87504813       0.61029383       0.54029552 </v>
   <v>       0.87387879       0.77815432       0.53526269 </v>
   <v>       0.91686631       0.53104938       0.52800000 </v>
   <v>       0.91533333       0.86067284       0.52499701 </v>
   <v>       0.95926916       0.60803951       0.51823582 </v>
   <v>       0.95935829       0.78368765       0.51617313 </v>
  </varray>
 </structure>
 <calculation>
  <scstep>
   <time name="dav">   11.15   11.15</time>
   <time name="total">   11.61   11.64</time>
   <energy>
    <i name="alphaZ">     91.34886789 </i>
    <i name="ewald"> 119850.35845622 </i>
    <i name="hartreedc">-129177.14112836 </i>
    <i name="XCdc">   1221.53381795 </i>
    <i name="pawpsdc">   9984.02826696 </i>
    <i name="pawaedc"> -10036.41360137 </i>
    <i name="eentropy">     -0.89286032 </i>
    <i name="bandstr">  -1842.68090336 </i>
    <i name="atom">  13537.65479391 </i>
    <i name="e_fr_energy">   3627.79570953 </i>
    <i name="e_wo_entrp">   3628.68856985 </i>
    <i name="e_0_energy">   3628.24213969 </i>
   </energy>
  </scstep>
  <scstep>
   <time name="dav">   13.08   13.08</time>
   <time name="total">   13.08   13.08</time>
   <energy>
    <i name="e_fr_energy">    168.93040059 </i>
    <i name="e_wo_entrp">    169.09820105 </i>
    <i name="e_0_energy">    169.01430082 </i>
   </energy>
  </scstep>
  <scstep>
   <time name="dav">   11.35   11.35</time>
   <time name="total">   11.35   11.35</time>
   <energy>
    <i name="e_fr_energy">   -834.43024335 </i>
    <i name="e_wo_entrp">   -834.41248770 </i>
    <i name="e_0_energy">   -834.42136552 </i>
   </energy>
  </scstep>
  <scstep>
   <time name="dav">   10.97   10.97</time>
   <time name="total">   10.97   10.97</time>
   <energy>
    <i name="e_fr_energy">   -896.12667201 </i>
    <i name="e_wo_entrp">   -896.06916335 </i>
    <i name="e_0_energy">   -896.09791768 </i>
   </energy>
  </scstep>
  <scstep>
   <time name="dav">   11.07   11.07</time>
   <time name="total">   12.55   12.56</time>
   <energy>
    <i name="e_fr_energy">   -897.63431810 </i>
    <i name="e_wo_entrp">   -897.57421869 </i>
    <i name="e_0_energy">   -897.60426839 </i>
   </energy>
  </scstep>
  <scstep>
   <time name="dav">   10.25   10.25</time>
   <time name="total">   12.06   12.06</time>
   <energy>
    <i name="e_fr_energy">   -848.16905984 </i>
    <i name="e_wo_entrp">   -848.09918945 </i>
    <i name="e_0_energy">   -848.13412464 </i>
   </energy>
  </scstep>
  <scstep>
   <time name="dav">   10.08   10.08</time>
   <time name="total">   11.88   11.88</time>
   <energy>
    <i name="e_fr_energy">   -829.71556794 </i>
    <i name="e_wo_entrp">   -829.63535528 </i>
    <i name="e_0_energy">   -829.67546161 </i>
   </energy>
  </scstep>
  <scstep>
   <time name="dav">   10.44   10.45</time>
   <time name="total">   12.24   12.25</time>
   <energy>
    <i name="e_fr_energy">   -829.42654615 </i>
    <i name="e_wo_entrp">   -829.35221411 </i>
    <i name="e_0_energy">   -829.38938013 </i>
   </energy>
  </scstep>
  <scstep>
   <time name="dav">   10.52   10.53</time>
   <time name="total">   12.33   12.33</time>
   <energy>
    <i name="e_fr_energy">   -829.32001797 </i>
    <i name="e_wo_entrp">   -829.24373257 </i>
    <i name="e_0_energy">   -829.28187527 </i>
   </energy>
  </scstep>
  <scstep>
   <time name="dav">   11.12   11.12</time>
   <time name="total">   12.93   12.94</time>
   <energy>
    <i name="e_fr_energy">   -829.27858763 </i>
    <i name="e_wo_entrp">   -829.20214953 </i>
    <i name="e_0_energy">   -829.24036858 </i>
   </energy>
  </scstep>
  <scstep>
   <time name="dav">   10.25   10.25</time>
   <time name="total">   12.08   12.08</time>
   <energy>
    <i name="e_fr_energy">   -829.25054281 </i>
    <i name="e_wo_entrp">   -829.17432969 </i>
    <i name="e_0_energy">   -829.21243625 </i>
   </energy>
  </scstep>
  <scstep>
   <time name="dav">   10.06   10.06</time>
   <time name="total">   11.88   11.89</time>
   <energy>
    <i name="e_fr_energy">   -829.24664163 </i>
    <i name="e_wo_entrp">   -829.17019530 </i>
    <i name="e_0_energy">   -829.20841846 </i>
   </energy>
  </scstep>
  <scstep>
   <time name="dav">   10.20   10.21</time>
   <time name="total">   12.04   12.04</time>
   <energy>
    <i name="e_fr_energy">   -829.25885086 </i>
    <i name="e_wo_entrp">   -829.18257895 </i>
    <i name="e_0_energy">   -829.22071491 </i>
   </energy>
  </scstep>
  <scstep>
   <time name="dav">   10.18   10.18</time>
   <time name="total">   12.02   12.03</time>
   <energy>
    <i name="e_fr_energy">   -829.27880642 </i>
    <i name="e_wo_entrp">   -829.20241649 </i>
    <i name="e_0_energy">   -829.24061146 </i>
   </energy>
  </scstep>
  <scstep>
   <time name="dav">   10.31   10.31</time>
   <time name="total">   12.16   12.17</time>
   <energy>
    <i name="e_fr_energy">   -829.29734923 </i>
    <i name="e_wo_entrp">   -829.22092905 </i>
    <i name="e_0_energy">   -829.25913914 </i>
   </energy>
  </scstep>
  <scstep>
   <time name="dav">   10.47   10.48</time>
   <time name="total">   12.34   12.35</time>
   <energy>
    <i name="e_fr_energy">   -829.30614586 </i>
    <i name="e_wo_entrp">   -829.22975834 </i>
    <i name="e_0_energy">   -829.26795210 </i>
   </energy>
  </scstep>
  <scstep>
   <time name="dav">   10.39   10.39</time>
   <time name="total">   12.26   12.26</time>
   <energy>
    <i name="e_fr_energy">   -829.31064892 </i>
    <i name="e_wo_entrp">   -829.23424735 </i>
    <i name="e_0_energy">   -829.27244814 </i>
   </energy>
  </scstep>
  <scstep>
   <time name="dav">    9.78    9.78</time>
   <time name="total">   11.66   11.66</time>
   <energy>
    <i name="e_fr_energy">   -829.31237573 </i>
    <i name="e_wo_entrp">   -829.23598805 </i>
    <i name="e_0_energy">   -829.27418189 </i>
   </energy>
  </scstep>
  <scstep>
   <time name="dav">    9.09    9.10</time>
   <time name="total">   10.99   10.99</time>
   <energy>
    <i name="e_fr_energy">   -829.31335351 </i>
    <i name="e_wo_entrp">   -829.23696035 </i>
    <i name="e_0_energy">   -829.27515693 </i>
   </energy>
  </scstep>
  <scstep>
   <time name="dav">    9.14    9.15</time>
   <time name="total">   11.05   11.05</time>
   <energy>
    <i name="e_fr_energy">   -829.31364256 </i>
    <i name="e_wo_entrp">   -829.23724940 </i>
    <i name="e_0_energy">   -829.27544598 </i>
   </energy>
  </scstep>
  <scstep>
   <time name="dav">    8.37    8.38</time>
   <time name="total">   10.30   10.31</time>
   <energy>
    <i name="e_fr_energy">   -829.31383229 </i>
    <i name="e_wo_entrp">   -829.23743796 </i>
    <i name="e_0_energy">   -829.27563513 </i>
   </energy>
  </scstep>
  <scstep>
   <time name="dav">    7.66    7.66</time>
   <time name="total">    9.59    9.60</time>
   <energy>
    <i name="e_fr_energy">   -829.31387763 </i>
    <i name="e_wo_entrp">   -829.23748339 </i>
    <i name="e_0_energy">   -829.27568051 </i>
   </energy>
  </scstep>
  <scstep>
   <time name="dav">    7.15    7.15</time>
   <time name="total">    9.10    9.10</time>
   <energy>
    <i name="e_fr_energy">   -829.31390322 </i>
    <i name="e_wo_entrp">   -829.23750943 </i>
    <i name="e_0_energy">   -829.27570633 </i>
   </energy>
  </scstep>
  <scstep>
   <time name="dav">    7.27    7.27</time>
   <time name="total">    9.23    9.23</time>
   <energy>
    <i name="e_fr_energy">   -829.31391188 </i>
    <i name="e_wo_entrp">   -829.23751798 </i>
    <i name="e_0_energy">   -829.27571493 </i>
   </energy>
  </scstep>
  <scstep>
   <time name="dav">    6.81    6.82</time>
   <time name="total">    8.78    8.79</time>
   <energy>
    <i name="e_fr_energy">   -829.31391666 </i>
    <i name="e_wo_entrp">   -829.23752284 </i>
    <i name="e_0_energy">   -829.27571975 </i>
   </energy>
  </scstep>
  <scstep>
   <time name="dav">    7.14    7.14</time>
   <time name="total">    9.14    9.14</time>
   <energy>
    <i name="e_fr_energy">   -829.31391942 </i>
    <i name="e_wo_entrp">   -829.23752567 </i>
    <i name="e_0_energy">   -829.27572254 </i>
   </energy>
  </scstep>
  <scstep>
   <time name="dav">    7.15    7.15</time>
   <time name="total">    9.15    9.16</time>
   <energy>
    <i name="e_fr_energy">   -829.31392102 </i>
    <i name="e_wo_entrp">   -829.23752718 </i>
    <i name="e_0_energy">   -829.27572410 </i>
   </energy>
  </scstep>
  <scstep>
   <time name="dav">    7.19    7.19</time>
   <time name="total">    9.21    9.22</time>
   <energy>
    <i name="e_fr_energy">   -829.31392213 </i>
    <i name="e_wo_entrp">   -829.23752832 </i>
    <i name="e_0_energy">   -829.27572522 </i>
   </energy>
  </scstep>
  <scstep>
   <time name="dav">    7.11    7.12</time>
   <time name="total">    7.48    7.48</time>
   <energy>
    <i name="alphaZ">     91.34886789 </i>
    <i name="ewald"> 119850.35845622 </i>
    <i name="hartreedc">-130939.47033607 </i>
    <i name="XCdc">   1278.78283564 </i>
    <i name="pawpsdc">  41045.32285138 </i>
    <i name="pawaedc"> -41109.37089359 </i>
    <i name="eentropy">     -0.07639382 </i>
    <i name="bandstr">  -4583.86410415 </i>
    <i name="atom">  13537.65479391 </i>
    <i name="e_fr_energy">   -829.31392261 </i>
    <i name="e_wo_entrp">   -829.23752879 </i>
    <i name="e_0_energy">   -829.27572570 </i>
   </energy>
  </scstep>
  <structure>
   <crystal>
    <varray name="basis" >
     <v>      28.05000000       0.00000000       0.00000000 </v>
     <v>       0.00000000       8.10000000       0.00000000 </v>
     <v>       0.00000000       0.00000000      33.50000000 </v>
    </varray>
    <i name="volume">   7611.36750000 </i>
    <varray name="rec_basis" >
     <v>       0.03565062       0.00000000       0.00000000 </v>
     <v>       0.00000000       0.12345679       0.00000000 </v>
     <v>       0.00000000       0.00000000       0.02985075 </v>
    </varray>
   </crystal>
   <varray name="positions" >
    <v>       0.00288500       0.10452630       0.48690149 </v>
    <v>       0.00239413       0.27736296       0.48658209 </v>
    <v>       0.04737469       0.02059889       0.47994627 </v>
    <v>       0.04689554       0.35732099       0.48288955 </v>
    <v>       0.08856542       0.10305432       0.46672537 </v>
    <v>       0.09017504       0.27225062       0.47081493 </v>
    <v>       0.13323030       0.02309691       0.45829552 </v>
    <v>       0.13389412       0.35062840       0.46468060 </v>
    <v>       0.17731943       0.10182778       0.45070448 </v>
    <v>       0.17650909       0.26925185       0.45640896 </v>
    <v>       0.22212799       0.01727506       0.44999403 </v>
    <v>       0.22210339       0.34696420       0.45972239 </v>
    <v>       0.26665954       0.09955049       0.45458507 </v>
    <v>       0.26737897       0.26852222       0.46221194 </v>
    <v>       0.31103066       0.01437259       0.45965970 </v>
    <v>       0.31090410       0.35202840       0.46529851 </v>
    <v>       0.35421034       0.09331802       0.47176119 </v>
    <v>       0.35433262       0.26783333       0.47062687 </v>
    <v>       0.39951515       0.01531370       0.47416418 </v>
    <v>       0.39746168       0.35090741       0.47957015 </v>
    <v>       0.43999643       0.10062988       0.48733731 </v>
    <v>       0.43937255       0.27026667       0.49088955 </v>
    <v>       0.48565775       0.02073556       0.49530149 </v>
    <v>       0.48252763       0.35416667       0.50231642 </v>
    <v>       0.52518717       0.10243716       0.51065970 </v>
    <v>       0.52532264       0.26903333       0.51327761 </v>
    <v>       0.56883779       0.01960247       0.51690149 </v>
    <v>       0.56566488       0.35157778       0.52697910 </v>
    <v>       0.61021390       0.10490321       0.53177015 </v>
    <v>       0.60884848       0.27294691       0.53846866 </v>
    <v>       0.65361854       0.02686741       0.53920299 </v>
    <v>       0.65201070       0.35690000       0.54379701 </v>
    <v>       0.69573619       0.10768963       0.54657612 </v>
    <v>       0.69494118       0.27550123       0.55009552 </v>
    <v>       0.74089483       0.02391160       0.54482687 </v>
    <v>       0.73982175       0.35640741       0.54914328 </v>
    <v>       0.78338681       0.11153543       0.53621791 </v>
    <v>       0.78368627       0.27637284       0.54621791 </v>
    <v>       0.82764706       0.02718704       0.52643284 </v>
    <v>       0.82867023       0.36198148       0.53991940 </v>
    <v>       0.87062745       0.11361778       0.51981194 </v>
    <v>       0.87105169       0.27992469       0.52919701 </v>
    <v>       0.91340820       0.02622926       0.51384179 </v>
    <v>       0.91456328       0.35824568       0.52298209 </v>
    <v>       0.95537255       0.10966988       0.50201791 </v>
    <v>       0.95397504       0.28413457       0.50424776 </v>
    <v>       0.00810018       0.60277037       0.50291343 </v>
    <v>       0.00782681       0.77105062       0.49914627 </v>
    <v>       0.04980036       0.51883827       0.49355224 </v>
    <v>       0.04923387       0.84976914       0.48322985 </v>
    <v>       0.09458253       0.60056790       0.48354030 </v>
    <v>       0.09269055       0.77051975       0.47655821 </v>
    <v>       0.13529519       0.51834198       0.47106269 </v>
    <v>       0.13391408       0.85502099       0.46391642 </v>
    <v>       0.17930267       0.59855432       0.46156716 </v>
    <v>       0.17830303       0.77071852       0.46077612 </v>
    <v>       0.22279216       0.51224444       0.45728955 </v>
    <v>       0.22196435       0.85123086       0.45613433 </v>
    <v>       0.26678824       0.59740617       0.45647463 </v>
    <v>       0.26672549       0.76979630       0.45537910 </v>
    <v>       0.31183209       0.51954815       0.46463284 </v>
    <v>       0.31108449       0.84201111       0.45791642 </v>
    <v>       0.35606417       0.60496173       0.46022985 </v>
    <v>       0.35691266       0.76682099       0.45584179 </v>
    <v>       0.39878431       0.51946420       0.47001791 </v>
    <v>       0.40215686       0.85405432       0.46574328 </v>
    <v>       0.44351159       0.60078395       0.47835821 </v>
    <v>       0.44588948       0.77238765       0.47277612 </v>
    <v>       0.48359715       0.52076420       0.49596119 </v>
    <v>       0.48686988       0.85236790       0.48643582 </v>
    <v>       0.52703030       0.60426543       0.50401493 </v>
    <v>       0.52921925       0.76931358       0.49756716 </v>
    <v>       0.56828164       0.52088025       0.52157313 </v>
    <v>       0.57014260       0.84487037       0.51228657 </v>
    <v>       0.60987522       0.60632716       0.53117015 </v>
    <v>       0.61147594       0.76908395       0.52260597 </v>
    <v>       0.65171123       0.52812593       0.54485672 </v>
    <v>       0.65334403       0.85514198       0.53357313 </v>
    <v>       0.69683779       0.60408642       0.54816119 </v>
    <v>       0.69575758       0.77441605       0.54578209 </v>
    <v>       0.74158645       0.52891975       0.55113134 </v>
    <v>       0.74160428       0.86243333       0.54237313 </v>
    <v>       0.78645633       0.60772222       0.54994328 </v>
    <v>       0.78547594       0.77623086       0.54274030 </v>
    <v>       0.82967201       0.52850988       0.54526269 </v>
    <v>       0.82946881       0.86036296       0.53448955 </v>
    <v>       0.87504813       0.61029383       0.54029552 </v>
    <v>       0.87387879       0.77815432       0.53526269 </v>
    <v>       0.91686631       0.53104938       0.52800000 </v>
    <v>       0.91533333       0.86067284       0.52499701 </v>
    <v>       0.95926916       0.60803951       0.51823582 </v>
    <v>       0.95935829       0.78368765       0.51617313 </v>
   </varray>
  </structure>
  <varray name="forces" >
   <v>       3.25337228       0.57986780      -1.12013914 </v>
   <v>       3.05566864      -0.05562979      -0.08537329 </v>
   <v>      -2.12628858       0.11653836      -0.63494368 </v>
   <v>      -0.16044228      -1.73962510       0.04335330 </v>
   <v>       0.91935557       0.43980340       0.21381753 </v>
   <v>      -1.64993634       0.01221347      -0.33041327 </v>
   <v>      -0.78307727      -0.51449222      -0.14348457 </v>
   <v>      -0.27392363       0.29871749       0.50688955 </v>
   <v>      -0.32567763      -0.40577129       0.57619879 </v>
   <v>       1.67820661      -0.05960261       0.00210979 </v>
   <v>      -0.23395925       1.48732977       0.51967874 </v>
   <v>       0.16024884      -1.06240510      -0.37342874 </v>
   <v>       1.01174535      -0.07158682       0.84466077 </v>
   <v>      -1.46723141      -0.94202796      -1.26762669 </v>
   <v>      -0.02604756       0.08723839       0.66042458 </v>
   <v>       0.53728885      -1.08780618       0.73088053 </v>
   <v>      -0.51184273       1.65468888      -1.57667812 </v>
   <v>       0.26441660      -1.56078385       1.15381751 </v>
   <v>      -0.94163078       1.65248447       0.49396948 </v>
   <v>      -0.71746637       1.16953365      -1.13864954 </v>
   <v>       2.12490728      -0.27826088       0.72116312 </v>
   <v>       0.80061363       0.00606764       0.59834194 </v>
   <v>      -2.68557303      -0.48705791      -1.20526612 </v>
   <v>      -0.58287542      -1.24098924      -0.44257498 </v>
   <v>       1.09904309      -1.47456516      -0.46415283 </v>
   <v>      -1.71111726       1.57191417       0.70342297 </v>
   <v>       0.67337467      -0.64944791       0.64896424 </v>
   <v>       1.07177943       0.93044009       0.04094347 </v>
   <v>      -0.98092681      -0.35413151       0.14988821 </v>
   <v>      -1.09413928      -0.27688989      -1.20156994 </v>
   <v>      -1.09649776      -2.11305181      -1.21356304 </v>
   <v>      -0.80938266       0.68031661       1.52633605 </v>
   <v>       1.43091441      -0.52929551       0.48001585 </v>
   <v>       1.31190634       0.25676383      -0.82049864 </v>
   <v>      -0.35466083       3.74271532      -1.33953552 </v>
   <v>       0.04492640       1.26151574       1.35801369 </v>
   <v>       1.08749589      -1.17379270       0.91167684 </v>
   <v>       1.71587044       0.20520421      -2.08217564 </v>
   <v>      -1.14064578       0.92110505       0.88529860 </v>
   <v>      -1.00552611      -1.48134516       0.95752855 </v>
   <v>      -0.78876516      -0.40891508       0.79824617 </v>
   <v>      -0.10087895      -0.82735409      -0.88133345 </v>
   <v>       1.28850345       0.57069088      -0.13080408 </v>
   <v>       1.95905917       1.67331585      -1.10917390 </v>
   <v>      -4.09737949       0.11420776       1.05950138 </v>
   <v>      -1.38931926      -2.02126658       0.34273041 </v>
   <v>       1.54767852       0.34728896       0.02873838 </v>
   <v>       2.59922396       0.90143040      -0.74286285 </v>
   <v>       0.92692920       1.10439607      -0.61820523 </v>
   <v>      -2.05775893       0.64537586       1.19780120 </v>
   <v>      -1.76709291       0.86791427      -0.13200960 </v>
   <v>      -0.01458434      -0.82347297       0.49488179 </v>
   <v>       1.46932289       0.10169873      -0.43404609 </v>
   <v>       0.68995389      -0.96021723       0.05575860 </v>
   <v>      -1.19534073       0.69973489       0.57794460 </v>
   <v>      -0.20427650      -0.86963801      -0.16416901 </v>
   <v>      -0.08127871       2.40711699       0.58219569 </v>
   <v>       0.62393370      -0.26053567      -0.97172287 </v>
   <v>       0.72972256       0.30769744       0.99086038 </v>
   <v>      -0.70833037      -2.19039864       0.18212316 </v>
   <v>      -1.20471974       1.54855606      -2.18620963 </v>
   <v>       1.20678576       2.65059218      -1.19625087 </v>
   <v>       0.44103623      -3.94630745       0.99152446 </v>
   <v>       0.78120271       3.14555167       1.25319078 </v>
   <v>       1.47685760      -0.12994465       1.22798062 </v>
   <v>      -1.32397739      -2.48388219      -1.21313204 </v>
   <v>      -0.59046938       0.03644238      -0.62360806 </v>
   <v>      -0.77176572      -1.19400657       0.33198416 </v>
   <v>       0.18621166       0.67069781      -0.42640401 </v>
   <v>       0.95765005       1.27103739       0.39739580 </v>
   <v>       0.73140937      -2.11303953       0.39393574 </v>
   <v>      -0.45971041       0.03430597       0.38077506 </v>
   <v>      -2.13299225       0.38638344      -0.41727020 </v>
   <v>      -0.93749035       4.25592341      -1.08212623 </v>
   <v>       0.69261605      -1.45620446      -0.08645403 </v>
   <v>       1.68298110       0.82302409       1.26125524 </v>
   <v>       0.56380934      -1.24602014      -0.73598606 </v>
   <v>       0.84807974       0.35144561       1.18643395 </v>
   <v>      -0.54071764       1.88498449       0.31716261 </v>
   <v>       1.30024238       0.75842669      -1.70539620 </v>
   <v>      -0.36760374      -1.98449703       0.12533727 </v>
   <v>      -1.50734596      -4.66321974       1.12691212 </v>
   <v>      -1.21104608       1.41460939      -0.47819423 </v>
   <v>       0.84380265       0.92639399       0.01924688 </v>
   <v>       1.82825819      -0.02999879       0.21204888 </v>
   <v>      -1.16614550      -0.76470151       0.15513107 </v>
   <v>      -1.21052874       0.11483820      -0.35426626 </v>
   <v>      -0.62383447       0.22017391       0.34419436 </v>
   <v>       0.83657634      -1.87412072       0.50908110 </v>
   <v>       2.54784406       0.86528026      -1.94729262 </v>
   <v>      -1.83533287       1.90112482       0.84143999 </v>
   <v>      -2.03327057      -2.26881860       0.96378529 </v>
  </varray>
  <varray name="stress" >
   <v>      -1.35574332       0.06546553       0.15160669 </v>
   <v>       0.06546553      52.18770044      -0.26743188 </v>
   <v>       0.15160669      -0.26743188      -1.11910308 </v>
  </varray>
  <energy>
   <i name="e_fr_energy">   -829.31392261 </i>
   <i name="e_wo_entrp">   -829.23752879 </i>
   <i name="e_0_energy">   -829.27572570 </i>
  </energy>
  <time name="totalsc">  332.96  333.15</time>
  <eigenvalues>
   <array>
    <dimension dim="1">band</dimension>
    <dimension dim="2">kpoint</dimension>
    <dimension dim="3">spin</dimension>
    <field>eigene</field>
    <field>occ</field>
    <set>
     <set comment="spin 1">
      <set comment="kpoint 1">
       <r>  -23.1602    1.0000 </r>
       <r>  -23.0554    1.0000 </r>
       <r>  -23.0023    1.0000 </r>
       <r>  -22.6686    1.0000 </r>
       <r>  -22.6170    1.0000 </r>
       <r>  -22.2973    1.0000 </r>
       <r>  -22.0734    1.0000 </r>
       <r>  -21.9718    1.0000 </r>
       <r>  -21.5862    1.0000 </r>
       <r>  -21.4944    1.0000 </r>
       <r>  -21.4349    1.0000 </r>
       <r>  -21.3437    1.0000 </r>
       <r>  -21.2518    1.0000 </r>
       <r>  -21.2173    1.0000 </r>
       <r>  -21.1469    1.0000 </r>
       <r>  -21.0752    1.0000 </r>
       <r>  -21.0184    1.0000 </r>
       <r>  -20.9571    1.0000 </r>
       <r>  -20.7749    1.0000 </r>
       <r>  -20.5975    1.0000 </r>
       <r>  -20.4036    1.0000 </r>
       <r>  -20.3341    1.0000 </r>
       <r>  -20.1476    1.0000 </r>
       <r>  -20.0635    1.0000 </r>
       <r>  -19.9503    1.0000 </r>
       <r>  -19.7364    1.0000 </r>
       <r>  -19.5325    1.0000 </r>
       <r>  -19.4477    1.0000 </r>
       <r>  -19.1676    1.0000 </r>
       <r>  -18.8901    1.0000 </r>
       <r>  -18.7054    1.0000 </r>
       <r>  -18.6454    1.0000 </r>
       <r>  -18.5284    1.0000 </r>
       <r>  -18.3972    1.0000 </r>
       <r>  -18.1706    1.0000 </r>
       <r>  -17.5634    1.0000 </r>
       <r>  -17.3350    1.0000 </r>
       <r>  -17.2150    1.0000 </r>
       <r>  -17.0494    1.0000 </r>
       <r>  -16.9158    1.0000 </r>
       <r>  -16.8713    1.0000 </r>
       <r>  -16.6947    1.0000 </r>
       <r>  -16.6741    1.0000 </r>
       <r>  -16.6275    1.0000 </r>
       <r>  -16.5903    1.0000 </r>
       <r>  -16.5373    1.0000 </r>
       <r>  -16.4764    1.0000 </r>
       <r>  -16.4450    1.0000 </r>
       <r>  -16.4219    1.0000 </r>
       <r>  -16.3405    1.0000 </r>
       <r>  -16.2625    1.0000 </r>
       <r>  -16.1324    1.0000 </r>
       <r>  -16.0659    1.0000 </r>
       <r>  -16.0401    1.0000 </r>
       <r>  -15.8780    1.0000 </r>
       <r>  -15.6197    1.0000 </r>
       <r>  -15.4295    1.0000 </r>
       <r>  -15.3088    1.0000 </r>
       <r>  -15.2396    1.0000 </r>
       <r>  -15.2090    1.0000 </r>
       <r>  -15.0930    1.0000 </r>
       <r>  -15.0012    1.0000 </r>
       <r>  -14.3588    1.0000 </r>
       <r>  -14.2078    1.0000 </r>
       <r>  -14.0869    1.0000 </r>
       <r>  -14.0357    1.0000 </r>
       <r>  -13.9548    1.0000 </r>
       <r>  -13.7812    1.0000 </r>
       <r>  -13.6807    1.0000 </r>
       <r>  -13.6335    1.0000 </r>
       <r>  -13.4534    1.0000 </r>
       <r>  -13.4104    1.0000 </r>
       <r>  -13.2601    1.0000 </r>
       <r>  -13.1990    1.0000 </r>
       <r>  -13.0222    1.0000 </r>
       <r>  -12.9484    1.0000 </r>
       <r>  -12.6686    1.0000 </r>
       <r>  -12.4170    1.0000 </r>
       <r>  -12.1574    1.0000 </r>
       <r>  -12.1507    1.0000 </r>
       <r>  -12.0351    1.0000 </r>
       <r>  -11.9842    1.0000 </r>
       <r>  -11.8602    1.0000 </r>
       <r>  -11.8147    1.0000 </r>
       <r>  -11.7698    1.0000 </r>
       <r>  -11.5490    1.0000 </r>
       <r>  -11.3632    1.0000 </r>
       <r>  -11.2073    1.0000 </r>
       <r>  -11.0604    1.0000 </r>
       <r>  -11.0327    1.0000 </r>
       <r>  -10.9823    1.0000 </r>
       <r>  -10.9054    1.0000 </r>
       <r>  -10.7923    1.0000 </r>
       <r>  -10.7252    1.0000 </r>
       <r>  -10.6685    1.0000 </r>
       <r>  -10.6371    1.0000 </r>
       <r>  -10.6055    1.0000 </r>
       <r>  -10.5434    1.0000 </r>
       <r>  -10.4959    1.0000 </r>
       <r>  -10.4097    1.0000 </r>
       <r>  -10.3587    1.0000 </r>
       <r>  -10.3172    1.0000 </r>
       <r>  -10.2032    1.0000 </r>
       <r>  -10.1810    1.0000 </r>
       <r>  -10.1746    1.0000 </r>
       <r>  -10.0067    1.0000 </r>
       <r>   -9.8351    1.0000 </r>
       <r>   -9.8142    1.0000 </r>
       <r>   -9.7875    1.0000 </r>
       <r>   -9.6977    1.0000 </r>
       <r>   -9.6706    1.0000 </r>
       <r>   -9.6492    1.0000 </r>
       <r>   -9.6129    1.0000 </r>
       <r>   -9.5858    1.0000 </r>
       <r>   -9.5516    1.0000 </r>
       <r>   -9.5319    1.0000 </r>
       <r>   -9.4912    1.0000 </r>
       <r>   -9.4737    1.0000 </r>
       <r>   -9.4522    1.0000 </r>
       <r>   -9.4075    1.0000 </r>
       <r>   -9.3938    1.0000 </r>
       <r>   -9.3515    1.0000 </r>
       <r>   -9.3332    1.0000 </r>
       <r>   -9.3135    1.0000 </r>
       <r>   -9.2838    1.0000 </r>
       <r>   -9.2652    1.0000 </r>
       <r>   -9.2082    1.0000 </r>
       <r>   -9.1757    1.0000 </r>
       <r>   -9.1508    1.0000 </r>
       <r>   -9.1070    1.0000 </r>
       <r>   -9.0885    1.0000 </r>
       <r>   -9.0319    1.0000 </r>
       <r>   -8.9667    1.0000 </r>
       <r>   -8.9160    1.0000 </r>
       <r>   -8.8986    1.0000 </r>
       <r>   -8.8861    1.0000 </r>
       <r>   -8.8373    1.0000 </r>
       <r>   -8.7906    1.0000 </r>
       <r>   -8.7603    1.0000 </r>
       <r>   -8.6789    1.0000 </r>
       <r>   -8.6538    1.0000 </r>
       <r>   -8.5896    1.0000 </r>
       <r>   -8.5428    1.0000 </r>
       <r>   -8.4916    1.0000 </r>
       <r>   -8.4740    1.0000 </r>
       <r>   -8.3567    1.0000 </r>
       <r>   -8.0659    1.0000 </r>
       <r>   -7.9730    1.0000 </r>
       <r>   -7.8298    1.0000 </r>
       <r>   -7.7937    1.0000 </r>
       <r>   -7.7319    1.0000 </r>
       <r>   -7.5820    1.0000 </r>
       <r>   -7.5525    1.0000 </r>
       <r>   -7.4653    1.0000 </r>
       <r>   -7.4441    1.0000 </r>
       <r>   -7.3769    1.0000 </r>
       <r>   -7.2131    1.0000 </r>
       <r>   -7.1325    1.0000 </r>
       <r>   -7.0288    1.0000 </r>
       <r>   -6.9050    1.0000 </r>
       <r>   -6.7799    1.0000 </r>
       <r>   -6.7390    1.0000 </r>
       <r>   -6.6377    1.0000 </r>
       <r>   -6.5327    1.0000 </r>
       <r>   -6.5051    1.0000 </r>
       <r>   -6.2368    1.0000 </r>
       <r>   -6.2071    1.0000 </r>
       <r>   -6.0235    1.0000 </r>
       <r>   -5.9817    1.0000 </r>
       <r>   -5.9641    1.0000 </r>
       <r>   -5.9220    1.0000 </r>
       <r>   -5.9001    1.0000 </r>
       <r>   -5.8553    1.0000 </r>
       <r>   -5.0815    1.0000 </r>
       <r>   -4.9455    1.0000 </r>
       <r>   -4.8637    1.0000 </r>
       <r>   -4.5729    1.0000 </r>
       <r>   -4.5308    1.0000 </r>
       <r>   -4.4938    1.0000 </r>
       <r>   -4.3917    1.0000 </r>
       <r>   -4.3895    1.0000 </r>
       <r>   -3.7378    1.0000 </r>
       <r>   -3.6787    0.9999 </r>
       <r>   -3.1840    0.5994 </r>
       <r>   -3.0541    0.2525 </r>
       <r>   -2.7368    0.0018 </r>
       <r>   -2.6505    0.0002 </r>
       <r>   -2.5885    0.0000 </r>
       <r>   -2.1739    0.0000 </r>
       <r>   -2.1201    0.0000 </r>
       <r>   -1.7512    0.0000 </r>
       <r>   -1.6353    0.0000 </r>
       <r>   -1.5397    0.0000 </r>
       <r>   -1.4868    0.0000 </r>
       <r>   -1.4199    0.0000 </r>
       <r>   -1.3862    0.0000 </r>
       <r>   -1.3575    0.0000 </r>
       <r>   -1.0108    0.0000 </r>
       <r>   -0.7732    0.0000 </r>
       <r>   -0.7291    0.0000 </r>
       <r>   -0.5346    0.0000 </r>
       <r>   -0.4220    0.0000 </r>
       <r>   -0.0898    0.0000 </r>
       <r>    0.0419    0.0000 </r>
       <r>    0.1408    0.0000 </r>
       <r>    0.1557    0.0000 </r>
       <r>    0.2597    0.0000 </r>
       <r>    0.5499    0.0000 </r>
       <r>    0.6560    0.0000 </r>
       <r>    0.7025    0.0000 </r>
       <r>    0.7447    0.0000 </r>
       <r>    0.8498    0.0000 </r>
       <r>    0.8945    0.0000 </r>
       <r>    0.9201    0.0000 </r>
       <r>    0.9321    0.0000 </r>
       <r>    0.9850    0.0000 </r>
       <r>    1.0158    0.0000 </r>
       <r>    1.1520    0.0000 </r>
       <r>    1.1589    0.0000 </r>
       <r>    1.2205    0.0000 </r>
       <r>    1.3057    0.0000 </r>
       <r>    1.3211    0.0000 </r>
       <r>    1.3287    0.0000 </r>
       <r>    1.4071    0.0000 </r>
       <r>    1.4611    0.0000 </r>
       <r>    1.5519    0.0000 </r>
       <r>    1.5615    0.0000 </r>
       <r>    1.6960    0.0000 </r>
       <r>    1.7301    0.0000 </r>
       <r>    1.7312    0.0000 </r>
       <r>    1.7412    0.0000 </r>
       <r>    1.7881    0.0000 </r>
      </set>
      <set comment="kpoint 2">
       <r>  -23.0653    1.0000 </r>
       <r>  -22.9634    1.0000 </r>
       <r>  -22.9033    1.0000 </r>
       <r>  -22.5781    1.0000 </r>
       <r>  -22.5185    1.0000 </r>
       <r>  -22.4646    1.0000 </r>
       <r>  -22.2102    1.0000 </r>
       <r>  -22.1135    1.0000 </r>
       <r>  -21.9642    1.0000 </r>
       <r>  -21.8654    1.0000 </r>
       <r>  -21.8373    1.0000 </r>
       <r>  -21.7105    1.0000 </r>
       <r>  -21.2902    1.0000 </r>
       <r>  -21.1454    1.0000 </r>
       <r>  -21.0761    1.0000 </r>
       <r>  -20.9679    1.0000 </r>
       <r>  -20.6011    1.0000 </r>
       <r>  -20.5414    1.0000 </r>
       <r>  -20.4932    1.0000 </r>
       <r>  -20.3305    1.0000 </r>
       <r>  -20.1868    1.0000 </r>
       <r>  -20.1359    1.0000 </r>
       <r>  -20.0522    1.0000 </r>
       <r>  -19.8633    1.0000 </r>
       <r>  -19.8183    1.0000 </r>
       <r>  -19.5186    1.0000 </r>
       <r>  -19.4967    1.0000 </r>
       <r>  -19.1061    1.0000 </r>
       <r>  -19.0596    1.0000 </r>
       <r>  -18.8611    1.0000 </r>
       <r>  -18.6368    1.0000 </r>
       <r>  -18.5779    1.0000 </r>
       <r>  -18.5257    1.0000 </r>
       <r>  -18.2792    1.0000 </r>
       <r>  -18.1740    1.0000 </r>
       <r>  -18.0801    1.0000 </r>
       <r>  -18.0277    1.0000 </r>
       <r>  -18.0106    1.0000 </r>
       <r>  -17.8020    1.0000 </r>
       <r>  -17.7412    1.0000 </r>
       <r>  -17.4360    1.0000 </r>
       <r>  -17.3479    1.0000 </r>
       <r>  -17.3027    1.0000 </r>
       <r>  -17.1140    1.0000 </r>
       <r>  -17.0468    1.0000 </r>
       <r>  -16.6012    1.0000 </r>
       <r>  -16.3542    1.0000 </r>
       <r>  -16.1653    1.0000 </r>
       <r>  -16.0734    1.0000 </r>
       <r>  -15.8477    1.0000 </r>
       <r>  -15.7656    1.0000 </r>
       <r>  -15.6777    1.0000 </r>
       <r>  -15.5737    1.0000 </r>
       <r>  -15.3731    1.0000 </r>
       <r>  -15.2951    1.0000 </r>
       <r>  -15.1995    1.0000 </r>
       <r>  -15.1380    1.0000 </r>
       <r>  -15.0705    1.0000 </r>
       <r>  -14.9943    1.0000 </r>
       <r>  -14.9602    1.0000 </r>
       <r>  -14.9190    1.0000 </r>
       <r>  -14.7425    1.0000 </r>
       <r>  -14.5252    1.0000 </r>
       <r>  -14.3672    1.0000 </r>
       <r>  -14.3154    1.0000 </r>
       <r>  -14.1841    1.0000 </r>
       <r>  -13.9601    1.0000 </r>
       <r>  -13.8397    1.0000 </r>
       <r>  -13.3395    1.0000 </r>
       <r>  -13.2407    1.0000 </r>
       <r>  -13.1809    1.0000 </r>
       <r>  -13.1528    1.0000 </r>
       <r>  -12.9238    1.0000 </r>
       <r>  -12.8408    1.0000 </r>
       <r>  -12.7945    1.0000 </r>
       <r>  -12.7501    1.0000 </r>
       <r>  -12.6824    1.0000 </r>
       <r>  -12.5283    1.0000 </r>
       <r>  -12.4276    1.0000 </r>
       <r>  -12.2899    1.0000 </r>
       <r>  -12.1544    1.0000 </r>
       <r>  -12.0940    1.0000 </r>
       <r>  -11.9880    1.0000 </r>
       <r>  -11.9366    1.0000 </r>
       <r>  -11.6953    1.0000 </r>
       <r>  -11.6004    1.0000 </r>
       <r>  -11.4739    1.0000 </r>
       <r>  -11.3708    1.0000 </r>
       <r>  -11.2684    1.0000 </r>
       <r>  -11.2293    1.0000 </r>
       <r>  -11.0689    1.0000 </r>
       <r>  -11.0348    1.0000 </r>
       <r>  -11.0106    1.0000 </r>
       <r>  -10.9530    1.0000 </r>
       <r>  -10.9377    1.0000 </r>
       <r>  -10.8679    1.0000 </r>
       <r>  -10.8420    1.0000 </r>
       <r>  -10.8032    1.0000 </r>
       <r>  -10.7418    1.0000 </r>
       <r>  -10.6546    1.0000 </r>
       <r>  -10.5496    1.0000 </r>
       <r>  -10.4905    1.0000 </r>
       <r>  -10.4576    1.0000 </r>
       <r>  -10.3973    1.0000 </r>
       <r>  -10.3702    1.0000 </r>
       <r>  -10.3469    1.0000 </r>
       <r>  -10.2451    1.0000 </r>
       <r>  -10.0820    1.0000 </r>
       <r>  -10.0730    1.0000 </r>
       <r>  -10.0462    1.0000 </r>
       <r>   -9.9535    1.0000 </r>
       <r>   -9.9142    1.0000 </r>
       <r>   -9.8797    1.0000 </r>
       <r>   -9.7922    1.0000 </r>
       <r>   -9.7383    1.0000 </r>
       <r>   -9.7042    1.0000 </r>
       <r>   -9.6734    1.0000 </r>
       <r>   -9.6034    1.0000 </r>
       <r>   -9.5866    1.0000 </r>
       <r>   -9.5260    1.0000 </r>
       <r>   -9.4891    1.0000 </r>
       <r>   -9.4589    1.0000 </r>
       <r>   -9.3901    1.0000 </r>
       <r>   -9.3772    1.0000 </r>
       <r>   -9.3272    1.0000 </r>
       <r>   -9.2141    1.0000 </r>
       <r>   -9.0177    1.0000 </r>
       <r>   -8.9400    1.0000 </r>
       <r>   -8.8543    1.0000 </r>
       <r>   -8.7999    1.0000 </r>
       <r>   -8.7628    1.0000 </r>
       <r>   -8.7096    1.0000 </r>
       <r>   -8.6741    1.0000 </r>
       <r>   -8.5938    1.0000 </r>
       <r>   -8.5782    1.0000 </r>
       <r>   -8.5383    1.0000 </r>
       <r>   -8.5021    1.0000 </r>
       <r>   -8.4506    1.0000 </r>
       <r>   -8.3510    1.0000 </r>
       <r>   -8.3017    1.0000 </r>
       <r>   -8.2547    1.0000 </r>
       <r>   -8.2440    1.0000 </r>
       <r>   -8.1459    1.0000 </r>
       <r>   -8.0938    1.0000 </r>
       <r>   -8.0226    1.0000 </r>
       <r>   -7.9742    1.0000 </r>
       <r>   -7.8960    1.0000 </r>
       <r>   -7.8258    1.0000 </r>
       <r>   -7.7796    1.0000 </r>
       <r>   -7.7075    1.0000 </r>
       <r>   -7.6014    1.0000 </r>
       <r>   -7.4955    1.0000 </r>
       <r>   -7.4436    1.0000 </r>
       <r>   -7.3732    1.0000 </r>
       <r>   -7.3204    1.0000 </r>
       <r>   -7.3003    1.0000 </r>
       <r>   -7.1318    1.0000 </r>
       <r>   -7.0002    1.0000 </r>
       <r>   -6.9348    1.0000 </r>
       <r>   -6.9009    1.0000 </r>
       <r>   -6.8052    1.0000 </r>
       <r>   -6.6785    1.0000 </r>
       <r>   -6.6229    1.0000 </r>
       <r>   -6.5521    1.0000 </r>
       <r>   -6.4974    1.0000 </r>
       <r>   -6.2766    1.0000 </r>
       <r>   -6.1760    1.0000 </r>
       <r>   -6.1216    1.0000 </r>
       <r>   -6.0770    1.0000 </r>
       <r>   -5.9319    1.0000 </r>
       <r>   -5.9044    1.0000 </r>
       <r>   -5.7999    1.0000 </r>
       <r>   -5.7361    1.0000 </r>
       <r>   -5.6609    1.0000 </r>
       <r>   -5.5472    1.0000 </r>
       <r>   -5.4466    1.0000 </r>
       <r>   -5.1792    1.0000 </r>
       <r>   -5.0878    1.0000 </r>
       <r>   -4.7242    1.0000 </r>
       <r>   -4.6524    1.0000 </r>
       <r>   -4.4672    1.0000 </r>
       <r>   -4.4535    1.0000 </r>
       <r>   -4.4251    1.0000 </r>
       <r>   -3.4756    0.9897 </r>
       <r>   -2.9513    0.0818 </r>
       <r>   -2.6099    0.0001 </r>
       <r>   -2.1176    0.0000 </r>
       <r>   -2.0652    0.0000 </r>
       <r>   -1.5981    0.0000 </r>
       <r>   -1.5114    0.0000 </r>
       <r>   -1.4625    0.0000 </r>
       <r>   -1.3762    0.0000 </r>
       <r>   -1.3484    0.0000 </r>
       <r>   -1.2846    0.0000 </r>
       <r>   -1.0873    0.0000 </r>
       <r>   -1.0756    0.0000 </r>
       <r>   -0.9850    0.0000 </r>
       <r>   -0.8701    0.0000 </r>
       <r>   -0.7900    0.0000 </r>
       <r>   -0.4857    0.0000 </r>
       <r>   -0.1918    0.0000 </r>
       <r>   -0.1417    0.0000 </r>
       <r>   -0.0679    0.0000 </r>
       <r>    0.0201    0.0000 </r>
       <r>    0.1156    0.0000 </r>
       <r>    0.1313    0.0000 </r>
       <r>    0.2310    0.0000 </r>
       <r>    0.3068    0.0000 </r>
       <r>    0.3583    0.0000 </r>
       <r>    0.7880    0.0000 </r>
       <r>    0.8103    0.0000 </r>
       <r>    0.8442    0.0000 </r>
       <r>    1.0307    0.0000 </r>
       <r>    1.0540    0.0000 </r>
       <r>    1.0750    0.0000 </r>
       <r>    1.1198    0.0000 </r>
       <r>    1.1315    0.0000 </r>
       <r>    1.2080    0.0000 </r>
       <r>    1.2938    0.0000 </r>
       <r>    1.3020    0.0000 </r>
       <r>    1.3580    0.0000 </r>
       <r>    1.3649    0.0000 </r>
       <r>    1.3928    0.0000 </r>
       <r>    1.4341    0.0000 </r>
       <r>    1.4607    0.0000 </r>
       <r>    1.4697    0.0000 </r>
       <r>    1.5481    0.0000 </r>
       <r>    1.5652    0.0000 </r>
       <r>    1.5997    0.0000 </r>
       <r>    1.6219    0.0000 </r>
       <r>    1.7025    0.0000 </r>
       <r>    1.7301    0.0000 </r>
      </set>
      <set comment="kpoint 3">
       <r>  -22.8166    1.0000 </r>
       <r>  -22.7814    1.0000 </r>
       <r>  -22.7051    1.0000 </r>
       <r>  -22.6784    1.0000 </r>
       <r>  -22.6191    1.0000 </r>
       <r>  -22.5816    1.0000 </r>
       <r>  -22.3120    1.0000 </r>
       <r>  -22.3042    1.0000 </r>
       <r>  -22.2290    1.0000 </r>
       <r>  -22.1708    1.0000 </r>
       <r>  -21.7315    1.0000 </r>
       <r>  -21.6867    1.0000 </r>
       <r>  -21.5827    1.0000 </r>
       <r>  -21.5445    1.0000 </r>
       <r>  -20.9199    1.0000 </r>
       <r>  -20.8725    1.0000 </r>
       <r>  -20.6837    1.0000 </r>
       <r>  -20.6653    1.0000 </r>
       <r>  -19.8946    1.0000 </r>
       <r>  -19.8549    1.0000 </r>
       <r>  -19.6311    1.0000 </r>
       <r>  -19.5735    1.0000 </r>
       <r>  -19.5430    1.0000 </r>
       <r>  -19.5214    1.0000 </r>
       <r>  -19.4112    1.0000 </r>
       <r>  -19.3839    1.0000 </r>
       <r>  -19.2786    1.0000 </r>
       <r>  -19.2604    1.0000 </r>
       <r>  -19.0898    1.0000 </r>
       <r>  -19.0335    1.0000 </r>
       <r>  -18.9217    1.0000 </r>
       <r>  -18.8413    1.0000 </r>
       <r>  -18.6650    1.0000 </r>
       <r>  -18.6314    1.0000 </r>
       <r>  -18.4895    1.0000 </r>
       <r>  -18.4284    1.0000 </r>
       <r>  -18.3000    1.0000 </r>
       <r>  -18.2524    1.0000 </r>
       <r>  -18.1546    1.0000 </r>
       <r>  -18.0791    1.0000 </r>
       <r>  -17.7126    1.0000 </r>
       <r>  -17.6713    1.0000 </r>
       <r>  -17.6209    1.0000 </r>
       <r>  -17.5835    1.0000 </r>
       <r>  -16.9072    1.0000 </r>
       <r>  -16.8134    1.0000 </r>
       <r>  -16.2841    1.0000 </r>
       <r>  -16.2304    1.0000 </r>
       <r>  -16.0347    1.0000 </r>
       <r>  -15.9871    1.0000 </r>
       <r>  -15.9276    1.0000 </r>
       <r>  -15.8976    1.0000 </r>
       <r>  -15.3385    1.0000 </r>
       <r>  -15.2399    1.0000 </r>
       <r>  -15.1129    1.0000 </r>
       <r>  -15.0667    1.0000 </r>
       <r>  -14.8424    1.0000 </r>
       <r>  -14.8265    1.0000 </r>
       <r>  -14.7337    1.0000 </r>
       <r>  -14.6314    1.0000 </r>
       <r>  -14.0059    1.0000 </r>
       <r>  -13.9263    1.0000 </r>
       <r>  -13.7870    1.0000 </r>
       <r>  -13.7562    1.0000 </r>
       <r>  -13.7156    1.0000 </r>
       <r>  -13.6660    1.0000 </r>
       <r>  -13.6351    1.0000 </r>
       <r>  -13.6021    1.0000 </r>
       <r>  -13.5542    1.0000 </r>
       <r>  -13.5326    1.0000 </r>
       <r>  -13.4855    1.0000 </r>
       <r>  -13.4702    1.0000 </r>
       <r>  -13.4056    1.0000 </r>
       <r>  -13.3806    1.0000 </r>
       <r>  -13.1105    1.0000 </r>
       <r>  -12.9964    1.0000 </r>
       <r>  -12.3843    1.0000 </r>
       <r>  -12.3253    1.0000 </r>
       <r>  -12.1957    1.0000 </r>
       <r>  -12.1285    1.0000 </r>
       <r>  -12.0965    1.0000 </r>
       <r>  -12.0809    1.0000 </r>
       <r>  -12.0012    1.0000 </r>
       <r>  -11.9562    1.0000 </r>
       <r>  -11.8925    1.0000 </r>
       <r>  -11.8186    1.0000 </r>
       <r>  -11.7710    1.0000 </r>
       <r>  -11.7480    1.0000 </r>
       <r>  -11.6416    1.0000 </r>
       <r>  -11.5582    1.0000 </r>
       <r>  -11.3664    1.0000 </r>
       <r>  -11.2516    1.0000 </r>
       <r>  -11.1685    1.0000 </r>
       <r>  -11.1424    1.0000 </r>
       <r>  -11.0134    1.0000 </r>
       <r>  -11.0066    1.0000 </r>
       <r>  -10.7833    1.0000 </r>
       <r>  -10.7415    1.0000 </r>
       <r>  -10.6745    1.0000 </r>
       <r>  -10.6313    1.0000 </r>
       <r>  -10.5865    1.0000 </r>
       <r>  -10.5522    1.0000 </r>
       <r>  -10.4969    1.0000 </r>
       <r>  -10.4810    1.0000 </r>
       <r>  -10.4522    1.0000 </r>
       <r>  -10.4028    1.0000 </r>
       <r>  -10.3405    1.0000 </r>
       <r>  -10.3128    1.0000 </r>
       <r>  -10.2727    1.0000 </r>
       <r>  -10.2492    1.0000 </r>
       <r>  -10.2203    1.0000 </r>
       <r>  -10.1929    1.0000 </r>
       <r>  -10.1125    1.0000 </r>
       <r>  -10.0830    1.0000 </r>
       <r>  -10.0357    1.0000 </r>
[...]
       <r>   -22.6514    15.5462     7.3226 </r>
       <r>   -22.5549    16.6834     8.9325 </r>
       <r>   -22.4584    15.8055    10.4576 </r>
       <r>   -22.3619    14.1779    11.8257 </r>
       <r>   -22.2654    13.7893    13.1563 </r>
       <r>   -22.1689    14.2504    14.5314 </r>
       <r>   -22.0724    14.2309    15.9046 </r>
       <r>   -21.9759    13.8835    17.2443 </r>
       <r>   -21.8794    13.8698    18.5826 </r>
       <r>   -21.7829    13.9283    19.9266 </r>
       <r>   -21.6864    13.5064    21.2299 </r>
       <r>   -21.5899    12.5227    22.4383 </r>
       <r>   -21.4934    11.3785    23.5362 </r>
       <r>   -21.3970    10.9320    24.5911 </r>
       <r>   -21.3005    11.9519    25.7444 </r>
       <r>   -21.2040    14.1099    27.1059 </r>
       <r>   -21.1075    16.0470    28.6544 </r>
       <r>   -21.0110    16.3924    30.2362 </r>
       <r>   -20.9145    14.7318    31.6577 </r>
       <r>   -20.8180    12.3451    32.8489 </r>
       <r>   -20.7215    11.4605    33.9548 </r>
       <r>   -20.6250    12.6616    35.1766 </r>
       <r>   -20.5285    14.0157    36.5290 </r>
       <r>   -20.4320    13.8861    37.8689 </r>
       <r>   -20.3355    13.0338    39.1266 </r>
       <r>   -20.2390    12.9856    40.3797 </r>
       <r>   -20.1425    13.8396    41.7151 </r>
       <r>   -20.0460    14.5087    43.1151 </r>
       <r>   -19.9495    14.5481    44.5189 </r>
       <r>   -19.8530    14.2260    45.8917 </r>
       <r>   -19.7565    13.6306    47.2069 </r>
       <r>   -19.6601    13.7752    48.5362 </r>
       <r>   -19.5636    15.5753    50.0391 </r>
       <r>   -19.4671    16.9674    51.6764 </r>
       <r>   -19.3706    15.6254    53.1841 </r>
       <r>   -19.2741    13.1149    54.4496 </r>
       <r>   -19.1776    12.3044    55.6369 </r>
       <r>   -19.0811    13.1548    56.9063 </r>
       <r>   -18.9846    13.7320    58.2314 </r>
       <r>   -18.8881    13.4906    59.5331 </r>
       <r>   -18.7916    13.6416    60.8495 </r>
       <r>   -18.6951    15.2606    62.3220 </r>
       <r>   -18.5986    17.4657    64.0074 </r>
       <r>   -18.5021    17.9589    65.7403 </r>
       <r>   -18.4056    16.5121    67.3337 </r>
       <r>   -18.3091    15.5597    68.8351 </r>
       <r>   -18.2126    16.4396    70.4214 </r>
       <r>   -18.1161    17.5663    72.1165 </r>
       <r>   -18.0196    16.6777    73.7258 </r>
       <r>   -17.9232    13.8998    75.0670 </r>
       <r>   -17.8267    11.8092    76.2065 </r>
       <r>   -17.7302    11.7007    77.3356 </r>
       <r>   -17.6337    12.0606    78.4994 </r>
       <r>   -17.5372    11.8113    79.6391 </r>
       <r>   -17.4407    11.7888    80.7767 </r>
       <r>   -17.3442    12.3507    81.9684 </r>
       <r>   -17.2477    12.5355    83.1780 </r>
       <r>   -17.1512    12.1147    84.3471 </r>
       <r>   -17.0547    11.7075    85.4768 </r>
       <r>   -16.9582    11.2470    86.5620 </r>
       <r>   -16.8617    10.6130    87.5861 </r>
       <r>   -16.7652    10.5559    88.6047 </r>
       <r>   -16.6687    11.7216    89.7358 </r>
       <r>   -16.5722    13.4074    91.0295 </r>
       <r>   -16.4757    14.4865    92.4274 </r>
       <r>   -16.3792    15.0030    93.8751 </r>
       <r>   -16.2827    15.5592    95.3765 </r>
       <r>   -16.1863    16.3720    96.9563 </r>
       <r>   -16.0898    17.1860    98.6146 </r>
       <r>   -15.9933    17.3259   100.2865 </r>
       <r>   -15.8968    16.4815   101.8769 </r>
       <r>   -15.8003    15.0607   103.3301 </r>
       <r>   -15.7038    13.5057   104.6334 </r>
       <r>   -15.6073    12.1002   105.8010 </r>
       <r>   -15.5108    11.5421   106.9147 </r>
       <r>   -15.4143    13.0697   108.1759 </r>
       <r>   -15.3178    16.8473   109.8015 </r>
       <r>   -15.2213    21.0158   111.8294 </r>
       <r>   -15.1248    23.5509   114.1020 </r>
       <r>   -15.0283    23.6501   116.3841 </r>
       <r>   -14.9318    21.3576   118.4450 </r>
       <r>   -14.8353    17.5418   120.1377 </r>
       <r>   -14.7388    13.6356   121.4534 </r>
       <r>   -14.6423    10.6483   122.4809 </r>
       <r>   -14.5458     9.1177   123.3607 </r>
       <r>   -14.4494     9.3191   124.2600 </r>
       <r>   -14.3529    10.6502   125.2877 </r>
       <r>   -14.2564    11.7783   126.4242 </r>
       <r>   -14.1599    12.2439   127.6057 </r>
       <r>   -14.0634    12.9141   128.8518 </r>
       <r>   -13.9669    14.2738   130.2292 </r>
       <r>   -13.8704    15.7443   131.7484 </r>
       <r>   -13.7739    16.8952   133.3787 </r>
       <r>   -13.6774    17.7338   135.0899 </r>
       <r>   -13.5809    18.1961   136.8457 </r>
       <r>   -13.4844    18.4030   138.6215 </r>
       <r>   -13.3879    18.6314   140.4193 </r>
       <r>   -13.2914    18.8714   142.2403 </r>
       <r>   -13.1949    18.6493   144.0399 </r>
       <r>   -13.0984    17.4589   145.7245 </r>
       <r>   -13.0019    15.9851   147.2670 </r>
       <r>   -12.9054    15.5244   148.7650 </r>
       <r>   -12.8089    15.8096   150.2906 </r>
       <r>   -12.7125    15.3334   151.7702 </r>
       <r>   -12.6160    13.7514   153.0971 </r>
       <r>   -12.5195    12.5666   154.3097 </r>
       <r>   -12.4230    13.0117   155.5653 </r>
       <r>   -12.3265    14.8890   157.0020 </r>
       <r>   -12.2300    17.9879   158.7377 </r>
       <r>   -12.1335    21.9378   160.8546 </r>
       <r>   -12.0370    24.8330   163.2508 </r>
       <r>   -11.9405    24.9303   165.6565 </r>
       <r>   -11.8440    22.8189   167.8584 </r>
       <r>   -11.7475    20.2706   169.8144 </r>
       <r>   -11.6510    18.2223   171.5727 </r>
       <r>   -11.5545    16.7765   173.1915 </r>
       <r>   -11.4580    16.2295   174.7576 </r>
       <r>   -11.3615    17.0923   176.4069 </r>
       <r>   -11.2650    19.3348   178.2726 </r>
       <r>   -11.1685    22.6942   180.4625 </r>
       <r>   -11.0720    27.0460   183.0723 </r>
       <r>   -10.9756    31.0807   186.0714 </r>
       <r>   -10.8791    32.9435   189.2503 </r>
       <r>   -10.7826    33.0361   192.4381 </r>
       <r>   -10.6861    33.3518   195.6563 </r>
       <r>   -10.5896    34.9872   199.0324 </r>
       <r>   -10.4931    37.4441   202.6455 </r>
       <r>   -10.3966    38.9572   206.4047 </r>
       <r>   -10.3001    38.1195   210.0830 </r>
       <r>   -10.2036    35.8134   213.5388 </r>
       <r>   -10.1071    34.1036   216.8296 </r>
       <r>   -10.0106    33.3211   220.0449 </r>
       <r>    -9.9141    32.6565   223.1961 </r>
       <r>    -9.8176    32.9248   226.3731 </r>
       <r>    -9.7211    35.3187   229.7812 </r>
       <r>    -9.6246    38.8368   233.5287 </r>
       <r>    -9.5281    41.8123   237.5634 </r>
       <r>    -9.4316    43.4552   241.7566 </r>
       <r>    -9.3351    42.5515   245.8625 </r>
       <r>    -9.2387    38.1856   249.5473 </r>
       <r>    -9.1422    32.3270   252.6666 </r>
       <r>    -9.0457    28.7634   255.4421 </r>
       <r>    -8.9492    29.2867   258.2682 </r>
       <r>    -8.8527    32.2752   261.3825 </r>
       <r>    -8.7562    35.0036   264.7602 </r>
       <r>    -8.6597    36.2509   268.2582 </r>
       <r>    -8.5632    36.0368   271.7356 </r>
       <r>    -8.4667    34.4771   275.0624 </r>
       <r>    -8.3702    32.3023   278.1794 </r>
       <r>    -8.2737    30.5290   281.1253 </r>
       <r>    -8.1772    28.8365   283.9078 </r>
       <r>    -8.0807    26.6119   286.4757 </r>
       <r>    -7.9842    24.8856   288.8771 </r>
       <r>    -7.8877    25.0826   291.2974 </r>
       <r>    -7.7912    26.5725   293.8615 </r>
       <r>    -7.6947    27.4250   296.5078 </r>
       <r>    -7.5982    27.5768   299.1689 </r>
       <r>    -7.5018    28.3916   301.9085 </r>
       <r>    -7.4053    29.5524   304.7601 </r>
       <r>    -7.3088    29.4206   307.5991 </r>
       <r>    -7.2123    27.8115   310.2827 </r>
       <r>    -7.1158    26.1945   312.8103 </r>
       <r>    -7.0193    25.4882   315.2698 </r>
       <r>    -6.9228    25.3948   317.7203 </r>
       <r>    -6.8263    25.5089   320.1817 </r>
       <r>    -6.7298    25.8048   322.6718 </r>
       <r>    -6.6333    25.7753   325.1589 </r>
       <r>    -6.5368    24.2101   327.4951 </r>
       <r>    -6.4403    21.0769   329.5289 </r>
       <r>    -6.3438    18.7495   331.3381 </r>
       <r>    -6.2473    19.2476   333.1954 </r>
       <r>    -6.1508    21.5814   335.2779 </r>
       <r>    -6.0543    24.1201   337.6053 </r>
       <r>    -5.9578    26.3409   340.1471 </r>
       <r>    -5.8613    26.9606   342.7486 </r>
       <r>    -5.7649    24.8055   345.1422 </r>
       <r>    -5.6684    21.0102   347.1696 </r>
       <r>    -5.5719    17.2142   348.8307 </r>
       <r>    -5.4754    13.7194   350.1545 </r>
       <r>    -5.3789    10.9598   351.2121 </r>
       <r>    -5.2824    10.3649   352.2122 </r>
       <r>    -5.1859    11.8579   353.3564 </r>
       <r>    -5.0894    12.6907   354.5810 </r>
       <r>    -4.9929    11.0689   355.6491 </r>
       <r>    -4.8964     8.6136   356.4803 </r>
       <r>    -4.7999     7.7910   357.2321 </r>
       <r>    -4.7034     9.2857   358.1281 </r>
       <r>    -4.6069    12.3459   359.3194 </r>
       <r>    -4.5104    15.4428   360.8096 </r>
       <r>    -4.4139    16.0387   362.3572 </r>
       <r>    -4.3174    12.6200   363.5750 </r>
       <r>    -4.2209     7.4921   364.2979 </r>
       <r>    -4.1244     4.1753   364.7008 </r>
       <r>    -4.0280     3.2031   365.0099 </r>
       <r>    -3.9315     3.0564   365.3048 </r>
       <r>    -3.8350     3.0437   365.5985 </r>
       <r>    -3.7385     3.3607   365.9228 </r>
       <r>    -3.6420     3.8272   366.2921 </r>
       <r>    -3.5455     4.0505   366.6830 </r>
       <r>    -3.4490     3.8570   367.0551 </r>
       <r>    -3.3525     3.2689   367.3706 </r>
       <r>    -3.2560     2.8516   367.6457 </r>
       <r>    -3.1595     3.2379   367.9582 </r>
       <r>    -3.0630     4.2476   368.3681 </r>
       <r>    -2.9665     5.2356   368.8733 </r>
       <r>    -2.8700     6.0703   369.4590 </r>
       <r>    -2.7735     7.3545   370.1687 </r>
       <r>    -2.6770     8.9368   371.0310 </r>
       <r>    -2.5805     9.0502   371.9043 </r>
       <r>    -2.4840     6.7810   372.5587 </r>
       <r>    -2.3875     4.0721   372.9516 </r>
       <r>    -2.2911     3.5724   373.2963 </r>
       <r>    -2.1946     5.6427   373.8408 </r>
       <r>    -2.0981     7.8788   374.6011 </r>
       <r>    -2.0016     7.7168   375.3457 </r>
       <r>    -1.9051     5.9204   375.9170 </r>
       <r>    -1.8086     5.8743   376.4838 </r>
       <r>    -1.7121     9.5743   377.4077 </r>
       <r>    -1.6156    15.7574   378.9282 </r>
       <r>    -1.5191    21.2358   380.9773 </r>
       <r>    -1.4226    23.4903   383.2440 </r>
       <r>    -1.3261    22.3116   385.3969 </r>
       <r>    -1.2296    19.8393   387.3113 </r>
       <r>    -1.1331    18.5825   389.1044 </r>
       <r>    -1.0366    18.2651   390.8669 </r>
       <r>    -0.9401    17.0340   392.5106 </r>
       <r>    -0.8436    15.1205   393.9697 </r>
       <r>    -0.7471    13.6586   395.2876 </r>
       <r>    -0.6506    12.6932   396.5125 </r>
       <r>    -0.5542    12.0613   397.6763 </r>
       <r>    -0.4577    11.3798   398.7744 </r>
       <r>    -0.3612    10.6652   399.8035 </r>
       <r>    -0.2647    11.6875   400.9313 </r>
       <r>    -0.1682    15.2447   402.4023 </r>
       <r>    -0.0717    18.9965   404.2354 </r>
       <r>     0.0248    20.9498   406.2569 </r>
       <r>     0.1213    21.6388   408.3450 </r>
       <r>     0.2178    21.6955   410.4385 </r>
       <r>     0.3143    20.7347   412.4392 </r>
       <r>     0.4108    18.9143   414.2644 </r>
       <r>     0.5073    17.7944   415.9814 </r>
       <r>     0.6038    19.1158   417.8260 </r>
       <r>     0.7003    22.9739   420.0428 </r>
       <r>     0.7968    27.6230   422.7083 </r>
       <r>     0.8933    31.1918   425.7181 </r>
       <r>     0.9898    33.8384   428.9834 </r>
       <r>     1.0863    37.1039   432.5637 </r>
       <r>     1.1827    41.5180   436.5699 </r>
       <r>     1.2792    46.3605   441.0435 </r>
       <r>     1.3757    49.9582   445.8642 </r>
       <r>     1.4722    50.2485   450.7128 </r>
       <r>     1.5687    46.1478   455.1659 </r>
       <r>     1.6652    37.9983   458.8325 </r>
       <r>     1.7617    27.2331   461.4603 </r>
       <r>     1.8582    16.0803   463.0120 </r>
       <r>     1.9547     7.2709   463.7136 </r>
       <r>     2.0512     2.3575   463.9411 </r>
       <r>     2.1477     0.5245   463.9917 </r>
       <r>     2.2442     0.0781   463.9992 </r>
       <r>     2.3407     0.0077   464.0000 </r>
       <r>     2.4372     0.0005   464.0000 </r>
       <r>     2.5337     0.0000   464.0000 </r>
       <r>     2.6302     0.0000   464.0000 </r>
       <r>     2.7267     0.0000   464.0000 </r>
       <r>     2.8232     0.0000   464.0000 </r>
       <r>     2.9196     0.0000   464.0000 </r>
       <r>     3.0161     0.0000   464.0000 </r>
       <r>     3.1126     0.0000   464.0000 </r>
       <r>     3.2091     0.0000   464.0000 </r>
       <r>     3.3056     0.0000   464.0000 </r>
       <r>     3.4021     0.0000   464.0000 </r>
       <r>     3.4986     0.0000   464.0000 </r>
       <r>     3.5951     0.0000   464.0000 </r>
       <r>     3.6916     0.0000   464.0000 </r>
       <r>     3.7881     0.0000   464.0000 </r>
      </set>
     </set>
    </array>
   </total>
  </dos>
 </calculation>
 <structure name="finalpos" >
  <crystal>
   <varray name="basis" >
    <v>      28.05000000       0.00000000       0.00000000 </v>
    <v>       0.00000000       8.10000000       0.00000000 </v>
    <v>       0.00000000       0.00000000      33.50000000 </v>
   </varray>
   <i name="volume">   7611.36750000 </i>
   <varray name="rec_basis" >
    <v>       0.03565062       0.00000000       0.00000000 </v>
    <v>       0.00000000       0.12345679       0.00000000 </v>
    <v>       0.00000000       0.00000000       0.02985075 </v>
   </varray>
  </crystal>
  <varray name="positions" >
   <v>       0.00288500       0.10452630       0.48690149 </v>
   <v>       0.00239413       0.27736296       0.48658209 </v>
   <v>       0.04737469       0.02059889       0.47994627 </v>
   <v>       0.04689554       0.35732099       0.48288955 </v>
   <v>       0.08856542       0.10305432       0.46672537 </v>
   <v>       0.09017504       0.27225062       0.47081493 </v>
   <v>       0.13323030       0.02309691       0.45829552 </v>
   <v>       0.13389412       0.35062840       0.46468060 </v>
   <v>       0.17731943       0.10182778       0.45070448 </v>
   <v>       0.17650909       0.26925185       0.45640896 </v>
   <v>       0.22212799       0.01727506       0.44999403 </v>
   <v>       0.22210339       0.34696420       0.45972239 </v>
   <v>       0.26665954       0.09955049       0.45458507 </v>
   <v>       0.26737897       0.26852222       0.46221194 </v>
   <v>       0.31103066       0.01437259       0.45965970 </v>
   <v>       0.31090410       0.35202840       0.46529851 </v>
   <v>       0.35421034       0.09331802       0.47176119 </v>
   <v>       0.35433262       0.26783333       0.47062687 </v>
   <v>       0.39951515       0.01531370       0.47416418 </v>
   <v>       0.39746168       0.35090741       0.47957015 </v>
   <v>       0.43999643       0.10062988       0.48733731 </v>
   <v>       0.43937255       0.27026667       0.49088955 </v>
   <v>       0.48565775       0.02073556       0.49530149 </v>
   <v>       0.48252763       0.35416667       0.50231642 </v>
   <v>       0.52518717       0.10243716       0.51065970 </v>
   <v>       0.52532264       0.26903333       0.51327761 </v>
   <v>       0.56883779       0.01960247       0.51690149 </v>
   <v>       0.56566488       0.35157778       0.52697910 </v>
   <v>       0.61021390       0.10490321       0.53177015 </v>
   <v>       0.60884848       0.27294691       0.53846866 </v>
   <v>       0.65361854       0.02686741       0.53920299 </v>
   <v>       0.65201070       0.35690000       0.54379701 </v>
   <v>       0.69573619       0.10768963       0.54657612 </v>
   <v>       0.69494118       0.27550123       0.55009552 </v>
   <v>       0.74089483       0.02391160       0.54482687 </v>
   <v>       0.73982175       0.35640741       0.54914328 </v>
   <v>       0.78338681       0.11153543       0.53621791 </v>
   <v>       0.78368627       0.27637284       0.54621791 </v>
   <v>       0.82764706       0.02718704       0.52643284 </v>
   <v>       0.82867023       0.36198148       0.53991940 </v>
   <v>       0.87062745       0.11361778       0.51981194 </v>
   <v>       0.87105169       0.27992469       0.52919701 </v>
   <v>       0.91340820       0.02622926       0.51384179 </v>
   <v>       0.91456328       0.35824568       0.52298209 </v>
   <v>       0.95537255       0.10966988       0.50201791 </v>
   <v>       0.95397504       0.28413457       0.50424776 </v>
   <v>       0.00810018       0.60277037       0.50291343 </v>
   <v>       0.00782681       0.77105062       0.49914627 </v>
   <v>       0.04980036       0.51883827       0.49355224 </v>
   <v>       0.04923387       0.84976914       0.48322985 </v>
   <v>       0.09458253       0.60056790       0.48354030 </v>
   <v>       0.09269055       0.77051975       0.47655821 </v>
   <v>       0.13529519       0.51834198       0.47106269 </v>
   <v>       0.13391408       0.85502099       0.46391642 </v>
   <v>       0.17930267       0.59855432       0.46156716 </v>
   <v>       0.17830303       0.77071852       0.46077612 </v>
   <v>       0.22279216       0.51224444       0.45728955 </v>
   <v>       0.22196435       0.85123086       0.45613433 </v>
   <v>       0.26678824       0.59740617       0.45647463 </v>
   <v>       0.26672549       0.76979630       0.45537910 </v>
   <v>       0.31183209       0.51954815       0.46463284 </v>
   <v>       0.31108449       0.84201111       0.45791642 </v>
   <v>       0.35606417       0.60496173       0.46022985 </v>
   <v>       0.35691266       0.76682099       0.45584179 </v>
   <v>       0.39878431       0.51946420       0.47001791 </v>
   <v>       0.40215686       0.85405432       0.46574328 </v>
   <v>       0.44351159       0.60078395       0.47835821 </v>
   <v>       0.44588948       0.77238765       0.47277612 </v>
   <v>       0.48359715       0.52076420       0.49596119 </v>
   <v>       0.48686988       0.85236790       0.48643582 </v>
   <v>       0.52703030       0.60426543       0.50401493 </v>
   <v>       0.52921925       0.76931358       0.49756716 </v>
   <v>       0.56828164       0.52088025       0.52157313 </v>
   <v>       0.57014260       0.84487037       0.51228657 </v>
   <v>       0.60987522       0.60632716       0.53117015 </v>
   <v>       0.61147594       0.76908395       0.52260597 </v>
   <v>       0.65171123       0.52812593       0.54485672 </v>
   <v>       0.65334403       0.85514198       0.53357313 </v>
   <v>       0.69683779       0.60408642       0.54816119 </v>
   <v>       0.69575758       0.77441605       0.54578209 </v>
   <v>       0.74158645       0.52891975       0.55113134 </v>
   <v>       0.74160428       0.86243333       0.54237313 </v>
   <v>       0.78645633       0.60772222       0.54994328 </v>
   <v>       0.78547594       0.77623086       0.54274030 </v>
   <v>       0.82967201       0.52850988       0.54526269 </v>
   <v>       0.82946881       0.86036296       0.53448955 </v>
   <v>       0.87504813       0.61029383       0.54029552 </v>
   <v>       0.87387879       0.77815432       0.53526269 </v>
   <v>       0.91686631       0.53104938       0.52800000 </v>
   <v>       0.91533333       0.86067284       0.52499701 </v>
   <v>       0.95926916       0.60803951       0.51823582 </v>
   <v>       0.95935829       0.78368765       0.51617313 </v>
  </varray>
 </structure>
</modeling>
