unknown system                          
            1
    28.050000    0.000000    0.000000
     0.000000    8.100000    0.000000
     0.000000    0.000000   33.500000
   C 
    92
Direct configuration=     1
   0.00288500  0.10452630  0.48690149
   0.00239413  0.27736296  0.48658209
   0.04737469  0.02059889  0.47994627
   0.04689554  0.35732099  0.48288955
   0.08856542  0.10305432  0.46672537
   0.09017504  0.27225062  0.47081493
   0.13323030  0.02309691  0.45829552
   0.13389412  0.35062840  0.46468060
   0.17731943  0.10182778  0.45070448
   0.17650909  0.26925185  0.45640896
   0.22212799  0.01727506  0.44999403
   0.22210339  0.34696420  0.45972239
   0.26665954  0.09955049  0.45458507
   0.26737897  0.26852222  0.46221194
   0.31103066  0.01437259  0.45965970
   0.31090410  0.35202840  0.46529851
   0.35421034  0.09331802  0.47176119
   0.35433262  0.26783333  0.47062687
   0.39951515  0.01531370  0.47416418
   0.39746168  0.35090741  0.47957015
   0.43999643  0.10062988  0.48733731
   0.43937255  0.27026667  0.49088955
   0.48565775  0.02073556  0.49530149
   0.48252763  0.35416667  0.50231642
   0.52518717  0.10243716  0.51065970
   0.52532264  0.26903333  0.51327761
   0.56883779  0.01960247  0.51690149
   0.56566488  0.35157778  0.52697910
   0.61021390  0.10490321  0.53177015
   0.60884848  0.27294691  0.53846866
   0.65361854  0.02686741  0.53920299
   0.65201070  0.35690000  0.54379701
   0.69573619  0.10768963  0.54657612
   0.69494118  0.27550123  0.55009552
   0.74089483  0.02391160  0.54482687
   0.73982175  0.35640741  0.54914328
   0.78338681  0.11153543  0.53621791
   0.78368627  0.27637284  0.54621791
   0.82764706  0.02718704  0.52643284
   0.82867023  0.36198148  0.53991940
   0.87062745  0.11361778  0.51981194
   0.87105169  0.27992469  0.52919701
   0.91340820  0.02622926  0.51384179
   0.91456328  0.35824568  0.52298209
   0.95537255  0.10966988  0.50201791
   0.95397504  0.28413457  0.50424776
   0.00810018  0.60277037  0.50291343
   0.00782681  0.77105062  0.49914627
   0.04980036  0.51883827  0.49355224
   0.04923387  0.84976914  0.48322985
   0.09458253  0.60056790  0.48354030
   0.09269055  0.77051975  0.47655821
   0.13529519  0.51834198  0.47106269
   0.13391408  0.85502099  0.46391642
   0.17930267  0.59855432  0.46156716
   0.17830303  0.77071852  0.46077612
   0.22279216  0.51224444  0.45728955
   0.22196435  0.85123086  0.45613433
   0.26678824  0.59740617  0.45647463
   0.26672549  0.76979630  0.45537910
   0.31183209  0.51954815  0.46463284
   0.31108449  0.84201111  0.45791642
   0.35606417  0.60496173  0.46022985
   0.35691266  0.76682099  0.45584179
   0.39878431  0.51946420  0.47001791
   0.40215686  0.85405432  0.46574328
   0.44351159  0.60078395  0.47835821
   0.44588948  0.77238765  0.47277612
   0.48359715  0.52076420  0.49596119
   0.48686988  0.85236790  0.48643582
   0.52703030  0.60426543  0.50401493
   0.52921925  0.76931358  0.49756716
   0.56828164  0.52088025  0.52157313
   0.57014260  0.84487037  0.51228657
   0.60987522  0.60632716  0.53117015
   0.61147594  0.76908395  0.52260597
   0.65171123  0.52812593  0.54485672
   0.65334403  0.85514198  0.53357313
   0.69683779  0.60408642  0.54816119
   0.69575758  0.77441605  0.54578209
   0.74158645  0.52891975  0.55113134
   0.74160428  0.86243333  0.54237313
   0.78645633  0.60772222  0.54994328
   0.78547594  0.77623086  0.54274030
   0.82967201  0.52850988  0.54526269
   0.82946881  0.86036296  0.53448955
   0.87504813  0.61029383  0.54029552
   0.87387879  0.77815432  0.53526269
   0.91686631  0.53104938  0.52800000
   0.91533333  0.86067284  0.52499701
   0.95926916  0.60803951  0.51823582
   0.95935829  0.78368765  0.51617313
