  92  92   0   0
  0.8273226E+02  0.2805000E-08  0.8100000E-09  0.3350000E-08  0.5000000E-15
   1.0000000000000000E-004
  CAR 
 unknown system                          
      3.77182479    -25.21294263  301     -3.12670602      1.00000000
    -25.213  0.0000E+00  0.0000E+00
    -25.116  0.0000E+00  0.0000E+00
    -25.020  0.0000E+00  0.0000E+00
    -24.923  0.0000E+00  0.0000E+00
    -24.826  0.0000E+00  0.0000E+00
    -24.730  0.0000E+00  0.0000E+00
    -24.633  0.0000E+00  0.0000E+00
    -24.537  0.0000E+00  0.0000E+00
    -24.440  0.0000E+00  0.0000E+00
    -24.343  0.3447E-14  0.3331E-15
    -24.247  0.6972E-12  0.6770E-13
    -24.150  0.9002E-10  0.8765E-11
    -24.054  0.7379E-08  0.7217E-09
    -23.957  0.3852E-06  0.3794E-07
    -23.860  0.1286E-04  0.1281E-05
    -23.764  0.2766E-03  0.2800E-04
    -23.667  0.3861E-02  0.4011E-03
    -23.570  0.3543E-01  0.3824E-02
    -23.474  0.2171E+00  0.2479E-01
    -23.377  0.9078E+00  0.1125E+00
    -23.281  0.2669E+01  0.3704E+00
    -23.184  0.5731E+01  0.9242E+00
    -23.087  0.9376E+01  0.1830E+01
    -22.991  0.1217E+02  0.3006E+01
    -22.894  0.1320E+02  0.4281E+01
    -22.798  0.1342E+02  0.5578E+01
    -22.701  0.1462E+02  0.6991E+01
    -22.604  0.1625E+02  0.8561E+01
    -22.508  0.1586E+02  0.1009E+02
    -22.411  0.1359E+02  0.1141E+02
    -22.314  0.1240E+02  0.1261E+02
    -22.218  0.1332E+02  0.1389E+02
    -22.121  0.1445E+02  0.1529E+02
    -22.025  0.1451E+02  0.1669E+02
    -21.928  0.1407E+02  0.1805E+02
    -21.831  0.1380E+02  0.1938E+02
    -21.735  0.1339E+02  0.2068E+02
    -21.638  0.1243E+02  0.2188E+02
    -21.542  0.1152E+02  0.2299E+02
    -21.445  0.1142E+02  0.2409E+02
    -21.348  0.1209E+02  0.2526E+02
    -21.252  0.1340E+02  0.2656E+02
    -21.155  0.1518E+02  0.2802E+02
    -21.058  0.1641E+02  0.2961E+02
    -20.962  0.1591E+02  0.3114E+02
    -20.865  0.1402E+02  0.3250E+02
    -20.769  0.1250E+02  0.3371E+02
    -20.672  0.1246E+02  0.3491E+02
    -20.575  0.1317E+02  0.3618E+02
    -20.479  0.1330E+02  0.3747E+02
    -20.382  0.1289E+02  0.3871E+02
    -20.286  0.1318E+02  0.3999E+02
    -20.189  0.1439E+02  0.4138E+02
    -20.092  0.1560E+02  0.4288E+02
    -19.996  0.1587E+02  0.4442E+02
    -19.899  0.1481E+02  0.4585E+02
    -19.802  0.1319E+02  0.4712E+02
    -19.706  0.1289E+02  0.4837E+02
    -19.609  0.1466E+02  0.4978E+02
    -19.513  0.1648E+02  0.5138E+02
    -19.416  0.1606E+02  0.5293E+02
    -19.319  0.1424E+02  0.5430E+02
    -19.223  0.1341E+02  0.5560E+02
    -19.126  0.1378E+02  0.5693E+02
    -19.030  0.1374E+02  0.5826E+02
    -18.933  0.1294E+02  0.5951E+02
    -18.836  0.1249E+02  0.6071E+02
    -18.740  0.1340E+02  0.6201E+02
    -18.643  0.1554E+02  0.6351E+02
    -18.546  0.1745E+02  0.6520E+02
    -18.450  0.1756E+02  0.6689E+02
    -18.353  0.1643E+02  0.6848E+02
    -18.257  0.1604E+02  0.7003E+02
    -18.160  0.1663E+02  0.7163E+02
    -18.063  0.1675E+02  0.7325E+02
    -17.967  0.1574E+02  0.7477E+02
    -17.870  0.1434E+02  0.7616E+02
    -17.774  0.1319E+02  0.7743E+02
    -17.677  0.1221E+02  0.7861E+02
    -17.580  0.1162E+02  0.7974E+02
    -17.484  0.1171E+02  0.8087E+02
    -17.387  0.1182E+02  0.8201E+02
    -17.290  0.1145E+02  0.8311E+02
    -17.194  0.1144E+02  0.8422E+02
    -17.097  0.1217E+02  0.8539E+02
    -17.001  0.1229E+02  0.8658E+02
    -16.904  0.1097E+02  0.8764E+02
    -16.807  0.9783E+01  0.8859E+02
    -16.711  0.1068E+02  0.8962E+02
    -16.614  0.1320E+02  0.9089E+02
    -16.518  0.1516E+02  0.9236E+02
    -16.421  0.1554E+02  0.9386E+02
    -16.324  0.1535E+02  0.9534E+02
    -16.228  0.1580E+02  0.9687E+02
    -16.131  0.1692E+02  0.9851E+02
    -16.034  0.1770E+02  0.1002E+03
    -15.938  0.1694E+02  0.1019E+03
    -15.841  0.1446E+02  0.1032E+03
    -15.745  0.1181E+02  0.1044E+03
    -15.648  0.1092E+02  0.1054E+03
    -15.551  0.1190E+02  0.1066E+03
    -15.455  0.1399E+02  0.1079E+03
    -15.358  0.1727E+02  0.1096E+03
    -15.262  0.2089E+02  0.1116E+03
    -15.165  0.2276E+02  0.1138E+03
    -15.068  0.2230E+02  0.1160E+03
    -14.972  0.2045E+02  0.1180E+03
    -14.875  0.1793E+02  0.1197E+03
    -14.778  0.1518E+02  0.1212E+03
    -14.682  0.1264E+02  0.1224E+03
    -14.585  0.1081E+02  0.1234E+03
    -14.489  0.9799E+01  0.1244E+03
    -14.392  0.9132E+01  0.1253E+03
    -14.295  0.8887E+01  0.1261E+03
    -14.199  0.9992E+01  0.1271E+03
    -14.102  0.1261E+02  0.1283E+03
    -14.005  0.1535E+02  0.1298E+03
    -13.909  0.1680E+02  0.1314E+03
    -13.812  0.1726E+02  0.1331E+03
    -13.716  0.1776E+02  0.1348E+03
    -13.619  0.1806E+02  0.1365E+03
    -13.522  0.1791E+02  0.1383E+03
    -13.426  0.1830E+02  0.1400E+03
    -13.329  0.1948E+02  0.1419E+03
    -13.233  0.1981E+02  0.1438E+03
    -13.136  0.1795E+02  0.1456E+03
    -13.039  0.1509E+02  0.1470E+03
    -12.943  0.1372E+02  0.1483E+03
    -12.846  0.1431E+02  0.1497E+03
    -12.749  0.1497E+02  0.1512E+03
    -12.653  0.1442E+02  0.1526E+03
    -12.556  0.1332E+02  0.1539E+03
    -12.460  0.1325E+02  0.1551E+03
    -12.363  0.1511E+02  0.1566E+03
    -12.266  0.1852E+02  0.1584E+03
    -12.170  0.2256E+02  0.1606E+03
    -12.073  0.2555E+02  0.1630E+03
    -11.977  0.2564E+02  0.1655E+03
    -11.880  0.2314E+02  0.1677E+03
    -11.783  0.1999E+02  0.1697E+03
    -11.687  0.1727E+02  0.1713E+03
    -11.590  0.1522E+02  0.1728E+03
    -11.493  0.1468E+02  0.1742E+03
    -11.397  0.1646E+02  0.1758E+03
    -11.300  0.1961E+02  0.1777E+03
    -11.204  0.2261E+02  0.1799E+03
    -11.107  0.2558E+02  0.1824E+03
    -11.010  0.2917E+02  0.1852E+03
    -10.914  0.3247E+02  0.1883E+03
    -10.817  0.3378E+02  0.1916E+03
    -10.721  0.3324E+02  0.1948E+03
    -10.624  0.3341E+02  0.1980E+03
    -10.527  0.3583E+02  0.2015E+03
    -10.431  0.3880E+02  0.2052E+03
    -10.334  0.3956E+02  0.2091E+03
    -10.237  0.3765E+02  0.2127E+03
    -10.141  0.3543E+02  0.2161E+03
    -10.044  0.3431E+02  0.2194E+03
     -9.948  0.3300E+02  0.2226E+03
     -9.851  0.3136E+02  0.2257E+03
     -9.754  0.3208E+02  0.2288E+03
     -9.658  0.3640E+02  0.2323E+03
     -9.561  0.4152E+02  0.2363E+03
     -9.465  0.4437E+02  0.2406E+03
     -9.368  0.4389E+02  0.2448E+03
     -9.271  0.3963E+02  0.2486E+03
     -9.175  0.3307E+02  0.2518E+03
     -9.078  0.2839E+02  0.2546E+03
     -8.981  0.2830E+02  0.2573E+03
     -8.885  0.3150E+02  0.2604E+03
     -8.788  0.3516E+02  0.2638E+03
     -8.692  0.3717E+02  0.2673E+03
     -8.595  0.3665E+02  0.2709E+03
     -8.498  0.3418E+02  0.2742E+03
     -8.402  0.3147E+02  0.2772E+03
     -8.305  0.3002E+02  0.2801E+03
     -8.209  0.2978E+02  0.2830E+03
     -8.112  0.2955E+02  0.2859E+03
     -8.015  0.2845E+02  0.2886E+03
     -7.919  0.2696E+02  0.2912E+03
     -7.822  0.2665E+02  0.2938E+03
     -7.725  0.2769E+02  0.2965E+03
     -7.629  0.2863E+02  0.2992E+03
     -7.532  0.2884E+02  0.3020E+03
     -7.436  0.2883E+02  0.3048E+03
     -7.339  0.2868E+02  0.3076E+03
     -7.242  0.2759E+02  0.3102E+03
     -7.146  0.2577E+02  0.3127E+03
     -7.049  0.2478E+02  0.3151E+03
     -6.953  0.2498E+02  0.3175E+03
     -6.856  0.2539E+02  0.3200E+03
     -6.759  0.2559E+02  0.3225E+03
     -6.663  0.2570E+02  0.3249E+03
     -6.566  0.2481E+02  0.3273E+03
     -6.469  0.2225E+02  0.3295E+03
     -6.373  0.1976E+02  0.3314E+03
     -6.276  0.1925E+02  0.3333E+03
     -6.180  0.2010E+02  0.3352E+03
     -6.083  0.2170E+02  0.3373E+03
     -5.986  0.2403E+02  0.3396E+03
     -5.890  0.2557E+02  0.3421E+03
     -5.793  0.2470E+02  0.3445E+03
     -5.697  0.2207E+02  0.3466E+03
     -5.600  0.1883E+02  0.3484E+03
     -5.503  0.1511E+02  0.3499E+03
     -5.407  0.1160E+02  0.3510E+03
     -5.310  0.1018E+02  0.3520E+03
     -5.213  0.1141E+02  0.3531E+03
     -5.117  0.1277E+02  0.3543E+03
     -5.020  0.1166E+02  0.3555E+03
     -4.924  0.9148E+01  0.3563E+03
     -4.827  0.8218E+01  0.3571E+03
     -4.730  0.9987E+01  0.3581E+03
     -4.634  0.1309E+02  0.3594E+03
     -4.537  0.1551E+02  0.3609E+03
     -4.441  0.1568E+02  0.3624E+03
     -4.344  0.1292E+02  0.3636E+03
     -4.247  0.8594E+01  0.3645E+03
     -4.151  0.5040E+01  0.3649E+03
     -4.054  0.3026E+01  0.3652E+03
     -3.957  0.2004E+01  0.3654E+03
     -3.861  0.1823E+01  0.3656E+03
     -3.764  0.2693E+01  0.3659E+03
     -3.668  0.4130E+01  0.3663E+03
     -3.571  0.4908E+01  0.3667E+03
     -3.474  0.4257E+01  0.3671E+03
     -3.378  0.2845E+01  0.3674E+03
     -3.281  0.2037E+01  0.3676E+03
     -3.185  0.2264E+01  0.3678E+03
     -3.088  0.2920E+01  0.3681E+03
     -2.991  0.3578E+01  0.3685E+03
     -2.895  0.4356E+01  0.3689E+03
     -2.798  0.5125E+01  0.3694E+03
     -2.701  0.5500E+01  0.3699E+03
     -2.605  0.5705E+01  0.3705E+03
     -2.508  0.6338E+01  0.3711E+03
     -2.412  0.7368E+01  0.3718E+03
     -2.315  0.8044E+01  0.3726E+03
     -2.218  0.8251E+01  0.3734E+03
     -2.122  0.8579E+01  0.3742E+03
     -2.025  0.8397E+01  0.3750E+03
     -1.929  0.6847E+01  0.3757E+03
     -1.832  0.5465E+01  0.3762E+03
     -1.735  0.6833E+01  0.3769E+03
     -1.639  0.1160E+02  0.3780E+03
     -1.542  0.1766E+02  0.3797E+03
     -1.445  0.2180E+02  0.3818E+03
     -1.349  0.2264E+02  0.3840E+03
     -1.252  0.2145E+02  0.3860E+03
     -1.156  0.2031E+02  0.3880E+03
     -1.059  0.1968E+02  0.3899E+03
     -0.962  0.1828E+02  0.3917E+03
     -0.866  0.1576E+02  0.3932E+03
     -0.769  0.1334E+02  0.3945E+03
     -0.673  0.1208E+02  0.3957E+03
     -0.576  0.1207E+02  0.3968E+03
     -0.479  0.1217E+02  0.3980E+03
     -0.383  0.1127E+02  0.3991E+03
     -0.286  0.1065E+02  0.4001E+03
     -0.189  0.1278E+02  0.4014E+03
     -0.093  0.1734E+02  0.4030E+03
      0.004  0.2102E+02  0.4051E+03
      0.100  0.2194E+02  0.4072E+03
      0.197  0.2145E+02  0.4092E+03
      0.294  0.2101E+02  0.4113E+03
      0.390  0.2027E+02  0.4132E+03
      0.487  0.1925E+02  0.4151E+03
      0.584  0.1987E+02  0.4170E+03
      0.680  0.2331E+02  0.4193E+03
      0.777  0.2770E+02  0.4219E+03
      0.873  0.3053E+02  0.4249E+03
      0.970  0.3244E+02  0.4280E+03
      1.067  0.3563E+02  0.4315E+03
      1.163  0.4022E+02  0.4354E+03
      1.260  0.4511E+02  0.4397E+03
      1.356  0.4933E+02  0.4445E+03
      1.453  0.5105E+02  0.4494E+03
      1.550  0.4825E+02  0.4541E+03
      1.646  0.4078E+02  0.4580E+03
      1.743  0.3031E+02  0.4609E+03
      1.840  0.1881E+02  0.4628E+03
      1.936  0.8953E+01  0.4636E+03
      2.033  0.3033E+01  0.4639E+03
      2.129  0.6976E+00  0.4640E+03
      2.226  0.1063E+00  0.4640E+03
      2.323  0.1059E-01  0.4640E+03
      2.419  0.6858E-03  0.4640E+03
      2.516  0.2874E-04  0.4640E+03
      2.612  0.7772E-06  0.4640E+03
      2.709  0.1353E-07  0.4640E+03
      2.806  0.1512E-09  0.4640E+03
      2.902  0.1084E-11  0.4640E+03
      2.999  0.3447E-14  0.4640E+03
      3.096  0.0000E+00  0.4640E+03
      3.192  0.0000E+00  0.4640E+03
      3.289  0.0000E+00  0.4640E+03
      3.385  0.0000E+00  0.4640E+03
      3.482  0.0000E+00  0.4640E+03
      3.579  0.0000E+00  0.4640E+03
      3.675  0.0000E+00  0.4640E+03
      3.772  0.0000E+00  0.4640E+03
