       N       E                     dE             d eps       ncg     rms          rms(c)
DAV:   1     0.371835388262E+04    0.37184E+04   -0.11907E+05  1712   0.105E+03
DAV:   2     0.186587329721E+03   -0.35318E+04   -0.32716E+04  2136   0.239E+02
DAV:   3    -0.836647607406E+03   -0.10232E+04   -0.10018E+04  1784   0.135E+02
DAV:   4    -0.898170790718E+03   -0.61523E+02   -0.60597E+02  1720   0.431E+01
DAV:   5    -0.899676380907E+03   -0.15056E+01   -0.14842E+01  1824   0.654E+00    0.459E+01
DAV:   6    -0.849072750810E+03    0.50604E+02   -0.48478E+01  1584   0.128E+01    0.270E+01
DAV:   7    -0.830264640958E+03    0.18808E+02   -0.66488E+01  1560   0.145E+01    0.745E+00
DAV:   8    -0.829964632691E+03    0.30001E+00   -0.23951E+00  1592   0.335E+00    0.103E+00
DAV:   9    -0.829852476570E+03    0.11216E+00   -0.26604E-01  1640   0.103E+00    0.582E-01
DAV:  10    -0.829812956125E+03    0.39520E-01   -0.54259E-02  1728   0.464E-01    0.368E-01
DAV:  11    -0.829783838022E+03    0.29118E-01   -0.19546E-02  1576   0.241E-01    0.255E-01
DAV:  12    -0.829777932562E+03    0.59055E-02   -0.27978E-02  1536   0.242E-01    0.155E-01
DAV:  13    -0.829789763593E+03   -0.11831E-01   -0.91301E-03  1560   0.153E-01    0.923E-02
DAV:  14    -0.829806859380E+03   -0.17096E-01   -0.12590E-03  1584   0.728E-02    0.586E-02
DAV:  15    -0.829827381171E+03   -0.20522E-01   -0.18924E-03  1576   0.665E-02    0.334E-02
DAV:  16    -0.829836342720E+03   -0.89615E-02   -0.51557E-04  1608   0.371E-02    0.219E-02
DAV:  17    -0.829841644962E+03   -0.53022E-02   -0.32545E-04  1568   0.233E-02    0.117E-02
DAV:  18    -0.829843743994E+03   -0.20990E-02   -0.82866E-05  1624   0.129E-02    0.595E-03
DAV:  19    -0.829844942358E+03   -0.11984E-02   -0.46582E-05  1368   0.845E-03    0.414E-03
DAV:  20    -0.829845307658E+03   -0.36530E-03   -0.51911E-06  1376   0.318E-03    0.219E-03
DAV:  21    -0.829845538730E+03   -0.23107E-03   -0.33630E-06  1272   0.242E-03    0.101E-03
DAV:  22    -0.829845586518E+03   -0.47788E-04   -0.19590E-07  1032   0.858E-04    0.637E-04
DAV:  23    -0.829845621072E+03   -0.34554E-04   -0.27565E-07   936   0.723E-04    0.307E-04
DAV:  24    -0.829845631997E+03   -0.10925E-04   -0.87587E-08   944   0.477E-04    0.176E-04
DAV:  25    -0.829845636259E+03   -0.42616E-05   -0.33089E-08   920   0.285E-04    0.113E-04
DAV:  26    -0.829845638435E+03   -0.21762E-05   -0.16362E-08   928   0.189E-04    0.758E-05
DAV:  27    -0.829845640479E+03   -0.20437E-05   -0.93746E-09   984   0.150E-04    0.403E-05
DAV:  28    -0.829845641362E+03   -0.88307E-06   -0.45057E-09   920   0.109E-04
   1 F= -.82984564E+03 E0= -.82981576E+03  d E =-.597719E-01
