 vasp.6.5.0 16Dec24 (build Feb 19 2025 19:45:31) complex                         
 executed on              LinuxNV date 2025.10.25  12:59:09
 running    2 mpi-ranks, on    1 nodes
 distrk:  each k-point on    2 cores,    1 groups
 distr:  one band on NCORE=   1 cores,    2 groups
 Offloading initialized ...    2 GPUs detected


--------------------------------------------------------------------------------------------------------


 INCAR:
   ISTART = 0            (Not Read existing wavefunction
   ISPIN = 1            (Non-Spin polarised DFT, Default\=1)
   ICHARG = 2            (The initial guess charge density is generated by superposition of atomic charge density)
   LREAL = Auto         (Projection operators: automatic)
   ENCUT = 500          (Cut-off energy for plane wave basis set, in eV)
   LWAVE = .FALSE.       (Write WAVECAR or not)
   LCHARG = .FALSE.       (Write CHGCAR or not)
   PREC = Accurate   (Precision level)
   KGAMMA = .TRUE.
   ALGO = Normal
   NSW = 0           (Default: NSW \= 0)
   IBRION = -1           (Ions are not moved)
   ISMEAR = 0
   EDIFF = 1E-06        (SCF energy convergence
   NELM = 150          (Max electronic SCF steps)

 POTCAR:    PAW_PBE C 08Apr2002                   
 POTCAR:    PAW_PBE C 08Apr2002                   
   SHA256 =  253f7b50bb8d59471dbedb8285d89021f4a42ed1a2c5d38a03a736e69125dd95 C/POTCAR              
   COPYR  = (c) Copyright 08Apr2002 Georg Kresse                                                    
   COPYR  = This file is part of the software VASP. Any use, copying, and all other rights are regul
   COPYR  = If you do not have a valid VASP license, you may not use, copy or distribute this file. 
   VRHFIN =C: s2p2                                                                                  
   LEXCH  = PE                                                                                      
   EATOM  =   147.1560 eV,   10.8157 Ry                                                             
                                                                                                    
   TITEL  = PAW_PBE C 08Apr2002                                                                     
   LULTRA =        F    use ultrasoft PP ?                                                          
   IUNSCR =        1    unscreen: 0-lin 1-nonlin 2-no                                               
   RPACOR =    1.200    partial core radius                                                         
   POMASS =   12.011; ZVAL   =    4.000    mass and valenz                                          
   RCORE  =    1.500    outmost cutoff radius                                                       
   RWIGS  =    1.630; RWIGS  =    0.863    wigner-seitz radius (au A)                               
   ENMAX  =  400.000; ENMIN  =  300.000 eV                                                          
   ICORE  =        2    local potential                                                             
   LCOR   =        T    correct aug charges                                                         
   LPAW   =        T    paw PP                                                                      
   EAUG   =  644.873                                                                                
   DEXC   =    0.000                                                                                
   RMAX   =    1.529    core radius for proj-oper                                                   
   RAUG   =    1.300    factor for augmentation sphere                                              
   RDEP   =    1.501    radius for radial grids                                                     
   RDEPT  =    1.300    core radius for aug-charge                                                  
                                                                                                    
   Atomic configuration                                                                             
    4 entries                                                                                       
     n  l   j            E        occ.                                                              
     1  0  0.50      -273.3789   2.0000                                                             
     2  0  0.50       -13.7508   2.0000                                                             
     2  1  0.50        -5.2854   2.0000                                                             
     3  2  1.50        -5.4423   0.0000                                                             
   Description                                                                                      
     l       E           TYP  RCUT    TYP  RCUT                                                     
     0    -13.7508458     23  1.200                                                                 
     0     -8.2022199     23  1.200                                                                 
     1     -5.2854383     23  1.500                                                                 
     1     34.0145650     23  1.500                                                                 
     2     -5.4423304      7  1.500                                                                 
  local pseudopotential read in
  partial core-charges read in
  partial kinetic energy density read in
  atomic valenz-charges read in
  non local Contribution for L=            0  read in
    real space projection operators read in
  non local Contribution for L=            0  read in
    real space projection operators read in
  non local Contribution for L=            1  read in
    real space projection operators read in
  non local Contribution for L=            1  read in
    real space projection operators read in
    PAW grid and wavefunctions read in
 
   number of l-projection  operators is LMAX  =            4
   number of lm-projection operators is LMMAX =            8
 
 Optimization of the real space projectors (new method)

 maximal supplied QI-value         = 25.13
 optimisation between [QCUT,QGAM] = [ 11.31, 22.87] = [ 35.82,146.48] Ry 
 Optimized for a Real-space Cutoff    1.03 Angstroem

   l    n(q)    QCUT    max X(q) W(low)/X(q) W(high)/X(q)  e(spline) 
   0      7    11.310   115.676    0.20E-03    0.90E-03    0.20E-06
   0      7    11.310    87.132    0.20E-03    0.89E-03    0.19E-06
   1      6    11.310     4.429    0.16E-03    0.28E-03    0.12E-06
   1      6    11.310     2.733    0.12E-03    0.21E-03    0.99E-07
  PAW_PBE C 08Apr2002                   :
 energy of atom  1       EATOM= -147.1560
 kinetic energy error for atom=    0.0076 (will be added to EATOM!!)
 
 
 POSCAR:  C
  positions in cartesian coordinates
  No initial velocities read in


 exchange-correlation table for PE
   RHO(1)=    0.500       N(1)  =     2000
   RHO(2)=  100.500       N(2)  =     4000
 


--------------------------------------------------------------------------------------------------------


 ion  position               nearest neighbor table
   1  0.011  0.096  0.451-   2 1.39   3 1.40  45 1.47  46 2.02
   2  0.013  0.265  0.445-   4 1.37   1 1.39  46 1.48  45 2.04
   3  0.052  0.017  0.465-  50 1.34   1 1.40   5 1.42
   4  0.053  0.352  0.454-   2 1.37  49 1.37   6 1.42
   5  0.095  0.101  0.473-   6 1.40   3 1.42   7 1.43
   6  0.096  0.272  0.466-   5 1.40   4 1.42   8 1.43
   7  0.135  0.019  0.491-   9 1.39  54 1.39   5 1.43
   8  0.139  0.350  0.479-  53 1.38  10 1.39   6 1.43
   9  0.177  0.101  0.501-  10 1.36   7 1.39  11 1.46
  10  0.179  0.266  0.493-   9 1.36   8 1.39  12 1.44
  11  0.220  0.016  0.514-  58 1.35  13 1.38   9 1.46
  12  0.221  0.352  0.505-  57 1.39  14 1.42  10 1.44
  13  0.262  0.097  0.521-  11 1.38  15 1.39  14 1.41
  14  0.264  0.269  0.517-  13 1.41  16 1.42  12 1.42
  15  0.303  0.021  0.536-  13 1.39  62 1.40  17 1.41
  16  0.308  0.352  0.523-  18 1.37  61 1.38  14 1.42
  17  0.348  0.101  0.538-  18 1.38  15 1.41  19 1.42
  18  0.349  0.267  0.529-  16 1.37  17 1.38  20 1.41
  19  0.393  0.025  0.544-  66 1.35  21 1.42  17 1.42
  20  0.393  0.352  0.529-  65 1.39  22 1.40  18 1.41
  21  0.437  0.111  0.543-  22 1.37  19 1.42  23 1.45
  22  0.438  0.275  0.532-  21 1.37  24 1.39  20 1.40
  23  0.482  0.025  0.538-  70 1.40  25 1.43  21 1.45
  24  0.480  0.359  0.525-  69 1.32  22 1.39  26 1.41
  25  0.525  0.110  0.527-  26 1.36  23 1.43  27 1.45
  26  0.524  0.275  0.520-  25 1.36  24 1.41  28 1.42
  27  0.570  0.026  0.528-  74 1.37  29 1.42  25 1.45
  28  0.567  0.361  0.514-  73 1.38  26 1.42  30 1.46
  29  0.614  0.108  0.520-  30 1.37  31 1.42  27 1.42
  30  0.612  0.271  0.510-  29 1.37  32 1.43  28 1.46
  31  0.659  0.032  0.514-  33 1.39  78 1.39  29 1.42
  32  0.655  0.363  0.502-  77 1.38  30 1.43  34 1.44
  33  0.699  0.111  0.500-  31 1.39  34 1.41  35 1.42
  34  0.700  0.283  0.494-  36 1.36  33 1.41  32 1.44
  35  0.743  0.024  0.493-  33 1.42  82 1.42  37 1.48
  36  0.741  0.365  0.486-  81 1.36  34 1.36  38 1.49
  37  0.787  0.110  0.481-  38 1.33  39 1.39  35 1.48
  38  0.786  0.274  0.477-  37 1.33  40 1.40  36 1.49
  39  0.828  0.026  0.473-  37 1.39  86 1.39  41 1.44
  40  0.828  0.359  0.468-  85 1.34  38 1.40  42 1.44
  41  0.872  0.106  0.460-  42 1.35  43 1.40  39 1.44
  42  0.871  0.272  0.458-  41 1.35  44 1.42  40 1.44
  43  0.916  0.024  0.458-  90 1.39  45 1.39  41 1.40
  44  0.916  0.353  0.455-  89 1.36  42 1.42  46 1.44
  45  0.959  0.096  0.447-  43 1.39  46 1.40   1 1.47   2 2.04
  46  0.960  0.268  0.446-  45 1.40  44 1.44   2 1.48   1 2.02
  47  0.011  0.594  0.456-  49 1.34  48 1.38  91 1.52
  48  0.010  0.759  0.466-  47 1.38  50 1.40  92 1.50  91 1.98
  49  0.053  0.520  0.458-  47 1.34   4 1.37  51 1.43
  50  0.052  0.854  0.471-   3 1.34  52 1.38  48 1.40
  51  0.096  0.601  0.470-  53 1.39  52 1.41  49 1.43
  52  0.093  0.771  0.479-  50 1.38  54 1.39  51 1.41
  53  0.138  0.520  0.482-   8 1.38  51 1.39  55 1.41
  54  0.135  0.847  0.493-   7 1.39  52 1.39  56 1.42
  55  0.177  0.599  0.500-  56 1.38  53 1.41  57 1.41
  56  0.177  0.767  0.506-  55 1.38  58 1.38  54 1.42
  57  0.221  0.523  0.508-  12 1.39  55 1.41  59 1.44
  58  0.216  0.852  0.520-  11 1.35  60 1.38  56 1.38
  59  0.263  0.604  0.523-  60 1.37  61 1.41  57 1.44
  60  0.258  0.771  0.529-  59 1.37  58 1.38  62 1.44
  61  0.307  0.520  0.528-  16 1.38  63 1.40  59 1.41
  62  0.302  0.850  0.539-  15 1.40  64 1.43  60 1.44
  63  0.349  0.605  0.537-  64 1.36  61 1.40  65 1.42
  64  0.348  0.771  0.541-  63 1.36  62 1.43  66 1.46
  65  0.393  0.522  0.534-  20 1.39  67 1.39  63 1.42
  66  0.393  0.859  0.547-  19 1.35  64 1.46  68 1.47
  67  0.437  0.601  0.537-  68 1.39  65 1.39  69 1.43
  68  0.439  0.771  0.543-  67 1.39  70 1.41  66 1.47
  69  0.482  0.520  0.530-  24 1.32  67 1.43  71 1.47
  70  0.483  0.853  0.539-  72 1.38  23 1.40  68 1.41
  71  0.527  0.610  0.530-  72 1.35  73 1.42  69 1.47
  72  0.527  0.775  0.536-  71 1.35  70 1.38  74 1.44
  73  0.570  0.529  0.520-  28 1.38  75 1.39  71 1.42
  74  0.572  0.858  0.533-  27 1.37  76 1.40  72 1.44
  75  0.613  0.611  0.513-  76 1.37  73 1.39  77 1.41
  76  0.614  0.775  0.523-  75 1.37  74 1.40  78 1.40
  77  0.656  0.533  0.503-  79 1.36  32 1.38  75 1.41
  78  0.657  0.861  0.519-  31 1.39  76 1.40  80 1.41
  79  0.700  0.609  0.505-  77 1.36  80 1.38  81 1.41
  80  0.700  0.777  0.511-  79 1.38  78 1.41  82 1.45
  81  0.743  0.527  0.496-  36 1.36  83 1.39  79 1.41
  82  0.745  0.851  0.500-  84 1.39  35 1.42  80 1.45
  83  0.786  0.603  0.489-  84 1.37  81 1.39  85 1.47
  84  0.788  0.772  0.491-  83 1.37  82 1.39  86 1.41
  85  0.830  0.521  0.477-  40 1.34  87 1.41  83 1.47
  86  0.830  0.858  0.480-  39 1.39  84 1.41  88 1.43
  87  0.874  0.604  0.470-  88 1.35  85 1.41  89 1.41
  88  0.873  0.770  0.473-  87 1.35  86 1.43  90 1.44
  89  0.917  0.519  0.461-  91 1.32  44 1.36  87 1.41
  90  0.917  0.856  0.466-  92 1.33  43 1.39  88 1.44
  91  0.957  0.602  0.459-  89 1.32  92 1.37  47 1.52  48 1.98
  92  0.957  0.770  0.462-  90 1.33  91 1.37  48 1.50
 
  LATTYP: Found a simple orthorhombic cell.
 ALAT       =     8.1000000000
 B/A-ratio  =     3.4629629630
 C/A-ratio  =     4.1358024691
  
  Lattice vectors:
  
 A1 = (   0.0000000000,  -8.1000000000,   0.0000000000)
 A2 = (  28.0500000000,   0.0000000000,   0.0000000000)
 A3 = (   0.0000000000,   0.0000000000,  33.5000000000)


Analysis of symmetry for initial positions (statically):
=====================================================================
 Subroutine PRICEL returns:
 Original cell was already a primitive cell.
 

 Routine SETGRP: Setting up the symmetry group for a 
 simple orthorhombic supercell.


 Subroutine GETGRP returns: Found  1 space group operations
 (whereof  1 operations were pure point group operations)
 out of a pool of  8 trial point group operations.


The static configuration has the point symmetry C_1 .


Analysis of symmetry for dynamics (positions and initial velocities):
=====================================================================
 Subroutine PRICEL returns:
 Original cell was already a primitive cell.
 

 Routine SETGRP: Setting up the symmetry group for a 
 simple orthorhombic supercell.


 Subroutine GETGRP returns: Found  1 space group operations
 (whereof  1 operations were pure point group operations)
 out of a pool of  8 trial point group operations.


The dynamic configuration has the point symmetry C_1 .


 Subroutine INISYM returns: Found  1 space group operations
 (whereof  1 operations are pure point group operations),
 and found     1 'primitive' translations


----------------------------------------------------------------------------------------

                                     Primitive cell                                     

  volume of cell :    7611.3675

  direct lattice vectors                    reciprocal lattice vectors
    28.050000000  0.000000000  0.000000000     0.035650624  0.000000000  0.000000000
     0.000000000  8.100000000  0.000000000     0.000000000  0.123456790  0.000000000
     0.000000000  0.000000000 33.500000000     0.000000000  0.000000000  0.029850746

  length of vectors
    28.050000000  8.100000000 33.500000000     0.035650624  0.123456790  0.029850746

  position of ions in fractional coordinates (direct lattice)
     0.011202210  0.095847037  0.451188060
     0.012562888  0.265381481  0.445465672
     0.052283066  0.016744321  0.464853731
     0.053288057  0.351767901  0.453922388
     0.095369697  0.101197778  0.473041791
     0.095732977  0.271753086  0.466435821
     0.135214260  0.018662469  0.490934328
     0.138891266  0.349601235  0.478740299
     0.176848128  0.101413951  0.501256716
     0.178816756  0.265630864  0.492910448
     0.220043494  0.016321728  0.514005970
     0.221243850  0.352132099  0.505232836
     0.262496257  0.096530247  0.521459701
     0.263654545  0.268853086  0.516683582
     0.303425312  0.021490494  0.535931343
     0.307580749  0.351955556  0.522952239
     0.348081640  0.100699136  0.537961194
     0.349127629  0.266940741  0.529083582
     0.392955437  0.024738272  0.544411940
     0.393037433  0.352114815  0.528880597
     0.436841355  0.111319630  0.543149254
     0.437518717  0.274553086  0.532137313
     0.481900178  0.025408519  0.538400000
     0.480106952  0.358760494  0.525223881
     0.524538324  0.109661111  0.527173134
     0.523896613  0.275211111  0.520053731
     0.570135472  0.025814074  0.527841791
     0.567358289  0.361066667  0.513623881
     0.613964349  0.107770370  0.519737313
     0.612274510  0.271472840  0.509976119
     0.659115865  0.031968889  0.514361194
     0.654513369  0.363008642  0.501567164
     0.699458111  0.110541481  0.499859701
     0.699754011  0.283445679  0.494131343
     0.742559715  0.024049506  0.492773134
     0.741105169  0.364712346  0.485847761
     0.786648841  0.110399877  0.480734328
     0.785825312  0.273629630  0.476895522
     0.828488414  0.026191852  0.472504478
     0.828035651  0.359334568  0.468328358
     0.871764706  0.106111111  0.460194030
     0.871030303  0.272222222  0.457961194
     0.915607843  0.024060741  0.457740299
     0.915903743  0.352860494  0.454579104
     0.958994652  0.095616667  0.447414925
     0.959657754  0.268318519  0.445805970
     0.010853333  0.594188889  0.455847761
     0.010368200  0.759202469  0.465808955
     0.053473440  0.520049383  0.457835821
     0.051595009  0.853822222  0.470889552
     0.096336898  0.600570370  0.470402985
     0.093184670  0.770559259  0.479400000
     0.137847059  0.519728395  0.481677612
     0.134627094  0.846941975  0.493000000
     0.176860606  0.599103704  0.499728358
     0.176765775  0.766761728  0.506382090
     0.220967201  0.522938272  0.508376119
     0.216183957  0.852414815  0.519982090
     0.263003922  0.603901235  0.523498507
     0.258285205  0.771390123  0.528504478
     0.306565775  0.520432099  0.528241791
     0.302423173  0.849609877  0.539119403
     0.348953298  0.604665432  0.536937313
     0.348201426  0.771362963  0.541468657
     0.393461676  0.521712346  0.534244776
     0.393376114  0.858593827  0.546823881
     0.437190731  0.601475309  0.536913433
     0.439101604  0.770712346  0.542958209
     0.481850267  0.519646914  0.530310448
     0.483247772  0.852654321  0.539211940
     0.527115865  0.609970370  0.530244776
     0.527076649  0.775272840  0.536214925
     0.570367201  0.529320988  0.520400000
     0.572228164  0.858420988  0.533223881
     0.613301248  0.610572840  0.513471642
     0.614085561  0.774920988  0.522704478
     0.656449198  0.532869136  0.503125373
     0.657201426  0.861214815  0.518767164
     0.699515152  0.608656790  0.504850746
     0.700199643  0.777191358  0.511217910
     0.742655971  0.527144444  0.496167164
     0.745165775  0.850820988  0.499823881
     0.786320856  0.603437037  0.489364179
     0.787918004  0.772116049  0.491271642
     0.830370766  0.520797531  0.476841791
     0.829565062  0.857598765  0.479805970
     0.873832442  0.603791358  0.469788060
     0.872976827  0.770150617  0.473313433
     0.916631016  0.518903704  0.461077612
     0.917019608  0.856170370  0.466191045
     0.956926916  0.601502469  0.458737313
     0.957176471  0.770414815  0.462468657

  ion indices of the primitive-cell ions
   primitive index   ion index
                 1           1
                 2           2
                 3           3
                 4           4
                 5           5
                 6           6
                 7           7
                 8           8
                 9           9
                10          10
                11          11
                12          12
                13          13
                14          14
                15          15
                16          16
                17          17
                18          18
                19          19
                20          20
                21          21
                22          22
                23          23
                24          24
                25          25
                26          26
                27          27
                28          28
                29          29
                30          30
                31          31
                32          32
                33          33
                34          34
                35          35
                36          36
                37          37
                38          38
                39          39
                40          40
                41          41
                42          42
                43          43
                44          44
                45          45
                46          46
                47          47
                48          48
                49          49
                50          50
                51          51
                52          52
                53          53
                54          54
                55          55
                56          56
                57          57
                58          58
                59          59
                60          60
                61          61
                62          62
                63          63
                64          64
                65          65
                66          66
                67          67
                68          68
                69          69
                70          70
                71          71
                72          72
                73          73
                74          74
                75          75
                76          76
                77          77
                78          78
                79          79
                80          80
                81          81
                82          82
                83          83
                84          84
                85          85
                86          86
                87          87
                88          88
                89          89
                90          90
                91          91
                92          92

----------------------------------------------------------------------------------------

 
 
 KPOINTS: K-Spacing Value to Generate K-Mesh: 0.03

Automatic generation of k-mesh.
 Grid dimensions read from file:
 generate k-points for:    1    4    1

 Generating k-lattice:

  Cartesian coordinates                     Fractional coordinates (reciprocal lattice)
     0.035650624  0.000000000  0.000000000     1.000000000  0.000000000  0.000000000
     0.000000000  0.030864198  0.000000000     0.000000000  0.250000000  0.000000000
     0.000000000  0.000000000  0.029850746     0.000000000  0.000000000  1.000000000

  Length of vectors
     0.035650624  0.030864198  0.029850746

  Shift w.r.t. Gamma in fractional coordinates (k-lattice)
     0.000000000  0.000000000  0.000000000

 
 Subroutine IBZKPT returns following result:
 ===========================================
 
 Found      3 irreducible k-points:
 
 Following reciprocal coordinates:
            Coordinates               Weight
  0.000000  0.000000  0.000000      1.000000
  0.000000  0.250000  0.000000      2.000000
  0.000000  0.500000  0.000000      1.000000
 
 Following cartesian coordinates:
            Coordinates               Weight
  0.000000  0.000000  0.000000      1.000000
  0.000000  0.030864  0.000000      2.000000
  0.000000  0.061728  0.000000      1.000000
 


--------------------------------------------------------------------------------------------------------




 Dimension of arrays:
   k-points           NKPTS =      3   k-points in BZ     NKDIM =      3   number of bands    NBANDS=    232
   number of dos      NEDOS =    301   number of ions     NIONS =     92
   non local maximal  LDIM  =      4   non local SUM 2l+1 LMDIM =      8
   total plane-waves  NPLWV = ******
   max r-space proj   IRMAX =   1967   max aug-charges    IRDMAX=   5083
   dimension x,y,z NGX =   210 NGY =   60 NGZ =  250
   dimension x,y,z NGXF=   420 NGYF=  120 NGZF=  500
   support grid    NGXF=   420 NGYF=  120 NGZF=  500
   ions per type =              92
   NGX,Y,Z   is equivalent  to a cutoff of  12.45, 12.31, 12.41 a.u.
   NGXF,Y,Z  is equivalent  to a cutoff of  24.89, 24.63, 24.81 a.u.

 SYSTEM =  unknown system                          
 POSCAR =   C                                      

 Startparameter for this run:
   NWRITE =      2    write-flag & timer
   PREC   = accura    normal or accurate (medium, high low for compatibility)
   ISTART =      0    job   : 0-new  1-cont  2-samecut
   ICHARG =      2    charge: 1-file 2-atom 10-const
   ISPIN  =      1    spin polarized calculation?
   LNONCOLLINEAR =      F non collinear calculations
   LSORBIT =      F    spin-orbit coupling
   INIWAV =      1    electr: 0-lowe 1-rand  2-diag
   LASPH  =      F    aspherical Exc in radial PAW
 Electronic Relaxation 1
   ENCUT  =  500.0 eV  36.75 Ry    6.06 a.u.  51.14 14.77 61.08*2*pi/ulx,y,z
   ENINI  =  500.0     initial cutoff
   ENAUG  =  644.9 eV  augmentation charge cutoff
   NELM   =    150;   NELMIN=  2; NELMDL= -5     # of ELM steps 
   EDIFF  = 0.1E-05   stopping-criterion for ELM
   LREAL  =      T    real-space projection
   NLSPLINE    = F    spline interpolate recip. space projectors
   LCOMPAT=      F    compatible to vasp.4.4
   GGA_COMPAT  = T    GGA compatible to vasp.4.4-vasp.4.6
   LMAXPAW     = -100 max onsite density
   LMAXMIX     =    2 max onsite mixed and CHGCAR
   VOSKOWN=      0    Vosko Wilk Nusair interpolation
   ROPT   =   -0.00025
 Ionic relaxation
   EDIFFG = 0.1E-04   stopping-criterion for IOM
   NSW    =      0    number of steps for IOM
   NBLOCK =      1;   KBLOCK =      1    inner block; outer block 
   IBRION =     -1    ionic relax: 0-MD 1-quasi-New 2-CG
   NFREE  =      0    steps in history (QN), initial steepest desc. (CG)
   ISIF   =      2    stress and relaxation
   IWAVPR =     10    prediction:  0-non 1-charg 2-wave 3-comb
   ISYM   =      2    0-nonsym 1-usesym 2-fastsym
   LCORR  =      T    Harris-Foulkes like correction to forces

   POTIM  = 0.5000    time-step for ionic-motion
   TEIN   =    0.0    initial temperature
   TEBEG  =    0.0;   TEEND  =   0.0 temperature during run
   SMASS  =  -3.00    Nose mass-parameter (am)
   estimated Nose-frequenzy (Omega)   =  0.10E-29 period in steps = 0.13E+47 mass=  -0.180E-25a.u.
   SCALEE = 1.0000    scale energy and forces
   NPACO  =    256;   APACO  = 10.0  distance and # of slots for P.C.
   PSTRESS=    0.0 pullay stress

  Mass of Ions in am
   POMASS =  12.01
  Ionic Valenz
   ZVAL   =   4.00
  Atomic Wigner-Seitz radii
   RWIGS  =  -1.00
  virtual crystal weights 
   VCA    =   1.00
   NELECT =     368.0000    total number of electrons
   NUPDOWN=      -1.0000    fix difference up-down

 DOS related values:
   EMIN   =  10.00;   EMAX   =-10.00  energy-range for DOS
   EFERMI =   0.00;   METHOD = LEGACY      
   ISMEAR =     0;   SIGMA  =   0.20  broadening in eV -4-tet -1-fermi 0-gaus
   EFERMI_NEDOS =   21; number of points for ismear=-14 and -15

 Electronic relaxation 2 (details)
   IALGO  =     38    algorithm
   LDIAG  =      T    sub-space diagonalisation (order eigenvalues)
   LSUBROT=      F    optimize rotation matrix (better conditioning)
   TURBO    =      0    0=normal 1=particle mesh
   IRESTART =      0    0=no restart 2=restart with 2 vectors
   NREBOOT  =      0    no. of reboots
   NMIN     =      0    reboot dimension
   EREF     =   0.00    reference energy to select bands
   IMIX   =      4    mixing-type and parameters
     AMIX     =   0.40;   BMIX     =  1.00
     AMIX_MAG =   1.60;   BMIX_MAG =  1.00
     AMIN     =   0.10
     WC   =   100.;   INIMIX=   1;  MIXPRE=   1;  MAXMIX= -45

 Intra band minimization:
   WEIMIN = 0.0000     energy-eigenvalue tresh-hold
   EBREAK =  0.11E-08  absolut break condition
   DEPER  =   0.30     relativ break condition  

   TIME   =   0.40     timestep for ELM

  volume/ion in A,a.u.               =      82.73       558.30
  Fermi-wavevector in a.u.,A,eV,Ry     =   0.596398  1.127030  4.839472  0.355691
  Thomas-Fermi vector in A             =   1.646729
 
 Write flags
   LWAVE        =      F    write WAVECAR
   LDOWNSAMPLE  =      F    k-point downsampling of WAVECAR
   LCHARG       =      F    write CHGCAR
   LVTOT        =      F    write LOCPOT, total local potential
   LVHAR        =      F    write LOCPOT, Hartree potential only
   WRT_POTENTIAL= false  ! write potential to hdf5 file
   LELF         =      F    write electronic localiz. function (ELF)
   LORBIT       =      0    0 simple, 1 ext, 2 COOP (PROOUT), +10 PAW based schemes


 Python interface
   PLUGINS active      =      F    recompile with -DPLUGINS to activate
 
 Dipole corrections
   LMONO      =      F    monopole corrections only (constant potential shift)
   LDIPOL     =      F    correct potential (dipole corrections)
   IDIPOL     =      0    1-x, 2-y, 3-z, 4-all directions 
   EPSILON    =  1.0000000 bulk dielectric constant
   LVACPOTAV  =      F  vacuum potentials using an averaging scheme for the charge density
   VACPOTFLAT =  0.1000000 required flatness to determine vacuum potential
 
Coulomb truncation method
  LTRUNCATE          =      F  Coulomb kernel truncation to be used
  IDIMENSIONALITY    =      3  Dimensionality of cutoff (0 molecules / 2 surfaces)
  ISURFACE           =     -1  Direction of surface normal
  LCOARSEN           =      F  Coarsen the charge grid before padding, preferred

 
 Exchange correlation treatment:
   GGA     = PE    functional components
   XC_C    = 1    coefficients multiplying the functional components
   LIBXC   =     F    Libxc                    
   VOSKOWN =     0    Vosko Wilk Nusair interpolation
   LHFCALC =     F    Hartree Fock is set to
   LHFONE  =     F    Hartree Fock one center treatment
   AEXX    =    0.0000 exact exchange contribution

 Parameters of functionals:
   PE:
     No parameter
 
 Van der Waals corrections
   IVDW    =     0    specifies the selected vdW correction

 Linear response parameters
   LEPSILON=     F    determine dielectric tensor
   LRPA    =     F    only Hartree local field effects (RPA)
   LNABLA  =     F    use nabla operator in PAW spheres
   LVEL    =     F    velocity operator in full k-point grid
   CSHIFT  =0.1000    complex shift for real part using Kramers Kronig
   OMEGAMAX=  -1.0    maximum frequency
   DEG_THRESHOLD= 0.2000000E-02 threshold for treating states as degnerate
   RTIME   =   -0.100 relaxation time in fs
  (WPLASMAI=    0.000 imaginary part of plasma frequency in eV, 0.658/RTIME)
   DFIELD  = 0.0000000 0.0000000 0.0000000 field for delta impulse in time
 
  Optional k-point grid parameters
   LKPOINTS_OPT  =     F    use optional k-point grid
   KPOINTS_OPT_MODE=     1    mode for optional k-point grid
 
 Orbital magnetization related:
   ORBITALMAG=     F  switch on orbital magnetization
   LCHIMAG   =     F  perturbation theory with respect to B field
   DQ        =  0.001000  dq finite difference perturbation B field
   LLRAUG    =     F  two centre corrections for induced B field
   LBONE     =     F  B-component reconstruction in AE one-centre
   LVGVCALC  =     T  calculate vGv susceptibility
   LVGVAPPL  =     F  apply vGv susceptibility instead of pGv for G=0

 Random number generation:
   RANDOM_GENERATOR = DEFAULT
   PCG_SEED         = not used


--------------------------------------------------------------------------------------------------------


 Static calculation
 charge density and potential will be updated during run
 non-spin polarized calculation
 Variant of blocked Davidson
 Davidson routine will perform the subspace rotation
 perform sub-space diagonalisation
    after iterative eigenvector-optimisation
 modified Broyden-mixing scheme, WC =      100.0
 initial mixing is a Kerker type mixing with AMIX =  0.4000 and BMIX =      1.0000
 Hartree-type preconditioning will be used
 using additional bands            48
 real space projection scheme for non local part
 use partial core corrections
 calculate Harris-corrections to forces 
   (improved forces if not selfconsistent)
 use gradient corrections 
 use of overlap-Matrix (Vanderbilt PP)
 Gauss-broadening in eV      SIGMA  =   0.20


--------------------------------------------------------------------------------------------------------


  energy-cutoff  :      500.00
  volume of cell :     7611.37
      direct lattice vectors                 reciprocal lattice vectors
    28.050000000  0.000000000  0.000000000     0.035650624  0.000000000  0.000000000
     0.000000000  8.100000000  0.000000000     0.000000000  0.123456790  0.000000000
     0.000000000  0.000000000 33.500000000     0.000000000  0.000000000  0.029850746

  length of vectors
    28.050000000  8.100000000 33.500000000     0.035650624  0.123456790  0.029850746


 
 k-points in units of 2pi/SCALE and weight: K-Spacing Value to Generate K-Mesh: 0.03
   0.00000000  0.00000000  0.00000000       0.250
   0.00000000  0.03086420  0.00000000       0.500
   0.00000000  0.06172840  0.00000000       0.250
 
 k-points in reciprocal lattice and weights: K-Spacing Value to Generate K-Mesh: 0.03
   0.00000000  0.00000000  0.00000000       0.250
   0.00000000  0.25000000  0.00000000       0.500
   0.00000000  0.50000000  0.00000000       0.250
 
 position of ions in fractional coordinates (direct lattice) 
   0.01120221  0.09584704  0.45118806
   0.01256289  0.26538148  0.44546567
   0.05228307  0.01674432  0.46485373
   0.05328806  0.35176790  0.45392239
   0.09536970  0.10119778  0.47304179
   0.09573298  0.27175309  0.46643582
   0.13521426  0.01866247  0.49093433
   0.13889127  0.34960123  0.47874030
   0.17684813  0.10141395  0.50125672
   0.17881676  0.26563086  0.49291045
   0.22004349  0.01632173  0.51400597
   0.22124385  0.35213210  0.50523284
   0.26249626  0.09653025  0.52145970
   0.26365455  0.26885309  0.51668358
   0.30342531  0.02149049  0.53593134
   0.30758075  0.35195556  0.52295224
   0.34808164  0.10069914  0.53796119
   0.34912763  0.26694074  0.52908358
   0.39295544  0.02473827  0.54441194
   0.39303743  0.35211481  0.52888060
   0.43684135  0.11131963  0.54314925
   0.43751872  0.27455309  0.53213731
   0.48190018  0.02540852  0.53840000
   0.48010695  0.35876049  0.52522388
   0.52453832  0.10966111  0.52717313
   0.52389661  0.27521111  0.52005373
   0.57013547  0.02581407  0.52784179
   0.56735829  0.36106667  0.51362388
   0.61396435  0.10777037  0.51973731
   0.61227451  0.27147284  0.50997612
   0.65911586  0.03196889  0.51436119
   0.65451337  0.36300864  0.50156716
   0.69945811  0.11054148  0.49985970
   0.69975401  0.28344568  0.49413134
   0.74255971  0.02404951  0.49277313
   0.74110517  0.36471235  0.48584776
   0.78664884  0.11039988  0.48073433
   0.78582531  0.27362963  0.47689552
   0.82848841  0.02619185  0.47250448
   0.82803565  0.35933457  0.46832836
   0.87176471  0.10611111  0.46019403
   0.87103030  0.27222222  0.45796119
   0.91560784  0.02406074  0.45774030
   0.91590374  0.35286049  0.45457910
   0.95899465  0.09561667  0.44741493
   0.95965775  0.26831852  0.44580597
   0.01085333  0.59418889  0.45584776
   0.01036820  0.75920247  0.46580896
   0.05347344  0.52004938  0.45783582
   0.05159501  0.85382222  0.47088955
   0.09633690  0.60057037  0.47040299
   0.09318467  0.77055926  0.47940000
   0.13784706  0.51972840  0.48167761
   0.13462709  0.84694198  0.49300000
   0.17686061  0.59910370  0.49972836
   0.17676578  0.76676173  0.50638209
   0.22096720  0.52293827  0.50837612
   0.21618396  0.85241481  0.51998209
   0.26300392  0.60390123  0.52349851
   0.25828520  0.77139012  0.52850448
   0.30656578  0.52043210  0.52824179
   0.30242317  0.84960988  0.53911940
   0.34895330  0.60466543  0.53693731
   0.34820143  0.77136296  0.54146866
   0.39346168  0.52171235  0.53424478
   0.39337611  0.85859383  0.54682388
   0.43719073  0.60147531  0.53691343
   0.43910160  0.77071235  0.54295821
   0.48185027  0.51964691  0.53031045
   0.48324777  0.85265432  0.53921194
   0.52711586  0.60997037  0.53024478
   0.52707665  0.77527284  0.53621493
   0.57036720  0.52932099  0.52040000
   0.57222816  0.85842099  0.53322388
   0.61330125  0.61057284  0.51347164
   0.61408556  0.77492099  0.52270448
   0.65644920  0.53286914  0.50312537
   0.65720143  0.86121481  0.51876716
   0.69951515  0.60865679  0.50485075
   0.70019964  0.77719136  0.51121791
   0.74265597  0.52714444  0.49616716
   0.74516578  0.85082099  0.49982388
   0.78632086  0.60343704  0.48936418
   0.78791800  0.77211605  0.49127164
   0.83037077  0.52079753  0.47684179
   0.82956506  0.85759877  0.47980597
   0.87383244  0.60379136  0.46978806
   0.87297683  0.77015062  0.47331343
   0.91663102  0.51890370  0.46107761
   0.91701961  0.85617037  0.46619104
   0.95692692  0.60150247  0.45873731
   0.95717647  0.77041481  0.46246866
 
 position of ions in cartesian coordinates  (Angst):
   0.31422200  0.77636100 15.11480000
   0.35238900  2.14959000 14.92310000
   1.46654000  0.13562900 15.57260000
   1.49473000  2.84932000 15.20640000
   2.67512000  0.81970200 15.84690000
   2.68531000  2.20120000 15.62560000
   3.79276000  0.15116600 16.44630000
   3.89590000  2.83177000 16.03780000
   4.96059000  0.82145300 16.79210000
   5.01581000  2.15161000 16.51250000
   6.17222000  0.13220600 17.21920000
   6.20589000  2.85227000 16.92530000
   7.36302000  0.78189500 17.46890000
   7.39551000  2.17771000 17.30890000
   8.51108000  0.17407300 17.95370000
   8.62764000  2.85084000 17.51890000
   9.76369000  0.81566300 18.02170000
   9.79303000  2.16222000 17.72430000
  11.02240000  0.20038000 18.23780000
  11.02470000  2.85213000 17.71750000
  12.25340000  0.90168900 18.19550000
  12.27240000  2.22388000 17.82660000
  13.51730000  0.20580900 18.03640000
  13.46700000  2.90596000 17.59500000
  14.71330000  0.88825500 17.66030000
  14.69530000  2.22921000 17.42180000
  15.99230000  0.20909400 17.68270000
  15.91440000  2.92464000 17.20640000
  17.22170000  0.87294000 17.41120000
  17.17430000  2.19893000 17.08420000
  18.48820000  0.25894800 17.23110000
  18.35910000  2.94037000 16.80250000
  19.61980000  0.89538600 16.74530000
  19.62810000  2.29591000 16.55340000
  20.82880000  0.19480100 16.50790000
  20.78800000  2.95417000 16.27590000
  22.06550000  0.89423900 16.10460000
  22.04240000  2.21640000 15.97600000
  23.23910000  0.21215400 15.82890000
  23.22640000  2.91061000 15.68900000
  24.45300000  0.85950000 15.41650000
  24.43240000  2.20500000 15.34170000
  25.68280000  0.19489200 15.33430000
  25.69110000  2.85817000 15.22840000
  26.89980000  0.77449500 14.98840000
  26.91840000  2.17338000 14.93450000
   0.30443600  4.81293000 15.27090000
   0.29082800  6.14954000 15.60460000
   1.49993000  4.21240000 15.33750000
   1.44724000  6.91596000 15.77480000
   2.70225000  4.86462000 15.75850000
   2.61383000  6.24153000 16.05990000
   3.86661000  4.20980000 16.13620000
   3.77629000  6.86023000 16.51550000
   4.96094000  4.85274000 16.74090000
   4.95828000  6.21077000 16.96380000
   6.19813000  4.23580000 17.03060000
   6.06396000  6.90456000 17.41940000
   7.37726000  4.89160000 17.53720000
   7.24490000  6.24826000 17.70490000
   8.59917000  4.21550000 17.69610000
   8.48297000  6.88184000 18.06050000
   9.78814000  4.89779000 17.98740000
   9.76705000  6.24804000 18.13920000
  11.03660000  4.22587000 17.89720000
  11.03420000  6.95461000 18.31860000
  12.26320000  4.87195000 17.98660000
  12.31680000  6.24277000 18.18910000
  13.51590000  4.20914000 17.76540000
  13.55510000  6.90650000 18.06360000
  14.78560000  4.94076000 17.76320000
  14.78450000  6.27971000 17.96320000
  15.99880000  4.28750000 17.43340000
  16.05100000  6.95321000 17.86300000
  17.20310000  4.94564000 17.20130000
  17.22510000  6.27686000 17.51060000
  18.41340000  4.31624000 16.85470000
  18.43450000  6.97584000 17.37870000
  19.62140000  4.93012000 16.91250000
  19.64060000  6.29525000 17.12580000
  20.83150000  4.26987000 16.62160000
  20.90190000  6.89165000 16.74410000
  22.05630000  4.88784000 16.39370000
  22.10110000  6.25414000 16.45760000
  23.29190000  4.21846000 15.97420000
  23.26930000  6.94655000 16.07350000
  24.51100000  4.89071000 15.73790000
  24.48700000  6.23822000 15.85600000
  25.71150000  4.20312000 15.44610000
  25.72240000  6.93498000 15.61740000
  26.84180000  4.87217000 15.36770000
  26.84880000  6.24036000 15.49270000
 


--------------------------------------------------------------------------------------------------------


 k-point     1 :   0.0000 0.0000 0.0000  plane waves:  193173
 k-point     2 :   0.0000 0.2500 0.0000  plane waves:  193166
 k-point     3 :   0.0000 0.5000 0.0000  plane waves:  193226

 maximum and minimum number of plane-waves per node :    193226   193166

 maximum number of plane-waves:    193226
 maximum index in each direction: 
   IXMAX=   51   IYMAX=   14   IZMAX=   61
   IXMIN=  -51   IYMIN=  -15   IZMIN=  -61


 serial   3D FFT for wavefunctions
 parallel 3D FFT for charge:
    minimum data exchange during FFTs selected (reduces bandwidth)


 total amount of memory used by VASP MPI-rank0  2294506. kBytes
=======================================================================

   base                                    :      30000. kBytes
   nonlr-proj                              :      15072. kBytes
   fftplans                                :     436558. kBytes
   grid                                    :     732614. kBytes
   one-center                              :        282. kBytes
   wavefun                                 :    1079980. kBytes
 
     INWAV:  cpu time      0.0000: real time      0.0000
 Broyden mixing: mesh for mixing (old mesh)
   NGX =103   NGY = 29   NGZ =123
  (NGX  =420   NGY  =120   NGZ  =500)
  gives a total of 367401 points

 initial charge density was supplied:
 charge density of overlapping atoms calculated
 number of electron     368.0000000 magnetization 
 keeping initial charge density in first step


--------------------------------------------------------------------------------------------------------


 Maximum index for non-local projection operator          1870
 Maximum index for augmentation-charges          2387 (set IRDMAX)


--------------------------------------------------------------------------------------------------------


 First call to EWALD:  gamma=   0.090
 Maximum number of real-space cells   2x   6x   2
 Maximum number of reciprocal cells   4x   1x   4

    FEWALD:  cpu time      0.1587: real time      0.1587


--------------------------------------- Ionic step        1  -------------------------------------------




--------------------------------------- Iteration      1(   1)  ---------------------------------------


    POTLOK:  cpu time      0.4202: real time      0.4457
    SETDIJ:  cpu time      0.0413: real time      0.0413
     EDDAV:  cpu time     11.0712: real time     11.0786
       DOS:  cpu time      0.0008: real time      0.0008
    --------------------------------------------
      LOOP:  cpu time     11.5336: real time     11.5665

 eigenvalue-minimisations  :  1712
 total energy-change (2. order) : 0.3718354E+04  (-0.1190658E+05)
 number of electron     368.0000000 magnetization 
 augmentation part      368.0000000 magnetization 

 Free energy of the ion-electron system (eV)
  ---------------------------------------------------
  alpha Z        PSCENC =        91.34886789
  Ewald energy   TEWEN  =    120574.12532838
  -Hartree energ DENC   =   -129877.25626233
  -exchange      EXHF   =         0.00000000
  -V(xc)+E(xc)   XCENC  =      1222.82328303
  PAW double counting   =      9984.02826696   -10036.41360137
  entropy T*S    EENTRO =        -0.87706543
  eigenvalues    EBANDS =     -1777.07972842
  atomic energy  EATOM  =     13537.65479391
  Solvation  Ediel_sol  =         0.00000000
  ---------------------------------------------------
  free energy    TOTEN  =      3718.35388262 eV

  energy without entropy =     3719.23094805  energy(sigma->0) =     3718.79241534


--------------------------------------------------------------------------------------------------------




--------------------------------------- Iteration      1(   2)  ---------------------------------------


     EDDAV:  cpu time     13.0934: real time     13.0981
       DOS:  cpu time      0.0007: real time      0.0007
    --------------------------------------------
      LOOP:  cpu time     13.0941: real time     13.0988

 eigenvalue-minimisations  :  2136
 total energy-change (2. order) :-0.3531767E+04  (-0.3271574E+04)
 number of electron     368.0000000 magnetization 
 augmentation part      368.0000000 magnetization 

 Free energy of the ion-electron system (eV)
  ---------------------------------------------------
  alpha Z        PSCENC =        91.34886789
  Ewald energy   TEWEN  =    120574.12532838
  -Hartree energ DENC   =   -129877.25626233
  -exchange      EXHF   =         0.00000000
  -V(xc)+E(xc)   XCENC  =      1222.82328303
  PAW double counting   =      9984.02826696   -10036.41360137
  entropy T*S    EENTRO =        -0.20885150
  eigenvalues    EBANDS =     -5309.51449526
  atomic energy  EATOM  =     13537.65479391
  Solvation  Ediel_sol  =         0.00000000
  ---------------------------------------------------
  free energy    TOTEN  =       186.58732972 eV

  energy without entropy =      186.79618122  energy(sigma->0) =      186.69175547


--------------------------------------------------------------------------------------------------------




--------------------------------------- Iteration      1(   3)  ---------------------------------------


     EDDAV:  cpu time     11.2616: real time     11.2655
       DOS:  cpu time      0.0007: real time      0.0007
    --------------------------------------------
      LOOP:  cpu time     11.2623: real time     11.2662

 eigenvalue-minimisations  :  1784
 total energy-change (2. order) :-0.1023235E+04  (-0.1001831E+04)
 number of electron     368.0000000 magnetization 
 augmentation part      368.0000000 magnetization 

 Free energy of the ion-electron system (eV)
  ---------------------------------------------------
  alpha Z        PSCENC =        91.34886789
  Ewald energy   TEWEN  =    120574.12532838
  -Hartree energ DENC   =   -129877.25626233
  -exchange      EXHF   =         0.00000000
  -V(xc)+E(xc)   XCENC  =      1222.82328303
  PAW double counting   =      9984.02826696   -10036.41360137
  entropy T*S    EENTRO =        -0.03410678
  eigenvalues    EBANDS =     -6332.92417710
  atomic energy  EATOM  =     13537.65479391
  Solvation  Ediel_sol  =         0.00000000
  ---------------------------------------------------
  free energy    TOTEN  =      -836.64760741 eV

  energy without entropy =     -836.61350062  energy(sigma->0) =     -836.63055401


--------------------------------------------------------------------------------------------------------




--------------------------------------- Iteration      1(   4)  ---------------------------------------


     EDDAV:  cpu time     10.9534: real time     10.9573
       DOS:  cpu time      0.0007: real time      0.0007
    --------------------------------------------
      LOOP:  cpu time     10.9541: real time     10.9580

 eigenvalue-minimisations  :  1720
 total energy-change (2. order) :-0.6152318E+02  (-0.6059727E+02)
 number of electron     368.0000000 magnetization 
 augmentation part      368.0000000 magnetization 

 Free energy of the ion-electron system (eV)
  ---------------------------------------------------
  alpha Z        PSCENC =        91.34886789
  Ewald energy   TEWEN  =    120574.12532838
  -Hartree energ DENC   =   -129877.25626233
  -exchange      EXHF   =         0.00000000
  -V(xc)+E(xc)   XCENC  =      1222.82328303
  PAW double counting   =      9984.02826696   -10036.41360137
  entropy T*S    EENTRO =        -0.04774743
  eigenvalues    EBANDS =     -6394.43371976
  atomic energy  EATOM  =     13537.65479391
  Solvation  Ediel_sol  =         0.00000000
  ---------------------------------------------------
  free energy    TOTEN  =      -898.17079072 eV

  energy without entropy =     -898.12304328  energy(sigma->0) =     -898.14691700


--------------------------------------------------------------------------------------------------------




--------------------------------------- Iteration      1(   5)  ---------------------------------------


     EDDAV:  cpu time     11.4517: real time     11.4587
       DOS:  cpu time      0.0007: real time      0.0007
    CHARGE:  cpu time      1.2078: real time      1.2079
    MIXING:  cpu time      0.2754: real time      0.2762
    --------------------------------------------
      LOOP:  cpu time     12.9355: real time     12.9434

 eigenvalue-minimisations  :  1824
 total energy-change (2. order) :-0.1505590E+01  (-0.1484233E+01)
 number of electron     368.0000003 magnetization 
 augmentation part       10.2228733 magnetization 

 Broyden mixing:
  rms(total) = 0.45922E+01    rms(broyden)= 0.45916E+01
  rms(prec ) = 0.47106E+01
  weight for this iteration     100.00

 Free energy of the ion-electron system (eV)
  ---------------------------------------------------
  alpha Z        PSCENC =        91.34886789
  Ewald energy   TEWEN  =    120574.12532838
  -Hartree energ DENC   =   -129877.25626233
  -exchange      EXHF   =         0.00000000
  -V(xc)+E(xc)   XCENC  =      1222.82328303
  PAW double counting   =      9984.02826696   -10036.41360137
  entropy T*S    EENTRO =        -0.04889019
  eigenvalues    EBANDS =     -6395.93816719
  atomic energy  EATOM  =     13537.65479391
  Solvation  Ediel_sol  =         0.00000000
  ---------------------------------------------------
  free energy    TOTEN  =      -899.67638091 eV

  energy without entropy =     -899.62749072  energy(sigma->0) =     -899.65193581


--------------------------------------------------------------------------------------------------------




--------------------------------------- Iteration      1(   6)  ---------------------------------------


    POTLOK:  cpu time      0.3216: real time      0.3217
    SETDIJ:  cpu time      0.0404: real time      0.0404
     EDDAV:  cpu time     10.2670: real time     10.2704
       DOS:  cpu time      0.0007: real time      0.0007
    CHARGE:  cpu time      1.1622: real time      1.1624
    MIXING:  cpu time      0.2758: real time      0.2776
    --------------------------------------------
      LOOP:  cpu time     12.0678: real time     12.0733

 eigenvalue-minimisations  :  1584
 total energy-change (2. order) : 0.5060363E+02  (-0.4847783E+01)
 number of electron     368.0000003 magnetization 
 augmentation part        9.7897834 magnetization 

 Broyden mixing:
  rms(total) = 0.26972E+01    rms(broyden)= 0.26971E+01
  rms(prec ) = 0.27557E+01
  weight for this iteration     100.00

 eigenvalues of (default mixing * dielectric matrix)
  average eigenvalue GAMMA=   2.1786
  2.1786

 Free energy of the ion-electron system (eV)
  ---------------------------------------------------
  alpha Z        PSCENC =        91.34886789
  Ewald energy   TEWEN  =    120574.12532838
  -Hartree energ DENC   =   -130454.25002644
  -exchange      EXHF   =         0.00000000
  -V(xc)+E(xc)   XCENC  =      1246.37109281
  PAW double counting   =     19046.48720390   -19106.60096701
  entropy T*S    EENTRO =        -0.05571323
  eigenvalues    EBANDS =     -5784.15333102
  atomic energy  EATOM  =     13537.65479391
  Solvation  Ediel_sol  =         0.00000000
  ---------------------------------------------------
  free energy    TOTEN  =      -849.07275081 eV

  energy without entropy =     -849.01703758  energy(sigma->0) =     -849.04489419


--------------------------------------------------------------------------------------------------------




--------------------------------------- Iteration      1(   7)  ---------------------------------------


    POTLOK:  cpu time      0.3211: real time      0.3210
    SETDIJ:  cpu time      0.0403: real time      0.0404
     EDDAV:  cpu time     10.1398: real time     10.1433
       DOS:  cpu time      0.0007: real time      0.0007
    CHARGE:  cpu time      1.1559: real time      1.1564
    MIXING:  cpu time      0.2800: real time      0.2800
    --------------------------------------------
      LOOP:  cpu time     11.9378: real time     11.9417

 eigenvalue-minimisations  :  1560
 total energy-change (2. order) : 0.1880811E+02  (-0.6648792E+01)
 number of electron     368.0000003 magnetization 
 augmentation part        9.2287123 magnetization 

 Broyden mixing:
  rms(total) = 0.74519E+00    rms(broyden)= 0.74491E+00
  rms(prec ) = 0.75497E+00
  weight for this iteration     100.00

 eigenvalues of (default mixing * dielectric matrix)
  average eigenvalue GAMMA=   2.1837
  2.1837  2.1837

 Free energy of the ion-electron system (eV)
  ---------------------------------------------------
  alpha Z        PSCENC =        91.34886789
  Ewald energy   TEWEN  =    120574.12532838
  -Hartree energ DENC   =   -131226.32823971
  -exchange      EXHF   =         0.00000000
  -V(xc)+E(xc)   XCENC  =      1277.70853869
  PAW double counting   =     36901.09037778   -36968.19150194
  entropy T*S    EENTRO =        -0.06172586
  eigenvalues    EBANDS =     -5017.61108011
  atomic energy  EATOM  =     13537.65479391
  Solvation  Ediel_sol  =         0.00000000
  ---------------------------------------------------
  free energy    TOTEN  =      -830.26464096 eV

  energy without entropy =     -830.20291510  energy(sigma->0) =     -830.23377803


--------------------------------------------------------------------------------------------------------




--------------------------------------- Iteration      1(   8)  ---------------------------------------


    POTLOK:  cpu time      0.3205: real time      0.3206
    SETDIJ:  cpu time      0.0402: real time      0.0402
     EDDAV:  cpu time     10.3006: real time     10.3044
       DOS:  cpu time      0.0007: real time      0.0007
    CHARGE:  cpu time      1.1525: real time      1.1535
    MIXING:  cpu time      0.2807: real time      0.2825
    --------------------------------------------
      LOOP:  cpu time     12.0952: real time     12.1020

 eigenvalue-minimisations  :  1592
 total energy-change (2. order) : 0.3000083E+00  (-0.2395123E+00)
 number of electron     368.0000003 magnetization 
 augmentation part        9.2129563 magnetization 

 Broyden mixing:
  rms(total) = 0.10272E+00    rms(broyden)= 0.10268E+00
  rms(prec ) = 0.12513E+00
  weight for this iteration     100.00

 eigenvalues of (default mixing * dielectric matrix)
  average eigenvalue GAMMA=   1.8549
  1.2093  2.4335  1.9220

 Free energy of the ion-electron system (eV)
  ---------------------------------------------------
  alpha Z        PSCENC =        91.34886789
  Ewald energy   TEWEN  =    120574.12532838
  -Hartree energ DENC   =   -131321.84083436
  -exchange      EXHF   =         0.00000000
  -V(xc)+E(xc)   XCENC  =      1277.56117708
  PAW double counting   =     41242.47449100   -41306.92951163
  entropy T*S    EENTRO =        -0.05937024
  eigenvalues    EBANDS =     -4924.29957471
  atomic energy  EATOM  =     13537.65479391
  Solvation  Ediel_sol  =         0.00000000
  ---------------------------------------------------
  free energy    TOTEN  =      -829.96463269 eV

  energy without entropy =     -829.90526245  energy(sigma->0) =     -829.93494757


--------------------------------------------------------------------------------------------------------




--------------------------------------- Iteration      1(   9)  ---------------------------------------


    POTLOK:  cpu time      0.3203: real time      0.3204
    SETDIJ:  cpu time      0.0404: real time      0.0404
     EDDAV:  cpu time     10.5473: real time     10.5508
       DOS:  cpu time      0.0007: real time      0.0007
    CHARGE:  cpu time      1.1535: real time      1.1561
    MIXING:  cpu time      0.2859: real time      0.2866
    --------------------------------------------
      LOOP:  cpu time     12.3482: real time     12.3551

 eigenvalue-minimisations  :  1640
 total energy-change (2. order) : 0.1121561E+00  (-0.2660356E-01)
 number of electron     368.0000003 magnetization 
 augmentation part        9.1901834 magnetization 

 Broyden mixing:
  rms(total) = 0.58242E-01    rms(broyden)= 0.58233E-01
  rms(prec ) = 0.79922E-01
  weight for this iteration     100.00

 eigenvalues of (default mixing * dielectric matrix)
  average eigenvalue GAMMA=   1.6879
  2.2053  2.2053  1.1170  1.2241

 Free energy of the ion-electron system (eV)
  ---------------------------------------------------
  alpha Z        PSCENC =        91.34886789
  Ewald energy   TEWEN  =    120574.12532838
  -Hartree energ DENC   =   -131392.88634396
  -exchange      EXHF   =         0.00000000
  -V(xc)+E(xc)   XCENC  =      1278.96999863
  PAW double counting   =     41831.24444894   -41895.73623870
  entropy T*S    EENTRO =        -0.05973035
  eigenvalues    EBANDS =     -4854.51360131
  atomic energy  EATOM  =     13537.65479391
  Solvation  Ediel_sol  =         0.00000000
  ---------------------------------------------------
  free energy    TOTEN  =      -829.85247657 eV

  energy without entropy =     -829.79274622  energy(sigma->0) =     -829.82261140


--------------------------------------------------------------------------------------------------------




--------------------------------------- Iteration      1(  10)  ---------------------------------------


    POTLOK:  cpu time      0.3208: real time      0.3207
    SETDIJ:  cpu time      0.0409: real time      0.0409
     EDDAV:  cpu time     10.9799: real time     10.9839
       DOS:  cpu time      0.0007: real time      0.0007
    CHARGE:  cpu time      1.1547: real time      1.1556
    MIXING:  cpu time      0.2930: real time      0.2930
    --------------------------------------------
      LOOP:  cpu time     12.7900: real time     12.7947

 eigenvalue-minimisations  :  1728
 total energy-change (2. order) : 0.3952044E-01  (-0.5425911E-02)
 number of electron     368.0000002 magnetization 
 augmentation part        9.1798485 magnetization 

 Broyden mixing:
  rms(total) = 0.36802E-01    rms(broyden)= 0.36798E-01
  rms(prec ) = 0.56459E-01
  weight for this iteration     100.00

 eigenvalues of (default mixing * dielectric matrix)
  average eigenvalue GAMMA=   1.7092
  2.4464  2.4464  1.5273  1.3062  0.8196

 Free energy of the ion-electron system (eV)
  ---------------------------------------------------
  alpha Z        PSCENC =        91.34886789
  Ewald energy   TEWEN  =    120574.12532838
  -Hartree energ DENC   =   -131443.12247484
  -exchange      EXHF   =         0.00000000
  -V(xc)+E(xc)   XCENC  =      1279.30622540
  PAW double counting   =     41607.75304858   -41672.10691014
  entropy T*S    EENTRO =        -0.05962120
  eigenvalues    EBANDS =     -4804.71221411
  atomic energy  EATOM  =     13537.65479391
  Solvation  Ediel_sol  =         0.00000000
  ---------------------------------------------------
  free energy    TOTEN  =      -829.81295613 eV

  energy without entropy =     -829.75333493  energy(sigma->0) =     -829.78314553


--------------------------------------------------------------------------------------------------------




--------------------------------------- Iteration      1(  11)  ---------------------------------------


    POTLOK:  cpu time      0.3217: real time      0.3216
    SETDIJ:  cpu time      0.0403: real time      0.0403
     EDDAV:  cpu time     10.2154: real time     10.2191
       DOS:  cpu time      0.0007: real time      0.0007
    CHARGE:  cpu time      1.1664: real time      1.1678
    MIXING:  cpu time      0.2989: real time      0.2993
    --------------------------------------------
      LOOP:  cpu time     12.0434: real time     12.0489

 eigenvalue-minimisations  :  1576
 total energy-change (2. order) : 0.2911810E-01  (-0.1954615E-02)
 number of electron     368.0000002 magnetization 
 augmentation part        9.1754624 magnetization 

 Broyden mixing:
  rms(total) = 0.25490E-01    rms(broyden)= 0.25488E-01
  rms(prec ) = 0.39623E-01
  weight for this iteration     100.00

 eigenvalues of (default mixing * dielectric matrix)
  average eigenvalue GAMMA=   1.7843
  3.0067  2.5189  1.9408  0.9332  1.1529  1.1529

 Free energy of the ion-electron system (eV)
  ---------------------------------------------------
  alpha Z        PSCENC =        91.34886789
  Ewald energy   TEWEN  =    120574.12532838
  -Hartree energ DENC   =   -131503.71613455
  -exchange      EXHF   =         0.00000000
  -V(xc)+E(xc)   XCENC  =      1279.82112715
  PAW double counting   =     41532.03460357   -41596.28348133
  entropy T*S    EENTRO =        -0.05956812
  eigenvalues    EBANDS =     -4744.70937492
  atomic energy  EATOM  =     13537.65479391
  Solvation  Ediel_sol  =         0.00000000
  ---------------------------------------------------
  free energy    TOTEN  =      -829.78383802 eV

  energy without entropy =     -829.72426990  energy(sigma->0) =     -829.75405396


--------------------------------------------------------------------------------------------------------




--------------------------------------- Iteration      1(  12)  ---------------------------------------


    POTLOK:  cpu time      0.3211: real time      0.3210
    SETDIJ:  cpu time      0.0403: real time      0.0403
     EDDAV:  cpu time      9.9995: real time     10.0030
       DOS:  cpu time      0.0007: real time      0.0007
    CHARGE:  cpu time      1.1547: real time      1.1573
    MIXING:  cpu time      0.3052: real time      0.3066
    --------------------------------------------
      LOOP:  cpu time     11.8216: real time     11.8290

 eigenvalue-minimisations  :  1536
 total energy-change (2. order) : 0.5905460E-02  (-0.2797750E-02)
 number of electron     368.0000003 magnetization 
 augmentation part        9.1675883 magnetization 

 Broyden mixing:
  rms(total) = 0.15514E-01    rms(broyden)= 0.15510E-01
  rms(prec ) = 0.23596E-01
  weight for this iteration     100.00

 eigenvalues of (default mixing * dielectric matrix)
  average eigenvalue GAMMA=   2.0610
  4.8488  2.2555  2.2555  1.9509  0.9747  1.0706  1.0706

 Free energy of the ion-electron system (eV)
  ---------------------------------------------------
  alpha Z        PSCENC =        91.34886789
  Ewald energy   TEWEN  =    120574.12532838
  -Hartree energ DENC   =   -131573.44314208
  -exchange      EXHF   =         0.00000000
  -V(xc)+E(xc)   XCENC  =      1280.50511303
  PAW double counting   =     41586.60774687   -41650.84361475
  entropy T*S    EENTRO =        -0.05985089
  eigenvalues    EBANDS =     -4675.67317492
  atomic energy  EATOM  =     13537.65479391
  Solvation  Ediel_sol  =         0.00000000
  ---------------------------------------------------
  free energy    TOTEN  =      -829.77793256 eV

  energy without entropy =     -829.71808167  energy(sigma->0) =     -829.74800712


--------------------------------------------------------------------------------------------------------




--------------------------------------- Iteration      1(  13)  ---------------------------------------


    POTLOK:  cpu time      0.3206: real time      0.3206
    SETDIJ:  cpu time      0.0404: real time      0.0403
     EDDAV:  cpu time     10.1161: real time     10.1196
       DOS:  cpu time      0.0007: real time      0.0007
    CHARGE:  cpu time      1.1558: real time      1.1561
    MIXING:  cpu time      0.3129: real time      0.3130
    --------------------------------------------
      LOOP:  cpu time     11.9464: real time     11.9503

 eigenvalue-minimisations  :  1560
 total energy-change (2. order) :-0.1183103E-01  (-0.9130116E-03)
 number of electron     368.0000003 magnetization 
 augmentation part        9.1649037 magnetization 

 Broyden mixing:
  rms(total) = 0.92288E-02    rms(broyden)= 0.92264E-02
  rms(prec ) = 0.12740E-01
  weight for this iteration     100.00

 eigenvalues of (default mixing * dielectric matrix)
  average eigenvalue GAMMA=   2.0732
  5.4234  2.3941  2.3941  1.9442  1.2430  1.2430  1.0531  0.8911

 Free energy of the ion-electron system (eV)
  ---------------------------------------------------
  alpha Z        PSCENC =        91.34886789
  Ewald energy   TEWEN  =    120574.12532838
  -Hartree energ DENC   =   -131624.78146838
  -exchange      EXHF   =         0.00000000
  -V(xc)+E(xc)   XCENC  =      1280.70535900
  PAW double counting   =     41543.09593417   -41607.32337678
  entropy T*S    EENTRO =        -0.05974965
  eigenvalues    EBANDS =     -4624.55545213
  atomic energy  EATOM  =     13537.65479391
  Solvation  Ediel_sol  =         0.00000000
  ---------------------------------------------------
  free energy    TOTEN  =      -829.78976359 eV

  energy without entropy =     -829.73001394  energy(sigma->0) =     -829.75988877


--------------------------------------------------------------------------------------------------------




--------------------------------------- Iteration      1(  14)  ---------------------------------------


    POTLOK:  cpu time      0.3210: real time      0.3210
    SETDIJ:  cpu time      0.0404: real time      0.0404
     EDDAV:  cpu time     10.2488: real time     10.2524
       DOS:  cpu time      0.0008: real time      0.0008
    CHARGE:  cpu time      1.1527: real time      1.1557
    MIXING:  cpu time      0.3217: real time      0.3217
    --------------------------------------------
      LOOP:  cpu time     12.0853: real time     12.0920

 eigenvalue-minimisations  :  1584
 total energy-change (2. order) :-0.1709579E-01  (-0.1259030E-03)
 number of electron     368.0000002 magnetization 
 augmentation part        9.1641972 magnetization 

 Broyden mixing:
  rms(total) = 0.58607E-02    rms(broyden)= 0.58603E-02
  rms(prec ) = 0.81316E-02
  weight for this iteration     100.00

 eigenvalues of (default mixing * dielectric matrix)
  average eigenvalue GAMMA=   2.1808
  6.3073  2.7986  2.6655  1.8574  1.6975  1.2521  1.1681  0.9405  0.9405

 Free energy of the ion-electron system (eV)
  ---------------------------------------------------
  alpha Z        PSCENC =        91.34886789
  Ewald energy   TEWEN  =    120574.12532838
  -Hartree energ DENC   =   -131639.74658713
  -exchange      EXHF   =         0.00000000
  -V(xc)+E(xc)   XCENC  =      1280.71363766
  PAW double counting   =     41531.29935346   -41595.53557484
  entropy T*S    EENTRO =        -0.05969090
  eigenvalues    EBANDS =     -4609.60698781
  atomic energy  EATOM  =     13537.65479391
  Solvation  Ediel_sol  =         0.00000000
  ---------------------------------------------------
  free energy    TOTEN  =      -829.80685938 eV

  energy without entropy =     -829.74716848  energy(sigma->0) =     -829.77701393


--------------------------------------------------------------------------------------------------------




--------------------------------------- Iteration      1(  15)  ---------------------------------------


    POTLOK:  cpu time      0.3206: real time      0.3204
    SETDIJ:  cpu time      0.0400: real time      0.0400
     EDDAV:  cpu time     10.2083: real time     10.2121
       DOS:  cpu time      0.0007: real time      0.0007
    CHARGE:  cpu time      1.1556: real time      1.1560
    MIXING:  cpu time      0.3310: real time      0.3310
    --------------------------------------------
      LOOP:  cpu time     12.0562: real time     12.0602

 eigenvalue-minimisations  :  1576
 total energy-change (2. order) :-0.2052179E-01  (-0.1892435E-03)
 number of electron     368.0000003 magnetization 
 augmentation part        9.1637370 magnetization 

 Broyden mixing:
  rms(total) = 0.33373E-02    rms(broyden)= 0.33368E-02
  rms(prec ) = 0.44613E-02
  weight for this iteration     100.00

 eigenvalues of (default mixing * dielectric matrix)
  average eigenvalue GAMMA=   2.2412
  7.0737  3.5124  2.2162  2.2162  1.5979  1.4099  1.4099  1.0730  0.9511  0.9511

 Free energy of the ion-electron system (eV)
  ---------------------------------------------------
  alpha Z        PSCENC =        91.34886789
  Ewald energy   TEWEN  =    120574.12532838
  -Hartree energ DENC   =   -131650.78620599
  -exchange      EXHF   =         0.00000000
  -V(xc)+E(xc)   XCENC  =      1280.69961538
  PAW double counting   =     41546.36806329   -41610.60708667
  entropy T*S    EENTRO =        -0.05978028
  eigenvalues    EBANDS =     -4598.57097708
  atomic energy  EATOM  =     13537.65479391
  Solvation  Ediel_sol  =         0.00000000
  ---------------------------------------------------
  free energy    TOTEN  =      -829.82738117 eV

  energy without entropy =     -829.76760089  energy(sigma->0) =     -829.79749103


--------------------------------------------------------------------------------------------------------




--------------------------------------- Iteration      1(  16)  ---------------------------------------


    POTLOK:  cpu time      0.3210: real time      0.3211
    SETDIJ:  cpu time      0.0404: real time      0.0404
     EDDAV:  cpu time     10.3699: real time     10.3736
       DOS:  cpu time      0.0008: real time      0.0008
    CHARGE:  cpu time      1.1620: real time      1.1653
    MIXING:  cpu time      0.3387: real time      0.3398
    --------------------------------------------
      LOOP:  cpu time     12.2328: real time     12.2408

 eigenvalue-minimisations  :  1608
 total energy-change (2. order) :-0.8961549E-02  (-0.5155724E-04)
 number of electron     368.0000002 magnetization 
 augmentation part        9.1636646 magnetization 

 Broyden mixing:
  rms(total) = 0.21902E-02    rms(broyden)= 0.21901E-02
  rms(prec ) = 0.27767E-02
  weight for this iteration     100.00

 eigenvalues of (default mixing * dielectric matrix)
  average eigenvalue GAMMA=   2.3295
  7.8909  4.0456  2.4134  2.4134  1.9085  1.4577  1.4577  0.9638  0.9638  1.0547
  1.0547

 Free energy of the ion-electron system (eV)
  ---------------------------------------------------
  alpha Z        PSCENC =        91.34886789
  Ewald energy   TEWEN  =    120574.12532838
  -Hartree energ DENC   =   -131654.84566441
  -exchange      EXHF   =         0.00000000
  -V(xc)+E(xc)   XCENC  =      1280.67879039
  PAW double counting   =     41535.55085153   -41599.78914227
  entropy T*S    EENTRO =        -0.05977961
  eigenvalues    EBANDS =     -4594.50038852
  atomic energy  EATOM  =     13537.65479391
  Solvation  Ediel_sol  =         0.00000000
  ---------------------------------------------------
  free energy    TOTEN  =      -829.83634272 eV

  energy without entropy =     -829.77656311  energy(sigma->0) =     -829.80645292


--------------------------------------------------------------------------------------------------------




--------------------------------------- Iteration      1(  17)  ---------------------------------------


    POTLOK:  cpu time      0.3211: real time      0.3211
    SETDIJ:  cpu time      0.0403: real time      0.0403
     EDDAV:  cpu time     10.1658: real time     10.1694
       DOS:  cpu time      0.0007: real time      0.0007
    CHARGE:  cpu time      1.1549: real time      1.1563
    MIXING:  cpu time      0.3504: real time      0.3505
    --------------------------------------------
      LOOP:  cpu time     12.0332: real time     12.0384

 eigenvalue-minimisations  :  1568
 total energy-change (2. order) :-0.5302242E-02  (-0.3254541E-04)
 number of electron     368.0000003 magnetization 
 augmentation part        9.1635460 magnetization 

 Broyden mixing:
  rms(total) = 0.11727E-02    rms(broyden)= 0.11726E-02
  rms(prec ) = 0.14916E-02
  weight for this iteration     100.00

 eigenvalues of (default mixing * dielectric matrix)
  average eigenvalue GAMMA=   2.3525
  8.3762  4.4878  2.4544  2.4544  1.9989  1.4074  1.4074  1.4948  1.1786  0.9761
  0.9761  1.0184

 Free energy of the ion-electron system (eV)
  ---------------------------------------------------
  alpha Z        PSCENC =        91.34886789
  Ewald energy   TEWEN  =    120574.12532838
  -Hartree energ DENC   =   -131657.23055094
  -exchange      EXHF   =         0.00000000
  -V(xc)+E(xc)   XCENC  =      1280.68083123
  PAW double counting   =     41543.61127878   -41607.84570994
  entropy T*S    EENTRO =        -0.05977099
  eigenvalues    EBANDS =     -4592.12671329
  atomic energy  EATOM  =     13537.65479391
  Solvation  Ediel_sol  =         0.00000000
  ---------------------------------------------------
  free energy    TOTEN  =      -829.84164496 eV

  energy without entropy =     -829.78187398  energy(sigma->0) =     -829.81175947


--------------------------------------------------------------------------------------------------------




--------------------------------------- Iteration      1(  18)  ---------------------------------------


    POTLOK:  cpu time      0.3210: real time      0.3211
    SETDIJ:  cpu time      0.0403: real time      0.0403
     EDDAV:  cpu time     10.4403: real time     10.4440
       DOS:  cpu time      0.0007: real time      0.0007
    CHARGE:  cpu time      1.1551: real time      1.1553
    MIXING:  cpu time      0.3594: real time      0.3614
    --------------------------------------------
      LOOP:  cpu time     12.3169: real time     12.3227

 eigenvalue-minimisations  :  1624
 total energy-change (2. order) :-0.2099032E-02  (-0.8286625E-05)
 number of electron     368.0000002 magnetization 
 augmentation part        9.1634943 magnetization 

 Broyden mixing:
  rms(total) = 0.59523E-03    rms(broyden)= 0.59513E-03
  rms(prec ) = 0.80083E-03
  weight for this iteration     100.00

 eigenvalues of (default mixing * dielectric matrix)
  average eigenvalue GAMMA=   2.4112
  8.9026  5.0463  2.9540  2.5357  1.8854  1.8854  1.4390  1.4390  0.9545  0.9545
  1.0658  1.1419  1.1419

 Free energy of the ion-electron system (eV)
  ---------------------------------------------------
  alpha Z        PSCENC =        91.34886789
  Ewald energy   TEWEN  =    120574.12532838
  -Hartree energ DENC   =   -131658.04492499
  -exchange      EXHF   =         0.00000000
  -V(xc)+E(xc)   XCENC  =      1280.67884946
  PAW double counting   =     41540.72381385   -41604.95828299
  entropy T*S    EENTRO =        -0.05977310
  eigenvalues    EBANDS =     -4591.31241641
  atomic energy  EATOM  =     13537.65479391
  Solvation  Ediel_sol  =         0.00000000
  ---------------------------------------------------
  free energy    TOTEN  =      -829.84374399 eV

  energy without entropy =     -829.78397089  energy(sigma->0) =     -829.81385744


--------------------------------------------------------------------------------------------------------




--------------------------------------- Iteration      1(  19)  ---------------------------------------


    POTLOK:  cpu time      0.3210: real time      0.3209
    SETDIJ:  cpu time      0.0404: real time      0.0404
     EDDAV:  cpu time      9.1803: real time      9.1836
       DOS:  cpu time      0.0007: real time      0.0007
    CHARGE:  cpu time      1.1534: real time      1.1559
    MIXING:  cpu time      0.3725: real time      0.3736
    --------------------------------------------
      LOOP:  cpu time     11.0683: real time     11.0751

 eigenvalue-minimisations  :  1368
 total energy-change (2. order) :-0.1198364E-02  (-0.4658211E-05)
 number of electron     368.0000002 magnetization 
 augmentation part        9.1635108 magnetization 

 Broyden mixing:
  rms(total) = 0.41381E-03    rms(broyden)= 0.41379E-03
  rms(prec ) = 0.49260E-03
  weight for this iteration     100.00

 eigenvalues of (default mixing * dielectric matrix)
  average eigenvalue GAMMA=   2.4130
  8.9397  5.5456  3.1231  2.4133  2.4133  1.9036  1.4481  1.4481  1.3060  1.3060
  0.9620  1.0055  0.9839  0.9839

 Free energy of the ion-electron system (eV)
  ---------------------------------------------------
  alpha Z        PSCENC =        91.34886789
  Ewald energy   TEWEN  =    120574.12532838
  -Hartree energ DENC   =   -131658.40390096
  -exchange      EXHF   =         0.00000000
  -V(xc)+E(xc)   XCENC  =      1280.67655435
  PAW double counting   =     41539.88641782   -41604.11953052
  entropy T*S    EENTRO =        -0.05976954
  eigenvalues    EBANDS =     -4590.95370368
  atomic energy  EATOM  =     13537.65479391
  Solvation  Ediel_sol  =         0.00000000
  ---------------------------------------------------
  free energy    TOTEN  =      -829.84494236 eV

  energy without entropy =     -829.78517282  energy(sigma->0) =     -829.81505759


--------------------------------------------------------------------------------------------------------




--------------------------------------- Iteration      1(  20)  ---------------------------------------


    POTLOK:  cpu time      0.3209: real time      0.3209
    SETDIJ:  cpu time      0.0402: real time      0.0401
     EDDAV:  cpu time      9.2367: real time      9.2400
       DOS:  cpu time      0.0007: real time      0.0007
    CHARGE:  cpu time      1.1536: real time      1.1562
    MIXING:  cpu time      0.3850: real time      0.3856
    --------------------------------------------
      LOOP:  cpu time     11.1370: real time     11.1435

 eigenvalue-minimisations  :  1376
 total energy-change (2. order) :-0.3653005E-03  (-0.5191104E-06)
 number of electron     368.0000003 magnetization 
 augmentation part        9.1634911 magnetization 

 Broyden mixing:
  rms(total) = 0.21921E-03    rms(broyden)= 0.21921E-03
  rms(prec ) = 0.26885E-03
  weight for this iteration     100.00

 eigenvalues of (default mixing * dielectric matrix)
  average eigenvalue GAMMA=   2.4677
  9.2471  6.0137  3.7959  2.6251  2.4736  1.9462  1.6472  1.4511  1.4511  1.1970
  1.1970  1.0044  1.0044  0.9809  0.9809

 Free energy of the ion-electron system (eV)
  ---------------------------------------------------
  alpha Z        PSCENC =        91.34886789
  Ewald energy   TEWEN  =    120574.12532838
  -Hartree energ DENC   =   -131658.57150738
  -exchange      EXHF   =         0.00000000
  -V(xc)+E(xc)   XCENC  =      1280.67663961
  PAW double counting   =     41540.67543968   -41604.90904856
  entropy T*S    EENTRO =        -0.05976991
  eigenvalues    EBANDS =     -4590.78605127
  atomic energy  EATOM  =     13537.65479391
  Solvation  Ediel_sol  =         0.00000000
  ---------------------------------------------------
  free energy    TOTEN  =      -829.84530766 eV

  energy without entropy =     -829.78553775  energy(sigma->0) =     -829.81542271


--------------------------------------------------------------------------------------------------------




--------------------------------------- Iteration      1(  21)  ---------------------------------------


    POTLOK:  cpu time      0.3213: real time      0.3213
    SETDIJ:  cpu time      0.0419: real time      0.0419
     EDDAV:  cpu time      8.7142: real time      8.7174
       DOS:  cpu time      0.0008: real time      0.0008
    CHARGE:  cpu time      1.1598: real time      1.1657
    MIXING:  cpu time      0.4004: real time      0.4004
    --------------------------------------------
      LOOP:  cpu time     10.6383: real time     10.6474

 eigenvalue-minimisations  :  1272
 total energy-change (2. order) :-0.2310715E-03  (-0.3362976E-06)
 number of electron     368.0000002 magnetization 
 augmentation part        9.1634920 magnetization 

 Broyden mixing:
  rms(total) = 0.10069E-03    rms(broyden)= 0.10068E-03
  rms(prec ) = 0.12214E-03
  weight for this iteration     100.00

 eigenvalues of (default mixing * dielectric matrix)
  average eigenvalue GAMMA=   2.4332
  9.2272  6.2514  3.9219  2.5820  2.4358  2.2243  1.8102  1.4576  1.4576  1.3209
  1.3209  1.0644  0.9914  0.9914  0.9369  0.9369

 Free energy of the ion-electron system (eV)
  ---------------------------------------------------
  alpha Z        PSCENC =        91.34886789
  Ewald energy   TEWEN  =    120574.12532838
  -Hartree energ DENC   =   -131658.65332803
  -exchange      EXHF   =         0.00000000
  -V(xc)+E(xc)   XCENC  =      1280.67568597
  PAW double counting   =     41539.53854813   -41603.77253099
  entropy T*S    EENTRO =        -0.05977261
  eigenvalues    EBANDS =     -4590.70313137
  atomic energy  EATOM  =     13537.65479391
  Solvation  Ediel_sol  =         0.00000000
  ---------------------------------------------------
  free energy    TOTEN  =      -829.84553873 eV

  energy without entropy =     -829.78576612  energy(sigma->0) =     -829.81565242


[...]
   -.592E+01 0.149E+01 -.302E+02   0.684E+01 -.214E+01 0.305E+02   0.607E+00 0.513E+00 -.706E-01   -.683E-05 0.747E-06 -.244E-05
   0.273E+00 -.137E+02 -.170E+03   -.309E+00 0.146E+02 0.170E+03   -.299E+00 0.226E+00 0.586E+00   -.669E-05 0.107E-04 -.510E-05
   0.233E+01 0.709E+01 0.731E+01   -.248E+01 -.712E+01 -.777E+01   0.270E+00 0.467E+00 0.127E+01   0.109E-05 -.120E-05 -.802E-06
   -.122E+02 0.926E+01 -.189E+03   0.132E+02 -.990E+01 0.189E+03   0.622E+00 -.726E+00 -.215E+01   -.854E-05 0.118E-04 -.439E-05
   -.531E+01 0.544E+00 -.449E+02   0.477E+01 -.798E+00 0.449E+02   -.642E+00 -.221E+00 0.179E-01   0.140E-04 0.154E-04 -.493E-05
   -.710E+01 -.922E+01 -.128E+03   0.651E+01 0.927E+01 0.128E+03   0.944E-01 0.241E+00 -.376E+00   0.280E-05 -.583E-05 -.247E-05
   -.139E+01 0.169E+02 0.228E+02   0.209E+01 -.189E+02 -.237E+02   0.539E+00 -.825E+00 0.769E+00   -.358E-05 0.330E-05 0.184E-05
   -.573E+01 0.176E+02 -.315E+02   0.590E+01 -.188E+02 0.313E+02   0.742E+00 -.636E+00 0.933E+00   -.197E-05 0.114E-04 -.205E-05
   -.156E+01 -.286E+01 0.417E+02   0.188E+01 0.381E+01 -.417E+02   0.105E+00 -.194E-01 0.561E-01   -.246E-04 0.839E-05 0.467E-05
   -.489E+01 -.198E+02 -.947E+02   0.434E+01 0.206E+02 0.948E+02   0.582E+00 0.312E+00 0.135E+00   0.409E-05 -.195E-05 -.342E-06
   0.504E+01 0.112E+02 0.640E+02   -.438E+01 -.120E+02 -.646E+02   0.449E+00 -.772E+00 0.109E+01   -.110E-04 0.338E-05 0.416E-05
   -.989E+01 0.576E+01 -.870E+02   0.992E+01 -.631E+01 0.873E+02   -.892E-01 0.974E+00 -.131E+01   0.466E-05 -.547E-05 0.100E-05
   0.942E+01 -.630E+01 0.363E+02   -.103E+02 0.712E+01 -.366E+02   -.133E+00 0.175E+01 0.199E+00   0.139E-05 -.888E-05 0.343E-05
   -.195E+02 -.136E+02 -.845E+02   0.190E+02 0.134E+02 0.850E+02   -.140E+01 -.788E+00 0.138E+00   -.852E-05 0.175E-05 0.144E-05
   0.149E+02 0.170E+02 0.557E+02   -.145E+02 -.180E+02 -.556E+02   0.921E+00 -.482E+00 -.589E+00   0.609E-05 0.123E-04 0.776E-06
   -.318E+01 0.409E+01 0.120E+02   0.419E+01 -.335E+01 -.128E+02   0.508E+00 -.228E+00 0.379E+00   -.127E-04 0.619E-05 0.232E-05
   0.188E+02 0.699E+01 0.626E+02   -.206E+02 -.764E+01 -.621E+02   -.131E+01 -.138E+01 0.155E+00   0.547E-05 0.571E-05 -.980E-06
   -.353E+01 -.468E+01 0.204E+02   0.428E+01 0.393E+01 -.204E+02   0.770E+00 0.360E+00 0.352E+00   0.826E-05 0.438E-05 -.460E-05
   -.135E+01 0.129E+02 0.103E+03   0.340E+01 -.136E+02 -.104E+03   0.402E+00 -.111E+01 0.152E+01   0.215E-05 0.977E-05 -.185E-06
   0.218E+02 0.219E+02 0.413E+02   -.236E+02 -.240E+02 -.407E+02   -.763E+00 -.740E+00 -.610E+00   0.173E-04 0.682E-05 -.544E-05
   0.292E+02 -.162E+02 0.936E+02   -.305E+02 0.186E+02 -.936E+02   -.745E+00 0.127E+01 -.144E-02   0.938E-05 -.258E-06 -.200E-05
   0.579E+01 -.391E+00 0.836E+02   -.493E+01 0.707E-02 -.839E+02   0.525E+00 -.657E+00 0.496E+00   0.273E-05 0.567E-05 -.111E-05
   0.152E+02 0.887E+01 0.130E+03   -.150E+02 -.101E+02 -.131E+03   0.579E+00 -.110E+01 0.547E+00   0.409E-05 -.274E-06 -.148E-06
   0.186E+02 0.224E+02 0.147E+03   -.194E+02 -.233E+02 -.147E+03   -.277E+00 -.356E+00 0.460E+00   0.246E-05 -.474E-05 0.326E-05
   0.205E+02 -.180E+02 0.174E+03   -.207E+02 0.192E+02 -.174E+03   0.569E+00 0.430E+00 0.556E+00   -.481E-05 0.320E-05 0.510E-05
   -.221E+01 0.986E+00 0.122E+03   0.268E+01 -.121E+01 -.121E+03   0.761E+00 -.844E+00 -.801E+00   -.503E-05 -.192E-04 0.846E-05
   -.100E+02 0.817E+01 0.150E+03   0.104E+02 -.939E+01 -.150E+03   0.809E+00 -.347E+00 -.831E+00   -.771E-05 0.290E-04 0.115E-04
   -.460E+01 0.690E+02 0.226E+03   0.166E+01 -.700E+02 -.227E+03   0.957E+00 0.234E+01 0.182E+01   -.447E-05 -.108E-04 0.102E-04
   0.889E+00 -.682E+02 0.231E+03   -.406E+01 0.694E+02 -.232E+03   0.672E+00 -.126E+01 0.918E+00   -.115E-05 0.345E-05 0.918E-05
   0.198E+02 0.568E+02 0.181E+03   -.198E+02 -.573E+02 -.182E+03   -.155E+01 0.307E+01 0.203E+01   -.611E-05 0.516E-05 0.813E-05
   0.119E+02 -.558E+02 0.317E+02   -.998E+01 0.572E+02 -.316E+02   -.178E+01 0.384E+00 -.131E+01   -.305E-05 -.884E-06 0.490E-05
   -.208E+02 -.633E+01 0.174E+03   0.228E+02 0.581E+01 -.174E+03   -.470E+00 -.387E+00 -.272E+00   -.483E-05 0.391E-05 0.488E-05
   0.244E+02 -.138E+01 0.344E+02   -.255E+02 0.260E+00 -.346E+02   -.529E+00 -.162E+01 0.595E+00   0.657E-05 0.134E-05 0.396E-05
   -.166E+02 0.184E+01 0.129E+03   0.159E+02 -.799E+00 -.129E+03   -.973E+00 0.381E+00 0.928E+00   -.123E-04 0.485E-05 0.559E-06
   0.397E+01 0.262E+01 0.134E+02   -.360E+01 -.419E+01 -.132E+02   0.972E+00 -.767E+00 -.609E+00   -.216E-04 0.106E-04 -.295E-05
   -.189E+02 -.805E+01 0.795E+02   0.193E+02 0.772E+01 -.798E+02   0.209E+00 0.247E-01 0.251E+00   0.673E-05 0.157E-05 0.457E-05
   0.108E+02 0.662E+01 -.347E+02   -.997E+01 -.654E+01 0.351E+02   -.266E+00 0.127E+01 0.208E+00   0.291E-06 -.559E-05 0.774E-06
   0.110E+02 0.152E+02 -.210E+02   -.108E+02 -.154E+02 0.215E+02   0.123E+01 0.736E+00 -.272E+00   -.208E-05 0.730E-05 0.321E-06
   0.271E+02 -.307E+01 -.822E+02   -.283E+02 0.282E+01 0.817E+02   -.156E+01 0.288E+00 -.460E+00   0.109E-04 0.334E-05 0.335E-05
   -.596E+01 -.927E+01 -.719E+01   0.663E+01 0.921E+01 0.687E+01   -.505E+00 -.121E+01 0.594E+00   -.512E-05 0.806E-05 -.214E-05
   0.406E+02 0.695E+01 -.147E+03   -.412E+02 -.715E+01 0.148E+03   0.118E+01 -.828E+00 -.127E+01   0.402E-07 0.276E-05 -.311E-05
   0.155E+02 0.159E+02 -.863E+02   -.161E+02 -.164E+02 0.865E+02   -.132E+01 -.395E+00 -.101E+01   0.185E-05 0.454E-05 -.188E-05
   0.191E+02 -.389E+01 -.141E+03   -.179E+02 0.385E+01 0.141E+03   0.188E+01 -.747E+00 0.113E+01   -.175E-04 0.832E-05 -.776E-05
   0.112E+02 -.740E+01 -.752E+02   -.112E+02 0.780E+01 0.750E+02   -.451E+00 0.261E+00 -.133E+00   0.977E-05 -.621E-05 -.139E-05
   0.210E+02 0.140E+02 -.193E+03   -.213E+02 -.140E+02 0.194E+03   0.508E+00 0.867E+00 -.997E+00   -.953E-05 0.674E-05 -.737E-05
   0.367E+01 0.853E+01 -.126E+03   -.316E+01 -.908E+01 0.127E+03   0.360E+00 -.415E+00 -.976E+00   -.272E-05 -.108E-04 -.480E-05
   0.275E+01 -.170E+02 -.153E+03   -.231E+01 0.182E+02 0.153E+03   -.338E+00 0.162E-01 0.126E+01   -.125E-05 -.111E-04 -.629E-05
   0.396E+01 -.134E+02 -.692E+02   -.477E+01 0.135E+02 0.689E+02   -.998E-01 -.210E+00 -.953E-01   -.166E-06 -.288E-05 -.217E-05
   -.115E+00 0.240E+02 -.200E+03   0.593E+00 -.260E+02 0.200E+03   -.133E+00 -.109E+01 -.122E+01   -.231E-05 0.867E-05 -.466E-05
   -.639E+01 0.963E+00 -.961E+02   0.730E+01 -.756E+00 0.965E+02   0.504E+00 0.570E+00 -.220E+00   0.621E-05 -.148E-04 -.411E-05
   0.265E+01 -.107E+02 -.155E+03   -.373E+01 0.109E+02 0.155E+03   -.748E+00 0.268E+00 -.158E+00   0.137E-04 -.560E-05 -.515E-05
   -.132E+02 -.293E+02 -.484E+02   0.137E+02 0.325E+02 0.485E+02   -.295E+00 0.126E+01 0.107E+00   -.686E-05 -.210E-04 -.223E-05
   -.206E+01 0.225E+01 -.118E+03   0.141E+01 -.135E+01 0.118E+03   -.475E+00 0.934E+00 0.103E+01   0.125E-04 -.106E-04 -.336E-05
   -.123E+01 0.181E+02 -.832E+02   0.622E+00 -.193E+02 0.832E+02   -.381E+00 -.107E+01 -.253E+00   -.360E-05 0.453E-05 0.137E-05
   -.175E+02 -.121E+02 -.141E+03   0.188E+02 0.129E+02 0.141E+03   0.608E-01 -.448E+00 -.292E+00   -.591E-05 0.107E-05 -.695E-06
   -.237E+01 -.273E+01 -.382E+02   0.187E+01 0.250E+01 0.385E+02   -.873E+00 -.541E+00 -.131E+01   0.264E-05 0.114E-04 0.314E-05
   -.178E+02 0.667E+01 -.172E+03   0.171E+02 -.715E+01 0.173E+03   -.123E+01 -.843E-01 -.143E+01   -.369E-05 -.983E-05 -.609E-06
   0.388E+01 0.801E+01 0.156E+02   -.342E+01 -.827E+01 -.159E+02   -.198E+00 0.667E+00 0.118E+01   0.422E-05 0.303E-05 0.382E-06
   -.125E+02 -.663E+01 -.941E+02   0.125E+02 0.669E+01 0.943E+02   0.416E+00 0.910E+00 0.570E+00   -.230E-05 -.809E-05 -.168E-05
   0.174E+02 -.740E+01 0.628E+02   -.187E+02 0.686E+01 -.635E+02   -.123E+01 -.936E+00 0.148E+01   0.411E-05 0.119E-04 0.107E-05
   -.217E+02 -.101E+01 -.124E+03   0.221E+02 0.144E+01 0.124E+03   0.151E+01 -.298E+00 -.685E+00   -.107E-04 -.232E-06 -.282E-06
   -.185E+02 0.489E+01 -.493E+02   0.196E+02 -.396E+01 0.498E+02   0.338E+00 0.651E-01 -.542E+00   -.283E-05 -.123E-04 -.321E-05
   -.297E+02 -.171E+02 -.119E+03   0.300E+02 0.177E+02 0.119E+03   0.121E+01 -.800E+00 -.114E+01   -.415E-05 -.141E-04 -.166E-05
   -.117E+02 -.612E+01 -.490E+02   0.117E+02 0.652E+01 0.495E+02   0.318E+00 -.224E+00 -.177E+01   -.493E-05 0.665E-06 -.680E-06
   -.957E+01 -.384E+01 -.659E+02   0.850E+01 0.526E+01 0.663E+02   -.103E+01 0.191E+01 0.121E-01   0.151E-04 -.173E-04 -.389E-05
   -.206E+02 0.166E+02 -.270E+02   0.221E+02 -.172E+02 0.268E+02   0.105E+01 0.337E+00 0.240E+00   -.884E-06 0.610E-05 -.157E-05
   -.186E+02 -.135E+02 -.484E+02   0.195E+02 0.135E+02 0.486E+02   -.682E+00 0.335E+00 -.154E+00   0.585E-05 -.586E-05 -.313E-05
   0.572E+01 -.170E+02 0.155E+02   -.644E+01 0.187E+02 -.148E+02   -.874E+00 0.327E+00 -.719E+00   0.135E-04 0.264E-06 -.433E-05
   -.412E+01 0.184E+01 0.358E+01   0.431E+01 -.175E+01 -.369E+01   0.292E+00 -.542E+00 -.737E-01   0.199E-05 -.521E-05 -.109E-05
   0.386E+01 0.129E+02 0.541E+02   -.416E+01 -.134E+02 -.541E+02   -.678E+00 -.203E+00 0.883E+00   0.323E-04 -.160E-05 -.633E-05
   0.569E+00 -.185E+02 0.813E+01   -.270E+00 0.199E+02 -.792E+01   0.423E+00 0.596E+00 -.522E+00   0.276E-04 -.112E-04 -.669E-05
   0.323E+01 0.107E+02 0.880E+02   -.477E+01 -.116E+02 -.882E+02   -.373E+00 0.408E+00 -.132E-01   -.710E-06 0.280E-04 0.720E-05
   -.971E+00 -.147E+02 0.301E+02   -.128E+01 0.160E+02 -.293E+02   -.346E+00 -.612E+00 -.646E+00   0.827E-05 -.190E-04 0.598E-06
   -.258E+02 0.553E+02 0.119E+03   0.252E+02 -.555E+02 -.120E+03   0.273E+01 0.105E+01 -.230E-01   -.289E-04 0.126E-04 0.943E-05
   -.236E+02 -.603E+02 0.769E+02   0.241E+02 0.615E+02 -.771E+02   0.209E+01 -.234E+01 0.758E+00   -.240E-04 -.136E-04 0.437E-05
 -----------------------------------------------------------------------------------------------
   0.301E+00 0.122E+01 -.228E+01   0.288E-12 0.554E-12 0.483E-12   -.149E+00 -.118E+01 0.233E+01   -.379E-05 0.489E-07 0.261E-04
 
 
 POSITION                                       TOTAL-FORCE (eV/Angst)
 -----------------------------------------------------------------------------------
      0.31422      0.77636     15.11480         1.679744      0.320900     -0.270441
      0.35239      2.14959     14.92310         0.193223     -0.325640      0.462884
      1.46654      0.13563     15.57260        -0.785764      2.076500     -0.084362
      1.49473      2.84932     15.20640         1.370996     -0.697500     -0.024370
      2.67512      0.81970     15.84690        -0.175654      0.534663     -0.009664
      2.68531      2.20120     15.62560         1.026819     -1.647617      0.298909
      3.79276      0.15117     16.44630        -0.838250     -0.097242     -0.436810
      3.89590      2.83177     16.03780        -1.004058      0.298027     -0.529437
      4.96059      0.82145     16.79210         1.573925     -1.088174     -0.404290
      5.01581      2.15161     16.51250         1.282560      1.378045      0.863181
      6.17222      0.13221     17.21920        -2.687310      1.986198      0.110137
      6.20589      2.85227     16.92530         0.368309     -0.367475     -0.231837
      7.36302      0.78190     17.46890         0.155758      2.319553      0.140205
      7.39551      2.17771     17.30890        -0.274920     -0.323963     -0.465194
      8.51108      0.17407     17.95370         0.913196     -1.460130     -0.018013
      8.62764      2.85084     17.51890        -2.218247      0.007049      0.060122
      9.76369      0.81566     18.02170         0.242094      0.676126     -0.209241
      9.79303      2.16222     17.72430         1.525350     -0.139348      0.261494
     11.02240      0.20038     18.23780        -0.337489      1.148424      0.548195
     11.02470      2.85213     17.71750         0.116962      0.431814      0.801004
     12.25340      0.90169     18.19550         1.576126     -1.373879     -1.688069
     12.27240      2.22388     17.82660        -1.182454     -0.475041     -0.042951
     13.51730      0.20581     18.03640        -0.493187      0.289790      0.081728
     13.46700      2.90596     17.59500         1.230701     -2.808387     -0.166757
     14.71330      0.88825     17.66030         0.910221     -1.830192      0.817327
     14.69530      2.22921     17.42180         0.421983      0.929146      0.039095
     15.99230      0.20909     17.68270         0.039082      1.126388      0.180119
     15.91440      2.92464     17.20640         1.106605     -1.502515      0.473034
     17.22170      0.87294     17.41120        -0.062552      0.422728     -1.010462
     17.17430      2.19893     17.08420        -1.056739      2.578394     -0.104889
     18.48820      0.25895     17.23110        -1.986742     -1.014516      0.693619
     18.35910      2.94037     16.80250         1.374744     -1.484801     -0.565761
     19.61980      0.89539     16.74530         1.515453      0.513620     -0.416412
     19.62810      2.29591     16.55340        -3.082310     -2.029244      0.633517
     20.82880      0.19480     16.50790         1.514417     -0.388726      0.401435
     20.78800      2.95417     16.27590         2.447143     -1.790182      0.122630
     22.06550      0.89424     16.10460        -2.526740     -2.871260      0.016482
     22.04240      2.21640     15.97600        -2.035237      3.629547     -0.033500
     23.23910      0.21215     15.82890         1.378107     -1.041494      0.221179
     23.22640      2.91061     15.68900         0.744630     -2.296488     -0.155224
     24.45300      0.85950     15.41650        -1.070755     -1.265831      0.277240
     24.43240      2.20500     15.34170         0.329562      1.646732      0.154976
     25.68280      0.19489     15.33430         1.221508     -1.065482     -0.084940
     25.69110      2.85817     15.22840         1.218695     -1.565909     -1.005385
     26.89980      0.77449     14.98840        -1.984801      1.403703      0.401710
     26.91840      2.17338     14.93450        -2.499489     -0.045478     -0.165668
      0.30444      4.81293     15.27090        -1.518985      2.571495      1.334778
      0.29083      6.14954     15.60460         0.144384      1.766711     -1.235949
      1.49993      4.21240     15.33750         1.541134     -0.906571     -0.276925
      1.44724      6.91596     15.77480        -1.632798     -2.739922      0.440359
      2.70225      4.86462     15.75850        -1.608050      1.426304      0.736930
      2.61383      6.24153     16.05990         1.337223     -2.341775     -0.420541
      3.86661      4.20980     16.13620         0.597454     -0.306557     -0.069935
      3.77629      6.86023     16.51550         0.522594      1.348258      0.586379
      4.96094      4.85274     16.74090         1.471652      0.513351      0.250282
      4.95828      6.21077     16.96380        -2.735459      0.042024     -0.883491
      6.19813      4.23580     17.03060         0.171776     -1.279857      0.271726
      6.06396      6.90456     17.41940         0.574279     -1.029640     -0.303330
      7.37726      4.89160     17.53720        -1.952889     -0.894794     -0.813589
      7.24490      6.24826     17.70490         3.119438     -0.788341      1.376971
      8.59917      4.21550     17.69610        -0.376524      0.658981     -0.287378
      8.48297      6.88184     18.06050         0.272547      0.937986     -0.412454
      9.78814      4.89779     17.98740         0.868156     -0.966167     -0.515560
      9.76705      6.24804     18.13920         0.107133      1.276001      1.058681
     11.03660      4.22587     17.89720        -0.912783     -0.132843     -0.345403
     11.03420      6.95461     18.31860         0.342822     -3.046075     -0.755417
     12.26320      4.87195     17.98660         1.413938      0.776504      0.134706
     12.31680      6.24277     18.18910        -1.830685      0.485625      0.191285
     13.51590      4.20914     17.76540         0.201008      4.453625      0.224733
     13.55510      6.90650     18.06360        -1.130826      1.828737      1.138678
     14.78560      4.94076     17.76320        -0.992039     -2.238490     -0.303412
     14.78450      6.27971     17.96320         1.317854      0.302530     -0.212973
     15.99880      4.28750     17.43340        -1.378547     -0.770185     -1.049047
     16.05100      6.95321     17.86300        -1.903454     -0.561572     -0.442973
     17.20310      4.94564     17.20130         0.258773      0.398154      0.819664
     17.22510      6.27686     17.51060         0.357958      0.969422      0.692878
     18.41340      4.31624     16.85470        -2.475012     -1.480460      0.707341
     18.43450      6.97584     17.37870         1.882723      0.134428     -0.595483
     19.62140      4.93012     16.91250         1.429477      0.990851     -0.000155
     19.64060      6.29525     17.12580         1.560589     -0.230731     -0.820200
     20.83150      4.26987     16.62160         0.306574      0.171840     -1.241078
     20.90190      6.89165     16.74410        -2.098236      3.329843      0.416316
     22.05630      4.88784     16.39370         2.513088     -0.221205      0.038373
     22.10110      6.25414     16.45760         0.199802      0.336372     -0.000505
     23.29190      4.21846     15.97420        -1.595644      2.004199      0.040539
     23.26930      6.94655     16.07350         0.482619     -0.448714     -0.186118
     24.51100      4.89071     15.73790        -0.979437     -0.774796      0.889203
     24.48700      6.23822     15.85600         0.720340      1.948872     -0.313722
     25.71150      4.20312     15.44610        -1.914694     -0.477080     -0.141341
     25.72240      6.93498     15.61740        -2.604012      0.679458      0.217541
     26.84180      4.87217     15.36770         2.146773      0.762355     -0.431777
     26.84880      6.24036     15.49270         2.602755     -1.198984      0.554850
 -----------------------------------------------------------------------------------
    total drift:                                0.151885      0.040581      0.045892


--------------------------------------------------------------------------------------------------------



  FREE ENERGIE OF THE ION-ELECTRON SYSTEM (eV)
  ---------------------------------------------------
  free  energy   TOTEN  =      -829.84564136 eV

  energy  without entropy=     -829.78586947  energy(sigma->0) =     -829.81575542
 


--------------------------------------------------------------------------------------------------------


    POTLOK:  cpu time      0.4549: real time      0.4548


--------------------------------------------------------------------------------------------------------


     LOOP+:  cpu time    324.0564: real time    324.2425
    4ORBIT:  cpu time      0.0000: real time      0.0000

 total amount of memory used by VASP MPI-rank0  2294506. kBytes
=======================================================================

   base                                    :      30000. kBytes
   nonlr-proj                              :      15072. kBytes
   fftplans                                :     436558. kBytes
   grid                                    :     732614. kBytes
   one-center                              :        282. kBytes
   wavefun                                 :    1079980. kBytes
 
  
  
 General timing and accounting informations for this job:
 ========================================================
  
                  Total CPU time used (sec):      357.413
                            User time (sec):      349.316
                          System time (sec):        8.097
                         Elapsed time (sec):      357.665
  
                   Maximum memory used (kb):     3736684.
                   Average memory used (kb):          N/A
  
                          Minor page faults:      3092782
                          Major page faults:         4995
                 Voluntary context switches:         9719
