       N       E                     dE             d eps       ncg     rms          rms(c)
DAV:   1     0.362198846014E+04    0.36220E+04   -0.11971E+05  1728   0.105E+03
DAV:   2     0.174783458271E+03   -0.34472E+04   -0.31935E+04  2128   0.236E+02
DAV:   3    -0.833968903912E+03   -0.10088E+04   -0.98619E+03  1800   0.134E+02
DAV:   4    -0.896051247827E+03   -0.62082E+02   -0.61045E+02  1728   0.427E+01
DAV:   5    -0.897586132122E+03   -0.15349E+01   -0.15128E+01  1784   0.656E+00    0.453E+01
DAV:   6    -0.848484557507E+03    0.49102E+02   -0.46820E+01  1584   0.125E+01    0.266E+01
DAV:   7    -0.830202339472E+03    0.18282E+02   -0.64634E+01  1568   0.143E+01    0.729E+00
DAV:   8    -0.829928955356E+03    0.27338E+00   -0.24302E+00  1584   0.331E+00    0.983E-01
DAV:   9    -0.829822630616E+03    0.10632E+00   -0.25535E-01  1640   0.978E-01    0.560E-01
DAV:  10    -0.829784680865E+03    0.37950E-01   -0.51018E-02  1744   0.437E-01    0.351E-01
DAV:  11    -0.829759253034E+03    0.25428E-01   -0.19991E-02  1576   0.239E-01    0.237E-01
DAV:  12    -0.829756647366E+03    0.26057E-02   -0.24248E-02  1568   0.231E-01    0.146E-01
DAV:  13    -0.829769000231E+03   -0.12353E-01   -0.77931E-03  1576   0.135E-01    0.830E-02
DAV:  14    -0.829786599290E+03   -0.17599E-01   -0.12743E-03  1592   0.646E-02    0.528E-02
DAV:  15    -0.829805386147E+03   -0.18787E-01   -0.15317E-03  1576   0.599E-02    0.290E-02
DAV:  16    -0.829813983913E+03   -0.85978E-02   -0.49504E-04  1600   0.351E-02    0.211E-02
DAV:  17    -0.829818722021E+03   -0.47381E-02   -0.28082E-04  1592   0.228E-02    0.105E-02
DAV:  18    -0.829820943542E+03   -0.22215E-02   -0.10676E-04  1616   0.140E-02    0.594E-03
DAV:  19    -0.829821815645E+03   -0.87210E-03   -0.26983E-05  1432   0.766E-03    0.364E-03
DAV:  20    -0.829822121189E+03   -0.30554E-03   -0.52168E-06  1376   0.348E-03    0.241E-03
DAV:  21    -0.829822324187E+03   -0.20300E-03   -0.25635E-06  1232   0.274E-03    0.109E-03
DAV:  22    -0.829822382805E+03   -0.58618E-04   -0.38209E-07  1048   0.120E-03    0.762E-04
DAV:  23    -0.829822418968E+03   -0.36163E-04   -0.34348E-07   936   0.104E-03    0.498E-04
DAV:  24    -0.829822432260E+03   -0.13292E-04   -0.11573E-07   992   0.607E-04    0.381E-04
DAV:  25    -0.829822436413E+03   -0.41531E-05   -0.38796E-08   968   0.549E-04    0.170E-04
DAV:  26    -0.829822440432E+03   -0.40187E-05   -0.38964E-08   896   0.311E-04    0.200E-04
DAV:  27    -0.829822441655E+03   -0.12231E-05   -0.10298E-08   936   0.269E-04    0.972E-05
DAV:  28    -0.829822443558E+03   -0.19024E-05   -0.86971E-09   920   0.162E-04    0.800E-05
DAV:  29    -0.829822444041E+03   -0.48356E-06   -0.27760E-09   912   0.113E-04
   1 F= -.82982244E+03 E0= -.82978095E+03  d E =-.829874E-01
