unknown system                          
            1
    28.050000    0.000000    0.000000
     0.000000    8.100000    0.000000
     0.000000    0.000000   33.500000
   C 
    92
Direct configuration=     1
   0.00329582  0.11408383  0.46872239
   0.00386061  0.28556914  0.47234627
   0.04593155  0.02031951  0.46971343
   0.04716007  0.36090988  0.47340299
   0.08954403  0.09973173  0.45950746
   0.08927451  0.27385432  0.46045970
   0.13446881  0.02437975  0.45798507
   0.13461604  0.35816543  0.45834030
   0.17796934  0.10097728  0.45126567
   0.17849127  0.27241235  0.45158507
   0.22195829  0.02359889  0.45130149
   0.22130588  0.35436173  0.45202687
   0.26920535  0.10747568  0.45335522
   0.26647701  0.27121481  0.45467761
   0.31499002  0.02086691  0.45877015
   0.31015579  0.35216049  0.46324179
   0.35792870  0.10322593  0.47011940
   0.35669519  0.27584815  0.46991343
   0.39816043  0.01414593  0.48439403
   0.39928342  0.35266049  0.47944478
   0.44192513  0.10313457  0.49444776
   0.44347237  0.27147778  0.49110746
   0.48187522  0.01269420  0.50804478
   0.48365775  0.35348519  0.50662388
   0.52617825  0.10227593  0.51464776
   0.52663102  0.27180123  0.51280299
   0.56662032  0.02264667  0.52925970
   0.56875936  0.35955679  0.52535522
   0.61125134  0.10425037  0.53316716
   0.61125847  0.27840247  0.53314328
   0.65474510  0.02190173  0.54218806
   0.65482709  0.35709877  0.53812239
   0.69982888  0.10398852  0.53920000
   0.69779323  0.26931975  0.53523881
   0.74549020  0.02056259  0.54081194
   0.74266310  0.35374321  0.53433731
   0.78624955  0.10241654  0.52998806
   0.78655971  0.27243086  0.52677910
   0.82985027  0.02283247  0.52400896
   0.82762210  0.36344815  0.51787761
   0.87062032  0.10099383  0.50483284
   0.86838503  0.27452346  0.50166269
   0.91614260  0.02329926  0.49951045
   0.91387166  0.35973457  0.49487463
   0.95281996  0.10894086  0.48121791
   0.95259893  0.27947037  0.48256119
   0.01057012  0.60282469  0.50217612
   0.01070032  0.77670864  0.49968657
   0.05131515  0.51883704  0.48908955
   0.04897504  0.85964321  0.48404478
   0.09548200  0.60346914  0.48115522
   0.09228592  0.77427778  0.47487164
   0.13582852  0.52089877  0.46982090
   0.13464492  0.85360000  0.46485970
   0.17848093  0.60296296  0.46706866
   0.17972585  0.77214074  0.46513433
   0.22262317  0.51972346  0.46003881
   0.22307094  0.85585679  0.45601194
   0.26562781  0.60017901  0.46448060
   0.26733476  0.77255309  0.45923881
   0.31056720  0.52058765  0.46822985
   0.31085169  0.85355432  0.46638806
   0.35162923  0.60124815  0.48365672
   0.35039180  0.77065185  0.48459104
   0.39497683  0.51705432  0.49226866
   0.39275936  0.85411358  0.49415522
   0.43438859  0.59693704  0.51089552
   0.43251337  0.76576049  0.51091642
   0.47843137  0.51883951  0.51603881
   0.47829234  0.85155556  0.51694030
   0.52253119  0.60589630  0.52754030
   0.52215330  0.77252963  0.52957313
   0.56544385  0.52071975  0.53572836
   0.56608556  0.85403704  0.53262985
   0.61002852  0.60330000  0.54450746
   0.61014617  0.76996914  0.54182985
   0.65498752  0.52006543  0.54777910
   0.65232799  0.85426667  0.54634328
   0.69851337  0.59810247  0.55186269
   0.69894831  0.76981975  0.54959403
   0.74374332  0.51586420  0.54611343
   0.74395365  0.85270123  0.54613731
   0.78803922  0.60328765  0.53891940
   0.78703030  0.77023210  0.53582687
   0.83063102  0.52814074  0.52600896
   0.83138681  0.85643827  0.53004179
   0.87592513  0.60462716  0.52190149
   0.87454902  0.77297778  0.52232836
   0.91809626  0.52163704  0.50794030
   0.91833512  0.86284444  0.51328657
   0.95963280  0.60433704  0.50895522
   0.96126203  0.77482099  0.51099701
