  92  92   0   0
  0.8273226E+02  0.2805000E-08  0.8100000E-09  0.3350000E-08  0.5000000E-15
   1.0000000000000000E-004
  CAR 
 unknown system                          
      3.91635094    -25.16514260  301     -3.15050152      1.00000000
    -25.165  0.0000E+00  0.0000E+00
    -25.068  0.0000E+00  0.0000E+00
    -24.971  0.0000E+00  0.0000E+00
    -24.874  0.0000E+00  0.0000E+00
    -24.777  0.0000E+00  0.0000E+00
    -24.680  0.0000E+00  0.0000E+00
    -24.584  0.0000E+00  0.0000E+00
    -24.487  0.0000E+00  0.0000E+00
    -24.390  0.0000E+00  0.0000E+00
    -24.293  0.4009E-14  0.3886E-15
    -24.196  0.8240E-12  0.8027E-13
    -24.099  0.1066E-09  0.1041E-10
    -24.002  0.8726E-08  0.8563E-09
    -23.905  0.4544E-06  0.4490E-07
    -23.808  0.1512E-04  0.1511E-05
    -23.711  0.3241E-03  0.3293E-04
    -23.614  0.4518E-02  0.4709E-03
    -23.517  0.4152E-01  0.4496E-02
    -23.420  0.2556E+00  0.2927E-01
    -23.323  0.1076E+01  0.1336E+00
    -23.226  0.3167E+01  0.4405E+00
    -23.129  0.6693E+01  0.1089E+01
    -23.032  0.1048E+02  0.2106E+01
    -22.936  0.1275E+02  0.3341E+01
    -22.839  0.1320E+02  0.4621E+01
    -22.742  0.1367E+02  0.5946E+01
    -22.645  0.1542E+02  0.7440E+01
    -22.548  0.1677E+02  0.9066E+01
    -22.451  0.1575E+02  0.1059E+02
    -22.354  0.1369E+02  0.1192E+02
    -22.257  0.1304E+02  0.1318E+02
    -22.160  0.1374E+02  0.1452E+02
    -22.063  0.1432E+02  0.1590E+02
    -21.966  0.1435E+02  0.1729E+02
    -21.869  0.1407E+02  0.1866E+02
    -21.772  0.1358E+02  0.1997E+02
    -21.675  0.1292E+02  0.2123E+02
    -21.578  0.1215E+02  0.2241E+02
    -21.481  0.1143E+02  0.2351E+02
    -21.385  0.1132E+02  0.2461E+02
    -21.288  0.1245E+02  0.2582E+02
    -21.191  0.1464E+02  0.2724E+02
    -21.094  0.1651E+02  0.2884E+02
    -20.997  0.1654E+02  0.3044E+02
    -20.900  0.1452E+02  0.3185E+02
    -20.803  0.1221E+02  0.3303E+02
    -20.706  0.1171E+02  0.3417E+02
    -20.609  0.1295E+02  0.3542E+02
    -20.512  0.1385E+02  0.3676E+02
    -20.415  0.1332E+02  0.3806E+02
    -20.318  0.1258E+02  0.3928E+02
    -20.221  0.1311E+02  0.4055E+02
    -20.124  0.1469E+02  0.4197E+02
    -20.027  0.1596E+02  0.4352E+02
    -19.930  0.1597E+02  0.4507E+02
    -19.834  0.1449E+02  0.4647E+02
    -19.737  0.1274E+02  0.4770E+02
    -19.640  0.1327E+02  0.4899E+02
    -19.543  0.1603E+02  0.5054E+02
    -19.446  0.1709E+02  0.5220E+02
    -19.349  0.1479E+02  0.5363E+02
    -19.252  0.1245E+02  0.5484E+02
    -19.155  0.1279E+02  0.5608E+02
    -19.058  0.1442E+02  0.5748E+02
    -18.961  0.1474E+02  0.5891E+02
    -18.864  0.1352E+02  0.6022E+02
    -18.767  0.1306E+02  0.6149E+02
    -18.670  0.1506E+02  0.6295E+02
    -18.573  0.1771E+02  0.6466E+02
    -18.476  0.1805E+02  0.6641E+02
    -18.379  0.1648E+02  0.6801E+02
    -18.283  0.1585E+02  0.6955E+02
    -18.186  0.1690E+02  0.7118E+02
    -18.089  0.1748E+02  0.7288E+02
    -17.992  0.1590E+02  0.7442E+02
    -17.895  0.1357E+02  0.7574E+02
    -17.798  0.1280E+02  0.7698E+02
    -17.701  0.1309E+02  0.7825E+02
    -17.604  0.1258E+02  0.7946E+02
    -17.507  0.1161E+02  0.8059E+02
    -17.410  0.1135E+02  0.8169E+02
    -17.313  0.1144E+02  0.8280E+02
    -17.216  0.1123E+02  0.8389E+02
    -17.119  0.1095E+02  0.8495E+02
    -17.022  0.1086E+02  0.8600E+02
    -16.925  0.1075E+02  0.8704E+02
    -16.828  0.1058E+02  0.8807E+02
    -16.732  0.1096E+02  0.8913E+02
    -16.635  0.1239E+02  0.9033E+02
    -16.538  0.1418E+02  0.9171E+02
    -16.441  0.1536E+02  0.9320E+02
    -16.344  0.1596E+02  0.9474E+02
    -16.247  0.1659E+02  0.9635E+02
    -16.150  0.1736E+02  0.9804E+02
    -16.053  0.1751E+02  0.9973E+02
    -15.956  0.1654E+02  0.1013E+03
    -15.859  0.1493E+02  0.1028E+03
    -15.762  0.1323E+02  0.1041E+03
    -15.665  0.1188E+02  0.1052E+03
    -15.568  0.1125E+02  0.1063E+03
    -15.471  0.1209E+02  0.1075E+03
    -15.374  0.1544E+02  0.1090E+03
    -15.277  0.2019E+02  0.1109E+03
    -15.180  0.2339E+02  0.1132E+03
    -15.084  0.2392E+02  0.1155E+03
    -14.987  0.2240E+02  0.1177E+03
    -14.890  0.1937E+02  0.1196E+03
    -14.793  0.1555E+02  0.1211E+03
    -14.696  0.1191E+02  0.1222E+03
    -14.599  0.9316E+01  0.1231E+03
    -14.502  0.8545E+01  0.1240E+03
    -14.405  0.9427E+01  0.1249E+03
    -14.308  0.1067E+02  0.1259E+03
    -14.211  0.1159E+02  0.1270E+03
    -14.114  0.1264E+02  0.1283E+03
    -14.017  0.1401E+02  0.1296E+03
    -13.920  0.1524E+02  0.1311E+03
    -13.823  0.1643E+02  0.1327E+03
    -13.726  0.1808E+02  0.1344E+03
    -13.629  0.1953E+02  0.1363E+03
    -13.533  0.1954E+02  0.1382E+03
    -13.436  0.1854E+02  0.1400E+03
    -13.339  0.1805E+02  0.1418E+03
    -13.242  0.1819E+02  0.1435E+03
    -13.145  0.1747E+02  0.1452E+03
    -13.048  0.1550E+02  0.1467E+03
    -12.951  0.1435E+02  0.1481E+03
    -12.854  0.1505E+02  0.1496E+03
    -12.757  0.1574E+02  0.1511E+03
    -12.660  0.1468E+02  0.1525E+03
    -12.563  0.1285E+02  0.1538E+03
    -12.466  0.1245E+02  0.1550E+03
    -12.369  0.1421E+02  0.1564E+03
    -12.272  0.1764E+02  0.1581E+03
    -12.175  0.2222E+02  0.1602E+03
    -12.078  0.2574E+02  0.1627E+03
    -11.982  0.2551E+02  0.1652E+03
    -11.885  0.2274E+02  0.1674E+03
    -11.788  0.2049E+02  0.1694E+03
    -11.691  0.1883E+02  0.1712E+03
    -11.594  0.1653E+02  0.1728E+03
    -11.497  0.1460E+02  0.1742E+03
    -11.400  0.1512E+02  0.1757E+03
    -11.303  0.1799E+02  0.1774E+03
    -11.206  0.2132E+02  0.1795E+03
    -11.109  0.2458E+02  0.1819E+03
    -11.012  0.2869E+02  0.1847E+03
    -10.915  0.3282E+02  0.1879E+03
    -10.818  0.3464E+02  0.1912E+03
    -10.721  0.3420E+02  0.1945E+03
    -10.624  0.3442E+02  0.1979E+03
    -10.527  0.3699E+02  0.2014E+03
    -10.431  0.3979E+02  0.2053E+03
    -10.334  0.3972E+02  0.2092E+03
    -10.237  0.3699E+02  0.2127E+03
    -10.140  0.3467E+02  0.2161E+03
    -10.043  0.3388E+02  0.2194E+03
     -9.946  0.3237E+02  0.2225E+03
     -9.849  0.3009E+02  0.2254E+03
     -9.752  0.3097E+02  0.2284E+03
     -9.655  0.3665E+02  0.2320E+03
     -9.558  0.4363E+02  0.2362E+03
     -9.461  0.4773E+02  0.2408E+03
     -9.364  0.4693E+02  0.2454E+03
     -9.267  0.4093E+02  0.2494E+03
     -9.170  0.3231E+02  0.2525E+03
     -9.073  0.2685E+02  0.2551E+03
     -8.976  0.2801E+02  0.2578E+03
     -8.880  0.3322E+02  0.2610E+03
     -8.783  0.3755E+02  0.2647E+03
     -8.686  0.3846E+02  0.2684E+03
     -8.589  0.3637E+02  0.2719E+03
     -8.492  0.3302E+02  0.2751E+03
     -8.395  0.3030E+02  0.2781E+03
     -8.298  0.2925E+02  0.2809E+03
     -8.201  0.2943E+02  0.2838E+03
     -8.104  0.2922E+02  0.2866E+03
     -8.007  0.2726E+02  0.2892E+03
     -7.910  0.2483E+02  0.2916E+03
     -7.813  0.2488E+02  0.2941E+03
     -7.716  0.2753E+02  0.2967E+03
     -7.619  0.2993E+02  0.2996E+03
     -7.522  0.3057E+02  0.3026E+03
     -7.425  0.3030E+02  0.3055E+03
     -7.328  0.2963E+02  0.3084E+03
     -7.232  0.2794E+02  0.3111E+03
     -7.135  0.2540E+02  0.3136E+03
     -7.038  0.2358E+02  0.3159E+03
     -6.941  0.2369E+02  0.3181E+03
     -6.844  0.2562E+02  0.3206E+03
     -6.747  0.2797E+02  0.3233E+03
     -6.650  0.2818E+02  0.3261E+03
     -6.553  0.2480E+02  0.3285E+03
     -6.456  0.2028E+02  0.3304E+03
     -6.359  0.1817E+02  0.3322E+03
     -6.262  0.1884E+02  0.3340E+03
     -6.165  0.2102E+02  0.3361E+03
     -6.068  0.2390E+02  0.3384E+03
     -5.971  0.2611E+02  0.3409E+03
     -5.874  0.2599E+02  0.3434E+03
     -5.777  0.2360E+02  0.3457E+03
     -5.681  0.2027E+02  0.3477E+03
     -5.584  0.1661E+02  0.3493E+03
     -5.487  0.1275E+02  0.3505E+03
     -5.390  0.9913E+01  0.3515E+03
     -5.293  0.9852E+01  0.3525E+03
     -5.196  0.1166E+02  0.3536E+03
     -5.099  0.1207E+02  0.3548E+03
     -5.002  0.1012E+02  0.3557E+03
     -4.905  0.8257E+01  0.3565E+03
     -4.808  0.8492E+01  0.3574E+03
     -4.711  0.1066E+02  0.3584E+03
     -4.614  0.1363E+02  0.3597E+03
     -4.517  0.1591E+02  0.3613E+03
     -4.420  0.1530E+02  0.3627E+03
     -4.323  0.1116E+02  0.3638E+03
     -4.226  0.6430E+01  0.3644E+03
     -4.130  0.3942E+01  0.3648E+03
     -4.033  0.3177E+01  0.3651E+03
     -3.936  0.2570E+01  0.3654E+03
     -3.839  0.2178E+01  0.3656E+03
     -3.742  0.2661E+01  0.3659E+03
     -3.645  0.3655E+01  0.3662E+03
     -3.548  0.4292E+01  0.3666E+03
     -3.451  0.4161E+01  0.3670E+03
     -3.354  0.3456E+01  0.3674E+03
     -3.257  0.2958E+01  0.3676E+03
     -3.160  0.3276E+01  0.3680E+03
     -3.063  0.4058E+01  0.3684E+03
     -2.966  0.4570E+01  0.3688E+03
     -2.869  0.4660E+01  0.3693E+03
     -2.772  0.5140E+01  0.3698E+03
     -2.675  0.6738E+01  0.3704E+03
     -2.579  0.8396E+01  0.3712E+03
     -2.482  0.8314E+01  0.3720E+03
     -2.385  0.6573E+01  0.3727E+03
     -2.288  0.5173E+01  0.3732E+03
     -2.191  0.5631E+01  0.3737E+03
     -2.094  0.7139E+01  0.3744E+03
     -1.997  0.7536E+01  0.3751E+03
     -1.900  0.6232E+01  0.3757E+03
     -1.803  0.5324E+01  0.3763E+03
     -1.706  0.7183E+01  0.3769E+03
     -1.609  0.1197E+02  0.3781E+03
     -1.512  0.1771E+02  0.3798E+03
     -1.415  0.2190E+02  0.3819E+03
     -1.318  0.2299E+02  0.3842E+03
     -1.221  0.2121E+02  0.3862E+03
     -1.124  0.1928E+02  0.3881E+03
     -1.028  0.1947E+02  0.3900E+03
     -0.931  0.1970E+02  0.3919E+03
     -0.834  0.1713E+02  0.3936E+03
     -0.737  0.1303E+02  0.3948E+03
     -0.640  0.1042E+02  0.3958E+03
     -0.543  0.1022E+02  0.3968E+03
     -0.446  0.1110E+02  0.3979E+03
     -0.349  0.1140E+02  0.3990E+03
     -0.252  0.1156E+02  0.4001E+03
     -0.155  0.1372E+02  0.4015E+03
     -0.058  0.1782E+02  0.4032E+03
      0.039  0.2115E+02  0.4052E+03
      0.136  0.2230E+02  0.4074E+03
      0.233  0.2213E+02  0.4095E+03
      0.330  0.2144E+02  0.4116E+03
      0.427  0.2029E+02  0.4136E+03
      0.524  0.1957E+02  0.4155E+03
      0.620  0.2111E+02  0.4175E+03
      0.717  0.2486E+02  0.4199E+03
      0.814  0.2815E+02  0.4227E+03
      0.911  0.2942E+02  0.4255E+03
      1.008  0.3124E+02  0.4285E+03
      1.105  0.3684E+02  0.4321E+03
      1.202  0.4492E+02  0.4365E+03
      1.299  0.5086E+02  0.4414E+03
      1.396  0.5206E+02  0.4464E+03
      1.493  0.4895E+02  0.4512E+03
      1.590  0.4274E+02  0.4553E+03
      1.687  0.3477E+02  0.4587E+03
      1.784  0.2577E+02  0.4612E+03
      1.881  0.1625E+02  0.4628E+03
      1.978  0.8169E+01  0.4636E+03
      2.075  0.3190E+01  0.4639E+03
      2.171  0.9606E+00  0.4640E+03
      2.268  0.2179E+00  0.4640E+03
      2.365  0.3555E-01  0.4640E+03
      2.462  0.3975E-02  0.4640E+03
      2.559  0.2943E-03  0.4640E+03
      2.656  0.1411E-04  0.4640E+03
      2.753  0.4331E-06  0.4640E+03
      2.850  0.8447E-08  0.4640E+03
      2.947  0.1043E-09  0.4640E+03
      3.044  0.8126E-12  0.4640E+03
      3.141  0.4009E-14  0.4640E+03
      3.238  0.0000E+00  0.4640E+03
      3.335  0.0000E+00  0.4640E+03
      3.432  0.0000E+00  0.4640E+03
      3.529  0.0000E+00  0.4640E+03
      3.626  0.0000E+00  0.4640E+03
      3.722  0.0000E+00  0.4640E+03
      3.819  0.0000E+00  0.4640E+03
      3.916  0.0000E+00  0.4640E+03
