<?xml version="1.0" encoding="ISO-8859-1"?>
<modeling>
 <generator>
  <i name="program" type="string">vasp </i>
  <i name="version" type="string">6.5.0  </i>
  <i name="subversion" type="string">16Dec24 (build Feb 19 2025 19:45:31) complex                          parallel </i>
  <i name="platform" type="string">LinuxNV </i>
  <i name="date" type="string">2025 10 25 </i>
  <i name="time" type="string">20:59:43 </i>
 </generator>
 <incar>
  <i type="int" name="ISTART">     0</i>
  <i type="string" name="PREC">Accurate   (Precision level)</i>
  <i type="string" name="ALGO">Normal</i>
  <i type="int" name="ISPIN">     1</i>
  <i type="int" name="ICHARG">     2</i>
  <i type="int" name="NELM">   150</i>
  <i type="int" name="IBRION">    -1</i>
  <i name="EDIFF">      0.00000100</i>
  <i type="int" name="NSW">     0</i>
  <i name="ENCUT">    500.00000000</i>
  <i type="string" name="LREAL">Auto         (Projection operators: automatic)</i>
  <i type="int" name="ISMEAR">     0</i>
  <i type="logical" name="KGAMMA"> T  </i>
  <i type="logical" name="LWAVE"> F  </i>
  <i type="logical" name="LCHARG"> F  </i>
 </incar>
 <primitive_cell>
  <structure name="primitive_cell" >
   <crystal>
    <varray name="basis" >
     <v>      28.05000000       0.00000000       0.00000000 </v>
     <v>       0.00000000       8.10000000       0.00000000 </v>
     <v>       0.00000000       0.00000000      33.50000000 </v>
    </varray>
    <i name="volume">   7611.36750000 </i>
    <varray name="rec_basis" >
     <v>       0.03565062       0.00000000       0.00000000 </v>
     <v>       0.00000000       0.12345679       0.00000000 </v>
     <v>       0.00000000       0.00000000       0.02985075 </v>
    </varray>
   </crystal>
   <varray name="positions" >
    <v>       0.88168271       0.50264198       0.90537313 </v>
    <v>       0.88222816       0.67432099       0.90328358 </v>
    <v>       0.92490553       0.41790370       0.91164179 </v>
    <v>       0.92588235       0.75189753       0.90686567 </v>
    <v>       0.96947237       0.50030741       0.91791045 </v>
    <v>       0.96965419       0.66992840       0.91522388 </v>
    <v>       0.01387708       0.41811605       0.91820896 </v>
    <v>       0.01460652       0.74982222       0.91402985 </v>
    <v>       0.05966774       0.50249877       0.91910448 </v>
    <v>       0.05968520       0.66943210       0.91582090 </v>
    <v>       0.10430945       0.42028765       0.91432836 </v>
    <v>       0.10442888       0.75293210       0.90805970 </v>
    <v>       0.14905241       0.50150370       0.90746269 </v>
    <v>       0.14809911       0.66930617       0.90388060 </v>
    <v>       0.19209091       0.42095802       0.89671642 </v>
    <v>       0.19096756       0.75507531       0.89014925 </v>
    <v>       0.23454688       0.50282840       0.88686567 </v>
    <v>       0.23355686       0.67033210       0.88298507 </v>
    <v>       0.27653904       0.42071605       0.87373134 </v>
    <v>       0.27496257       0.75315679       0.86865672 </v>
    <v>       0.31992406       0.50268395       0.86417910 </v>
    <v>       0.31820749       0.67066667       0.86089552 </v>
    <v>       0.36169340       0.42033580       0.85134328 </v>
    <v>       0.35975758       0.75285556       0.84656716 </v>
    <v>       0.40412834       0.50179383       0.84208955 </v>
    <v>       0.40365062       0.67003951       0.84029851 </v>
    <v>       0.44721212       0.41896914       0.83283582 </v>
    <v>       0.44605704       0.75183333       0.82925373 </v>
    <v>       0.49115508       0.50085926       0.82955224 </v>
    <v>       0.49009626       0.66873704       0.82626866 </v>
    <v>       0.53522995       0.41719259       0.82597015 </v>
    <v>       0.53506595       0.75280247       0.82179104 </v>
    <v>       0.57808200       0.50139877       0.83104478 </v>
    <v>       0.57863102       0.67073951       0.82835821 </v>
    <v>       0.62213547       0.41805432       0.83343284 </v>
    <v>       0.62278431       0.75112099       0.83134328 </v>
    <v>       0.66420677       0.50039383       0.84417910 </v>
    <v>       0.66534759       0.66805926       0.84208955 </v>
    <v>       0.70697683       0.41924568       0.85343284 </v>
    <v>       0.70894118       0.75270370       0.84925373 </v>
    <v>       0.74827451       0.50097654       0.86746269 </v>
    <v>       0.74941176       0.67246914       0.86597015 </v>
    <v>       0.79262389       0.42049136       0.87671642 </v>
    <v>       0.79213191       0.75444815       0.87402985 </v>
    <v>       0.83166488       0.50335679       0.89223881 </v>
    <v>       0.83151872       0.67679877       0.89134328 </v>
    <v>       0.88630303       0.00036041       0.88656716 </v>
    <v>       0.88583601       0.17263951       0.88776119 </v>
    <v>       0.92752585       0.91977037       0.89910448 </v>
    <v>       0.92625312       0.25409136       0.90208955 </v>
    <v>       0.97132620       0.00295331       0.90417910 </v>
    <v>       0.97084848       0.17206049       0.90626866 </v>
    <v>       0.01502674       0.91813457       0.90746269 </v>
    <v>       0.01439230       0.25086296       0.91283582 </v>
    <v>       0.05904742       0.00188184       0.90537313 </v>
    <v>       0.05984670       0.16990988       0.91014925 </v>
    <v>       0.10338610       0.91932963       0.90149254 </v>
    <v>       0.10452870       0.25189630       0.90895522 </v>
    <v>       0.14555401       0.00371683       0.89313433 </v>
    <v>       0.14674225       0.17216296       0.89761194 </v>
    <v>       0.18871907       0.92027654       0.88388060 </v>
    <v>       0.19107487       0.25193827       0.89164179 </v>
    <v>       0.23008734       0.00384302       0.87074627 </v>
    <v>       0.23153904       0.17127531       0.87522388 </v>
    <v>       0.27291551       0.91925062       0.86059701 </v>
    <v>       0.27476649       0.25457037       0.86686567 </v>
    <v>       0.31469982       0.00347958       0.84805970 </v>
    <v>       0.31580642       0.17240494       0.85223881 </v>
    <v>       0.35874153       0.92137407       0.84029851 </v>
    <v>       0.36023173       0.25175309       0.84597015 </v>
    <v>       0.40116221       0.00137826       0.82865672 </v>
    <v>       0.40139037       0.17091235       0.83164179 </v>
    <v>       0.44556863       0.91656049       0.82268657 </v>
    <v>       0.44613904       0.25254074       0.82686567 </v>
    <v>       0.48987522       0.00181394       0.81641791 </v>
    <v>       0.48990374       0.16996049       0.81820896 </v>
    <v>       0.53442424       0.92017160       0.81611940 </v>
    <v>       0.53501248       0.25069259       0.81910448 </v>
    <v>       0.57967558       0.00363340       0.81701493 </v>
    <v>       0.57944029       0.17107901       0.81910448 </v>
    <v>       0.62399287       0.92119753       0.82507463 </v>
    <v>       0.62329055       0.25199383       0.82716418 </v>
    <v>       0.66761497       0.00172700       0.82955224 </v>
    <v>       0.66789305       0.17161728       0.83104478 </v>
    <v>       0.71087344       0.91969506       0.84149254 </v>
    <v>       0.70963280       0.25455309       0.84477612 </v>
    <v>       0.75352585       0.00346668       0.85074627 </v>
    <v>       0.75286988       0.17435679       0.85313433 </v>
    <v>       0.79468449       0.91930617       0.86567164 </v>
    <v>       0.79456684       0.25500000       0.86776119 </v>
    <v>       0.83683066       0.00100091       0.87313433 </v>
    <v>       0.83643137       0.17248272       0.87462687 </v>
   </varray>
  </structure>
  <varray name="primitive_index" >
   <v type="int" >        1 </v>
   <v type="int" >        2 </v>
   <v type="int" >        3 </v>
   <v type="int" >        4 </v>
   <v type="int" >        5 </v>
   <v type="int" >        6 </v>
   <v type="int" >        7 </v>
   <v type="int" >        8 </v>
   <v type="int" >        9 </v>
   <v type="int" >       10 </v>
   <v type="int" >       11 </v>
   <v type="int" >       12 </v>
   <v type="int" >       13 </v>
   <v type="int" >       14 </v>
   <v type="int" >       15 </v>
   <v type="int" >       16 </v>
   <v type="int" >       17 </v>
   <v type="int" >       18 </v>
   <v type="int" >       19 </v>
   <v type="int" >       20 </v>
   <v type="int" >       21 </v>
   <v type="int" >       22 </v>
   <v type="int" >       23 </v>
   <v type="int" >       24 </v>
   <v type="int" >       25 </v>
   <v type="int" >       26 </v>
   <v type="int" >       27 </v>
   <v type="int" >       28 </v>
   <v type="int" >       29 </v>
   <v type="int" >       30 </v>
   <v type="int" >       31 </v>
   <v type="int" >       32 </v>
   <v type="int" >       33 </v>
   <v type="int" >       34 </v>
   <v type="int" >       35 </v>
   <v type="int" >       36 </v>
   <v type="int" >       37 </v>
   <v type="int" >       38 </v>
   <v type="int" >       39 </v>
   <v type="int" >       40 </v>
   <v type="int" >       41 </v>
   <v type="int" >       42 </v>
   <v type="int" >       43 </v>
   <v type="int" >       44 </v>
   <v type="int" >       45 </v>
   <v type="int" >       46 </v>
   <v type="int" >       47 </v>
   <v type="int" >       48 </v>
   <v type="int" >       49 </v>
   <v type="int" >       50 </v>
   <v type="int" >       51 </v>
   <v type="int" >       52 </v>
   <v type="int" >       53 </v>
   <v type="int" >       54 </v>
   <v type="int" >       55 </v>
   <v type="int" >       56 </v>
   <v type="int" >       57 </v>
   <v type="int" >       58 </v>
   <v type="int" >       59 </v>
   <v type="int" >       60 </v>
   <v type="int" >       61 </v>
   <v type="int" >       62 </v>
   <v type="int" >       63 </v>
   <v type="int" >       64 </v>
   <v type="int" >       65 </v>
   <v type="int" >       66 </v>
   <v type="int" >       67 </v>
   <v type="int" >       68 </v>
   <v type="int" >       69 </v>
   <v type="int" >       70 </v>
   <v type="int" >       71 </v>
   <v type="int" >       72 </v>
   <v type="int" >       73 </v>
   <v type="int" >       74 </v>
   <v type="int" >       75 </v>
   <v type="int" >       76 </v>
   <v type="int" >       77 </v>
   <v type="int" >       78 </v>
   <v type="int" >       79 </v>
   <v type="int" >       80 </v>
   <v type="int" >       81 </v>
   <v type="int" >       82 </v>
   <v type="int" >       83 </v>
   <v type="int" >       84 </v>
   <v type="int" >       85 </v>
   <v type="int" >       86 </v>
   <v type="int" >       87 </v>
   <v type="int" >       88 </v>
   <v type="int" >       89 </v>
   <v type="int" >       90 </v>
   <v type="int" >       91 </v>
   <v type="int" >       92 </v>
  </varray>
 </primitive_cell>
 <kpoints>
  <generation param="Gamma">
   <v type="int" name="divisions">       1        4        1 </v>
   <v name="usershift">      0.00000000       0.00000000       0.00000000 </v>
   <v name="genvec1">      1.00000000       0.00000000       0.00000000 </v>
   <v name="genvec2">      0.00000000       0.25000000       0.00000000 </v>
   <v name="genvec3">      0.00000000       0.00000000       1.00000000 </v>
   <v name="shift">      0.00000000       0.00000000       0.00000000 </v>
  </generation>
  <varray name="kpointlist" >
   <v>       0.00000000       0.00000000       0.00000000 </v>
   <v>       0.00000000       0.25000000       0.00000000 </v>
   <v>       0.00000000       0.50000000       0.00000000 </v>
  </varray>
  <varray name="weights" >
   <v>       0.25000000 </v>
   <v>       0.50000000 </v>
   <v>       0.25000000 </v>
  </varray>
 </kpoints>
 <parameters>
  <separator name="general" >
   <i type="string" name="SYSTEM">unknown system</i>
   <i type="logical" name="LCOMPAT"> F  </i>
  </separator>
  <separator name="electronic" >
   <i type="string" name="PREC">accura</i>
   <i name="ENMAX">    500.00000000</i>
   <i name="ENAUG">    644.87300000</i>
   <i name="EDIFF">      0.00000100</i>
   <i type="int" name="IALGO">    38</i>
   <i type="int" name="IWAVPR">    10</i>
   <i type="int" name="NBANDS">   232</i>
   <i type="int" name="NBANDSLOW">    -1</i>
   <i type="int" name="NBANDSHIGH">    -1</i>
   <i name="NELECT">    368.00000000</i>
   <i type="int" name="TURBO">     0</i>
   <i type="int" name="IRESTART">     0</i>
   <i type="int" name="NREBOOT">     0</i>
   <i type="int" name="NMIN">     0</i>
   <i name="EREF">      0.00000000</i>
   <separator name="electronic smearing" >
    <i type="int" name="ISMEAR">     0</i>
    <i name="SIGMA">      0.20000000</i>
    <i name="KSPACING">      0.50000000</i>
    <i type="logical" name="KGAMMA"> T  </i>
    <i type="logical" name="KBLOWUP"> T  </i>
   </separator>
   <separator name="electronic projectors" >
    <i type="logical" name="LREAL"> T  </i>
    <v name="ROPT">     -0.00025000</v>
    <i type="int" name="LMAXPAW">  -100</i>
    <i type="int" name="LMAXMIX">     2</i>
    <i type="logical" name="NLSPLINE"> F  </i>
   </separator>
   <separator name="electronic startup" >
    <i type="int" name="ISTART">     0</i>
    <i type="int" name="ICHARG">     2</i>
    <i type="int" name="INIWAV">     1</i>
   </separator>
   <separator name="electronic spin" >
    <i type="int" name="ISPIN">     1</i>
    <i type="logical" name="LNONCOLLINEAR"> F  </i>
    <v name="MAGMOM">      1.00000000      1.00000000      1.00000000      1.00000000      1.00000000      1.00000000      1.00000000      1.00000000      1.00000000      1.00000000      1.00000000      1.00000000      1.00000000      1.00000000      1.00000000      1.00000000      1.00000000      1.00000000      1.00000000      1.00000000
      1.00000000      1.00000000      1.00000000      1.00000000      1.00000000      1.00000000      1.00000000      1.00000000      1.00000000      1.00000000      1.00000000      1.00000000      1.00000000      1.00000000      1.00000000      1.00000000      1.00000000      1.00000000      1.00000000      1.00000000
      1.00000000      1.00000000      1.00000000      1.00000000      1.00000000      1.00000000      1.00000000      1.00000000      1.00000000      1.00000000      1.00000000      1.00000000      1.00000000      1.00000000      1.00000000      1.00000000      1.00000000      1.00000000      1.00000000      1.00000000
      1.00000000      1.00000000      1.00000000      1.00000000      1.00000000      1.00000000      1.00000000      1.00000000      1.00000000      1.00000000      1.00000000      1.00000000      1.00000000      1.00000000      1.00000000      1.00000000      1.00000000      1.00000000      1.00000000      1.00000000
      1.00000000      1.00000000      1.00000000      1.00000000      1.00000000      1.00000000      1.00000000      1.00000000      1.00000000      1.00000000      1.00000000      1.00000000</v>
    <i name="NUPDOWN">     -1.00000000</i>
    <i type="logical" name="LSORBIT"> F  </i>
    <v name="SAXIS">      0.00000000      0.00000000      1.00000000</v>
    <i type="logical" name="LSPIRAL"> F  </i>
    <v name="QSPIRAL">      0.00000000      0.00000000      0.00000000</v>
    <i type="logical" name="LZEROZ"> F  </i>
   </separator>
   <separator name="electronic exchange-correlation" >
    <i type="logical" name="LASPH"> F  </i>
   </separator>
   <separator name="electronic convergence" >
    <i type="int" name="NELM">   150</i>
    <i type="int" name="NELMDL">    -5</i>
    <i type="int" name="NELMIN">     2</i>
    <i name="ENINI">    500.00000000</i>
    <separator name="electronic convergence detail" >
     <i type="logical" name="LDIAG"> T  </i>
     <i type="logical" name="LSUBROT"> F  </i>
     <i name="WEIMIN">      0.00000000</i>
     <i name="EBREAK">      0.00000000</i>
     <i name="DEPER">      0.30000000</i>
     <i type="int" name="NRMM">     4</i>
     <i name="TIME">      0.40000000</i>
    </separator>
   </separator>
   <separator name="electronic mixer" >
    <i name="AMIX">      0.40000000</i>
    <i name="BMIX">      1.00000000</i>
    <i name="AMIN">      0.10000000</i>
    <i name="AMIX_MAG">      1.60000000</i>
    <i name="BMIX_MAG">      1.00000000</i>
    <separator name="electronic mixer details" >
     <i type="int" name="IMIX">     4</i>
     <i type="logical" name="MIXFIRST"> F  </i>
     <i type="int" name="MAXMIX">   -45</i>
     <i name="WC">    100.00000000</i>
     <i type="int" name="INIMIX">     1</i>
     <i type="int" name="MIXPRE">     1</i>
     <i type="int" name="MREMOVE">     5</i>
    </separator>
   </separator>
   <separator name="electronic dipolcorrection" >
    <i type="logical" name="LDIPOL"> F  </i>
    <i type="logical" name="LMONO"> F  </i>
    <i type="int" name="IDIPOL">     0</i>
    <i name="EPSILON">      1.00000000</i>
    <v name="DIPOL">   -100.00000000   -100.00000000   -100.00000000</v>
    <i name="EFIELD">      0.00000000</i>
    <i type="logical" name="LVACPOTAV"> F  </i>
   </separator>
  </separator>
  <separator name="grids" >
   <i type="int" name="NGX">   210</i>
   <i type="int" name="NGY">    60</i>
   <i type="int" name="NGZ">   250</i>
   <i type="int" name="NGXF">   420</i>
   <i type="int" name="NGYF">   120</i>
   <i type="int" name="NGZF">   500</i>
   <i type="logical" name="ADDGRID"> F  </i>
  </separator>
  <separator name="ionic" >
   <i type="int" name="NSW">     0</i>
   <i type="int" name="IBRION">    -1</i>
   <i type="int" name="MDALGO">     0</i>
   <i type="int" name="ISIF">     2</i>
   <i name="PSTRESS">      0.00000000</i>
   <i name="EDIFFG">      0.00001000</i>
   <i type="int" name="NFREE">     0</i>
   <i name="POTIM">      0.50000000</i>
   <i name="SMASS">     -3.00000000</i>
   <i name="SCALEE">      1.00000000</i>
  </separator>
  <separator name="ionic md" >
   <i name="TEBEG">      0.00010000</i>
   <i name="TEEND">      0.00010000</i>
   <i type="int" name="NBLOCK">     1</i>
   <i type="int" name="KBLOCK">     1</i>
   <i type="int" name="NPACO">   256</i>
   <i name="APACO">     10.00000000</i>
  </separator>
  <separator name="symmetry" >
   <i type="int" name="ISYM">     2</i>
   <i name="SYMPREC">      0.00001000</i>
  </separator>
  <separator name="dos" >
   <i type="int" name="LORBIT">     0</i>
   <v name="RWIGS">     -1.00000000</v>
   <i type="int" name="NEDOS">   301</i>
   <i name="EMIN">     10.00000000</i>
   <i name="EMAX">    -10.00000000</i>
   <i name="EFERMI">      0.00000000</i>
  </separator>
  <separator name="writing" >
   <i type="int" name="NWRITE">     2</i>
   <i type="logical" name="LWAVE"> F  </i>
   <i type="logical" name="LDOWNSAMPLE"> F  </i>
   <i type="logical" name="LCHARG"> F  </i>
   <i type="logical" name="LPARD"> F  </i>
   <i type="logical" name="LVTOT"> F  </i>
   <i type="logical" name="LVHAR"> F  </i>
   <i type="logical" name="LELF"> F  </i>
   <i type="logical" name="LOPTICS"> F  </i>
   <v name="STM">      0.00000000      0.00000000      0.00000000      0.00000000      0.00000000      0.00000000      0.00000000</v>
  </separator>
  <separator name="performance" >
   <i type="int" name="NPAR">     2</i>
   <i type="int" name="NSIM">     4</i>
   <i type="int" name="NBLK">    -1</i>
   <i type="logical" name="LPLANE"> T  </i>
   <i type="logical" name="LSCALAPACK"> T  </i>
   <i type="logical" name="LSCAAWARE"> F  </i>
   <i type="logical" name="LSCALU"> F  </i>
   <i type="logical" name="LASYNC"> F  </i>
   <i type="logical" name="LORBITALREAL"> F  </i>
  </separator>
  <separator name="miscellaneous" >
   <i type="int" name="IDIOT">     3</i>
   <i type="int" name="PHON_NSTRUCT">    -1</i>
   <i type="logical" name="LMUSIC"> F  </i>
   <v name="POMASS">     12.01100000</v>
   <v name="DARWINR">      0.00000000</v>
   <v name="DARWINV">      1.00000000</v>
   <i type="logical" name="LCORR"> T  </i>
  </separator>
  <i type="logical" name="GGA_COMPAT"> T  </i>
  <i type="logical" name="LBERRY"> F  </i>
  <i type="int" name="ICORELEVEL">     0</i>
  <i type="logical" name="LDAU"> F  </i>
  <i type="int" name="I_CONSTRAINED_M">     0</i>
  <separator name="electronic exchange-correlation" >
   <i type="string" name="GGA    ">PE</i>
   <i type="string" name="XC_C">1</i>
   <i type="int" name="VOSKOWN">     0</i>
   <i type="logical" name="LHFCALC"> F  </i>
   <i type="string" name="PRECFOCK"></i>
   <i type="logical" name="LSYMGRAD"> F  </i>
   <i type="logical" name="LHFONE"> F  </i>
   <i type="logical" name="LRHFCALC"> F  </i>
   <i type="logical" name="LTHOMAS"> F  </i>
   <i type="logical" name="LMODELHF"> F  </i>
   <i type="logical" name="LFOCKACE"> F  </i>
   <i name="ENCUT4O">     -1.00000000</i>
   <i type="int" name="EXXOEP">     0</i>
   <i type="int" name="FOURORBIT">     0</i>
   <i name="AEXX">      0.00000000</i>
   <i name="HFALPHA">      0.00000000</i>
   <i name="MCALPHA">      0.00000000</i>
   <i name="ALDAX">      1.00000000</i>
   <i name="AGGAX">      1.00000000</i>
   <i name="AMGGAX">      1.00000000</i>
   <i name="ALDAC">      1.00000000</i>
   <i name="AGGAC">      1.00000000</i>
   <i name="AMGGAC">      1.00000000</i>
   <i type="int" name="NKREDX">     1</i>
   <i type="int" name="NKREDY">     1</i>
   <i type="int" name="NKREDZ">     1</i>
   <i type="logical" name="SHIFTRED"> F  </i>
   <i type="logical" name="ODDONLY"> F  </i>
   <i type="logical" name="EVENONLY"> F  </i>
   <i type="int" name="LMAXFOCK">     0</i>
   <i type="int" name="NMAXFOCKAE">     0</i>
   <i type="logical" name="LFOCKAEDFT"> F  </i>
   <i name="HFSCREEN">      0.00000000</i>
   <i name="HFSCREENC">      0.00000000</i>
   <i type="int" name="NBANDSGWLOW">     0</i>
  </separator>
  <separator name="vdW DFT" >
   <i type="logical" name="LUSE_VDW"> F  </i>
   <i type="int" name="IVDW_NL">    -1</i>
   <i type="logical" name="LSPIN_VDW"> F  </i>
   <i name="ZAB_VDW">     -0.84910000</i>
   <i name="GAMMA_VDW">      1.39626340</i>
   <i name="ALPHA_VDW">      0.00000000</i>
   <i name="PARAM1">      0.12340000</i>
   <i name="PARAM2">      1.00000000</i>
   <i name="BPARAM">      6.30000000</i>
   <i name="CPARAM">      0.00930000</i>
  </separator>
  <separator name="model GW" >
   <i type="int" name="MODEL_GW">     0</i>
   <i name="MODEL_EPS0">     49.63935326</i>
   <i name="MODEL_ALPHA">      1.00000000</i>
  </separator>
  <separator name="linear response parameters" >
   <i type="logical" name="LEPSILON"> F  </i>
   <i type="logical" name="LRPA"> F  </i>
   <i type="logical" name="LNABLA"> F  </i>
   <i type="logical" name="LVEL"> F  </i>
   <i name="CSHIFT">      0.10000000</i>
   <i name="OMEGAMAX">     -1.00000000</i>
   <i name="DEG_THRESHOLD">      0.00200000</i>
   <i name="RTIME">     -0.10000000</i>
   <i name="WPLASMAI">      0.00000000</i>
   <v name="DFIELD">      0.00000000      0.00000000      0.00000000</v>
   <v name="WPLASMA">      0.00000000      0.00000000      0.00000000      0.00000000      0.00000000      0.00000000      0.00000000      0.00000000      0.00000000</v>
  </separator>
  <separator name="orbital magnetization" >
   <i type="logical" name="NUCIND"> F  </i>
   <v name="MAGPOS">      0.00000000      0.00000000      0.00000000</v>
   <i type="logical" name="LNICSALL"> T  </i>
   <i type="logical" name="ORBITALMAG"> F  </i>
   <i type="logical" name="LMAGBLOCH"> F  </i>
   <i type="logical" name="LCHIMAG"> F  </i>
   <i type="logical" name="LGAUGE"> T  </i>
   <i type="int" name="MAGATOM">     0</i>
   <v name="MAGDIPOL">      0.00000000      0.00000000      0.00000000</v>
   <v name="AVECCONST">      0.00000000      0.00000000      0.00000000</v>
  </separator>
  <separator name="response functions" >
   <i type="logical" name="LALL_IN_ONE"> F  </i>
   <i type="int" name="IALL_IN_ONE">    -1</i>
   <i type="int" name="NBANDS_WAVE">    -1</i>
   <i type="logical" name="LFINITE_TEMPERATURE"> F  </i>
   <i type="logical" name="LADDER"> F  </i>
   <i type="logical" name="LRPAFORCE"> F  </i>
   <i type="logical" name="LFXC"> F  </i>
   <i type="logical" name="LHARTREE"> T  </i>
   <i type="int" name="IBSE">     2</i>
   <v type="int" name="KPOINT">    -1     0     0     0</v>
   <i type="logical" name="LTCTC"> F  </i>
   <i type="logical" name="LTCTE"> F  </i>
   <i type="logical" name="LTETE"> F  </i>
   <i type="logical" name="LTRIPLET"> F  </i>
   <i type="logical" name="LFXCEPS"> F  </i>
   <i type="logical" name="LFXHEG"> F  </i>
   <i type="int" name="NATURALO">     2</i>
   <i type="logical" name="LHOLEGF"> F  </i>
   <i type="logical" name="L2ORDER"> F  </i>
   <i type="logical" name="LDMP1"> F  </i>
   <i type="logical" name="LMP2LT"> F  </i>
   <i type="logical" name="LSMP2LT"> F  </i>
   <i type="logical" name="LGWLF"> F  </i>
   <i name="ENCUTGW">     -1.60000002</i>
   <i name="ENCUTGWSOFT">     -1.60000002</i>
   <i name="ENCUTLF">     -1.00000000</i>
   <i type="logical" name="ESF_SPLINES"> F  </i>
   <i name="ESF_CONV">      0.01000000</i>
   <i type="int" name="ESF_NINTER">    15</i>
   <i type="int" name="LMAXMP2">    -1</i>
   <i name="SCISSOR">      0.00000000</i>
   <i type="int" name="NOMEGA">     0</i>
   <i type="int" name="NOMEGAR">     0</i>
   <i type="int" name="NBANDSGW">    -1</i>
   <i type="int" name="NBANDSO">    -1</i>
   <i type="int" name="NBANDSV">    -1</i>
   <i type="int" name="NELMGW">     1</i>
   <i type="int" name="NELMHF">     1</i>
   <i type="int" name="DIM">     3</i>
   <i type="int" name="IESPILON">     4</i>
   <i type="int" name="ANTIRES">     0</i>
   <i name="OMEGAMAX">    -30.00000000</i>
   <i name="OMEGAMIN">    -30.00000000</i>
   <i name="OMEGATL">   -200.00000000</i>
   <i type="int" name="OMEGAGRID">     0</i>
   <i name="CSHIFT">     -0.10000000</i>
   <i type="logical" name="LSELFENERGY"> F  </i>
   <i type="logical" name="LSPECTRAL"> F  </i>
   <i type="logical" name="LSPECTRALGW"> F  </i>
   <i type="logical" name="LSINGLES"> F  </i>
   <i type="logical" name="LFERMIGW"> F  </i>
   <i type="logical" name="ODDONLYGW"> F  </i>
   <i type="logical" name="EVENONLYGW"> F  </i>
   <i type="int" name="NKREDLFX">     1</i>
   <i type="int" name="NKREDLFY">     1</i>
   <i type="int" name="NKREDLFZ">     1</i>
   <i type="int" name="MAXMEM">  2800</i>
   <i type="int" name="TELESCOPE">     0</i>
   <i type="int" name="NTAUPAR">    -1</i>
   <i type="int" name="NOMEGAPAR">    -1</i>
   <i name="DAMP_NEWTON">      0.80000001</i>
   <i name="LAMBDA">      1.00000000</i>
  </separator>
  <separator name="External order field" >
   <i name="OFIELD_KAPPA">      0.00000000</i>
   <v name="OFIELD_K">      0.00000000      0.00000000      0.00000000</v>
   <i name="OFIELD_Q6_NEAR">      0.00000000</i>
   <i name="OFIELD_Q6_FAR">      0.00000000</i>
   <i name="OFIELD_A">      0.00000000</i>
  </separator>
  <separator name="optional k-points parameters" >
   <i type="int" name="KPOINTS_OPT_MODE">     1</i>
   <i type="logical" name="LKPOINTS_OPT"> F  </i>
  </separator>
 </parameters>
 <atominfo>
  <atoms>      92 </atoms>
  <types>       1 </types>
  <array name="atoms" >
   <dimension dim="1">ion</dimension>
   <field type="string">element</field>
   <field type="int">atomtype</field>
   <set>
    <rc><c>C </c><c>   1</c></rc>
    <rc><c>C </c><c>   1</c></rc>
    <rc><c>C </c><c>   1</c></rc>
    <rc><c>C </c><c>   1</c></rc>
    <rc><c>C </c><c>   1</c></rc>
    <rc><c>C </c><c>   1</c></rc>
    <rc><c>C </c><c>   1</c></rc>
    <rc><c>C </c><c>   1</c></rc>
    <rc><c>C </c><c>   1</c></rc>
    <rc><c>C </c><c>   1</c></rc>
    <rc><c>C </c><c>   1</c></rc>
    <rc><c>C </c><c>   1</c></rc>
    <rc><c>C </c><c>   1</c></rc>
    <rc><c>C </c><c>   1</c></rc>
    <rc><c>C </c><c>   1</c></rc>
    <rc><c>C </c><c>   1</c></rc>
    <rc><c>C </c><c>   1</c></rc>
    <rc><c>C </c><c>   1</c></rc>
    <rc><c>C </c><c>   1</c></rc>
    <rc><c>C </c><c>   1</c></rc>
    <rc><c>C </c><c>   1</c></rc>
    <rc><c>C </c><c>   1</c></rc>
    <rc><c>C </c><c>   1</c></rc>
    <rc><c>C </c><c>   1</c></rc>
    <rc><c>C </c><c>   1</c></rc>
    <rc><c>C </c><c>   1</c></rc>
    <rc><c>C </c><c>   1</c></rc>
    <rc><c>C </c><c>   1</c></rc>
    <rc><c>C </c><c>   1</c></rc>
    <rc><c>C </c><c>   1</c></rc>
    <rc><c>C </c><c>   1</c></rc>
    <rc><c>C </c><c>   1</c></rc>
    <rc><c>C </c><c>   1</c></rc>
    <rc><c>C </c><c>   1</c></rc>
    <rc><c>C </c><c>   1</c></rc>
    <rc><c>C </c><c>   1</c></rc>
    <rc><c>C </c><c>   1</c></rc>
    <rc><c>C </c><c>   1</c></rc>
    <rc><c>C </c><c>   1</c></rc>
    <rc><c>C </c><c>   1</c></rc>
    <rc><c>C </c><c>   1</c></rc>
    <rc><c>C </c><c>   1</c></rc>
    <rc><c>C </c><c>   1</c></rc>
    <rc><c>C </c><c>   1</c></rc>
    <rc><c>C </c><c>   1</c></rc>
    <rc><c>C </c><c>   1</c></rc>
    <rc><c>C </c><c>   1</c></rc>
    <rc><c>C </c><c>   1</c></rc>
    <rc><c>C </c><c>   1</c></rc>
    <rc><c>C </c><c>   1</c></rc>
    <rc><c>C </c><c>   1</c></rc>
    <rc><c>C </c><c>   1</c></rc>
    <rc><c>C </c><c>   1</c></rc>
    <rc><c>C </c><c>   1</c></rc>
    <rc><c>C </c><c>   1</c></rc>
    <rc><c>C </c><c>   1</c></rc>
    <rc><c>C </c><c>   1</c></rc>
    <rc><c>C </c><c>   1</c></rc>
    <rc><c>C </c><c>   1</c></rc>
    <rc><c>C </c><c>   1</c></rc>
    <rc><c>C </c><c>   1</c></rc>
    <rc><c>C </c><c>   1</c></rc>
    <rc><c>C </c><c>   1</c></rc>
    <rc><c>C </c><c>   1</c></rc>
    <rc><c>C </c><c>   1</c></rc>
    <rc><c>C </c><c>   1</c></rc>
    <rc><c>C </c><c>   1</c></rc>
    <rc><c>C </c><c>   1</c></rc>
    <rc><c>C </c><c>   1</c></rc>
    <rc><c>C </c><c>   1</c></rc>
    <rc><c>C </c><c>   1</c></rc>
    <rc><c>C </c><c>   1</c></rc>
    <rc><c>C </c><c>   1</c></rc>
    <rc><c>C </c><c>   1</c></rc>
    <rc><c>C </c><c>   1</c></rc>
    <rc><c>C </c><c>   1</c></rc>
    <rc><c>C </c><c>   1</c></rc>
    <rc><c>C </c><c>   1</c></rc>
    <rc><c>C </c><c>   1</c></rc>
    <rc><c>C </c><c>   1</c></rc>
    <rc><c>C </c><c>   1</c></rc>
    <rc><c>C </c><c>   1</c></rc>
    <rc><c>C </c><c>   1</c></rc>
    <rc><c>C </c><c>   1</c></rc>
    <rc><c>C </c><c>   1</c></rc>
    <rc><c>C </c><c>   1</c></rc>
    <rc><c>C </c><c>   1</c></rc>
    <rc><c>C </c><c>   1</c></rc>
    <rc><c>C </c><c>   1</c></rc>
    <rc><c>C </c><c>   1</c></rc>
    <rc><c>C </c><c>   1</c></rc>
    <rc><c>C </c><c>   1</c></rc>
   </set>
  </array>
  <array name="atomtypes" >
   <dimension dim="1">type</dimension>
   <field type="int">atomspertype</field>
   <field type="string">element</field>
   <field>mass</field>
   <field>valence</field>
   <field type="string">pseudopotential</field>
   <set>
    <rc><c>  92</c><c>C </c><c>     12.01100000</c><c>      4.00000000</c><c>  PAW_PBE C 08Apr2002                   </c></rc>
   </set>
  </array>
 </atominfo>
 <structure name="initialpos" >
  <crystal>
   <varray name="basis" >
    <v>      28.05000000       0.00000000       0.00000000 </v>
    <v>       0.00000000       8.10000000       0.00000000 </v>
    <v>       0.00000000       0.00000000      33.50000000 </v>
   </varray>
   <i name="volume">   7611.36750000 </i>
   <varray name="rec_basis" >
    <v>       0.03565062       0.00000000       0.00000000 </v>
    <v>       0.00000000       0.12345679       0.00000000 </v>
    <v>       0.00000000       0.00000000       0.02985075 </v>
   </varray>
  </crystal>
  <varray name="positions" >
   <v>       0.88168271       0.50264198      -0.09462687 </v>
   <v>       0.88222816       0.67432099      -0.09671642 </v>
   <v>       0.92490553       0.41790370      -0.08835821 </v>
   <v>       0.92588235       0.75189753      -0.09313433 </v>
   <v>       0.96947237       0.50030741      -0.08208955 </v>
   <v>       0.96965419       0.66992840      -0.08477612 </v>
   <v>       0.01387708       0.41811605      -0.08179104 </v>
   <v>       0.01460652       0.74982222      -0.08597015 </v>
   <v>       0.05966774       0.50249877      -0.08089552 </v>
   <v>       0.05968520       0.66943210      -0.08417910 </v>
   <v>       0.10430945       0.42028765      -0.08567164 </v>
   <v>       0.10442888       0.75293210      -0.09194030 </v>
   <v>       0.14905241       0.50150370      -0.09253731 </v>
   <v>       0.14809911       0.66930617      -0.09611940 </v>
   <v>       0.19209091       0.42095802      -0.10328358 </v>
   <v>       0.19096756       0.75507531      -0.10985075 </v>
   <v>       0.23454688       0.50282840      -0.11313433 </v>
   <v>       0.23355686       0.67033210      -0.11701493 </v>
   <v>       0.27653904       0.42071605      -0.12626866 </v>
   <v>       0.27496257       0.75315679      -0.13134328 </v>
   <v>       0.31992406       0.50268395      -0.13582090 </v>
   <v>       0.31820749       0.67066667      -0.13910448 </v>
   <v>       0.36169340       0.42033580      -0.14865672 </v>
   <v>       0.35975758       0.75285556      -0.15343284 </v>
   <v>       0.40412834       0.50179383      -0.15791045 </v>
   <v>       0.40365062       0.67003951      -0.15970149 </v>
   <v>       0.44721212       0.41896914      -0.16716418 </v>
   <v>       0.44605704       0.75183333      -0.17074627 </v>
   <v>       0.49115508       0.50085926      -0.17044776 </v>
   <v>       0.49009626       0.66873704      -0.17373134 </v>
   <v>       0.53522995       0.41719259      -0.17402985 </v>
   <v>       0.53506595       0.75280247      -0.17820896 </v>
   <v>       0.57808200       0.50139877      -0.16895522 </v>
   <v>       0.57863102       0.67073951      -0.17164179 </v>
   <v>       0.62213547       0.41805432      -0.16656716 </v>
   <v>       0.62278431       0.75112099      -0.16865672 </v>
   <v>       0.66420677       0.50039383      -0.15582090 </v>
   <v>       0.66534759       0.66805926      -0.15791045 </v>
   <v>       0.70697683       0.41924568      -0.14656716 </v>
   <v>       0.70894118       0.75270370      -0.15074627 </v>
   <v>       0.74827451       0.50097654      -0.13253731 </v>
   <v>       0.74941176       0.67246914      -0.13402985 </v>
   <v>       0.79262389       0.42049136      -0.12328358 </v>
   <v>       0.79213191       0.75444815      -0.12597015 </v>
   <v>       0.83166488       0.50335679      -0.10776119 </v>
   <v>       0.83151872       0.67679877      -0.10865672 </v>
   <v>       0.88630303       0.00036041      -0.11343284 </v>
   <v>       0.88583601       0.17263951      -0.11223881 </v>
   <v>       0.92752585       0.91977037      -0.10089552 </v>
   <v>       0.92625312       0.25409136      -0.09791045 </v>
   <v>       0.97132620       0.00295331      -0.09582090 </v>
   <v>       0.97084848       0.17206049      -0.09373134 </v>
   <v>       0.01502674       0.91813457      -0.09253731 </v>
   <v>       0.01439230       0.25086296      -0.08716418 </v>
   <v>       0.05904742       0.00188184      -0.09462687 </v>
   <v>       0.05984670       0.16990988      -0.08985075 </v>
   <v>       0.10338610       0.91932963      -0.09850746 </v>
   <v>       0.10452870       0.25189630      -0.09104478 </v>
   <v>       0.14555401       0.00371683      -0.10686567 </v>
   <v>       0.14674225       0.17216296      -0.10238806 </v>
   <v>       0.18871907       0.92027654      -0.11611940 </v>
   <v>       0.19107487       0.25193827      -0.10835821 </v>
   <v>       0.23008734       0.00384302      -0.12925373 </v>
   <v>       0.23153904       0.17127531      -0.12477612 </v>
   <v>       0.27291551       0.91925062      -0.13940299 </v>
   <v>       0.27476649       0.25457037      -0.13313433 </v>
   <v>       0.31469982       0.00347958      -0.15194030 </v>
   <v>       0.31580642       0.17240494      -0.14776119 </v>
   <v>       0.35874153       0.92137407      -0.15970149 </v>
   <v>       0.36023173       0.25175309      -0.15402985 </v>
   <v>       0.40116221       0.00137826      -0.17134328 </v>
   <v>       0.40139037       0.17091235      -0.16835821 </v>
   <v>       0.44556863       0.91656049      -0.17731343 </v>
   <v>       0.44613904       0.25254074      -0.17313433 </v>
   <v>       0.48987522       0.00181394      -0.18358209 </v>
   <v>       0.48990374       0.16996049      -0.18179104 </v>
   <v>       0.53442424       0.92017160      -0.18388060 </v>
   <v>       0.53501248       0.25069259      -0.18089552 </v>
   <v>       0.57967558       0.00363340      -0.18298507 </v>
   <v>       0.57944029       0.17107901      -0.18089552 </v>
   <v>       0.62399287       0.92119753      -0.17492537 </v>
   <v>       0.62329055       0.25199383      -0.17283582 </v>
   <v>       0.66761497       0.00172700      -0.17044776 </v>
   <v>       0.66789305       0.17161728      -0.16895522 </v>
   <v>       0.71087344       0.91969506      -0.15850746 </v>
   <v>       0.70963280       0.25455309      -0.15522388 </v>
   <v>       0.75352585       0.00346668      -0.14925373 </v>
   <v>       0.75286988       0.17435679      -0.14686567 </v>
   <v>       0.79468449       0.91930617      -0.13432836 </v>
   <v>       0.79456684       0.25500000      -0.13223881 </v>
   <v>       0.83683066       0.00100091      -0.12686567 </v>
   <v>       0.83643137       0.17248272      -0.12537313 </v>
  </varray>
 </structure>
 <calculation>
  <scstep>
   <time name="dav">   11.04   11.04</time>
   <time name="total">   11.50   11.53</time>
   <energy>
    <i name="alphaZ">     91.34886789 </i>
    <i name="ewald"> 119857.72282490 </i>
    <i name="hartreedc">-129173.07264339 </i>
    <i name="XCdc">   1222.17714331 </i>
    <i name="pawpsdc">   9984.02826696 </i>
    <i name="pawaedc"> -10036.41360137 </i>
    <i name="eentropy">     -0.83275887 </i>
    <i name="bandstr">  -1834.86265494 </i>
    <i name="atom">  13537.65479391 </i>
    <i name="e_fr_energy">   3647.75023840 </i>
    <i name="e_wo_entrp">   3648.58299727 </i>
    <i name="e_0_energy">   3648.16661783 </i>
   </energy>
  </scstep>
  <scstep>
   <time name="dav">   13.10   13.10</time>
   <time name="total">   13.10   13.10</time>
   <energy>
    <i name="e_fr_energy">    169.33623453 </i>
    <i name="e_wo_entrp">    169.51250662 </i>
    <i name="e_0_energy">    169.42437058 </i>
   </energy>
  </scstep>
  <scstep>
   <time name="dav">   11.33   11.33</time>
   <time name="total">   11.33   11.33</time>
   <energy>
    <i name="e_fr_energy">   -840.12066478 </i>
    <i name="e_wo_entrp">   -840.09366950 </i>
    <i name="e_0_energy">   -840.10716714 </i>
   </energy>
  </scstep>
  <scstep>
   <time name="dav">   10.96   10.96</time>
   <time name="total">   10.96   10.96</time>
   <energy>
    <i name="e_fr_energy">   -900.16176003 </i>
    <i name="e_wo_entrp">   -900.10018514 </i>
    <i name="e_0_energy">   -900.13097258 </i>
   </energy>
  </scstep>
  <scstep>
   <time name="dav">   11.46   11.47</time>
   <time name="total">   12.95   12.95</time>
   <energy>
    <i name="e_fr_energy">   -901.62241270 </i>
    <i name="e_wo_entrp">   -901.55975352 </i>
    <i name="e_0_energy">   -901.59108311 </i>
   </energy>
  </scstep>
  <scstep>
   <time name="dav">   10.27   10.27</time>
   <time name="total">   12.07   12.08</time>
   <energy>
    <i name="e_fr_energy">   -851.83777098 </i>
    <i name="e_wo_entrp">   -851.76929638 </i>
    <i name="e_0_energy">   -851.80353368 </i>
   </energy>
  </scstep>
  <scstep>
   <time name="dav">   10.15   10.15</time>
   <time name="total">   11.95   11.95</time>
   <energy>
    <i name="e_fr_energy">   -833.18322412 </i>
    <i name="e_wo_entrp">   -833.10499817 </i>
    <i name="e_0_energy">   -833.14411114 </i>
   </energy>
  </scstep>
  <scstep>
   <time name="dav">   10.52   10.52</time>
   <time name="total">   12.32   12.32</time>
   <energy>
    <i name="e_fr_energy">   -832.87491838 </i>
    <i name="e_wo_entrp">   -832.80183004 </i>
    <i name="e_0_energy">   -832.83837421 </i>
   </energy>
  </scstep>
  <scstep>
   <time name="dav">   10.63   10.64</time>
   <time name="total">   12.43   12.44</time>
   <energy>
    <i name="e_fr_energy">   -832.77838162 </i>
    <i name="e_wo_entrp">   -832.70369699 </i>
    <i name="e_0_energy">   -832.74103930 </i>
   </energy>
  </scstep>
  <scstep>
   <time name="dav">   10.89   10.90</time>
   <time name="total">   12.70   12.71</time>
   <energy>
    <i name="e_fr_energy">   -832.73402878 </i>
    <i name="e_wo_entrp">   -832.65916967 </i>
    <i name="e_0_energy">   -832.69659922 </i>
   </energy>
  </scstep>
  <scstep>
   <time name="dav">    9.85    9.85</time>
   <time name="total">   11.67   11.68</time>
   <energy>
    <i name="e_fr_energy">   -832.70336969 </i>
    <i name="e_wo_entrp">   -832.62862892 </i>
    <i name="e_0_energy">   -832.66599930 </i>
   </energy>
  </scstep>
  <scstep>
   <time name="dav">    9.97    9.97</time>
   <time name="total">   11.79   11.80</time>
   <energy>
    <i name="e_fr_energy">   -832.70464181 </i>
    <i name="e_wo_entrp">   -832.62975511 </i>
    <i name="e_0_energy">   -832.66719846 </i>
   </energy>
  </scstep>
  <scstep>
   <time name="dav">    9.88    9.88</time>
   <time name="total">   11.71   11.72</time>
   <energy>
    <i name="e_fr_energy">   -832.71778022 </i>
    <i name="e_wo_entrp">   -832.64303295 </i>
    <i name="e_0_energy">   -832.68040659 </i>
   </energy>
  </scstep>
  <scstep>
   <time name="dav">   10.01   10.01</time>
   <time name="total">   11.85   11.85</time>
   <energy>
    <i name="e_fr_energy">   -832.73433310 </i>
    <i name="e_wo_entrp">   -832.65953878 </i>
    <i name="e_0_energy">   -832.69693594 </i>
   </energy>
  </scstep>
  <scstep>
   <time name="dav">   10.01   10.01</time>
   <time name="total">   11.86   11.86</time>
   <energy>
    <i name="e_fr_energy">   -832.75593211 </i>
    <i name="e_wo_entrp">   -832.68105339 </i>
    <i name="e_0_energy">   -832.71849275 </i>
   </energy>
  </scstep>
  <scstep>
   <time name="dav">   10.21   10.21</time>
   <time name="total">   12.08   12.08</time>
   <energy>
    <i name="e_fr_energy">   -832.76444265 </i>
    <i name="e_wo_entrp">   -832.68961128 </i>
    <i name="e_0_energy">   -832.72702696 </i>
   </energy>
  </scstep>
  <scstep>
   <time name="dav">   10.07   10.07</time>
   <time name="total">   11.94   11.94</time>
   <energy>
    <i name="e_fr_energy">   -832.76807641 </i>
    <i name="e_wo_entrp">   -832.69324888 </i>
    <i name="e_0_energy">   -832.73066265 </i>
   </energy>
  </scstep>
  <scstep>
   <time name="dav">    9.21    9.21</time>
   <time name="total">   11.08   11.09</time>
   <energy>
    <i name="e_fr_energy">   -832.77007951 </i>
    <i name="e_wo_entrp">   -832.69524255 </i>
    <i name="e_0_energy">   -832.73266103 </i>
   </energy>
  </scstep>
  <scstep>
   <time name="dav">    8.85    8.85</time>
   <time name="total">   10.73   10.75</time>
   <energy>
    <i name="e_fr_energy">   -832.77096897 </i>
    <i name="e_wo_entrp">   -832.69613502 </i>
    <i name="e_0_energy">   -832.73355199 </i>
   </energy>
  </scstep>
  <scstep>
   <time name="dav">    8.78    8.78</time>
   <time name="total">   10.68   10.69</time>
   <energy>
    <i name="e_fr_energy">   -832.77134823 </i>
    <i name="e_wo_entrp">   -832.69651236 </i>
    <i name="e_0_energy">   -832.73393030 </i>
   </energy>
  </scstep>
  <scstep>
   <time name="dav">    8.10    8.10</time>
   <time name="total">   10.02   10.03</time>
   <energy>
    <i name="e_fr_energy">   -832.77149466 </i>
    <i name="e_wo_entrp">   -832.69665959 </i>
    <i name="e_0_energy">   -832.73407713 </i>
   </energy>
  </scstep>
  <scstep>
   <time name="dav">    7.19    7.19</time>
   <time name="total">    9.12    9.12</time>
   <energy>
    <i name="e_fr_energy">   -832.77154118 </i>
    <i name="e_wo_entrp">   -832.69670558 </i>
    <i name="e_0_energy">   -832.73412338 </i>
   </energy>
  </scstep>
  <scstep>
   <time name="dav">    6.93    6.94</time>
   <time name="total">    8.87    8.88</time>
   <energy>
    <i name="e_fr_energy">   -832.77156414 </i>
    <i name="e_wo_entrp">   -832.69672834 </i>
    <i name="e_0_energy">   -832.73414624 </i>
   </energy>
  </scstep>
  <scstep>
   <time name="dav">    7.12    7.12</time>
   <time name="total">    9.07    9.08</time>
   <energy>
    <i name="e_fr_energy">   -832.77157142 </i>
    <i name="e_wo_entrp">   -832.69673601 </i>
    <i name="e_0_energy">   -832.73415372 </i>
   </energy>
  </scstep>
  <scstep>
   <time name="dav">    6.66    6.66</time>
   <time name="total">    8.64    8.64</time>
   <energy>
    <i name="e_fr_energy">   -832.77157634 </i>
    <i name="e_wo_entrp">   -832.69674088 </i>
    <i name="e_0_energy">   -832.73415861 </i>
   </energy>
  </scstep>
  <scstep>
   <time name="dav">    6.91    6.92</time>
   <time name="total">    8.91    8.91</time>
   <energy>
    <i name="e_fr_energy">   -832.77157815 </i>
    <i name="e_wo_entrp">   -832.69674268 </i>
    <i name="e_0_energy">   -832.73416042 </i>
   </energy>
  </scstep>
  <scstep>
   <time name="dav">    6.87    6.87</time>
   <time name="total">    8.88    8.88</time>
   <energy>
    <i name="e_fr_energy">   -832.77158032 </i>
    <i name="e_wo_entrp">   -832.69674482 </i>
    <i name="e_0_energy">   -832.73416257 </i>
   </energy>
  </scstep>
  <scstep>
   <time name="dav">    6.92    6.92</time>
   <time name="total">    7.28    7.28</time>
   <energy>
    <i name="alphaZ">     91.34886789 </i>
    <i name="ewald"> 119857.72282490 </i>
    <i name="hartreedc">-130944.82082006 </i>
    <i name="XCdc">   1279.81946657 </i>
    <i name="pawpsdc">  41314.68333070 </i>
    <i name="pawaedc"> -41378.81806254 </i>
    <i name="eentropy">     -0.07483552 </i>
    <i name="bandstr">  -4590.28714716 </i>
    <i name="atom">  13537.65479391 </i>
    <i name="e_fr_energy">   -832.77158132 </i>
    <i name="e_wo_entrp">   -832.69674580 </i>
    <i name="e_0_energy">   -832.73416356 </i>
   </energy>
  </scstep>
  <structure>
   <crystal>
    <varray name="basis" >
     <v>      28.05000000       0.00000000       0.00000000 </v>
     <v>       0.00000000       8.10000000       0.00000000 </v>
     <v>       0.00000000       0.00000000      33.50000000 </v>
    </varray>
    <i name="volume">   7611.36750000 </i>
    <varray name="rec_basis" >
     <v>       0.03565062       0.00000000       0.00000000 </v>
     <v>       0.00000000       0.12345679       0.00000000 </v>
     <v>       0.00000000       0.00000000       0.02985075 </v>
    </varray>
   </crystal>
   <varray name="positions" >
    <v>       0.88168271       0.50264198      -0.09462687 </v>
    <v>       0.88222816       0.67432099      -0.09671642 </v>
    <v>       0.92490553       0.41790370      -0.08835821 </v>
    <v>       0.92588235       0.75189753      -0.09313433 </v>
    <v>       0.96947237       0.50030741      -0.08208955 </v>
    <v>       0.96965419       0.66992840      -0.08477612 </v>
    <v>       0.01387708       0.41811605      -0.08179104 </v>
    <v>       0.01460652       0.74982222      -0.08597015 </v>
    <v>       0.05966774       0.50249877      -0.08089552 </v>
    <v>       0.05968520       0.66943210      -0.08417910 </v>
    <v>       0.10430945       0.42028765      -0.08567164 </v>
    <v>       0.10442888       0.75293210      -0.09194030 </v>
    <v>       0.14905241       0.50150370      -0.09253731 </v>
    <v>       0.14809911       0.66930617      -0.09611940 </v>
    <v>       0.19209091       0.42095802      -0.10328358 </v>
    <v>       0.19096756       0.75507531      -0.10985075 </v>
    <v>       0.23454688       0.50282840      -0.11313433 </v>
    <v>       0.23355686       0.67033210      -0.11701493 </v>
    <v>       0.27653904       0.42071605      -0.12626866 </v>
    <v>       0.27496257       0.75315679      -0.13134328 </v>
    <v>       0.31992406       0.50268395      -0.13582090 </v>
    <v>       0.31820749       0.67066667      -0.13910448 </v>
    <v>       0.36169340       0.42033580      -0.14865672 </v>
    <v>       0.35975758       0.75285556      -0.15343284 </v>
    <v>       0.40412834       0.50179383      -0.15791045 </v>
    <v>       0.40365062       0.67003951      -0.15970149 </v>
    <v>       0.44721212       0.41896914      -0.16716418 </v>
    <v>       0.44605704       0.75183333      -0.17074627 </v>
    <v>       0.49115508       0.50085926      -0.17044776 </v>
    <v>       0.49009626       0.66873704      -0.17373134 </v>
    <v>       0.53522995       0.41719259      -0.17402985 </v>
    <v>       0.53506595       0.75280247      -0.17820896 </v>
    <v>       0.57808200       0.50139877      -0.16895522 </v>
    <v>       0.57863102       0.67073951      -0.17164179 </v>
    <v>       0.62213547       0.41805432      -0.16656716 </v>
    <v>       0.62278431       0.75112099      -0.16865672 </v>
    <v>       0.66420677       0.50039383      -0.15582090 </v>
    <v>       0.66534759       0.66805926      -0.15791045 </v>
    <v>       0.70697683       0.41924568      -0.14656716 </v>
    <v>       0.70894118       0.75270370      -0.15074627 </v>
    <v>       0.74827451       0.50097654      -0.13253731 </v>
    <v>       0.74941176       0.67246914      -0.13402985 </v>
    <v>       0.79262389       0.42049136      -0.12328358 </v>
    <v>       0.79213191       0.75444815      -0.12597015 </v>
    <v>       0.83166488       0.50335679      -0.10776119 </v>
    <v>       0.83151872       0.67679877      -0.10865672 </v>
    <v>       0.88630303       0.00036041      -0.11343284 </v>
    <v>       0.88583601       0.17263951      -0.11223881 </v>
    <v>       0.92752585       0.91977037      -0.10089552 </v>
    <v>       0.92625312       0.25409136      -0.09791045 </v>
    <v>       0.97132620       0.00295331      -0.09582090 </v>
    <v>       0.97084848       0.17206049      -0.09373134 </v>
    <v>       0.01502674       0.91813457      -0.09253731 </v>
    <v>       0.01439230       0.25086296      -0.08716418 </v>
    <v>       0.05904742       0.00188184      -0.09462687 </v>
    <v>       0.05984670       0.16990988      -0.08985075 </v>
    <v>       0.10338610       0.91932963      -0.09850746 </v>
    <v>       0.10452870       0.25189630      -0.09104478 </v>
    <v>       0.14555401       0.00371683      -0.10686567 </v>
    <v>       0.14674225       0.17216296      -0.10238806 </v>
    <v>       0.18871907       0.92027654      -0.11611940 </v>
    <v>       0.19107487       0.25193827      -0.10835821 </v>
    <v>       0.23008734       0.00384302      -0.12925373 </v>
    <v>       0.23153904       0.17127531      -0.12477612 </v>
    <v>       0.27291551       0.91925062      -0.13940299 </v>
    <v>       0.27476649       0.25457037      -0.13313433 </v>
    <v>       0.31469982       0.00347958      -0.15194030 </v>
    <v>       0.31580642       0.17240494      -0.14776119 </v>
    <v>       0.35874153       0.92137407      -0.15970149 </v>
    <v>       0.36023173       0.25175309      -0.15402985 </v>
    <v>       0.40116221       0.00137826      -0.17134328 </v>
    <v>       0.40139037       0.17091235      -0.16835821 </v>
    <v>       0.44556863       0.91656049      -0.17731343 </v>
    <v>       0.44613904       0.25254074      -0.17313433 </v>
    <v>       0.48987522       0.00181394      -0.18358209 </v>
    <v>       0.48990374       0.16996049      -0.18179104 </v>
    <v>       0.53442424       0.92017160      -0.18388060 </v>
    <v>       0.53501248       0.25069259      -0.18089552 </v>
    <v>       0.57967558       0.00363340      -0.18298507 </v>
    <v>       0.57944029       0.17107901      -0.18089552 </v>
    <v>       0.62399287       0.92119753      -0.17492537 </v>
    <v>       0.62329055       0.25199383      -0.17283582 </v>
    <v>       0.66761497       0.00172700      -0.17044776 </v>
    <v>       0.66789305       0.17161728      -0.16895522 </v>
    <v>       0.71087344       0.91969506      -0.15850746 </v>
    <v>       0.70963280       0.25455309      -0.15522388 </v>
    <v>       0.75352585       0.00346668      -0.14925373 </v>
    <v>       0.75286988       0.17435679      -0.14686567 </v>
    <v>       0.79468449       0.91930617      -0.13432836 </v>
    <v>       0.79456684       0.25500000      -0.13223881 </v>
    <v>       0.83683066       0.00100091      -0.12686567 </v>
    <v>       0.83643137       0.17248272      -0.12537313 </v>
   </varray>
  </structure>
  <varray name="forces" >
   <v>       1.83190702       0.44585248       0.65721755 </v>
   <v>       1.34472050      -0.98908825       0.70897275 </v>
   <v>      -0.77511572       1.20388475      -0.42472649 </v>
   <v>       0.02956553       0.54383556      -0.14985498 </v>
   <v>      -0.53377057      -0.03309907       0.01569462 </v>
   <v>      -0.06651031      -0.05963051       0.10126068 </v>
   <v>       1.20033010       0.92866710       0.36713872 </v>
   <v>       0.30420261       0.34132438      -0.28064468 </v>
   <v>      -0.35254118      -1.52181612      -0.10660925 </v>
   <v>       0.22359315       1.40085782      -0.10764294 </v>
   <v>       0.49157948       0.16717956      -0.07568892 </v>
   <v>      -0.99206401      -1.05340889       0.04431335 </v>
   <v>      -0.44946331      -0.34196122       0.11138082 </v>
   <v>       1.04525265       1.53253085      -0.44709432 </v>
   <v>      -0.22561444      -0.53132581       0.37408127 </v>
   <v>      -1.54857915      -1.74468565       0.66518853 </v>
   <v>       0.58182526      -0.45907298      -0.25753440 </v>
   <v>       0.69330928       1.20572376      -0.08313315 </v>
   <v>       0.37825359       0.40705250       0.27832175 </v>
   <v>      -0.15065203      -0.51608841      -0.24402517 </v>
   <v>      -0.45585663      -0.57490642      -0.08369509 </v>
   <v>       0.64820550       0.91250573      -0.15178831 </v>
   <v>      -0.36394199      -0.26798375       0.32408302 </v>
   <v>       0.09568493      -0.17728625       0.18334400 </v>
   <v>       0.53522038      -0.30709538       0.13131921 </v>
   <v>      -0.37868606       0.79159796      -0.08840710 </v>
   <v>      -0.22254739       0.35225756       0.23073925 </v>
   <v>       0.22631752      -1.03938511      -0.09199007 </v>
   <v>      -0.08137131      -0.34262124      -0.27133666 </v>
   <v>       1.17360652       0.87698944       0.22838430 </v>
   <v>      -0.78559593       0.60903544       0.25017420 </v>
   <v>      -1.04214514      -0.75232702       0.30354070 </v>
   <v>       0.60123967      -0.31872871      -0.46260824 </v>
   <v>      -0.17202519       0.17721359       0.08573390 </v>
   <v>      -0.31151367       0.65304118       0.48462452 </v>
   <v>       0.26808009       0.70076597      -0.15062496 </v>
   <v>       0.36722718      -0.35712582       0.15358107 </v>
   <v>      -0.08526605       1.49931508       0.11728748 </v>
   <v>       0.26826807       0.29418742      -0.08313994 </v>
   <v>      -0.26089993      -0.35196175       0.22957427 </v>
   <v>       0.83641557       0.60732704       0.23620714 </v>
   <v>      -0.87551988      -0.83009730      -0.52202846 </v>
   <v>      -0.87299223       0.42883673       0.16328235 </v>
   <v>       0.98388770      -0.40982807       0.86431493 </v>
   <v>      -1.59788216       0.70474291      -0.21153229 </v>
   <v>      -1.38488652      -1.20347337      -0.52178819 </v>
   <v>       2.04483863       0.67948714       0.50355291 </v>
   <v>       2.12324669      -0.44478038       0.64647498 </v>
   <v>      -0.65493900      -0.20348615      -0.35555722 </v>
   <v>      -0.25168554      -0.85874754      -0.15503873 </v>
   <v>      -0.26149002      -0.25170410      -0.27925822 </v>
   <v>      -0.55320637      -0.51588104      -0.27924580 </v>
   <v>       0.04746209       0.20680779       0.15273725 </v>
   <v>       1.22342447       0.02484587       0.12186221 </v>
   <v>       0.27632044      -0.46673351       0.14294765 </v>
   <v>      -0.76442074       0.34478497      -0.39946576 </v>
   <v>      -0.79129968       0.35444099       0.16148723 </v>
   <v>      -0.95023017       0.12017986       0.14680455 </v>
   <v>       0.72904534      -0.39646536      -0.16112455 </v>
   <v>       0.53748251      -0.08612240      -0.06442456 </v>
   <v>      -0.28074641       1.01398520      -0.18942856 </v>
   <v>      -0.29088421       0.02077003      -0.42873975 </v>
   <v>       0.31434450      -0.84832752       0.11017867 </v>
   <v>      -0.11780999       0.77994292       0.12794512 </v>
   <v>      -0.28223168       0.60517732       0.03589997 </v>
   <v>      -0.12235246      -0.69892913       0.02778873 </v>
   <v>       0.25675929      -0.47765449       0.33787735 </v>
   <v>       0.19365107       0.18664759      -0.07268597 </v>
   <v>      -0.69851201      -0.36498065      -0.28813275 </v>
   <v>      -0.50736634       0.01020540      -0.41333109 </v>
   <v>       0.45613499      -0.31192241       0.13475128 </v>
   <v>       0.80920889       0.22628394       0.01948357 </v>
   <v>      -0.29500654       1.97959747      -0.11483379 </v>
   <v>      -0.17260857      -0.84306559      -0.18067529 </v>
   <v>      -0.57443919      -1.02083388      -0.07712166 </v>
   <v>      -0.05779505       0.78490503       0.11266668 </v>
   <v>       0.87949794       0.42944863      -0.02784318 </v>
   <v>      -0.51984824       0.07828358       0.25938445 </v>
   <v>      -0.02828419      -1.54892697       0.28998921 </v>
   <v>       0.37628624       0.34659387      -0.21845299 </v>
   <v>      -1.00922098      -0.79176264      -0.50791431 </v>
   <v>       0.07178544      -0.38676106      -0.23525257 </v>
   <v>       1.40202520      -0.17456078       0.40102470 </v>
   <v>      -0.03497058       0.37661211       0.20415875 </v>
   <v>      -0.72118898       0.20435974      -0.18460412 </v>
   <v>      -0.34569094      -0.69081817      -0.06701146 </v>
   <v>       0.40141697       0.12323756       0.35356221 </v>
   <v>       0.59244096      -0.69605629      -0.22816260 </v>
   <v>       0.15481967       0.86186689      -0.63809841 </v>
   <v>      -0.05403321      -0.15980627      -0.01367419 </v>
   <v>      -1.45026312       0.56397984      -0.48482719 </v>
   <v>      -1.24291862      -0.68584510      -0.71953953 </v>
  </varray>
  <varray name="stress" >
   <v>      -1.77661342       0.10844282       0.26242134 </v>
   <v>       0.10844282      53.52821430       0.22014814 </v>
   <v>       0.26242134       0.22014813      -0.37863347 </v>
  </varray>
  <energy>
   <i name="e_fr_energy">   -832.77158132 </i>
   <i name="e_wo_entrp">   -832.69674580 </i>
   <i name="e_0_energy">   -832.73416356 </i>
  </energy>
  <time name="totalsc">  319.00  319.19</time>
  <eigenvalues>
   <array>
    <dimension dim="1">band</dimension>
    <dimension dim="2">kpoint</dimension>
    <dimension dim="3">spin</dimension>
    <field>eigene</field>
    <field>occ</field>
    <set>
     <set comment="spin 1">
      <set comment="kpoint 1">
       <r>  -23.1651    1.0000 </r>
       <r>  -23.0570    1.0000 </r>
       <r>  -23.0015    1.0000 </r>
       <r>  -22.6760    1.0000 </r>
       <r>  -22.6059    1.0000 </r>
       <r>  -22.3300    1.0000 </r>
       <r>  -22.0521    1.0000 </r>
       <r>  -21.9740    1.0000 </r>
       <r>  -21.5119    1.0000 </r>
       <r>  -21.4774    1.0000 </r>
       <r>  -21.4139    1.0000 </r>
       <r>  -21.3667    1.0000 </r>
       <r>  -21.2327    1.0000 </r>
       <r>  -21.2109    1.0000 </r>
       <r>  -21.1710    1.0000 </r>
       <r>  -21.0741    1.0000 </r>
       <r>  -21.0062    1.0000 </r>
       <r>  -20.9951    1.0000 </r>
       <r>  -20.7802    1.0000 </r>
       <r>  -20.5777    1.0000 </r>
       <r>  -20.3919    1.0000 </r>
       <r>  -20.3757    1.0000 </r>
       <r>  -20.1325    1.0000 </r>
       <r>  -20.0714    1.0000 </r>
       <r>  -19.9754    1.0000 </r>
       <r>  -19.7487    1.0000 </r>
       <r>  -19.5253    1.0000 </r>
       <r>  -19.5009    1.0000 </r>
       <r>  -19.1890    1.0000 </r>
       <r>  -18.9199    1.0000 </r>
       <r>  -18.7192    1.0000 </r>
       <r>  -18.6503    1.0000 </r>
       <r>  -18.5452    1.0000 </r>
       <r>  -18.4338    1.0000 </r>
       <r>  -18.1899    1.0000 </r>
       <r>  -17.6319    1.0000 </r>
       <r>  -17.3814    1.0000 </r>
       <r>  -17.2022    1.0000 </r>
       <r>  -17.0204    1.0000 </r>
       <r>  -16.9305    1.0000 </r>
       <r>  -16.8304    1.0000 </r>
       <r>  -16.7484    1.0000 </r>
       <r>  -16.6773    1.0000 </r>
       <r>  -16.6452    1.0000 </r>
       <r>  -16.6095    1.0000 </r>
       <r>  -16.5328    1.0000 </r>
       <r>  -16.5074    1.0000 </r>
       <r>  -16.4696    1.0000 </r>
       <r>  -16.4131    1.0000 </r>
       <r>  -16.3535    1.0000 </r>
       <r>  -16.3407    1.0000 </r>
       <r>  -16.1546    1.0000 </r>
       <r>  -16.1506    1.0000 </r>
       <r>  -16.0764    1.0000 </r>
       <r>  -15.9024    1.0000 </r>
       <r>  -15.6575    1.0000 </r>
       <r>  -15.4424    1.0000 </r>
       <r>  -15.3264    1.0000 </r>
       <r>  -15.2960    1.0000 </r>
       <r>  -15.2258    1.0000 </r>
       <r>  -15.1432    1.0000 </r>
       <r>  -14.9766    1.0000 </r>
       <r>  -14.3787    1.0000 </r>
       <r>  -14.1649    1.0000 </r>
       <r>  -14.1305    1.0000 </r>
       <r>  -14.0766    1.0000 </r>
       <r>  -13.9368    1.0000 </r>
       <r>  -13.7690    1.0000 </r>
       <r>  -13.6940    1.0000 </r>
       <r>  -13.6351    1.0000 </r>
       <r>  -13.4883    1.0000 </r>
       <r>  -13.4027    1.0000 </r>
       <r>  -13.3230    1.0000 </r>
       <r>  -13.1943    1.0000 </r>
       <r>  -13.0043    1.0000 </r>
       <r>  -12.9241    1.0000 </r>
       <r>  -12.6913    1.0000 </r>
       <r>  -12.4417    1.0000 </r>
       <r>  -12.1742    1.0000 </r>
       <r>  -12.1161    1.0000 </r>
       <r>  -12.0941    1.0000 </r>
       <r>  -11.9943    1.0000 </r>
       <r>  -11.8571    1.0000 </r>
       <r>  -11.8100    1.0000 </r>
       <r>  -11.7421    1.0000 </r>
       <r>  -11.5381    1.0000 </r>
       <r>  -11.3706    1.0000 </r>
       <r>  -11.2156    1.0000 </r>
       <r>  -11.1142    1.0000 </r>
       <r>  -11.0826    1.0000 </r>
       <r>  -10.9085    1.0000 </r>
       <r>  -10.8966    1.0000 </r>
       <r>  -10.7568    1.0000 </r>
       <r>  -10.7407    1.0000 </r>
       <r>  -10.7063    1.0000 </r>
       <r>  -10.6648    1.0000 </r>
       <r>  -10.5534    1.0000 </r>
       <r>  -10.5275    1.0000 </r>
       <r>  -10.5027    1.0000 </r>
       <r>  -10.3846    1.0000 </r>
       <r>  -10.3556    1.0000 </r>
       <r>  -10.3175    1.0000 </r>
       <r>  -10.3005    1.0000 </r>
       <r>  -10.2484    1.0000 </r>
       <r>  -10.0610    1.0000 </r>
       <r>  -10.0392    1.0000 </r>
       <r>   -9.8529    1.0000 </r>
       <r>   -9.8308    1.0000 </r>
       <r>   -9.7232    1.0000 </r>
       <r>   -9.6448    1.0000 </r>
       <r>   -9.6056    1.0000 </r>
       <r>   -9.5741    1.0000 </r>
       <r>   -9.5612    1.0000 </r>
       <r>   -9.5394    1.0000 </r>
       <r>   -9.5250    1.0000 </r>
       <r>   -9.5035    1.0000 </r>
       <r>   -9.4867    1.0000 </r>
       <r>   -9.4773    1.0000 </r>
       <r>   -9.4522    1.0000 </r>
       <r>   -9.4294    1.0000 </r>
       <r>   -9.4197    1.0000 </r>
       <r>   -9.4036    1.0000 </r>
       <r>   -9.3696    1.0000 </r>
       <r>   -9.3507    1.0000 </r>
       <r>   -9.3370    1.0000 </r>
       <r>   -9.3159    1.0000 </r>
       <r>   -9.2875    1.0000 </r>
       <r>   -9.2206    1.0000 </r>
       <r>   -9.1820    1.0000 </r>
       <r>   -9.1472    1.0000 </r>
       <r>   -9.0762    1.0000 </r>
       <r>   -9.0248    1.0000 </r>
       <r>   -8.9615    1.0000 </r>
       <r>   -8.9508    1.0000 </r>
       <r>   -8.9315    1.0000 </r>
       <r>   -8.9079    1.0000 </r>
       <r>   -8.8891    1.0000 </r>
       <r>   -8.8572    1.0000 </r>
       <r>   -8.8105    1.0000 </r>
       <r>   -8.7695    1.0000 </r>
       <r>   -8.7026    1.0000 </r>
       <r>   -8.6624    1.0000 </r>
       <r>   -8.6311    1.0000 </r>
       <r>   -8.5966    1.0000 </r>
       <r>   -8.5033    1.0000 </r>
       <r>   -8.4092    1.0000 </r>
       <r>   -8.0802    1.0000 </r>
       <r>   -8.0023    1.0000 </r>
       <r>   -7.9415    1.0000 </r>
       <r>   -7.7701    1.0000 </r>
       <r>   -7.6714    1.0000 </r>
       <r>   -7.6567    1.0000 </r>
       <r>   -7.6453    1.0000 </r>
       <r>   -7.5617    1.0000 </r>
       <r>   -7.4452    1.0000 </r>
       <r>   -7.3884    1.0000 </r>
       <r>   -7.3716    1.0000 </r>
       <r>   -7.1719    1.0000 </r>
       <r>   -7.0644    1.0000 </r>
       <r>   -6.9693    1.0000 </r>
       <r>   -6.7778    1.0000 </r>
       <r>   -6.7351    1.0000 </r>
       <r>   -6.6950    1.0000 </r>
       <r>   -6.6032    1.0000 </r>
       <r>   -6.5035    1.0000 </r>
       <r>   -6.2814    1.0000 </r>
       <r>   -6.2297    1.0000 </r>
       <r>   -6.0762    1.0000 </r>
       <r>   -6.0662    1.0000 </r>
       <r>   -5.9993    1.0000 </r>
       <r>   -5.9868    1.0000 </r>
       <r>   -5.9573    1.0000 </r>
       <r>   -5.9319    1.0000 </r>
       <r>   -5.0622    1.0000 </r>
       <r>   -4.9183    1.0000 </r>
       <r>   -4.8818    1.0000 </r>
       <r>   -4.6881    1.0000 </r>
       <r>   -4.5161    1.0000 </r>
       <r>   -4.4535    1.0000 </r>
       <r>   -4.4421    1.0000 </r>
       <r>   -4.4257    1.0000 </r>
       <r>   -3.7080    1.0000 </r>
       <r>   -3.6491    0.9998 </r>
       <r>   -3.1797    0.5818 </r>
       <r>   -3.0801    0.3093 </r>
       <r>   -2.6502    0.0002 </r>
       <r>   -2.6154    0.0001 </r>
       <r>   -2.4551    0.0000 </r>
       <r>   -2.2085    0.0000 </r>
       <r>   -2.1402    0.0000 </r>
       <r>   -1.7311    0.0000 </r>
       <r>   -1.6610    0.0000 </r>
       <r>   -1.5653    0.0000 </r>
       <r>   -1.4162    0.0000 </r>
       <r>   -1.3822    0.0000 </r>
       <r>   -1.3404    0.0000 </r>
       <r>   -1.2301    0.0000 </r>
       <r>   -0.9463    0.0000 </r>
       <r>   -0.7377    0.0000 </r>
       <r>   -0.5953    0.0000 </r>
       <r>   -0.4567    0.0000 </r>
       <r>   -0.3682    0.0000 </r>
       <r>   -0.0524    0.0000 </r>
       <r>    0.1142    0.0000 </r>
       <r>    0.1200    0.0000 </r>
       <r>    0.1455    0.0000 </r>
       <r>    0.3981    0.0000 </r>
       <r>    0.6446    0.0000 </r>
       <r>    0.6484    0.0000 </r>
       <r>    0.7060    0.0000 </r>
       <r>    0.8009    0.0000 </r>
       <r>    0.9145    0.0000 </r>
       <r>    0.9210    0.0000 </r>
       <r>    0.9444    0.0000 </r>
       <r>    0.9824    0.0000 </r>
       <r>    0.9935    0.0000 </r>
       <r>    1.1037    0.0000 </r>
       <r>    1.1482    0.0000 </r>
       <r>    1.1563    0.0000 </r>
       <r>    1.2177    0.0000 </r>
       <r>    1.3095    0.0000 </r>
       <r>    1.3162    0.0000 </r>
       <r>    1.3215    0.0000 </r>
       <r>    1.4047    0.0000 </r>
       <r>    1.4634    0.0000 </r>
       <r>    1.5519    0.0000 </r>
       <r>    1.5691    0.0000 </r>
       <r>    1.7276    0.0000 </r>
       <r>    1.7279    0.0000 </r>
       <r>    1.7354    0.0000 </r>
       <r>    1.7390    0.0000 </r>
       <r>    1.9164    0.0000 </r>
      </set>
      <set comment="kpoint 2">
       <r>  -23.0754    1.0000 </r>
       <r>  -22.9642    1.0000 </r>
       <r>  -22.9009    1.0000 </r>
       <r>  -22.5877    1.0000 </r>
       <r>  -22.5054    1.0000 </r>
       <r>  -22.4922    1.0000 </r>
       <r>  -22.1852    1.0000 </r>
       <r>  -22.0891    1.0000 </r>
       <r>  -21.9633    1.0000 </r>
       <r>  -21.8801    1.0000 </r>
       <r>  -21.8252    1.0000 </r>
       <r>  -21.6988    1.0000 </r>
       <r>  -21.2752    1.0000 </r>
       <r>  -21.1305    1.0000 </r>
       <r>  -21.0723    1.0000 </r>
       <r>  -20.9705    1.0000 </r>
       <r>  -20.6224    1.0000 </r>
       <r>  -20.5381    1.0000 </r>
       <r>  -20.4961    1.0000 </r>
       <r>  -20.2914    1.0000 </r>
       <r>  -20.1961    1.0000 </r>
       <r>  -20.1161    1.0000 </r>
       <r>  -20.0523    1.0000 </r>
       <r>  -19.8973    1.0000 </r>
       <r>  -19.8777    1.0000 </r>
       <r>  -19.5226    1.0000 </r>
       <r>  -19.5083    1.0000 </r>
       <r>  -19.1208    1.0000 </r>
       <r>  -19.0694    1.0000 </r>
       <r>  -18.8858    1.0000 </r>
       <r>  -18.6753    1.0000 </r>
       <r>  -18.5735    1.0000 </r>
       <r>  -18.5463    1.0000 </r>
       <r>  -18.2848    1.0000 </r>
       <r>  -18.1868    1.0000 </r>
       <r>  -18.0813    1.0000 </r>
       <r>  -18.0569    1.0000 </r>
       <r>  -18.0191    1.0000 </r>
       <r>  -17.8379    1.0000 </r>
       <r>  -17.7691    1.0000 </r>
       <r>  -17.4952    1.0000 </r>
       <r>  -17.4087    1.0000 </r>
       <r>  -17.3137    1.0000 </r>
       <r>  -17.1739    1.0000 </r>
       <r>  -17.0551    1.0000 </r>
       <r>  -16.5879    1.0000 </r>
       <r>  -16.3850    1.0000 </r>
       <r>  -16.1860    1.0000 </r>
       <r>  -16.0852    1.0000 </r>
       <r>  -15.8703    1.0000 </r>
       <r>  -15.8053    1.0000 </r>
       <r>  -15.6352    1.0000 </r>
       <r>  -15.5919    1.0000 </r>
       <r>  -15.3448    1.0000 </r>
       <r>  -15.3260    1.0000 </r>
       <r>  -15.2503    1.0000 </r>
       <r>  -15.1370    1.0000 </r>
       <r>  -15.1218    1.0000 </r>
       <r>  -15.0154    1.0000 </r>
       <r>  -14.9733    1.0000 </r>
       <r>  -14.9517    1.0000 </r>
       <r>  -14.7823    1.0000 </r>
       <r>  -14.5475    1.0000 </r>
       <r>  -14.3816    1.0000 </r>
       <r>  -14.3372    1.0000 </r>
       <r>  -14.1645    1.0000 </r>
       <r>  -13.9733    1.0000 </r>
       <r>  -13.8724    1.0000 </r>
       <r>  -13.3544    1.0000 </r>
       <r>  -13.2155    1.0000 </r>
       <r>  -13.2068    1.0000 </r>
       <r>  -13.1853    1.0000 </r>
       <r>  -12.9148    1.0000 </r>
       <r>  -12.8328    1.0000 </r>
       <r>  -12.7949    1.0000 </r>
       <r>  -12.7628    1.0000 </r>
       <r>  -12.6703    1.0000 </r>
       <r>  -12.5423    1.0000 </r>
       <r>  -12.3892    1.0000 </r>
       <r>  -12.3344    1.0000 </r>
       <r>  -12.1483    1.0000 </r>
       <r>  -12.1286    1.0000 </r>
       <r>  -12.0570    1.0000 </r>
       <r>  -12.0278    1.0000 </r>
       <r>  -11.7152    1.0000 </r>
       <r>  -11.6480    1.0000 </r>
       <r>  -11.4612    1.0000 </r>
       <r>  -11.3479    1.0000 </r>
       <r>  -11.2720    1.0000 </r>
       <r>  -11.2092    1.0000 </r>
       <r>  -11.0257    1.0000 </r>
       <r>  -11.0204    1.0000 </r>
       <r>  -10.9841    1.0000 </r>
       <r>  -10.9338    1.0000 </r>
       <r>  -10.8884    1.0000 </r>
       <r>  -10.8729    1.0000 </r>
       <r>  -10.8628    1.0000 </r>
       <r>  -10.8476    1.0000 </r>
       <r>  -10.7632    1.0000 </r>
       <r>  -10.6253    1.0000 </r>
       <r>  -10.5726    1.0000 </r>
       <r>  -10.4911    1.0000 </r>
       <r>  -10.4454    1.0000 </r>
       <r>  -10.4233    1.0000 </r>
       <r>  -10.3951    1.0000 </r>
       <r>  -10.3686    1.0000 </r>
       <r>  -10.2710    1.0000 </r>
       <r>  -10.0924    1.0000 </r>
       <r>  -10.0803    1.0000 </r>
       <r>  -10.0200    1.0000 </r>
       <r>   -9.9798    1.0000 </r>
       <r>   -9.9491    1.0000 </r>
       <r>   -9.9127    1.0000 </r>
       <r>   -9.7787    1.0000 </r>
       <r>   -9.6993    1.0000 </r>
       <r>   -9.6570    1.0000 </r>
       <r>   -9.6463    1.0000 </r>
       <r>   -9.6277    1.0000 </r>
       <r>   -9.6047    1.0000 </r>
       <r>   -9.5690    1.0000 </r>
       <r>   -9.4993    1.0000 </r>
       <r>   -9.4880    1.0000 </r>
       <r>   -9.4515    1.0000 </r>
       <r>   -9.3448    1.0000 </r>
       <r>   -9.3323    1.0000 </r>
       <r>   -9.2620    1.0000 </r>
       <r>   -9.0373    1.0000 </r>
       <r>   -8.9021    1.0000 </r>
       <r>   -8.8631    1.0000 </r>
       <r>   -8.8282    1.0000 </r>
       <r>   -8.7946    1.0000 </r>
       <r>   -8.7148    1.0000 </r>
       <r>   -8.6989    1.0000 </r>
       <r>   -8.6319    1.0000 </r>
       <r>   -8.5846    1.0000 </r>
       <r>   -8.5640    1.0000 </r>
       <r>   -8.5408    1.0000 </r>
       <r>   -8.4492    1.0000 </r>
       <r>   -8.3562    1.0000 </r>
       <r>   -8.3468    1.0000 </r>
       <r>   -8.2169    1.0000 </r>
       <r>   -8.1873    1.0000 </r>
       <r>   -8.1581    1.0000 </r>
       <r>   -8.1054    1.0000 </r>
       <r>   -8.0614    1.0000 </r>
       <r>   -8.0400    1.0000 </r>
       <r>   -8.0218    1.0000 </r>
       <r>   -7.8768    1.0000 </r>
       <r>   -7.7826    1.0000 </r>
       <r>   -7.7737    1.0000 </r>
       <r>   -7.6676    1.0000 </r>
       <r>   -7.5495    1.0000 </r>
       <r>   -7.5214    1.0000 </r>
       <r>   -7.4429    1.0000 </r>
       <r>   -7.3618    1.0000 </r>
       <r>   -7.3224    1.0000 </r>
       <r>   -7.2438    1.0000 </r>
       <r>   -7.0424    1.0000 </r>
       <r>   -6.9528    1.0000 </r>
       <r>   -6.9313    1.0000 </r>
       <r>   -6.8016    1.0000 </r>
       <r>   -6.7274    1.0000 </r>
       <r>   -6.6730    1.0000 </r>
       <r>   -6.6277    1.0000 </r>
       <r>   -6.5493    1.0000 </r>
       <r>   -6.3590    1.0000 </r>
       <r>   -6.2051    1.0000 </r>
       <r>   -6.1334    1.0000 </r>
       <r>   -6.1137    1.0000 </r>
       <r>   -6.0234    1.0000 </r>
       <r>   -5.9419    1.0000 </r>
       <r>   -5.8083    1.0000 </r>
       <r>   -5.7785    1.0000 </r>
       <r>   -5.6965    1.0000 </r>
       <r>   -5.5738    1.0000 </r>
       <r>   -5.5075    1.0000 </r>
       <r>   -5.1635    1.0000 </r>
       <r>   -5.1425    1.0000 </r>
       <r>   -4.7408    1.0000 </r>
       <r>   -4.6747    1.0000 </r>
       <r>   -4.5248    1.0000 </r>
       <r>   -4.5152    1.0000 </r>
       <r>   -4.4425    1.0000 </r>
       <r>   -3.4746    0.9890 </r>
       <r>   -2.9366    0.0652 </r>
       <r>   -2.5042    0.0000 </r>
       <r>   -2.0597    0.0000 </r>
       <r>   -2.0143    0.0000 </r>
       <r>   -1.5398    0.0000 </r>
       <r>   -1.4421    0.0000 </r>
       <r>   -1.3577    0.0000 </r>
       <r>   -1.3167    0.0000 </r>
       <r>   -1.2794    0.0000 </r>
       <r>   -1.2682    0.0000 </r>
       <r>   -1.0145    0.0000 </r>
       <r>   -0.9878    0.0000 </r>
       <r>   -0.9643    0.0000 </r>
       <r>   -0.8870    0.0000 </r>
       <r>   -0.7956    0.0000 </r>
       <r>   -0.3665    0.0000 </r>
       <r>   -0.1099    0.0000 </r>
       <r>   -0.0725    0.0000 </r>
       <r>    0.0330    0.0000 </r>
       <r>    0.0895    0.0000 </r>
       <r>    0.1473    0.0000 </r>
       <r>    0.2653    0.0000 </r>
       <r>    0.2867    0.0000 </r>
       <r>    0.3095    0.0000 </r>
       <r>    0.3408    0.0000 </r>
       <r>    0.7869    0.0000 </r>
       <r>    0.7914    0.0000 </r>
       <r>    0.8472    0.0000 </r>
       <r>    1.0554    0.0000 </r>
       <r>    1.0622    0.0000 </r>
       <r>    1.1250    0.0000 </r>
       <r>    1.1640    0.0000 </r>
       <r>    1.2114    0.0000 </r>
       <r>    1.2364    0.0000 </r>
       <r>    1.2909    0.0000 </r>
       <r>    1.2987    0.0000 </r>
       <r>    1.3602    0.0000 </r>
       <r>    1.4045    0.0000 </r>
       <r>    1.4247    0.0000 </r>
       <r>    1.4494    0.0000 </r>
       <r>    1.4534    0.0000 </r>
       <r>    1.4643    0.0000 </r>
       <r>    1.5473    0.0000 </r>
       <r>    1.6051    0.0000 </r>
       <r>    1.6697    0.0000 </r>
       <r>    1.6955    0.0000 </r>
       <r>    1.7110    0.0000 </r>
       <r>    1.7971    0.0000 </r>
      </set>
      <set comment="kpoint 3">
       <r>  -22.8631    1.0000 </r>
       <r>  -22.7918    1.0000 </r>
       <r>  -22.6964    1.0000 </r>
       <r>  -22.6569    1.0000 </r>
       <r>  -22.6161    1.0000 </r>
       <r>  -22.5693    1.0000 </r>
       <r>  -22.3179    1.0000 </r>
       <r>  -22.2758    1.0000 </r>
       <r>  -22.2114    1.0000 </r>
       <r>  -22.1871    1.0000 </r>
       <r>  -21.7238    1.0000 </r>
       <r>  -21.6688    1.0000 </r>
       <r>  -21.5789    1.0000 </r>
       <r>  -21.5596    1.0000 </r>
       <r>  -20.8988    1.0000 </r>
       <r>  -20.8625    1.0000 </r>
       <r>  -20.6922    1.0000 </r>
       <r>  -20.6600    1.0000 </r>
       <r>  -19.8986    1.0000 </r>
       <r>  -19.8668    1.0000 </r>
       <r>  -19.6090    1.0000 </r>
       <r>  -19.5828    1.0000 </r>
       <r>  -19.5371    1.0000 </r>
       <r>  -19.5206    1.0000 </r>
       <r>  -19.4340    1.0000 </r>
       <r>  -19.4173    1.0000 </r>
       <r>  -19.2789    1.0000 </r>
       <r>  -19.2441    1.0000 </r>
       <r>  -19.0627    1.0000 </r>
       <r>  -19.0535    1.0000 </r>
       <r>  -18.9663    1.0000 </r>
       <r>  -18.9539    1.0000 </r>
       <r>  -18.6335    1.0000 </r>
       <r>  -18.5973    1.0000 </r>
       <r>  -18.4895    1.0000 </r>
       <r>  -18.4633    1.0000 </r>
       <r>  -18.3373    1.0000 </r>
       <r>  -18.2855    1.0000 </r>
       <r>  -18.1643    1.0000 </r>
       <r>  -18.1113    1.0000 </r>
       <r>  -17.7319    1.0000 </r>
       <r>  -17.7143    1.0000 </r>
       <r>  -17.6903    1.0000 </r>
       <r>  -17.6610    1.0000 </r>
       <r>  -16.9117    1.0000 </r>
       <r>  -16.8820    1.0000 </r>
       <r>  -16.2686    1.0000 </r>
       <r>  -16.2332    1.0000 </r>
       <r>  -16.0619    1.0000 </r>
       <r>  -16.0347    1.0000 </r>
       <r>  -15.9558    1.0000 </r>
       <r>  -15.8930    1.0000 </r>
       <r>  -15.2908    1.0000 </r>
       <r>  -15.2432    1.0000 </r>
       <r>  -15.0994    1.0000 </r>
       <r>  -15.0511    1.0000 </r>
       <r>  -14.8507    1.0000 </r>
       <r>  -14.8387    1.0000 </r>
       <r>  -14.7246    1.0000 </r>
       <r>  -14.7139    1.0000 </r>
       <r>  -13.9837    1.0000 </r>
       <r>  -13.9697    1.0000 </r>
       <r>  -13.7467    1.0000 </r>
       <r>  -13.7344    1.0000 </r>
       <r>  -13.7327    1.0000 </r>
       <r>  -13.6920    1.0000 </r>
       <r>  -13.6528    1.0000 </r>
       <r>  -13.6165    1.0000 </r>
       <r>  -13.5845    1.0000 </r>
       <r>  -13.5782    1.0000 </r>
       <r>  -13.5577    1.0000 </r>
       <r>  -13.5355    1.0000 </r>
       <r>  -13.4396    1.0000 </r>
       <r>  -13.4119    1.0000 </r>
       <r>  -13.1691    1.0000 </r>
       <r>  -13.0614    1.0000 </r>
       <r>  -12.3516    1.0000 </r>
       <r>  -12.3156    1.0000 </r>
       <r>  -12.1562    1.0000 </r>
       <r>  -12.1362    1.0000 </r>
       <r>  -12.1127    1.0000 </r>
       <r>  -12.1052    1.0000 </r>
       <r>  -11.9772    1.0000 </r>
       <r>  -11.9333    1.0000 </r>
       <r>  -11.8711    1.0000 </r>
       <r>  -11.8262    1.0000 </r>
       <r>  -11.8112    1.0000 </r>
       <r>  -11.7781    1.0000 </r>
       <r>  -11.6664    1.0000 </r>
       <r>  -11.6323    1.0000 </r>
       <r>  -11.3062    1.0000 </r>
       <r>  -11.2864    1.0000 </r>
       <r>  -11.1962    1.0000 </r>
       <r>  -11.1640    1.0000 </r>
       <r>  -11.0368    1.0000 </r>
       <r>  -10.9907    1.0000 </r>
       <r>  -10.7721    1.0000 </r>
       <r>  -10.7296    1.0000 </r>
       <r>  -10.6950    1.0000 </r>
       <r>  -10.6563    1.0000 </r>
       <r>  -10.5449    1.0000 </r>
       <r>  -10.5250    1.0000 </r>
       <r>  -10.5064    1.0000 </r>
       <r>  -10.4976    1.0000 </r>
       <r>  -10.4744    1.0000 </r>
       <r>  -10.4282    1.0000 </r>
       <r>  -10.3121    1.0000 </r>
       <r>  -10.2791    1.0000 </r>
       <r>  -10.2592    1.0000 </r>
       <r>  -10.2561    1.0000 </r>
       <r>  -10.2209    1.0000 </r>
       <r>  -10.1993    1.0000 </r>
       <r>  -10.1531    1.0000 </r>
       <r>  -10.0743    1.0000 </r>
       <r>  -10.0587    1.0000 </r>
       <r>  -10.0355    1.0000 </r>
       <r>  -10.0312    1.0000 </r>
       <r>  -10.0181    1.0000 </r>
       <r>   -9.7656    1.0000 </r>
       <r>   -9.7519    1.0000 </r>
       <r>   -9.3686    1.0000 </r>
       <r>   -9.3592    1.0000 </r>
       <r>   -9.3301    1.0000 </r>
[...]
       <r>   -22.6447    15.4193     7.4403 </r>
       <r>   -22.5478    16.7665     9.0657 </r>
       <r>   -22.4509    15.7512    10.5926 </r>
       <r>   -22.3539    13.6890    11.9195 </r>
       <r>   -22.2570    13.0390    13.1835 </r>
       <r>   -22.1601    13.7397    14.5154 </r>
       <r>   -22.0631    14.3210    15.9037 </r>
       <r>   -21.9662    14.3458    17.2943 </r>
       <r>   -21.8692    14.0690    18.6582 </r>
       <r>   -21.7723    13.5808    19.9747 </r>
       <r>   -21.6754    12.9243    21.2275 </r>
       <r>   -21.5784    12.1506    22.4054 </r>
       <r>   -21.4815    11.4317    23.5136 </r>
       <r>   -21.3845    11.3158    24.6105 </r>
       <r>   -21.2876    12.4462    25.8170 </r>
       <r>   -21.1907    14.6366    27.2358 </r>
       <r>   -21.0937    16.5145    28.8367 </r>
       <r>   -20.9968    16.5404    30.4401 </r>
       <r>   -20.8999    14.5236    31.8480 </r>
       <r>   -20.8029    12.2122    33.0318 </r>
       <r>   -20.7060    11.7070    34.1667 </r>
       <r>   -20.6090    12.9472    35.4218 </r>
       <r>   -20.5121    13.8508    36.7645 </r>
       <r>   -20.4152    13.3189    38.0556 </r>
       <r>   -20.3182    12.5815    39.2752 </r>
       <r>   -20.2213    13.1125    40.5463 </r>
       <r>   -20.1244    14.6875    41.9701 </r>
       <r>   -20.0274    15.9632    43.5175 </r>
       <r>   -19.9305    15.9665    45.0653 </r>
       <r>   -19.8335    14.4883    46.4698 </r>
       <r>   -19.7366    12.7380    47.7046 </r>
       <r>   -19.6397    13.2698    48.9909 </r>
       <r>   -19.5427    16.0292    50.5448 </r>
       <r>   -19.4458    17.0901    52.2015 </r>
       <r>   -19.3488    14.7882    53.6350 </r>
       <r>   -19.2519    12.4533    54.8422 </r>
       <r>   -19.1550    12.7922    56.0823 </r>
       <r>   -19.0580    14.4159    57.4797 </r>
       <r>   -18.9611    14.7403    58.9086 </r>
       <r>   -18.8642    13.5243    60.2196 </r>
       <r>   -18.7672    13.0620    61.4858 </r>
       <r>   -18.6703    15.0558    62.9453 </r>
       <r>   -18.5733    17.7129    64.6624 </r>
       <r>   -18.4764    18.0504    66.4122 </r>
       <r>   -18.3795    16.4777    68.0095 </r>
       <r>   -18.2825    15.8520    69.5461 </r>
       <r>   -18.1856    16.9032    71.1847 </r>
       <r>   -18.0886    17.4758    72.8788 </r>
       <r>   -17.9917    15.9019    74.4203 </r>
       <r>   -17.8948    13.5717    75.7359 </r>
       <r>   -17.7978    12.8035    76.9771 </r>
       <r>   -17.7009    13.0856    78.2455 </r>
       <r>   -17.6040    12.5763    79.4647 </r>
       <r>   -17.5070    11.6090    80.5900 </r>
       <r>   -17.4101    11.3502    81.6903 </r>
       <r>   -17.3131    11.4404    82.7993 </r>
       <r>   -17.2162    11.2293    83.8879 </r>
       <r>   -17.1193    10.9531    84.9496 </r>
       <r>   -17.0223    10.8600    86.0024 </r>
       <r>   -16.9254    10.7483    87.0443 </r>
       <r>   -16.8284    10.5755    88.0695 </r>
       <r>   -16.7315    10.9597    89.1319 </r>
       <r>   -16.6346    12.3921    90.3332 </r>
       <r>   -16.5376    14.1820    91.7080 </r>
       <r>   -16.4407    15.3633    93.1972 </r>
       <r>   -16.3438    15.9592    94.7443 </r>
       <r>   -16.2468    16.5856    96.3521 </r>
       <r>   -16.1499    17.3623    98.0352 </r>
       <r>   -16.0529    17.5083    99.7324 </r>
       <r>   -15.9560    16.5396   101.3357 </r>
       <r>   -15.8591    14.9300   102.7830 </r>
       <r>   -15.7621    13.2270   104.0652 </r>
       <r>   -15.6652    11.8779   105.2166 </r>
       <r>   -15.5682    11.2506   106.3072 </r>
       <r>   -15.4713    12.0868   107.4789 </r>
       <r>   -15.3744    15.4438   108.9760 </r>
       <r>   -15.2774    20.1856   110.9328 </r>
       <r>   -15.1805    23.3865   113.1998 </r>
       <r>   -15.0836    23.9249   115.5190 </r>
       <r>   -14.9866    22.4040   117.6909 </r>
       <r>   -14.8897    19.3667   119.5682 </r>
       <r>   -14.7927    15.5529   121.0759 </r>
       <r>   -14.6958    11.9140   122.2308 </r>
       <r>   -14.5989     9.3156   123.1339 </r>
       <r>   -14.5019     8.5449   123.9622 </r>
       <r>   -14.4050     9.4268   124.8760 </r>
       <r>   -14.3081    10.6732   125.9107 </r>
       <r>   -14.2111    11.5878   127.0340 </r>
       <r>   -14.1142    12.6444   128.2597 </r>
       <r>   -14.0172    14.0087   129.6177 </r>
       <r>   -13.9203    15.2381   131.0948 </r>
       <r>   -13.8234    16.4280   132.6873 </r>
       <r>   -13.7264    18.0828   134.4402 </r>
       <r>   -13.6295    19.5298   136.3334 </r>
       <r>   -13.5325    19.5371   138.2273 </r>
       <r>   -13.4356    18.5434   140.0249 </r>
       <r>   -13.3387    18.0499   141.7746 </r>
       <r>   -13.2417    18.1937   143.5383 </r>
       <r>   -13.1448    17.4687   145.2316 </r>
       <r>   -13.0479    15.5046   146.7346 </r>
       <r>   -12.9509    14.3498   148.1257 </r>
       <r>   -12.8540    15.0534   149.5849 </r>
       <r>   -12.7570    15.7431   151.1111 </r>
       <r>   -12.6601    14.6775   152.5339 </r>
       <r>   -12.5632    12.8451   153.7790 </r>
       <r>   -12.4662    12.4483   154.9858 </r>
       <r>   -12.3693    14.2088   156.3631 </r>
       <r>   -12.2723    17.6448   158.0736 </r>
       <r>   -12.1754    22.2196   160.2275 </r>
       <r>   -12.0785    25.7411   162.7228 </r>
       <r>   -11.9815    25.5070   165.1954 </r>
       <r>   -11.8846    22.7366   167.3995 </r>
       <r>   -11.7877    20.4879   169.3855 </r>
       <r>   -11.6907    18.8305   171.2109 </r>
       <r>   -11.5938    16.5315   172.8135 </r>
       <r>   -11.4968    14.6028   174.2290 </r>
       <r>   -11.3999    15.1153   175.6943 </r>
       <r>   -11.3030    17.9896   177.4382 </r>
       <r>   -11.2060    21.3235   179.5052 </r>
       <r>   -11.1091    24.5764   181.8876 </r>
       <r>   -11.0121    28.6884   184.6686 </r>
       <r>   -10.9152    32.8222   187.8504 </r>
       <r>   -10.8183    34.6364   191.2080 </r>
       <r>   -10.7213    34.1978   194.5230 </r>
       <r>   -10.6244    34.4184   197.8595 </r>
       <r>   -10.5275    36.9886   201.4451 </r>
       <r>   -10.4305    39.7865   205.3019 </r>
       <r>   -10.3336    39.7163   209.1520 </r>
       <r>   -10.2366    36.9942   212.7381 </r>
       <r>   -10.1397    34.6731   216.0993 </r>
       <r>   -10.0428    33.8814   219.3837 </r>
       <r>    -9.9458    32.3727   222.5219 </r>
       <r>    -9.8489    30.0856   225.4383 </r>
       <r>    -9.7520    30.9743   228.4409 </r>
       <r>    -9.6550    36.6475   231.9934 </r>
       <r>    -9.5581    43.6344   236.2233 </r>
       <r>    -9.4611    47.7266   240.8498 </r>
       <r>    -9.3642    46.9292   245.3991 </r>
       <r>    -9.2673    40.9324   249.3670 </r>
       <r>    -9.1703    32.3143   252.4995 </r>
       <r>    -9.0734    26.8451   255.1018 </r>
       <r>    -8.9764    28.0076   257.8168 </r>
       <r>    -8.8795    33.2236   261.0375 </r>
       <r>    -8.7826    37.5464   264.6771 </r>
       <r>    -8.6856    38.4583   268.4052 </r>
       <r>    -8.5887    36.3747   271.9313 </r>
       <r>    -8.4918    33.0151   275.1318 </r>
       <r>    -8.3948    30.2987   278.0689 </r>
       <r>    -8.2979    29.2505   280.9044 </r>
       <r>    -8.2009    29.4260   283.7569 </r>
       <r>    -8.1040    29.2238   286.5898 </r>
       <r>    -8.0071    27.2637   289.2327 </r>
       <r>    -7.9101    24.8276   291.6394 </r>
       <r>    -7.8132    24.8819   294.0514 </r>
       <r>    -7.7162    27.5339   296.7205 </r>
       <r>    -7.6193    29.9284   299.6217 </r>
       <r>    -7.5224    30.5690   302.5850 </r>
       <r>    -7.4254    30.2960   305.5219 </r>
       <r>    -7.3285    29.6336   308.3945 </r>
       <r>    -7.2316    27.9440   311.1033 </r>
       <r>    -7.1346    25.3999   313.5656 </r>
       <r>    -7.0377    23.5768   315.8511 </r>
       <r>    -6.9407    23.6895   318.1475 </r>
       <r>    -6.8438    25.6182   320.6309 </r>
       <r>    -6.7469    27.9708   323.3423 </r>
       <r>    -6.6499    28.1787   326.0739 </r>
       <r>    -6.5530    24.8040   328.4784 </r>
       <r>    -6.4560    20.2834   330.4446 </r>
       <r>    -6.3591    18.1650   332.2055 </r>
       <r>    -6.2622    18.8430   334.0321 </r>
       <r>    -6.1652    21.0171   336.0695 </r>
       <r>    -6.0683    23.9014   338.3864 </r>
       <r>    -5.9714    26.1149   340.9179 </r>
       <r>    -5.8744    25.9900   343.4374 </r>
       <r>    -5.7775    23.6014   345.7253 </r>
       <r>    -5.6805    20.2670   347.6899 </r>
       <r>    -5.5836    16.6094   349.3000 </r>
       <r>    -5.4867    12.7484   350.5358 </r>
       <r>    -5.3897     9.9127   351.4967 </r>
       <r>    -5.2928     9.8525   352.4518 </r>
       <r>    -5.1959    11.6608   353.5822 </r>
       <r>    -5.0989    12.0656   354.7518 </r>
       <r>    -5.0020    10.1244   355.7332 </r>
       <r>    -4.9050     8.2572   356.5337 </r>
       <r>    -4.8081     8.4924   357.3569 </r>
       <r>    -4.7112    10.6633   358.3906 </r>
       <r>    -4.6142    13.6348   359.7123 </r>
       <r>    -4.5173    15.9085   361.2545 </r>
       <r>    -4.4203    15.2969   362.7373 </r>
       <r>    -4.3234    11.1648   363.8196 </r>
       <r>    -4.2265     6.4305   364.4430 </r>
       <r>    -4.1295     3.9423   364.8251 </r>
       <r>    -4.0326     3.1774   365.1332 </r>
       <r>    -3.9357     2.5697   365.3823 </r>
       <r>    -3.8387     2.1782   365.5934 </r>
       <r>    -3.7418     2.6609   365.8514 </r>
       <r>    -3.6448     3.6549   366.2057 </r>
       <r>    -3.5479     4.2915   366.6217 </r>
       <r>    -3.4510     4.1605   367.0250 </r>
       <r>    -3.3540     3.4563   367.3600 </r>
       <r>    -3.2571     2.9579   367.6468 </r>
       <r>    -3.1601     3.2759   367.9643 </r>
       <r>    -3.0632     4.0575   368.3577 </r>
       <r>    -2.9663     4.5700   368.8007 </r>
       <r>    -2.8693     4.6598   369.2524 </r>
       <r>    -2.7724     5.1396   369.7506 </r>
       <r>    -2.6755     6.7384   370.4038 </r>
       <r>    -2.5785     8.3964   371.2177 </r>
       <r>    -2.4816     8.3144   372.0237 </r>
       <r>    -2.3846     6.5728   372.6609 </r>
       <r>    -2.2877     5.1726   373.1623 </r>
       <r>    -2.1908     5.6306   373.7081 </r>
       <r>    -2.0938     7.1389   374.4002 </r>
       <r>    -1.9969     7.5362   375.1307 </r>
       <r>    -1.8999     6.2322   375.7348 </r>
       <r>    -1.8030     5.3238   376.2509 </r>
       <r>    -1.7061     7.1830   376.9472 </r>
       <r>    -1.6091    11.9743   378.1080 </r>
       <r>    -1.5122    17.7095   379.8247 </r>
       <r>    -1.4153    21.8968   381.9474 </r>
       <r>    -1.3183    22.9868   384.1757 </r>
       <r>    -1.2214    21.2107   386.2318 </r>
       <r>    -1.1244    19.2823   388.1010 </r>
       <r>    -1.0275    19.4732   389.9887 </r>
       <r>    -0.9306    19.7008   391.8985 </r>
       <r>    -0.8336    17.1308   393.5591 </r>
       <r>    -0.7367    13.0345   394.8226 </r>
       <r>    -0.6397    10.4162   395.8324 </r>
       <r>    -0.5428    10.2153   396.8226 </r>
       <r>    -0.4459    11.0954   397.8982 </r>
       <r>    -0.3489    11.4034   399.0036 </r>
       <r>    -0.2520    11.5641   400.1246 </r>
       <r>    -0.1551    13.7204   401.4546 </r>
       <r>    -0.0581    17.8213   403.1822 </r>
       <r>     0.0388    21.1466   405.2321 </r>
       <r>     0.1358    22.2972   407.3936 </r>
       <r>     0.2327    22.1312   409.5389 </r>
       <r>     0.3296    21.4438   411.6177 </r>
       <r>     0.4266    20.2859   413.5841 </r>
       <r>     0.5235    19.5717   415.4814 </r>
       <r>     0.6204    21.1065   417.5274 </r>
       <r>     0.7174    24.8635   419.9377 </r>
       <r>     0.8143    28.1534   422.6668 </r>
       <r>     0.9113    29.4181   425.5185 </r>
       <r>     1.0082    31.2390   428.5468 </r>
       <r>     1.1051    36.8432   432.1183 </r>
       <r>     1.2021    44.9156   436.4724 </r>
       <r>     1.2990    50.8565   441.4023 </r>
       <r>     1.3960    52.0620   446.4491 </r>
       <r>     1.4929    48.9496   451.1942 </r>
       <r>     1.5898    42.7375   455.3371 </r>
       <r>     1.6868    34.7735   458.7080 </r>
       <r>     1.7837    25.7652   461.2056 </r>
       <r>     1.8806    16.2489   462.7808 </r>
       <r>     1.9776     8.1694   463.5727 </r>
       <r>     2.0745     3.1897   463.8819 </r>
       <r>     2.1715     0.9606   463.9750 </r>
       <r>     2.2684     0.2179   463.9961 </r>
       <r>     2.3653     0.0355   463.9996 </r>
       <r>     2.4623     0.0040   464.0000 </r>
       <r>     2.5592     0.0003   464.0000 </r>
       <r>     2.6562     0.0000   464.0000 </r>
       <r>     2.7531     0.0000   464.0000 </r>
       <r>     2.8500     0.0000   464.0000 </r>
       <r>     2.9470     0.0000   464.0000 </r>
       <r>     3.0439     0.0000   464.0000 </r>
       <r>     3.1408     0.0000   464.0000 </r>
       <r>     3.2378     0.0000   464.0000 </r>
       <r>     3.3347     0.0000   464.0000 </r>
       <r>     3.4317     0.0000   464.0000 </r>
       <r>     3.5286     0.0000   464.0000 </r>
       <r>     3.6255     0.0000   464.0000 </r>
       <r>     3.7225     0.0000   464.0000 </r>
       <r>     3.8194     0.0000   464.0000 </r>
       <r>     3.9164     0.0000   464.0000 </r>
      </set>
     </set>
    </array>
   </total>
  </dos>
 </calculation>
 <structure name="finalpos" >
  <crystal>
   <varray name="basis" >
    <v>      28.05000000       0.00000000       0.00000000 </v>
    <v>       0.00000000       8.10000000       0.00000000 </v>
    <v>       0.00000000       0.00000000      33.50000000 </v>
   </varray>
   <i name="volume">   7611.36750000 </i>
   <varray name="rec_basis" >
    <v>       0.03565062       0.00000000       0.00000000 </v>
    <v>       0.00000000       0.12345679       0.00000000 </v>
    <v>       0.00000000       0.00000000       0.02985075 </v>
   </varray>
  </crystal>
  <varray name="positions" >
   <v>       0.88168271       0.50264198      -0.09462687 </v>
   <v>       0.88222816       0.67432099      -0.09671642 </v>
   <v>       0.92490553       0.41790370      -0.08835821 </v>
   <v>       0.92588235       0.75189753      -0.09313433 </v>
   <v>       0.96947237       0.50030741      -0.08208955 </v>
   <v>       0.96965419       0.66992840      -0.08477612 </v>
   <v>       0.01387708       0.41811605      -0.08179104 </v>
   <v>       0.01460652       0.74982222      -0.08597015 </v>
   <v>       0.05966774       0.50249877      -0.08089552 </v>
   <v>       0.05968520       0.66943210      -0.08417910 </v>
   <v>       0.10430945       0.42028765      -0.08567164 </v>
   <v>       0.10442888       0.75293210      -0.09194030 </v>
   <v>       0.14905241       0.50150370      -0.09253731 </v>
   <v>       0.14809911       0.66930617      -0.09611940 </v>
   <v>       0.19209091       0.42095802      -0.10328358 </v>
   <v>       0.19096756       0.75507531      -0.10985075 </v>
   <v>       0.23454688       0.50282840      -0.11313433 </v>
   <v>       0.23355686       0.67033210      -0.11701493 </v>
   <v>       0.27653904       0.42071605      -0.12626866 </v>
   <v>       0.27496257       0.75315679      -0.13134328 </v>
   <v>       0.31992406       0.50268395      -0.13582090 </v>
   <v>       0.31820749       0.67066667      -0.13910448 </v>
   <v>       0.36169340       0.42033580      -0.14865672 </v>
   <v>       0.35975758       0.75285556      -0.15343284 </v>
   <v>       0.40412834       0.50179383      -0.15791045 </v>
   <v>       0.40365062       0.67003951      -0.15970149 </v>
   <v>       0.44721212       0.41896914      -0.16716418 </v>
   <v>       0.44605704       0.75183333      -0.17074627 </v>
   <v>       0.49115508       0.50085926      -0.17044776 </v>
   <v>       0.49009626       0.66873704      -0.17373134 </v>
   <v>       0.53522995       0.41719259      -0.17402985 </v>
   <v>       0.53506595       0.75280247      -0.17820896 </v>
   <v>       0.57808200       0.50139877      -0.16895522 </v>
   <v>       0.57863102       0.67073951      -0.17164179 </v>
   <v>       0.62213547       0.41805432      -0.16656716 </v>
   <v>       0.62278431       0.75112099      -0.16865672 </v>
   <v>       0.66420677       0.50039383      -0.15582090 </v>
   <v>       0.66534759       0.66805926      -0.15791045 </v>
   <v>       0.70697683       0.41924568      -0.14656716 </v>
   <v>       0.70894118       0.75270370      -0.15074627 </v>
   <v>       0.74827451       0.50097654      -0.13253731 </v>
   <v>       0.74941176       0.67246914      -0.13402985 </v>
   <v>       0.79262389       0.42049136      -0.12328358 </v>
   <v>       0.79213191       0.75444815      -0.12597015 </v>
   <v>       0.83166488       0.50335679      -0.10776119 </v>
   <v>       0.83151872       0.67679877      -0.10865672 </v>
   <v>       0.88630303       0.00036041      -0.11343284 </v>
   <v>       0.88583601       0.17263951      -0.11223881 </v>
   <v>       0.92752585       0.91977037      -0.10089552 </v>
   <v>       0.92625312       0.25409136      -0.09791045 </v>
   <v>       0.97132620       0.00295331      -0.09582090 </v>
   <v>       0.97084848       0.17206049      -0.09373134 </v>
   <v>       0.01502674       0.91813457      -0.09253731 </v>
   <v>       0.01439230       0.25086296      -0.08716418 </v>
   <v>       0.05904742       0.00188184      -0.09462687 </v>
   <v>       0.05984670       0.16990988      -0.08985075 </v>
   <v>       0.10338610       0.91932963      -0.09850746 </v>
   <v>       0.10452870       0.25189630      -0.09104478 </v>
   <v>       0.14555401       0.00371683      -0.10686567 </v>
   <v>       0.14674225       0.17216296      -0.10238806 </v>
   <v>       0.18871907       0.92027654      -0.11611940 </v>
   <v>       0.19107487       0.25193827      -0.10835821 </v>
   <v>       0.23008734       0.00384302      -0.12925373 </v>
   <v>       0.23153904       0.17127531      -0.12477612 </v>
   <v>       0.27291551       0.91925062      -0.13940299 </v>
   <v>       0.27476649       0.25457037      -0.13313433 </v>
   <v>       0.31469982       0.00347958      -0.15194030 </v>
   <v>       0.31580642       0.17240494      -0.14776119 </v>
   <v>       0.35874153       0.92137407      -0.15970149 </v>
   <v>       0.36023173       0.25175309      -0.15402985 </v>
   <v>       0.40116221       0.00137826      -0.17134328 </v>
   <v>       0.40139037       0.17091235      -0.16835821 </v>
   <v>       0.44556863       0.91656049      -0.17731343 </v>
   <v>       0.44613904       0.25254074      -0.17313433 </v>
   <v>       0.48987522       0.00181394      -0.18358209 </v>
   <v>       0.48990374       0.16996049      -0.18179104 </v>
   <v>       0.53442424       0.92017160      -0.18388060 </v>
   <v>       0.53501248       0.25069259      -0.18089552 </v>
   <v>       0.57967558       0.00363340      -0.18298507 </v>
   <v>       0.57944029       0.17107901      -0.18089552 </v>
   <v>       0.62399287       0.92119753      -0.17492537 </v>
   <v>       0.62329055       0.25199383      -0.17283582 </v>
   <v>       0.66761497       0.00172700      -0.17044776 </v>
   <v>       0.66789305       0.17161728      -0.16895522 </v>
   <v>       0.71087344       0.91969506      -0.15850746 </v>
   <v>       0.70963280       0.25455309      -0.15522388 </v>
   <v>       0.75352585       0.00346668      -0.14925373 </v>
   <v>       0.75286988       0.17435679      -0.14686567 </v>
   <v>       0.79468449       0.91930617      -0.13432836 </v>
   <v>       0.79456684       0.25500000      -0.13223881 </v>
   <v>       0.83683066       0.00100091      -0.12686567 </v>
   <v>       0.83643137       0.17248272      -0.12537313 </v>
  </varray>
 </structure>
</modeling>
