 vasp.6.5.0 16Dec24 (build Feb 19 2025 19:45:31) complex                         
 executed on              LinuxNV date 2025.10.25  16:59:51
 running    2 mpi-ranks, on    1 nodes
 distrk:  each k-point on    2 cores,    1 groups
 distr:  one band on NCORE=   1 cores,    2 groups
 Offloading initialized ...    2 GPUs detected


--------------------------------------------------------------------------------------------------------


 INCAR:
   ISTART = 0            (Not Read existing wavefunction
   ISPIN = 1            (Non-Spin polarised DFT, Default\=1)
   ICHARG = 2            (The initial guess charge density is generated by superposition of atomic charge density)
   LREAL = Auto         (Projection operators: automatic)
   ENCUT = 500          (Cut-off energy for plane wave basis set, in eV)
   LWAVE = .FALSE.       (Write WAVECAR or not)
   LCHARG = .FALSE.       (Write CHGCAR or not)
   PREC = Accurate   (Precision level)
   KGAMMA = .TRUE.
   ALGO = Normal
   NSW = 0           (Default: NSW \= 0)
   IBRION = -1           (Ions are not moved)
   ISMEAR = 0
   EDIFF = 1E-06        (SCF energy convergence
   NELM = 150          (Max electronic SCF steps)

 POTCAR:    PAW_PBE C 08Apr2002                   
 POTCAR:    PAW_PBE C 08Apr2002                   
   SHA256 =  253f7b50bb8d59471dbedb8285d89021f4a42ed1a2c5d38a03a736e69125dd95 C/POTCAR              
   COPYR  = (c) Copyright 08Apr2002 Georg Kresse                                                    
   COPYR  = This file is part of the software VASP. Any use, copying, and all other rights are regul
   COPYR  = If you do not have a valid VASP license, you may not use, copy or distribute this file. 
   VRHFIN =C: s2p2                                                                                  
   LEXCH  = PE                                                                                      
   EATOM  =   147.1560 eV,   10.8157 Ry                                                             
                                                                                                    
   TITEL  = PAW_PBE C 08Apr2002                                                                     
   LULTRA =        F    use ultrasoft PP ?                                                          
   IUNSCR =        1    unscreen: 0-lin 1-nonlin 2-no                                               
   RPACOR =    1.200    partial core radius                                                         
   POMASS =   12.011; ZVAL   =    4.000    mass and valenz                                          
   RCORE  =    1.500    outmost cutoff radius                                                       
   RWIGS  =    1.630; RWIGS  =    0.863    wigner-seitz radius (au A)                               
   ENMAX  =  400.000; ENMIN  =  300.000 eV                                                          
   ICORE  =        2    local potential                                                             
   LCOR   =        T    correct aug charges                                                         
   LPAW   =        T    paw PP                                                                      
   EAUG   =  644.873                                                                                
   DEXC   =    0.000                                                                                
   RMAX   =    1.529    core radius for proj-oper                                                   
   RAUG   =    1.300    factor for augmentation sphere                                              
   RDEP   =    1.501    radius for radial grids                                                     
   RDEPT  =    1.300    core radius for aug-charge                                                  
                                                                                                    
   Atomic configuration                                                                             
    4 entries                                                                                       
     n  l   j            E        occ.                                                              
     1  0  0.50      -273.3789   2.0000                                                             
     2  0  0.50       -13.7508   2.0000                                                             
     2  1  0.50        -5.2854   2.0000                                                             
     3  2  1.50        -5.4423   0.0000                                                             
   Description                                                                                      
     l       E           TYP  RCUT    TYP  RCUT                                                     
     0    -13.7508458     23  1.200                                                                 
     0     -8.2022199     23  1.200                                                                 
     1     -5.2854383     23  1.500                                                                 
     1     34.0145650     23  1.500                                                                 
     2     -5.4423304      7  1.500                                                                 
  local pseudopotential read in
  partial core-charges read in
  partial kinetic energy density read in
  atomic valenz-charges read in
  non local Contribution for L=            0  read in
    real space projection operators read in
  non local Contribution for L=            0  read in
    real space projection operators read in
  non local Contribution for L=            1  read in
    real space projection operators read in
  non local Contribution for L=            1  read in
    real space projection operators read in
    PAW grid and wavefunctions read in
 
   number of l-projection  operators is LMAX  =            4
   number of lm-projection operators is LMMAX =            8
 
 Optimization of the real space projectors (new method)

 maximal supplied QI-value         = 25.13
 optimisation between [QCUT,QGAM] = [ 11.31, 22.87] = [ 35.82,146.48] Ry 
 Optimized for a Real-space Cutoff    1.03 Angstroem

   l    n(q)    QCUT    max X(q) W(low)/X(q) W(high)/X(q)  e(spline) 
   0      7    11.310   115.676    0.20E-03    0.90E-03    0.20E-06
   0      7    11.310    87.132    0.20E-03    0.89E-03    0.19E-06
   1      6    11.310     4.429    0.16E-03    0.28E-03    0.12E-06
   1      6    11.310     2.733    0.12E-03    0.21E-03    0.99E-07
  PAW_PBE C 08Apr2002                   :
 energy of atom  1       EATOM= -147.1560
 kinetic energy error for atom=    0.0076 (will be added to EATOM!!)
 
 
 POSCAR:  C
  positions in cartesian coordinates
  No initial velocities read in


 exchange-correlation table for PE
   RHO(1)=    0.500       N(1)  =     2000
   RHO(2)=  100.500       N(2)  =     4000
 


--------------------------------------------------------------------------------------------------------


 ion  position               nearest neighbor table
   1  0.008  0.111  0.555-   3 1.37   2 1.40  45 1.48  46 2.02
   2  0.006  0.282  0.551-   4 1.37   1 1.40  46 1.44  45 2.05
   3  0.050  0.027  0.548-  50 1.35   1 1.37   5 1.44
   4  0.049  0.357  0.547-  49 1.34   2 1.37   6 1.47
   5  0.095  0.103  0.541-   6 1.39   3 1.44   7 1.46
   6  0.095  0.275  0.541-   5 1.39   8 1.43   4 1.47
   7  0.140  0.020  0.531-  54 1.35   9 1.41   5 1.46
   8  0.138  0.356  0.531-  10 1.39  53 1.39   6 1.43
   9  0.183  0.101  0.522-   7 1.41  11 1.42  10 1.43
  10  0.181  0.277  0.522-   8 1.39   9 1.43  12 1.46
  11  0.223  0.021  0.505-  58 1.39   9 1.42  13 1.44
  12  0.224  0.357  0.506-  57 1.38  14 1.42  10 1.46
  13  0.267  0.102  0.494-  14 1.40  15 1.42  11 1.44
  14  0.266  0.275  0.495-  13 1.40  12 1.42  16 1.44
  15  0.310  0.024  0.482-  62 1.38  17 1.42  13 1.42
  16  0.310  0.359  0.485-  61 1.34  14 1.44  18 1.46
  17  0.353  0.105  0.473-  18 1.41  15 1.42  19 1.44
  18  0.354  0.278  0.473-  20 1.39  17 1.41  16 1.46
  19  0.395  0.018  0.460-  66 1.37  17 1.44  21 1.45
  20  0.396  0.359  0.462-  65 1.33  18 1.39  22 1.45
  21  0.440  0.107  0.455-  22 1.36  19 1.45  23 1.47
  22  0.440  0.275  0.452-  21 1.36  24 1.43  20 1.45
  23  0.484  0.019  0.447-  70 1.35  25 1.42  21 1.47
  24  0.486  0.352  0.449-  26 1.40  69 1.42  22 1.43
  25  0.529  0.104  0.448-  26 1.39  27 1.41  23 1.42
  26  0.531  0.276  0.447-  25 1.39  24 1.40  28 1.44
  27  0.573  0.027  0.455-  74 1.37  25 1.41  29 1.42
  28  0.576  0.356  0.448-  73 1.36  30 1.41  26 1.44
  29  0.617  0.103  0.464-  30 1.41  31 1.42  27 1.42
  30  0.619  0.274  0.456-  28 1.41  32 1.41  29 1.41
  31  0.659  0.025  0.479-  78 1.38  29 1.42  33 1.43
  32  0.662  0.353  0.467-  77 1.40  30 1.41  34 1.42
  33  0.701  0.109  0.492-  34 1.33  31 1.43  35 1.44
  34  0.702  0.271  0.485-  33 1.33  36 1.41  32 1.42
  35  0.740  0.025  0.510-  37 1.39  82 1.40  33 1.44
  36  0.744  0.357  0.495-  81 1.39  34 1.41  38 1.45
  37  0.781  0.107  0.523-  35 1.39  38 1.41  39 1.43
  38  0.784  0.278  0.515-  40 1.39  37 1.41  36 1.45
  39  0.823  0.023  0.537-  86 1.37  41 1.43  37 1.43
  40  0.826  0.362  0.523-  85 1.36  38 1.39  42 1.49
  41  0.868  0.099  0.542-  42 1.41  43 1.41  39 1.43
  42  0.870  0.269  0.534-  44 1.38  41 1.41  40 1.49
  43  0.912  0.021  0.550-  45 1.39  41 1.41  90 1.41
  44  0.912  0.352  0.540-  89 1.35  42 1.38  46 1.38
  45  0.955  0.101  0.558-  43 1.39  46 1.43   1 1.48   2 2.05
  46  0.954  0.275  0.551-  44 1.38  45 1.43   2 1.44   1 2.02
  47  0.007  0.600  0.553-  48 1.38  49 1.40  91 1.46  92 2.00
  48  0.007  0.771  0.551-  47 1.38  50 1.42  92 1.45  91 2.01
  49  0.051  0.522  0.546-   4 1.34  47 1.40  51 1.44
  50  0.050  0.860  0.545-   3 1.35  52 1.40  48 1.42
  51  0.094  0.609  0.536-  52 1.38  53 1.44  49 1.44
  52  0.094  0.779  0.538-  51 1.38  50 1.40  54 1.42
  53  0.136  0.525  0.524-   8 1.39  55 1.41  51 1.44
  54  0.137  0.855  0.525-   7 1.35  52 1.42  56 1.43
  55  0.178  0.605  0.510-  56 1.35  53 1.41  57 1.42
  56  0.178  0.772  0.511-  55 1.35  58 1.40  54 1.43
  57  0.221  0.525  0.500-  12 1.38  59 1.41  55 1.42
  58  0.220  0.852  0.498-  11 1.39  56 1.40  60 1.43
  59  0.263  0.602  0.486-  60 1.39  61 1.41  57 1.41
  60  0.262  0.773  0.483-  59 1.39  58 1.43  62 1.45
  61  0.305  0.519  0.476-  16 1.34  59 1.41  63 1.48
  62  0.307  0.856  0.475-  15 1.38  60 1.45  64 1.45
  63  0.349  0.599  0.460-  64 1.39  65 1.43  61 1.48
  64  0.350  0.771  0.462-  63 1.39  66 1.42  62 1.45
  65  0.395  0.522  0.457-  20 1.33  63 1.43  67 1.45
  66  0.394  0.849  0.457-  19 1.37  64 1.42  68 1.48
  67  0.440  0.602  0.448-  68 1.35  69 1.41  65 1.45
  68  0.441  0.769  0.449-  67 1.35  70 1.42  66 1.48
  69  0.485  0.527  0.450-  71 1.40  67 1.41  24 1.42
  70  0.485  0.852  0.447-  23 1.35  72 1.40  68 1.42
  71  0.530  0.602  0.448-  72 1.39  69 1.40  73 1.44
  72  0.530  0.773  0.445-  71 1.39  70 1.40  74 1.42
  73  0.576  0.524  0.450-  28 1.36  75 1.39  71 1.44
  74  0.573  0.858  0.453-  27 1.37  72 1.42  76 1.45
  75  0.619  0.605  0.457-  73 1.39  76 1.40  77 1.40
  76  0.618  0.777  0.461-  75 1.40  78 1.41  74 1.45
  77  0.662  0.526  0.467-  32 1.40  75 1.40  79 1.44
  78  0.660  0.856  0.475-  31 1.38  76 1.41  80 1.43
  79  0.705  0.607  0.478-  81 1.39  80 1.41  77 1.44
  80  0.703  0.776  0.488-  82 1.37  79 1.41  78 1.43
  81  0.746  0.527  0.490-  36 1.39  79 1.39  83 1.39
  82  0.740  0.852  0.507-  80 1.37  84 1.39  35 1.40
  83  0.786  0.608  0.506-  84 1.37  85 1.39  81 1.39
  84  0.780  0.766  0.520-  83 1.37  82 1.39  86 1.51
  85  0.828  0.529  0.516-  40 1.36  83 1.39  87 1.42
  86  0.823  0.854  0.537-  39 1.37  88 1.44  84 1.51
  87  0.869  0.606  0.532-  88 1.35  85 1.42  89 1.46
  88  0.868  0.770  0.540-  87 1.35  90 1.39  86 1.44
  89  0.913  0.518  0.543-  44 1.35  91 1.41  87 1.46
  90  0.911  0.847  0.548-  88 1.39  92 1.40  43 1.41
  91  0.955  0.603  0.553-  92 1.37  89 1.41  47 1.46  48 2.01
  92  0.956  0.772  0.553-  91 1.37  90 1.40  48 1.45  47 2.00
 
  LATTYP: Found a simple orthorhombic cell.
 ALAT       =     8.1000000000
 B/A-ratio  =     3.4629629630
 C/A-ratio  =     4.1358024691
  
  Lattice vectors:
  
 A1 = (   0.0000000000,  -8.1000000000,   0.0000000000)
 A2 = (  28.0500000000,   0.0000000000,   0.0000000000)
 A3 = (   0.0000000000,   0.0000000000,  33.5000000000)


Analysis of symmetry for initial positions (statically):
=====================================================================
 Subroutine PRICEL returns:
 Original cell was already a primitive cell.
 

 Routine SETGRP: Setting up the symmetry group for a 
 simple orthorhombic supercell.


 Subroutine GETGRP returns: Found  1 space group operations
 (whereof  1 operations were pure point group operations)
 out of a pool of  8 trial point group operations.


The static configuration has the point symmetry C_1 .


Analysis of symmetry for dynamics (positions and initial velocities):
=====================================================================
 Subroutine PRICEL returns:
 Original cell was already a primitive cell.
 

 Routine SETGRP: Setting up the symmetry group for a 
 simple orthorhombic supercell.


 Subroutine GETGRP returns: Found  1 space group operations
 (whereof  1 operations were pure point group operations)
 out of a pool of  8 trial point group operations.


The dynamic configuration has the point symmetry C_1 .


 Subroutine INISYM returns: Found  1 space group operations
 (whereof  1 operations are pure point group operations),
 and found     1 'primitive' translations


----------------------------------------------------------------------------------------

                                     Primitive cell                                     

  volume of cell :    7611.3675

  direct lattice vectors                    reciprocal lattice vectors
    28.050000000  0.000000000  0.000000000     0.035650624  0.000000000  0.000000000
     0.000000000  8.100000000  0.000000000     0.000000000  0.123456790  0.000000000
     0.000000000  0.000000000 33.500000000     0.000000000  0.000000000  0.029850746

  length of vectors
    28.050000000  8.100000000 33.500000000     0.035650624  0.123456790  0.029850746

  position of ions in fractional coordinates (direct lattice)
     0.007909804  0.110568025  0.554674627
     0.005538788  0.282269136  0.551035821
     0.049654545  0.026567037  0.547856716
     0.048932977  0.357071605  0.547423881
     0.095440998  0.102875679  0.540811940
     0.094979323  0.274960494  0.541283582
     0.139844920  0.020104568  0.530602985
     0.138428164  0.355745679  0.530677612
     0.183064171  0.100596914  0.522053731
     0.181277005  0.276560494  0.522113433
     0.223330125  0.020869753  0.504823881
     0.223907665  0.357453086  0.506489552
     0.267108021  0.102434691  0.494402985
     0.266338324  0.275367901  0.494767164
     0.309749376  0.023619136  0.481552239
     0.309913369  0.359185185  0.484707463
     0.353166488  0.104852840  0.472528358
     0.354449198  0.278319753  0.473071642
     0.395137255  0.017977284  0.459797015
     0.395928699  0.359246914  0.462050746
     0.439597148  0.107183827  0.454743284
     0.439971480  0.274672840  0.452477612
     0.484303030  0.019406049  0.446546269
     0.485718360  0.352007407  0.449295522
     0.528616756  0.103880123  0.447826866
     0.530563280  0.275555556  0.446591045
     0.572941176  0.026980247  0.454719403
     0.576210339  0.356074074  0.448477612
     0.617105169  0.102859753  0.463901493
     0.619479501  0.274344444  0.456170149
     0.658827094  0.025410988  0.478585075
     0.662431373  0.353240741  0.467005970
     0.700755793  0.109188519  0.491988060
     0.701843137  0.271034568  0.484656716
     0.740131907  0.024858148  0.510337313
     0.743989305  0.356814815  0.494767164
     0.780877005  0.107134568  0.522791045
     0.783582888  0.278244444  0.515164179
     0.822791444  0.023208025  0.536549254
     0.825696970  0.362464198  0.522922388
     0.868491979  0.099229383  0.541904478
     0.869543672  0.269419753  0.533800000
     0.912299465  0.021061975  0.550134328
     0.912149733  0.351839506  0.539797015
     0.955411765  0.100829506  0.557528358
     0.954313725  0.275497531  0.550841791
     0.006985633  0.600339506  0.553414925
     0.007268485  0.770979012  0.551447761
     0.050718360  0.522038272  0.546402985
     0.050201070  0.860332099  0.545000000
     0.093888770  0.608730864  0.536477612
     0.093552585  0.779106173  0.537611940
     0.136431016  0.525125926  0.523791045
     0.136549020  0.855459259  0.524579104
     0.177678788  0.605279012  0.509811940
     0.178484492  0.771995062  0.510635821
     0.220818895  0.524680247  0.499638806
     0.219687701  0.852002469  0.497504478
     0.263110873  0.601655556  0.486370149
     0.262030303  0.773101235  0.483465672
     0.305248841  0.519266667  0.475528358
     0.306660963  0.856341975  0.474516418
     0.349073797  0.599295062  0.460474627
     0.349580036  0.770591358  0.461731343
     0.394791444  0.522333333  0.456859701
     0.394420677  0.849335802  0.456859701
     0.440057041  0.601704938  0.448301493
     0.440588235  0.768611111  0.448570149
     0.485479501  0.526786420  0.450232836
     0.485130125  0.852493827  0.446614925
     0.530099822  0.602303704  0.447567164
     0.529611408  0.773245679  0.445205970
     0.575914439  0.523623457  0.449791045
     0.573001783  0.857735802  0.452850746
     0.618787879  0.605158025  0.456907463
     0.618263815  0.777441975  0.460573134
     0.661629234  0.525560494  0.466626866
     0.659543672  0.855962963  0.475405970
     0.704962567  0.607340741  0.478179104
     0.702559715  0.776103704  0.487907463
     0.746274510  0.526727160  0.490361194
     0.739907308  0.852376543  0.506644776
     0.785807487  0.608328395  0.506140299
     0.779686275  0.766069136  0.519668657
     0.827860963  0.528591358  0.516328358
     0.822655971  0.853688889  0.536740299
     0.869151515  0.605722222  0.532465672
     0.867782531  0.769832099  0.540197015
     0.912691622  0.518370370  0.543134328
     0.911158645  0.846930864  0.548235821
     0.954777184  0.602525926  0.553435821
     0.955682709  0.771918519  0.552919403

  ion indices of the primitive-cell ions
   primitive index   ion index
                 1           1
                 2           2
                 3           3
                 4           4
                 5           5
                 6           6
                 7           7
                 8           8
                 9           9
                10          10
                11          11
                12          12
                13          13
                14          14
                15          15
                16          16
                17          17
                18          18
                19          19
                20          20
                21          21
                22          22
                23          23
                24          24
                25          25
                26          26
                27          27
                28          28
                29          29
                30          30
                31          31
                32          32
                33          33
                34          34
                35          35
                36          36
                37          37
                38          38
                39          39
                40          40
                41          41
                42          42
                43          43
                44          44
                45          45
                46          46
                47          47
                48          48
                49          49
                50          50
                51          51
                52          52
                53          53
                54          54
                55          55
                56          56
                57          57
                58          58
                59          59
                60          60
                61          61
                62          62
                63          63
                64          64
                65          65
                66          66
                67          67
                68          68
                69          69
                70          70
                71          71
                72          72
                73          73
                74          74
                75          75
                76          76
                77          77
                78          78
                79          79
                80          80
                81          81
                82          82
                83          83
                84          84
                85          85
                86          86
                87          87
                88          88
                89          89
                90          90
                91          91
                92          92

----------------------------------------------------------------------------------------

 
 
 KPOINTS: K-Spacing Value to Generate K-Mesh: 0.03

Automatic generation of k-mesh.
 Grid dimensions read from file:
 generate k-points for:    1    4    1

 Generating k-lattice:

  Cartesian coordinates                     Fractional coordinates (reciprocal lattice)
     0.035650624  0.000000000  0.000000000     1.000000000  0.000000000  0.000000000
     0.000000000  0.030864198  0.000000000     0.000000000  0.250000000  0.000000000
     0.000000000  0.000000000  0.029850746     0.000000000  0.000000000  1.000000000

  Length of vectors
     0.035650624  0.030864198  0.029850746

  Shift w.r.t. Gamma in fractional coordinates (k-lattice)
     0.000000000  0.000000000  0.000000000

 
 Subroutine IBZKPT returns following result:
 ===========================================
 
 Found      3 irreducible k-points:
 
 Following reciprocal coordinates:
            Coordinates               Weight
  0.000000  0.000000  0.000000      1.000000
  0.000000  0.250000  0.000000      2.000000
  0.000000  0.500000  0.000000      1.000000
 
 Following cartesian coordinates:
            Coordinates               Weight
  0.000000  0.000000  0.000000      1.000000
  0.000000  0.030864  0.000000      2.000000
  0.000000  0.061728  0.000000      1.000000
 


--------------------------------------------------------------------------------------------------------




 Dimension of arrays:
   k-points           NKPTS =      3   k-points in BZ     NKDIM =      3   number of bands    NBANDS=    232
   number of dos      NEDOS =    301   number of ions     NIONS =     92
   non local maximal  LDIM  =      4   non local SUM 2l+1 LMDIM =      8
   total plane-waves  NPLWV = ******
   max r-space proj   IRMAX =   1967   max aug-charges    IRDMAX=   5083
   dimension x,y,z NGX =   210 NGY =   60 NGZ =  250
   dimension x,y,z NGXF=   420 NGYF=  120 NGZF=  500
   support grid    NGXF=   420 NGYF=  120 NGZF=  500
   ions per type =              92
   NGX,Y,Z   is equivalent  to a cutoff of  12.45, 12.31, 12.41 a.u.
   NGXF,Y,Z  is equivalent  to a cutoff of  24.89, 24.63, 24.81 a.u.

 SYSTEM =  unknown system                          
 POSCAR =   C                                      

 Startparameter for this run:
   NWRITE =      2    write-flag & timer
   PREC   = accura    normal or accurate (medium, high low for compatibility)
   ISTART =      0    job   : 0-new  1-cont  2-samecut
   ICHARG =      2    charge: 1-file 2-atom 10-const
   ISPIN  =      1    spin polarized calculation?
   LNONCOLLINEAR =      F non collinear calculations
   LSORBIT =      F    spin-orbit coupling
   INIWAV =      1    electr: 0-lowe 1-rand  2-diag
   LASPH  =      F    aspherical Exc in radial PAW
 Electronic Relaxation 1
   ENCUT  =  500.0 eV  36.75 Ry    6.06 a.u.  51.14 14.77 61.08*2*pi/ulx,y,z
   ENINI  =  500.0     initial cutoff
   ENAUG  =  644.9 eV  augmentation charge cutoff
   NELM   =    150;   NELMIN=  2; NELMDL= -5     # of ELM steps 
   EDIFF  = 0.1E-05   stopping-criterion for ELM
   LREAL  =      T    real-space projection
   NLSPLINE    = F    spline interpolate recip. space projectors
   LCOMPAT=      F    compatible to vasp.4.4
   GGA_COMPAT  = T    GGA compatible to vasp.4.4-vasp.4.6
   LMAXPAW     = -100 max onsite density
   LMAXMIX     =    2 max onsite mixed and CHGCAR
   VOSKOWN=      0    Vosko Wilk Nusair interpolation
   ROPT   =   -0.00025
 Ionic relaxation
   EDIFFG = 0.1E-04   stopping-criterion for IOM
   NSW    =      0    number of steps for IOM
   NBLOCK =      1;   KBLOCK =      1    inner block; outer block 
   IBRION =     -1    ionic relax: 0-MD 1-quasi-New 2-CG
   NFREE  =      0    steps in history (QN), initial steepest desc. (CG)
   ISIF   =      2    stress and relaxation
   IWAVPR =     10    prediction:  0-non 1-charg 2-wave 3-comb
   ISYM   =      2    0-nonsym 1-usesym 2-fastsym
   LCORR  =      T    Harris-Foulkes like correction to forces

   POTIM  = 0.5000    time-step for ionic-motion
   TEIN   =    0.0    initial temperature
   TEBEG  =    0.0;   TEEND  =   0.0 temperature during run
   SMASS  =  -3.00    Nose mass-parameter (am)
   estimated Nose-frequenzy (Omega)   =  0.10E-29 period in steps = 0.13E+47 mass=  -0.180E-25a.u.
   SCALEE = 1.0000    scale energy and forces
   NPACO  =    256;   APACO  = 10.0  distance and # of slots for P.C.
   PSTRESS=    0.0 pullay stress

  Mass of Ions in am
   POMASS =  12.01
  Ionic Valenz
   ZVAL   =   4.00
  Atomic Wigner-Seitz radii
   RWIGS  =  -1.00
  virtual crystal weights 
   VCA    =   1.00
   NELECT =     368.0000    total number of electrons
   NUPDOWN=      -1.0000    fix difference up-down

 DOS related values:
   EMIN   =  10.00;   EMAX   =-10.00  energy-range for DOS
   EFERMI =   0.00;   METHOD = LEGACY      
   ISMEAR =     0;   SIGMA  =   0.20  broadening in eV -4-tet -1-fermi 0-gaus
   EFERMI_NEDOS =   21; number of points for ismear=-14 and -15

 Electronic relaxation 2 (details)
   IALGO  =     38    algorithm
   LDIAG  =      T    sub-space diagonalisation (order eigenvalues)
   LSUBROT=      F    optimize rotation matrix (better conditioning)
   TURBO    =      0    0=normal 1=particle mesh
   IRESTART =      0    0=no restart 2=restart with 2 vectors
   NREBOOT  =      0    no. of reboots
   NMIN     =      0    reboot dimension
   EREF     =   0.00    reference energy to select bands
   IMIX   =      4    mixing-type and parameters
     AMIX     =   0.40;   BMIX     =  1.00
     AMIX_MAG =   1.60;   BMIX_MAG =  1.00
     AMIN     =   0.10
     WC   =   100.;   INIMIX=   1;  MIXPRE=   1;  MAXMIX= -45

 Intra band minimization:
   WEIMIN = 0.0000     energy-eigenvalue tresh-hold
   EBREAK =  0.11E-08  absolut break condition
   DEPER  =   0.30     relativ break condition  

   TIME   =   0.40     timestep for ELM

  volume/ion in A,a.u.               =      82.73       558.30
  Fermi-wavevector in a.u.,A,eV,Ry     =   0.596398  1.127030  4.839472  0.355691
  Thomas-Fermi vector in A             =   1.646729
 
 Write flags
   LWAVE        =      F    write WAVECAR
   LDOWNSAMPLE  =      F    k-point downsampling of WAVECAR
   LCHARG       =      F    write CHGCAR
   LVTOT        =      F    write LOCPOT, total local potential
   LVHAR        =      F    write LOCPOT, Hartree potential only
   WRT_POTENTIAL= false  ! write potential to hdf5 file
   LELF         =      F    write electronic localiz. function (ELF)
   LORBIT       =      0    0 simple, 1 ext, 2 COOP (PROOUT), +10 PAW based schemes


 Python interface
   PLUGINS active      =      F    recompile with -DPLUGINS to activate
 
 Dipole corrections
   LMONO      =      F    monopole corrections only (constant potential shift)
   LDIPOL     =      F    correct potential (dipole corrections)
   IDIPOL     =      0    1-x, 2-y, 3-z, 4-all directions 
   EPSILON    =  1.0000000 bulk dielectric constant
   LVACPOTAV  =      F  vacuum potentials using an averaging scheme for the charge density
   VACPOTFLAT =  0.1000000 required flatness to determine vacuum potential
 
Coulomb truncation method
  LTRUNCATE          =      F  Coulomb kernel truncation to be used
  IDIMENSIONALITY    =      3  Dimensionality of cutoff (0 molecules / 2 surfaces)
  ISURFACE           =     -1  Direction of surface normal
  LCOARSEN           =      F  Coarsen the charge grid before padding, preferred

 
 Exchange correlation treatment:
   GGA     = PE    functional components
   XC_C    = 1    coefficients multiplying the functional components
   LIBXC   =     F    Libxc                    
   VOSKOWN =     0    Vosko Wilk Nusair interpolation
   LHFCALC =     F    Hartree Fock is set to
   LHFONE  =     F    Hartree Fock one center treatment
   AEXX    =    0.0000 exact exchange contribution

 Parameters of functionals:
   PE:
     No parameter
 
 Van der Waals corrections
   IVDW    =     0    specifies the selected vdW correction

 Linear response parameters
   LEPSILON=     F    determine dielectric tensor
   LRPA    =     F    only Hartree local field effects (RPA)
   LNABLA  =     F    use nabla operator in PAW spheres
   LVEL    =     F    velocity operator in full k-point grid
   CSHIFT  =0.1000    complex shift for real part using Kramers Kronig
   OMEGAMAX=  -1.0    maximum frequency
   DEG_THRESHOLD= 0.2000000E-02 threshold for treating states as degnerate
   RTIME   =   -0.100 relaxation time in fs
  (WPLASMAI=    0.000 imaginary part of plasma frequency in eV, 0.658/RTIME)
   DFIELD  = 0.0000000 0.0000000 0.0000000 field for delta impulse in time
 
  Optional k-point grid parameters
   LKPOINTS_OPT  =     F    use optional k-point grid
   KPOINTS_OPT_MODE=     1    mode for optional k-point grid
 
 Orbital magnetization related:
   ORBITALMAG=     F  switch on orbital magnetization
   LCHIMAG   =     F  perturbation theory with respect to B field
   DQ        =  0.001000  dq finite difference perturbation B field
   LLRAUG    =     F  two centre corrections for induced B field
   LBONE     =     F  B-component reconstruction in AE one-centre
   LVGVCALC  =     T  calculate vGv susceptibility
   LVGVAPPL  =     F  apply vGv susceptibility instead of pGv for G=0

 Random number generation:
   RANDOM_GENERATOR = DEFAULT
   PCG_SEED         = not used


--------------------------------------------------------------------------------------------------------


 Static calculation
 charge density and potential will be updated during run
 non-spin polarized calculation
 Variant of blocked Davidson
 Davidson routine will perform the subspace rotation
 perform sub-space diagonalisation
    after iterative eigenvector-optimisation
 modified Broyden-mixing scheme, WC =      100.0
 initial mixing is a Kerker type mixing with AMIX =  0.4000 and BMIX =      1.0000
 Hartree-type preconditioning will be used
 using additional bands            48
 real space projection scheme for non local part
 use partial core corrections
 calculate Harris-corrections to forces 
   (improved forces if not selfconsistent)
 use gradient corrections 
 use of overlap-Matrix (Vanderbilt PP)
 Gauss-broadening in eV      SIGMA  =   0.20


--------------------------------------------------------------------------------------------------------


  energy-cutoff  :      500.00
  volume of cell :     7611.37
      direct lattice vectors                 reciprocal lattice vectors
    28.050000000  0.000000000  0.000000000     0.035650624  0.000000000  0.000000000
     0.000000000  8.100000000  0.000000000     0.000000000  0.123456790  0.000000000
     0.000000000  0.000000000 33.500000000     0.000000000  0.000000000  0.029850746

  length of vectors
    28.050000000  8.100000000 33.500000000     0.035650624  0.123456790  0.029850746


 
 k-points in units of 2pi/SCALE and weight: K-Spacing Value to Generate K-Mesh: 0.03
   0.00000000  0.00000000  0.00000000       0.250
   0.00000000  0.03086420  0.00000000       0.500
   0.00000000  0.06172840  0.00000000       0.250
 
 k-points in reciprocal lattice and weights: K-Spacing Value to Generate K-Mesh: 0.03
   0.00000000  0.00000000  0.00000000       0.250
   0.00000000  0.25000000  0.00000000       0.500
   0.00000000  0.50000000  0.00000000       0.250
 
 position of ions in fractional coordinates (direct lattice) 
   0.00790980  0.11056802  0.55467463
   0.00553879  0.28226914  0.55103582
   0.04965455  0.02656704  0.54785672
   0.04893298  0.35707160  0.54742388
   0.09544100  0.10287568  0.54081194
   0.09497932  0.27496049  0.54128358
   0.13984492  0.02010457  0.53060299
   0.13842816  0.35574568  0.53067761
   0.18306417  0.10059691  0.52205373
   0.18127701  0.27656049  0.52211343
   0.22333012  0.02086975  0.50482388
   0.22390766  0.35745309  0.50648955
   0.26710802  0.10243469  0.49440299
   0.26633832  0.27536790  0.49476716
   0.30974938  0.02361914  0.48155224
   0.30991337  0.35918519  0.48470746
   0.35316649  0.10485284  0.47252836
   0.35444920  0.27831975  0.47307164
   0.39513725  0.01797728  0.45979701
   0.39592870  0.35924691  0.46205075
   0.43959715  0.10718383  0.45474328
   0.43997148  0.27467284  0.45247761
   0.48430303  0.01940605  0.44654627
   0.48571836  0.35200741  0.44929552
   0.52861676  0.10388012  0.44782687
   0.53056328  0.27555556  0.44659104
   0.57294118  0.02698025  0.45471940
   0.57621034  0.35607407  0.44847761
   0.61710517  0.10285975  0.46390149
   0.61947950  0.27434444  0.45617015
   0.65882709  0.02541099  0.47858507
   0.66243137  0.35324074  0.46700597
   0.70075579  0.10918852  0.49198806
   0.70184314  0.27103457  0.48465672
   0.74013191  0.02485815  0.51033731
   0.74398930  0.35681481  0.49476716
   0.78087701  0.10713457  0.52279104
   0.78358289  0.27824444  0.51516418
   0.82279144  0.02320802  0.53654925
   0.82569697  0.36246420  0.52292239
   0.86849198  0.09922938  0.54190448
   0.86954367  0.26941975  0.53380000
   0.91229947  0.02106198  0.55013433
   0.91214973  0.35183951  0.53979701
   0.95541176  0.10082951  0.55752836
   0.95431373  0.27549753  0.55084179
   0.00698563  0.60033951  0.55341493
   0.00726848  0.77097901  0.55144776
   0.05071836  0.52203827  0.54640299
   0.05020107  0.86033210  0.54500000
   0.09388877  0.60873086  0.53647761
   0.09355258  0.77910617  0.53761194
   0.13643102  0.52512593  0.52379104
   0.13654902  0.85545926  0.52457910
   0.17767879  0.60527901  0.50981194
   0.17848449  0.77199506  0.51063582
   0.22081889  0.52468025  0.49963881
   0.21968770  0.85200247  0.49750448
   0.26311087  0.60165556  0.48637015
   0.26203030  0.77310123  0.48346567
   0.30524884  0.51926667  0.47552836
   0.30666096  0.85634198  0.47451642
   0.34907380  0.59929506  0.46047463
   0.34958004  0.77059136  0.46173134
   0.39479144  0.52233333  0.45685970
   0.39442068  0.84933580  0.45685970
   0.44005704  0.60170494  0.44830149
   0.44058824  0.76861111  0.44857015
   0.48547950  0.52678642  0.45023284
   0.48513012  0.85249383  0.44661493
   0.53009982  0.60230370  0.44756716
   0.52961141  0.77324568  0.44520597
   0.57591444  0.52362346  0.44979104
   0.57300178  0.85773580  0.45285075
   0.61878788  0.60515802  0.45690746
   0.61826381  0.77744198  0.46057313
   0.66162923  0.52556049  0.46662687
   0.65954367  0.85596296  0.47540597
   0.70496257  0.60734074  0.47817910
   0.70255971  0.77610370  0.48790746
   0.74627451  0.52672716  0.49036119
   0.73990731  0.85237654  0.50664478
   0.78580749  0.60832840  0.50614030
   0.77968627  0.76606914  0.51966866
   0.82786096  0.52859136  0.51632836
   0.82265597  0.85368889  0.53674030
   0.86915152  0.60572222  0.53246567
   0.86778253  0.76983210  0.54019701
   0.91269162  0.51837037  0.54313433
   0.91115865  0.84693086  0.54823582
   0.95477718  0.60252593  0.55343582
   0.95568271  0.77191852  0.55291940
 
 position of ions in cartesian coordinates  (Angst):
   0.22187000  0.89560100 18.58160000
   0.15536300  2.28638000 18.45970000
   1.39281000  0.21519300 18.35320000
   1.37257000  2.89228000 18.33870000
   2.67712000  0.83329300 18.11720000
   2.66417000  2.22718000 18.13300000
   3.92265000  0.16284700 17.77520000
   3.88291000  2.88154000 17.77770000
   5.13495000  0.81483500 17.48880000
   5.08482000  2.24014000 17.49080000
   6.26441000  0.16904500 16.91160000
   6.28061000  2.89537000 16.96740000
   7.49238000  0.82972100 16.56250000
   7.47079000  2.23048000 16.57470000
   8.68847000  0.19131500 16.13200000
   8.69307000  2.90940000 16.23770000
   9.90632000  0.84930800 15.82970000
   9.94230000  2.25439000 15.84790000
  11.08360000  0.14561600 15.40320000
  11.10580000  2.90990000 15.47870000
  12.33070000  0.86818900 15.23390000
  12.34120000  2.22485000 15.15800000
  13.58470000  0.15718900 14.95930000
  13.62440000  2.85126000 15.05140000
  14.82770000  0.84142900 15.00220000
  14.88230000  2.23200000 14.96080000
  16.07100000  0.21854000 15.23310000
  16.16270000  2.88420000 15.02400000
  17.30980000  0.83316400 15.54070000
  17.37640000  2.22219000 15.28170000
  18.48010000  0.20582900 16.03260000
  18.58120000  2.86125000 15.64470000
  19.65620000  0.88442700 16.48160000
  19.68670000  2.19538000 16.23600000
  20.76070000  0.20135100 17.09630000
  20.86890000  2.89020000 16.57470000
  21.90360000  0.86779000 17.51350000
  21.97950000  2.25378000 17.25800000
  23.07930000  0.18798500 17.97440000
  23.16080000  2.93596000 17.51790000
  24.36120000  0.80375800 18.15380000
  24.39070000  2.18230000 17.88230000
  25.59000000  0.17060200 18.42950000
  25.58580000  2.84990000 18.08320000
  26.79930000  0.81671900 18.67720000
  26.76850000  2.23153000 18.45320000
   0.19594700  4.86275000 18.53940000
   0.20388100  6.24493000 18.47350000
   1.42265000  4.22851000 18.30450000
   1.40814000  6.96869000 18.25750000
   2.63358000  4.93072000 17.97200000
   2.62415000  6.31076000 18.01000000
   3.82689000  4.25352000 17.54700000
   3.83020000  6.92922000 17.57340000
   4.98389000  4.90276000 17.07870000
   5.00649000  6.25316000 17.10630000
   6.19397000  4.24991000 16.73790000
   6.16224000  6.90122000 16.66640000
   7.38026000  4.87341000 16.29340000
   7.34995000  6.26212000 16.19610000
   8.56223000  4.20606000 15.93020000
   8.60184000  6.93637000 15.89630000
   9.79152000  4.85429000 15.42590000
   9.80572000  6.24179000 15.46800000
  11.07390000  4.23090000 15.30480000
  11.06350000  6.87962000 15.30480000
  12.34360000  4.87381000 15.01810000
  12.35850000  6.22575000 15.02710000
  13.61770000  4.26697000 15.08280000
  13.60790000  6.90520000 14.96160000
  14.86930000  4.87866000 14.99350000
  14.85560000  6.26329000 14.91440000
  16.15440000  4.24135000 15.06800000
  16.07270000  6.94766000 15.17050000
  17.35700000  4.90178000 15.30640000
  17.34230000  6.29728000 15.42920000
  18.55870000  4.25704000 15.63200000
  18.50020000  6.93330000 15.92610000
  19.77420000  4.91946000 16.01900000
  19.70680000  6.28644000 16.34490000
  20.93300000  4.26649000 16.42710000
  20.75440000  6.90425000 16.97260000
  22.04190000  4.92746000 16.95570000
  21.87020000  6.20516000 17.40890000
  23.22150000  4.28159000 17.29700000
  23.07550000  6.91488000 17.98080000
  24.37970000  4.90635000 17.83760000
  24.34130000  6.23564000 18.09660000
  25.60100000  4.19880000 18.19500000
  25.55800000  6.86014000 18.36590000
  26.78150000  4.88046000 18.54010000
  26.80690000  6.25254000 18.52280000
 


--------------------------------------------------------------------------------------------------------


 k-point     1 :   0.0000 0.0000 0.0000  plane waves:  193173
 k-point     2 :   0.0000 0.2500 0.0000  plane waves:  193166
 k-point     3 :   0.0000 0.5000 0.0000  plane waves:  193226

 maximum and minimum number of plane-waves per node :    193226   193166

 maximum number of plane-waves:    193226
 maximum index in each direction: 
   IXMAX=   51   IYMAX=   14   IZMAX=   61
   IXMIN=  -51   IYMIN=  -15   IZMIN=  -61


 serial   3D FFT for wavefunctions
 parallel 3D FFT for charge:
    minimum data exchange during FFTs selected (reduces bandwidth)


 total amount of memory used by VASP MPI-rank0  2294511. kBytes
=======================================================================

   base                                    :      30000. kBytes
   nonlr-proj                              :      15077. kBytes
   fftplans                                :     436558. kBytes
   grid                                    :     732614. kBytes
   one-center                              :        282. kBytes
   wavefun                                 :    1079980. kBytes
 
     INWAV:  cpu time      0.0000: real time      0.0000
 Broyden mixing: mesh for mixing (old mesh)
   NGX =103   NGY = 29   NGZ =123
  (NGX  =420   NGY  =120   NGZ  =500)
  gives a total of 367401 points

 initial charge density was supplied:
 charge density of overlapping atoms calculated
 number of electron     368.0000000 magnetization 
 keeping initial charge density in first step


--------------------------------------------------------------------------------------------------------


 Maximum index for non-local projection operator          1873
 Maximum index for augmentation-charges          2387 (set IRDMAX)


--------------------------------------------------------------------------------------------------------


 First call to EWALD:  gamma=   0.090
 Maximum number of real-space cells   2x   6x   2
 Maximum number of reciprocal cells   4x   1x   4

    FEWALD:  cpu time      0.1595: real time      0.1595


--------------------------------------- Ionic step        1  -------------------------------------------




--------------------------------------- Iteration      1(   1)  ---------------------------------------


    POTLOK:  cpu time      0.4205: real time      0.4545
    SETDIJ:  cpu time      0.0416: real time      0.0417
     EDDAV:  cpu time     11.0598: real time     11.0666
       DOS:  cpu time      0.0008: real time      0.0008
    --------------------------------------------
      LOOP:  cpu time     11.5227: real time     11.5636

 eigenvalue-minimisations  :  1712
 total energy-change (2. order) : 0.3689649E+04  (-0.1187843E+05)
 number of electron     368.0000000 magnetization 
 augmentation part      368.0000000 magnetization 

 Free energy of the ion-electron system (eV)
  ---------------------------------------------------
  alpha Z        PSCENC =        91.34886789
  Ewald energy   TEWEN  =    118611.82257729
  -Hartree energ DENC   =   -127965.74112659
  -exchange      EXHF   =         0.00000000
  -V(xc)+E(xc)   XCENC  =      1219.73655931
  PAW double counting   =      9984.02826696   -10036.41360137
  entropy T*S    EENTRO =        -0.86911677
  eigenvalues    EBANDS =     -1751.91776944
  atomic energy  EATOM  =     13537.65479391
  Solvation  Ediel_sol  =         0.00000000
  ---------------------------------------------------
  free energy    TOTEN  =      3689.64945120 eV

  energy without entropy =     3690.51856797  energy(sigma->0) =     3690.08400958


--------------------------------------------------------------------------------------------------------




--------------------------------------- Iteration      1(   2)  ---------------------------------------


     EDDAV:  cpu time     13.0742: real time     13.0806
       DOS:  cpu time      0.0007: real time      0.0007
    --------------------------------------------
      LOOP:  cpu time     13.0750: real time     13.0814

 eigenvalue-minimisations  :  2136
 total energy-change (2. order) :-0.3504248E+04  (-0.3252056E+04)
 number of electron     368.0000000 magnetization 
 augmentation part      368.0000000 magnetization 

 Free energy of the ion-electron system (eV)
  ---------------------------------------------------
  alpha Z        PSCENC =        91.34886789
  Ewald energy   TEWEN  =    118611.82257729
  -Hartree energ DENC   =   -127965.74112659
  -exchange      EXHF   =         0.00000000
  -V(xc)+E(xc)   XCENC  =      1219.73655931
  PAW double counting   =      9984.02826696   -10036.41360137
  entropy T*S    EENTRO =        -0.26682597
  eigenvalues    EBANDS =     -5256.76820256
  atomic energy  EATOM  =     13537.65479391
  Solvation  Ediel_sol  =         0.00000000
  ---------------------------------------------------
  free energy    TOTEN  =       185.40130887 eV

  energy without entropy =      185.66813485  energy(sigma->0) =      185.53472186


--------------------------------------------------------------------------------------------------------




--------------------------------------- Iteration      1(   3)  ---------------------------------------


     EDDAV:  cpu time     11.3423: real time     11.3463
       DOS:  cpu time      0.0006: real time      0.0006
    --------------------------------------------
      LOOP:  cpu time     11.3430: real time     11.3470

 eigenvalue-minimisations  :  1800
 total energy-change (2. order) :-0.1017249E+04  (-0.9935439E+03)
 number of electron     368.0000000 magnetization 
 augmentation part      368.0000000 magnetization 

 Free energy of the ion-electron system (eV)
  ---------------------------------------------------
  alpha Z        PSCENC =        91.34886789
  Ewald energy   TEWEN  =    118611.82257729
  -Hartree energ DENC   =   -127965.74112659
  -exchange      EXHF   =         0.00000000
  -V(xc)+E(xc)   XCENC  =      1219.73655931
  PAW double counting   =      9984.02826696   -10036.41360137
  entropy T*S    EENTRO =        -0.04227448
  eigenvalues    EBANDS =     -6274.24147812
  atomic energy  EATOM  =     13537.65479391
  Solvation  Ediel_sol  =         0.00000000
  ---------------------------------------------------
  free energy    TOTEN  =      -831.84741520 eV

  energy without entropy =     -831.80514072  energy(sigma->0) =     -831.82627796


--------------------------------------------------------------------------------------------------------




--------------------------------------- Iteration      1(   4)  ---------------------------------------


     EDDAV:  cpu time     10.9638: real time     10.9676
       DOS:  cpu time      0.0007: real time      0.0007
    --------------------------------------------
      LOOP:  cpu time     10.9644: real time     10.9682

 eigenvalue-minimisations  :  1728
 total energy-change (2. order) :-0.6269910E+02  (-0.6169020E+02)
 number of electron     368.0000000 magnetization 
 augmentation part      368.0000000 magnetization 

 Free energy of the ion-electron system (eV)
  ---------------------------------------------------
  alpha Z        PSCENC =        91.34886789
  Ewald energy   TEWEN  =    118611.82257729
  -Hartree energ DENC   =   -127965.74112659
  -exchange      EXHF   =         0.00000000
  -V(xc)+E(xc)   XCENC  =      1219.73655931
  PAW double counting   =      9984.02826696   -10036.41360137
  entropy T*S    EENTRO =        -0.06262678
  eigenvalues    EBANDS =     -6336.92023046
  atomic energy  EATOM  =     13537.65479391
  Solvation  Ediel_sol  =         0.00000000
  ---------------------------------------------------
  free energy    TOTEN  =      -894.54651983 eV

  energy without entropy =     -894.48389305  energy(sigma->0) =     -894.51520644


--------------------------------------------------------------------------------------------------------




--------------------------------------- Iteration      1(   5)  ---------------------------------------


     EDDAV:  cpu time     11.4219: real time     11.4256
       DOS:  cpu time      0.0007: real time      0.0007
    CHARGE:  cpu time      1.2023: real time      1.2066
    MIXING:  cpu time      0.2741: real time      0.2761
    --------------------------------------------
      LOOP:  cpu time     12.8991: real time     12.9090

 eigenvalue-minimisations  :  1824
 total energy-change (2. order) :-0.1509048E+01  (-0.1488578E+01)
 number of electron     368.0000006 magnetization 
 augmentation part       10.0868182 magnetization 

 Broyden mixing:
  rms(total) = 0.45050E+01    rms(broyden)= 0.45044E+01
  rms(prec ) = 0.46210E+01
  weight for this iteration     100.00

 Free energy of the ion-electron system (eV)
  ---------------------------------------------------
  alpha Z        PSCENC =        91.34886789
  Ewald energy   TEWEN  =    118611.82257729
  -Hartree energ DENC   =   -127965.74112659
  -exchange      EXHF   =         0.00000000
  -V(xc)+E(xc)   XCENC  =      1219.73655931
  PAW double counting   =      9984.02826696   -10036.41360137
  entropy T*S    EENTRO =        -0.06319128
  eigenvalues    EBANDS =     -6338.42871360
  atomic energy  EATOM  =     13537.65479391
  Solvation  Ediel_sol  =         0.00000000
  ---------------------------------------------------
  free energy    TOTEN  =      -896.05556748 eV

  energy without entropy =     -895.99237620  energy(sigma->0) =     -896.02397184


--------------------------------------------------------------------------------------------------------




--------------------------------------- Iteration      1(   6)  ---------------------------------------


    POTLOK:  cpu time      0.3224: real time      0.3224
    SETDIJ:  cpu time      0.0404: real time      0.0404
     EDDAV:  cpu time     10.1150: real time     10.1184
       DOS:  cpu time      0.0007: real time      0.0007
    CHARGE:  cpu time      1.1597: real time      1.1599
    MIXING:  cpu time      0.2769: real time      0.2772
    --------------------------------------------
      LOOP:  cpu time     11.9150: real time     11.9190

 eigenvalue-minimisations  :  1560
 total energy-change (2. order) : 0.4846573E+02  (-0.4655055E+01)
 number of electron     368.0000006 magnetization 
 augmentation part        9.6665138 magnetization 

 Broyden mixing:
  rms(total) = 0.26440E+01    rms(broyden)= 0.26440E+01
  rms(prec ) = 0.27016E+01
  weight for this iteration     100.00

 eigenvalues of (default mixing * dielectric matrix)
  average eigenvalue GAMMA=   2.1828
  2.1828

 Free energy of the ion-electron system (eV)
  ---------------------------------------------------
  alpha Z        PSCENC =        91.34886789
  Ewald energy   TEWEN  =    118611.82257729
  -Hartree energ DENC   =   -128528.56234347
  -exchange      EXHF   =         0.00000000
  -V(xc)+E(xc)   XCENC  =      1242.82660614
  PAW double counting   =     18819.37753494   -18879.25974884
  entropy T*S    EENTRO =        -0.06642590
  eigenvalues    EBANDS =     -5742.73170035
  atomic energy  EATOM  =     13537.65479391
  Solvation  Ediel_sol  =         0.00000000
  ---------------------------------------------------
  free energy    TOTEN  =      -847.58983840 eV

  energy without entropy =     -847.52341250  energy(sigma->0) =     -847.55662545


--------------------------------------------------------------------------------------------------------




--------------------------------------- Iteration      1(   7)  ---------------------------------------


    POTLOK:  cpu time      0.3215: real time      0.3215
    SETDIJ:  cpu time      0.0401: real time      0.0401
     EDDAV:  cpu time     10.0366: real time     10.0401
       DOS:  cpu time      0.0007: real time      0.0007
    CHARGE:  cpu time      1.1543: real time      1.1546
    MIXING:  cpu time      0.2793: real time      0.2803
    --------------------------------------------
      LOOP:  cpu time     11.8327: real time     11.8374

 eigenvalue-minimisations  :  1544
 total energy-change (2. order) : 0.1803243E+02  (-0.6394585E+01)
 number of electron     368.0000006 magnetization 
 augmentation part        9.1208348 magnetization 

 Broyden mixing:
  rms(total) = 0.72204E+00    rms(broyden)= 0.72176E+00
  rms(prec ) = 0.73177E+00
  weight for this iteration     100.00

 eigenvalues of (default mixing * dielectric matrix)
  average eigenvalue GAMMA=   2.2041
  2.2041  2.2041

 Free energy of the ion-electron system (eV)
  ---------------------------------------------------
  alpha Z        PSCENC =        91.34886789
  Ewald energy   TEWEN  =    118611.82257729
  -Hartree energ DENC   =   -129282.49564047
  -exchange      EXHF   =         0.00000000
  -V(xc)+E(xc)   XCENC  =      1273.56170364
  PAW double counting   =     36138.98662874   -36205.65249282
  entropy T*S    EENTRO =        -0.07547023
  eigenvalues    EBANDS =     -4994.70837598
  atomic energy  EATOM  =     13537.65479391
  Solvation  Ediel_sol  =         0.00000000
  ---------------------------------------------------
  free energy    TOTEN  =      -829.55740802 eV

  energy without entropy =     -829.48193779  energy(sigma->0) =     -829.51967290


--------------------------------------------------------------------------------------------------------




--------------------------------------- Iteration      1(   8)  ---------------------------------------


    POTLOK:  cpu time      0.3219: real time      0.3216
    SETDIJ:  cpu time      0.0400: real time      0.0401
     EDDAV:  cpu time     10.3162: real time     10.3198
       DOS:  cpu time      0.0008: real time      0.0008
    CHARGE:  cpu time      1.1534: real time      1.1541
    MIXING:  cpu time      0.2809: real time      0.2829
    --------------------------------------------
      LOOP:  cpu time     12.1133: real time     12.1193

 eigenvalue-minimisations  :  1600
 total energy-change (2. order) : 0.2897454E+00  (-0.2414632E+00)
 number of electron     368.0000006 magnetization 
 augmentation part        9.1052373 magnetization 

 Broyden mixing:
  rms(total) = 0.97534E-01    rms(broyden)= 0.97501E-01
  rms(prec ) = 0.11982E+00
  weight for this iteration     100.00

 eigenvalues of (default mixing * dielectric matrix)
  average eigenvalue GAMMA=   1.8666
  1.2709  2.4429  1.8859

 Free energy of the ion-electron system (eV)
  ---------------------------------------------------
  alpha Z        PSCENC =        91.34886789
  Ewald energy   TEWEN  =    118611.82257729
  -Hartree energ DENC   =   -129376.09707240
  -exchange      EXHF   =         0.00000000
  -V(xc)+E(xc)   XCENC  =      1273.36410413
  PAW double counting   =     40335.44626257   -40399.46786090
  entropy T*S    EENTRO =        -0.07228662
  eigenvalues    EBANDS =     -4903.26704845
  atomic energy  EATOM  =     13537.65479391
  Solvation  Ediel_sol  =         0.00000000
  ---------------------------------------------------
  free energy    TOTEN  =      -829.26766259 eV

  energy without entropy =     -829.19537597  energy(sigma->0) =     -829.23151928


--------------------------------------------------------------------------------------------------------




--------------------------------------- Iteration      1(   9)  ---------------------------------------


    POTLOK:  cpu time      0.3217: real time      0.3217
    SETDIJ:  cpu time      0.0402: real time      0.0403
     EDDAV:  cpu time     10.4751: real time     10.4794
       DOS:  cpu time      0.0007: real time      0.0007
    CHARGE:  cpu time      1.1502: real time      1.1545
    MIXING:  cpu time      0.2854: real time      0.2856
    --------------------------------------------
      LOOP:  cpu time     12.2733: real time     12.2822

 eigenvalue-minimisations  :  1632
 total energy-change (2. order) : 0.1054132E+00  (-0.2652811E-01)
 number of electron     368.0000006 magnetization 
 augmentation part        9.0812671 magnetization 

 Broyden mixing:
  rms(total) = 0.56911E-01    rms(broyden)= 0.56902E-01
  rms(prec ) = 0.77973E-01
  weight for this iteration     100.00

 eigenvalues of (default mixing * dielectric matrix)
  average eigenvalue GAMMA=   1.7343
  2.2296  2.2296  1.1516  1.3263

 Free energy of the ion-electron system (eV)
  ---------------------------------------------------
  alpha Z        PSCENC =        91.34886789
  Ewald energy   TEWEN  =    118611.82257729
  -Hartree energ DENC   =   -129445.39423137
  -exchange      EXHF   =         0.00000000
  -V(xc)+E(xc)   XCENC  =      1274.80007696
  PAW double counting   =     40813.73797625   -40877.86232755
  entropy T*S    EENTRO =        -0.07282803
  eigenvalues    EBANDS =     -4835.19715472
  atomic energy  EATOM  =     13537.65479391
  Solvation  Ediel_sol  =         0.00000000
  ---------------------------------------------------
  free energy    TOTEN  =      -829.16224936 eV

  energy without entropy =     -829.08942134  energy(sigma->0) =     -829.12583535


--------------------------------------------------------------------------------------------------------




--------------------------------------- Iteration      1(  10)  ---------------------------------------


    POTLOK:  cpu time      0.3215: real time      0.3215
    SETDIJ:  cpu time      0.0403: real time      0.0402
     EDDAV:  cpu time     10.9963: real time     11.0002
       DOS:  cpu time      0.0008: real time      0.0008
    CHARGE:  cpu time      1.1549: real time      1.1550
    MIXING:  cpu time      0.2903: real time      0.2924
    --------------------------------------------
      LOOP:  cpu time     12.8040: real time     12.8101

 eigenvalue-minimisations  :  1736
 total energy-change (2. order) : 0.4101829E-01  (-0.5068246E-02)
 number of electron     368.0000006 magnetization 
 augmentation part        9.0724716 magnetization 

 Broyden mixing:
  rms(total) = 0.34815E-01    rms(broyden)= 0.34812E-01
  rms(prec ) = 0.53372E-01
  weight for this iteration     100.00

 eigenvalues of (default mixing * dielectric matrix)
  average eigenvalue GAMMA=   1.7360
  2.5045  2.5045  1.5732  1.3121  0.7858

 Free energy of the ion-electron system (eV)
  ---------------------------------------------------
  alpha Z        PSCENC =        91.34886789
  Ewald energy   TEWEN  =    118611.82257729
  -Hartree energ DENC   =   -129499.77660444
  -exchange      EXHF   =         0.00000000
  -V(xc)+E(xc)   XCENC  =      1275.12624166
  PAW double counting   =     40556.38078773   -40620.33073517
  entropy T*S    EENTRO =        -0.07275538
  eigenvalues    EBANDS =     -4781.27440456
  atomic energy  EATOM  =     13537.65479391
  Solvation  Ediel_sol  =         0.00000000
  ---------------------------------------------------
  free energy    TOTEN  =      -829.12123108 eV

  energy without entropy =     -829.04847569  energy(sigma->0) =     -829.08485338


--------------------------------------------------------------------------------------------------------




--------------------------------------- Iteration      1(  11)  ---------------------------------------


    POTLOK:  cpu time      0.3217: real time      0.3217
    SETDIJ:  cpu time      0.0401: real time      0.0401
     EDDAV:  cpu time      9.9537: real time      9.9573
       DOS:  cpu time      0.0008: real time      0.0008
    CHARGE:  cpu time      1.1623: real time      1.1638
    MIXING:  cpu time      0.2984: real time      0.2994
    --------------------------------------------
      LOOP:  cpu time     11.7769: real time     11.7830

 eigenvalue-minimisations  :  1528
 total energy-change (2. order) : 0.2405426E-01  (-0.1825587E-02)
 number of electron     368.0000006 magnetization 
 augmentation part        9.0677424 magnetization 

 Broyden mixing:
  rms(total) = 0.24767E-01    rms(broyden)= 0.24765E-01
  rms(prec ) = 0.37911E-01
  weight for this iteration     100.00

 eigenvalues of (default mixing * dielectric matrix)
  average eigenvalue GAMMA=   1.8033
  3.0576  2.4914  1.9431  0.9119  1.2080  1.2080

 Free energy of the ion-electron system (eV)
  ---------------------------------------------------
  alpha Z        PSCENC =        91.34886789
  Ewald energy   TEWEN  =    118611.82257729
  -Hartree energ DENC   =   -129557.09882332
  -exchange      EXHF   =         0.00000000
  -V(xc)+E(xc)   XCENC  =      1275.64464693
  PAW double counting   =     40512.32245142   -40576.18409112
  entropy T*S    EENTRO =        -0.07288682
  eigenvalues    EBANDS =     -4724.53471301
  atomic energy  EATOM  =     13537.65479391
  Solvation  Ediel_sol  =         0.00000000
  ---------------------------------------------------
  free energy    TOTEN  =      -829.09717682 eV

  energy without entropy =     -829.02429000  energy(sigma->0) =     -829.06073341


--------------------------------------------------------------------------------------------------------




--------------------------------------- Iteration      1(  12)  ---------------------------------------


    POTLOK:  cpu time      0.3214: real time      0.3215
    SETDIJ:  cpu time      0.0431: real time      0.0431
     EDDAV:  cpu time     10.1075: real time     10.1111
       DOS:  cpu time      0.0008: real time      0.0008
    CHARGE:  cpu time      1.1507: real time      1.1552
    MIXING:  cpu time      0.3048: real time      0.3050
    --------------------------------------------
      LOOP:  cpu time     11.9283: real time     11.9366

 eigenvalue-minimisations  :  1560
 total energy-change (2. order) : 0.2805956E-02  (-0.2541367E-02)
 number of electron     368.0000006 magnetization 
 augmentation part        9.0600935 magnetization 

 Broyden mixing:
  rms(total) = 0.14490E-01    rms(broyden)= 0.14485E-01
  rms(prec ) = 0.22282E-01
  weight for this iteration     100.00

 eigenvalues of (default mixing * dielectric matrix)
  average eigenvalue GAMMA=   2.0679
  4.8888  2.3862  2.1134  1.9094  0.9622  1.1077  1.1077

 Free energy of the ion-electron system (eV)
  ---------------------------------------------------
  alpha Z        PSCENC =        91.34886789
  Ewald energy   TEWEN  =    118611.82257729
  -Hartree energ DENC   =   -129622.26655199
  -exchange      EXHF   =         0.00000000
  -V(xc)+E(xc)   XCENC  =      1276.28646034
  PAW double counting   =     40573.70796972   -40637.56804196
  entropy T*S    EENTRO =        -0.07307652
  eigenvalues    EBANDS =     -4660.00736955
  atomic energy  EATOM  =     13537.65479391
  Solvation  Ediel_sol  =         0.00000000
  ---------------------------------------------------
  free energy    TOTEN  =      -829.09437086 eV

  energy without entropy =     -829.02129435  energy(sigma->0) =     -829.05783260


--------------------------------------------------------------------------------------------------------




--------------------------------------- Iteration      1(  13)  ---------------------------------------


    POTLOK:  cpu time      0.3221: real time      0.3222
    SETDIJ:  cpu time      0.0401: real time      0.0401
     EDDAV:  cpu time      9.9738: real time      9.9772
       DOS:  cpu time      0.0007: real time      0.0007
    CHARGE:  cpu time      1.1532: real time      1.1554
    MIXING:  cpu time      0.3139: real time      0.3140
    --------------------------------------------
      LOOP:  cpu time     11.8039: real time     11.8096

 eigenvalue-minimisations  :  1536
 total energy-change (2. order) :-0.1145879E-01  (-0.7877172E-03)
 number of electron     368.0000006 magnetization 
 augmentation part        9.0576541 magnetization 

 Broyden mixing:
  rms(total) = 0.88801E-02    rms(broyden)= 0.88783E-02
  rms(prec ) = 0.12247E-01
  weight for this iteration     100.00

 eigenvalues of (default mixing * dielectric matrix)
  average eigenvalue GAMMA=   2.1086
  5.4232  2.5146  2.5146  1.8631  1.2876  1.2876  0.8779  1.1003

 Free energy of the ion-electron system (eV)
  ---------------------------------------------------
  alpha Z        PSCENC =        91.34886789
  Ewald energy   TEWEN  =    118611.82257729
  -Hartree energ DENC   =   -129670.34320510
  -exchange      EXHF   =         0.00000000
  -V(xc)+E(xc)   XCENC  =      1276.47247289
  PAW double counting   =     40522.73533534   -40586.58914535
  entropy T*S    EENTRO =        -0.07292017
  eigenvalues    EBANDS =     -4612.13460635
  atomic energy  EATOM  =     13537.65479391
  Solvation  Ediel_sol  =         0.00000000
  ---------------------------------------------------
  free energy    TOTEN  =      -829.10582965 eV

  energy without entropy =     -829.03290949  energy(sigma->0) =     -829.06936957


--------------------------------------------------------------------------------------------------------




--------------------------------------- Iteration      1(  14)  ---------------------------------------


    POTLOK:  cpu time      0.3210: real time      0.3210
    SETDIJ:  cpu time      0.0402: real time      0.0402
     EDDAV:  cpu time     10.1362: real time     10.1400
       DOS:  cpu time      0.0008: real time      0.0008
    CHARGE:  cpu time      1.1549: real time      1.1576
    MIXING:  cpu time      0.3218: real time      0.3218
    --------------------------------------------
      LOOP:  cpu time     11.9748: real time     11.9815

 eigenvalue-minimisations  :  1568
 total energy-change (2. order) :-0.1933861E-01  (-0.1339283E-03)
 number of electron     368.0000006 magnetization 
 augmentation part        9.0567125 magnetization 

 Broyden mixing:
  rms(total) = 0.51524E-02    rms(broyden)= 0.51519E-02
  rms(prec ) = 0.72873E-02
  weight for this iteration     100.00

 eigenvalues of (default mixing * dielectric matrix)
  average eigenvalue GAMMA=   2.2306
  6.5699  3.0393  2.5007  1.9179  1.6690  1.2422  1.2422  0.9471  0.9471

 Free energy of the ion-electron system (eV)
  ---------------------------------------------------
  alpha Z        PSCENC =        91.34886789
  Ewald energy   TEWEN  =    118611.82257729
  -Hartree energ DENC   =   -129685.99801292
  -exchange      EXHF   =         0.00000000
  -V(xc)+E(xc)   XCENC  =      1276.48944328
  PAW double counting   =     40533.16664228   -40597.03098203
  entropy T*S    EENTRO =        -0.07300906
  eigenvalues    EBANDS =     -4596.50548888
  atomic energy  EATOM  =     13537.65479391
  Solvation  Ediel_sol  =         0.00000000
  ---------------------------------------------------
  free energy    TOTEN  =      -829.12516826 eV

  energy without entropy =     -829.05215920  energy(sigma->0) =     -829.08866373


--------------------------------------------------------------------------------------------------------




--------------------------------------- Iteration      1(  15)  ---------------------------------------


    POTLOK:  cpu time      0.3194: real time      0.3195
    SETDIJ:  cpu time      0.0401: real time      0.0402
     EDDAV:  cpu time     10.2079: real time     10.2114
       DOS:  cpu time      0.0007: real time      0.0007
    CHARGE:  cpu time      1.1550: real time      1.1570
    MIXING:  cpu time      0.3301: real time      0.3314
    --------------------------------------------
      LOOP:  cpu time     12.0533: real time     12.0603

 eigenvalue-minimisations  :  1576
 total energy-change (2. order) :-0.1894148E-01  (-0.1568105E-03)
 number of electron     368.0000006 magnetization 
 augmentation part        9.0565325 magnetization 

 Broyden mixing:
  rms(total) = 0.31199E-02    rms(broyden)= 0.31196E-02
  rms(prec ) = 0.41034E-02
  weight for this iteration     100.00

 eigenvalues of (default mixing * dielectric matrix)
  average eigenvalue GAMMA=   2.2591
  7.0892  3.5221  2.3023  2.3023  1.6880  1.3414  1.3414  1.1403  0.9320  0.9320

 Free energy of the ion-electron system (eV)
  ---------------------------------------------------
  alpha Z        PSCENC =        91.34886789
  Ewald energy   TEWEN  =    118611.82257729
  -Hartree energ DENC   =   -129695.64239520
  -exchange      EXHF   =         0.00000000
  -V(xc)+E(xc)   XCENC  =      1276.45758161
  PAW double counting   =     40527.70218524   -40591.56702058
  entropy T*S    EENTRO =        -0.07304251
  eigenvalues    EBANDS =     -4586.84765739
  atomic energy  EATOM  =     13537.65479391
  Solvation  Ediel_sol  =         0.00000000
  ---------------------------------------------------
  free energy    TOTEN  =      -829.14410975 eV

  energy without entropy =     -829.07106723  energy(sigma->0) =     -829.10758849


--------------------------------------------------------------------------------------------------------




--------------------------------------- Iteration      1(  16)  ---------------------------------------


    POTLOK:  cpu time      0.3203: real time      0.3203
    SETDIJ:  cpu time      0.0405: real time      0.0405
     EDDAV:  cpu time     10.4069: real time     10.4112
       DOS:  cpu time      0.0008: real time      0.0008
    CHARGE:  cpu time      1.1626: real time      1.1649
    MIXING:  cpu time      0.3413: real time      0.3418
    --------------------------------------------
      LOOP:  cpu time     12.2724: real time     12.2795

 eigenvalue-minimisations  :  1616
 total energy-change (2. order) :-0.8219155E-02  (-0.4735493E-04)
 number of electron     368.0000006 magnetization 
 augmentation part        9.0564732 magnetization 

 Broyden mixing:
  rms(total) = 0.20347E-02    rms(broyden)= 0.20346E-02
  rms(prec ) = 0.25648E-02
  weight for this iteration     100.00

 eigenvalues of (default mixing * dielectric matrix)
  average eigenvalue GAMMA=   2.3481
  7.9836  4.0735  2.4082  2.4082  1.8794  1.5061  1.5061  0.9258  0.9608  1.0889
  1.0889

 Free energy of the ion-electron system (eV)
  ---------------------------------------------------
  alpha Z        PSCENC =        91.34886789
  Ewald energy   TEWEN  =    118611.82257729
  -Hartree energ DENC   =   -129698.97282118
  -exchange      EXHF   =         0.00000000
  -V(xc)+E(xc)   XCENC  =      1276.44280547
  PAW double counting   =     40526.54608093   -40590.40670517
  entropy T*S    EENTRO =        -0.07299881
  eigenvalues    EBANDS =     -4583.51492923
  atomic energy  EATOM  =     13537.65479391
  Solvation  Ediel_sol  =         0.00000000
  ---------------------------------------------------
  free energy    TOTEN  =      -829.15232890 eV

  energy without entropy =     -829.07933009  energy(sigma->0) =     -829.11582950


--------------------------------------------------------------------------------------------------------




--------------------------------------- Iteration      1(  17)  ---------------------------------------


    POTLOK:  cpu time      0.3207: real time      0.3208
    SETDIJ:  cpu time      0.0402: real time      0.0402
     EDDAV:  cpu time     10.2078: real time     10.2114
       DOS:  cpu time      0.0008: real time      0.0008
    CHARGE:  cpu time      1.1550: real time      1.1567
    MIXING:  cpu time      0.3494: real time      0.3508
    --------------------------------------------
      LOOP:  cpu time     12.0739: real time     12.0807

 eigenvalue-minimisations  :  1576
 total energy-change (2. order) :-0.4518763E-02  (-0.2601647E-04)
 number of electron     368.0000006 magnetization 
 augmentation part        9.0563358 magnetization 

 Broyden mixing:
  rms(total) = 0.10370E-02    rms(broyden)= 0.10369E-02
  rms(prec ) = 0.13425E-02
  weight for this iteration     100.00

 eigenvalues of (default mixing * dielectric matrix)
  average eigenvalue GAMMA=   2.4157
  8.4071  4.8236  2.5551  2.5551  2.0538  1.3993  1.3993  1.4042  1.4042  0.9533
  1.0169  1.0169

 Free energy of the ion-electron system (eV)
  ---------------------------------------------------
  alpha Z        PSCENC =        91.34886789
  Ewald energy   TEWEN  =    118611.82257729
  -Hartree energ DENC   =   -129701.19529119
  -exchange      EXHF   =         0.00000000
  -V(xc)+E(xc)   XCENC  =      1276.44482184
  PAW double counting   =     40529.73578410   -40593.59549874
  entropy T*S    EENTRO =        -0.07301728
  eigenvalues    EBANDS =     -4581.29988548
  atomic energy  EATOM  =     13537.65479391
  Solvation  Ediel_sol  =         0.00000000
  ---------------------------------------------------
  free energy    TOTEN  =      -829.15684766 eV

  energy without entropy =     -829.08383039  energy(sigma->0) =     -829.12033902


--------------------------------------------------------------------------------------------------------




--------------------------------------- Iteration      1(  18)  ---------------------------------------


    POTLOK:  cpu time      0.3199: real time      0.3198
    SETDIJ:  cpu time      0.0403: real time      0.0403
     EDDAV:  cpu time     10.3261: real time     10.3297
       DOS:  cpu time      0.0007: real time      0.0007
    CHARGE:  cpu time      1.1553: real time      1.1564
    MIXING:  cpu time      0.3592: real time      0.3599
    --------------------------------------------
      LOOP:  cpu time     12.2016: real time     12.2069

 eigenvalue-minimisations  :  1600
 total energy-change (2. order) :-0.2249039E-02  (-0.1122487E-04)
 number of electron     368.0000006 magnetization 
 augmentation part        9.0562771 magnetization 

 Broyden mixing:
  rms(total) = 0.58374E-03    rms(broyden)= 0.58366E-03
  rms(prec ) = 0.72666E-03
  weight for this iteration     100.00

 eigenvalues of (default mixing * dielectric matrix)
  average eigenvalue GAMMA=   2.4064
  8.8238  5.0435  2.8596  2.4965  2.0270  1.7607  1.5324  1.5324  1.1494  1.1494
  0.9328  0.9328  1.0433

 Free energy of the ion-electron system (eV)
  ---------------------------------------------------
  alpha Z        PSCENC =        91.34886789
  Ewald energy   TEWEN  =    118611.82257729
  -Hartree energ DENC   =   -129702.02078439
  -exchange      EXHF   =         0.00000000
  -V(xc)+E(xc)   XCENC  =      1276.44442476
  PAW double counting   =     40529.13588239   -40592.99503212
  entropy T*S    EENTRO =        -0.07301807
  eigenvalues    EBANDS =     -4580.47680836
  atomic energy  EATOM  =     13537.65479391
  Solvation  Ediel_sol  =         0.00000000
  ---------------------------------------------------
  free energy    TOTEN  =      -829.15909670 eV

  energy without entropy =     -829.08607863  energy(sigma->0) =     -829.12258767


--------------------------------------------------------------------------------------------------------




--------------------------------------- Iteration      1(  19)  ---------------------------------------


    POTLOK:  cpu time      0.3209: real time      0.3210
    SETDIJ:  cpu time      0.0403: real time      0.0403
     EDDAV:  cpu time      9.6455: real time      9.6492
       DOS:  cpu time      0.0007: real time      0.0007
    CHARGE:  cpu time      1.1555: real time      1.1570
    MIXING:  cpu time      0.3729: real time      0.3739
    --------------------------------------------
      LOOP:  cpu time     11.5359: real time     11.5422

 eigenvalue-minimisations  :  1456
 total energy-change (2. order) :-0.7014618E-03  (-0.1735148E-05)
 number of electron     368.0000006 magnetization 
 augmentation part        9.0562842 magnetization 

 Broyden mixing:
  rms(total) = 0.38255E-03    rms(broyden)= 0.38253E-03
  rms(prec ) = 0.46278E-03
  weight for this iteration     100.00

 eigenvalues of (default mixing * dielectric matrix)
  average eigenvalue GAMMA=   2.4069
  8.9464  5.4708  3.1050  2.3976  2.3976  1.8792  1.4208  1.4208  1.3400  1.3400
  0.9337  1.0374  1.0035  1.0035

 Free energy of the ion-electron system (eV)
  ---------------------------------------------------
  alpha Z        PSCENC =        91.34886789
  Ewald energy   TEWEN  =    118611.82257729
  -Hartree energ DENC   =   -129702.26244512
  -exchange      EXHF   =         0.00000000
  -V(xc)+E(xc)   XCENC  =      1276.44251446
  PAW double counting   =     40528.21164129   -40592.07011150
  entropy T*S    EENTRO =        -0.07302072
  eigenvalues    EBANDS =     -4580.23461566
  atomic energy  EATOM  =     13537.65479391
  Solvation  Ediel_sol  =         0.00000000
  ---------------------------------------------------
  free energy    TOTEN  =      -829.15979816 eV

  energy without entropy =     -829.08677745  energy(sigma->0) =     -829.12328781


--------------------------------------------------------------------------------------------------------




--------------------------------------- Iteration      1(  20)  ---------------------------------------


    POTLOK:  cpu time      0.3211: real time      0.3208
    SETDIJ:  cpu time      0.0404: real time      0.0405
     EDDAV:  cpu time      8.8719: real time      8.8772
       DOS:  cpu time      0.0008: real time      0.0008
    CHARGE:  cpu time      1.1545: real time      1.1569
    MIXING:  cpu time      0.3852: real time      0.3857
    --------------------------------------------
      LOOP:  cpu time     10.7738: real time     10.7820

 eigenvalue-minimisations  :  1304
 total energy-change (2. order) :-0.3464543E-03  (-0.5081028E-06)
 number of electron     368.0000006 magnetization 
 augmentation part        9.0562787 magnetization 

 Broyden mixing:
  rms(total) = 0.20626E-03    rms(broyden)= 0.20625E-03
  rms(prec ) = 0.25686E-03
  weight for this iteration     100.00

 eigenvalues of (default mixing * dielectric matrix)
  average eigenvalue GAMMA=   2.4538
  9.1576  5.9250  3.6783  2.5160  2.5160  1.9785  1.5976  1.5976  1.3518  1.3518
  1.1048  1.1048  0.9498  0.9885  0.9885

 Free energy of the ion-electron system (eV)
  ---------------------------------------------------
  alpha Z        PSCENC =        91.34886789
  Ewald energy   TEWEN  =    118611.82257729
  -Hartree energ DENC   =   -129702.38650713
  -exchange      EXHF   =         0.00000000
  -V(xc)+E(xc)   XCENC  =      1276.44172527
  PAW double counting   =     40528.11156852   -40591.97033553
  entropy T*S    EENTRO =        -0.07302153
  eigenvalues    EBANDS =     -4580.10981331
  atomic energy  EATOM  =     13537.65479391
  Solvation  Ediel_sol  =         0.00000000
  ---------------------------------------------------
  free energy    TOTEN  =      -829.16014462 eV

  energy without entropy =     -829.08712309  energy(sigma->0) =     -829.12363386


--------------------------------------------------------------------------------------------------------




--------------------------------------- Iteration      1(  21)  ---------------------------------------


    POTLOK:  cpu time      0.3195: real time      0.3215
    SETDIJ:  cpu time      0.0402: real time      0.0401
     EDDAV:  cpu time      8.7526: real time      8.7556
       DOS:  cpu time      0.0008: real time      0.0008
    CHARGE:  cpu time      1.1658: real time      1.1666
    MIXING:  cpu time      0.3953: real time      0.3967
    --------------------------------------------
      LOOP:  cpu time     10.6741: real time     10.6813

 eigenvalue-minimisations  :  1280
 total energy-change (2. order) :-0.2032972E-03  (-0.3030278E-06)
 number of electron     368.0000006 magnetization 
 augmentation part        9.0562803 magnetization 

 Broyden mixing:
  rms(total) = 0.10256E-03    rms(broyden)= 0.10254E-03
  rms(prec ) = 0.12878E-03
  weight for this iteration     100.00

 eigenvalues of (default mixing * dielectric matrix)
  average eigenvalue GAMMA=   2.4112
  9.1659  6.1379  3.7743  2.5641  2.5641  1.9955  1.4408  1.4408  1.5803  1.3801
  1.3801  1.2204  0.9533  0.9533  1.0143  1.0143

 Free energy of the ion-electron system (eV)
  ---------------------------------------------------
  alpha Z        PSCENC =        91.34886789
  Ewald energy   TEWEN  =    118611.82257729
  -Hartree energ DENC   =   -129702.48270203
  -exchange      EXHF   =         0.00000000
  -V(xc)+E(xc)   XCENC  =      1276.44108341
  PAW double counting   =     40527.72017218   -40591.57911755
  entropy T*S    EENTRO =        -0.07302075
  eigenvalues    EBANDS =     -4580.01300225
  atomic energy  EATOM  =     13537.65479391
  Solvation  Ediel_sol  =         0.00000000
  ---------------------------------------------------
  free energy    TOTEN  =      -829.16034792 eV

  energy without entropy =     -829.08732717  energy(sigma->0) =     -829.12383754


[...]
   0.124E+02 -.292E+01 0.134E+02   -.137E+02 0.213E+01 -.132E+02   -.740E+00 -.827E+00 0.936E+00   0.640E-06 0.347E-05 -.904E-06
   0.136E+02 -.126E+02 0.935E+02   -.135E+02 0.134E+02 -.940E+02   0.330E+00 0.982E+00 0.127E+01   -.374E-05 -.720E-06 0.146E-05
   0.749E+00 0.195E+02 0.550E+02   0.396E+00 -.207E+02 -.548E+02   0.249E+00 -.906E+00 -.793E+00   -.333E-05 0.250E-05 0.985E-06
   0.107E+02 0.193E+02 0.781E+02   -.105E+02 -.206E+02 -.775E+02   0.769E-01 -.120E+01 -.200E+01   -.299E-05 0.641E-06 0.199E-05
   0.177E+02 -.146E+02 0.131E+03   -.180E+02 0.152E+02 -.131E+03   0.551E+00 -.419E+00 0.179E+01   -.453E-05 0.736E-06 0.261E-05
   0.209E+02 -.193E+02 0.164E+03   -.221E+02 0.209E+02 -.165E+03   0.475E+00 0.931E+00 0.152E+01   -.142E-05 0.568E-06 0.283E-05
   0.115E+02 0.964E+01 0.119E+03   -.117E+02 -.853E+01 -.119E+03   -.432E+00 0.918E+00 -.224E+00   -.180E-05 -.152E-05 0.260E-05
   0.300E+01 0.686E+01 0.148E+03   -.332E+01 -.623E+01 -.148E+03   0.971E+00 0.370E+00 -.480E-01   -.306E-05 0.231E-06 0.218E-05
   -.731E+01 -.107E+02 0.163E+03   0.756E+01 0.103E+02 -.163E+03   -.667E+00 -.581E+00 0.481E+00   -.378E-05 -.727E-06 0.253E-05
   -.976E+01 -.144E+02 0.100E+03   0.968E+01 0.143E+02 -.100E+03   0.279E+00 -.100E+01 -.114E+00   -.101E-06 0.661E-06 0.203E-05
   -.112E+02 0.185E+02 0.180E+03   0.109E+02 -.191E+02 -.180E+03   -.597E+00 -.320E+00 0.224E+00   -.202E-05 -.343E-05 0.164E-05
   -.735E+01 0.701E+01 0.677E+02   0.755E+01 -.586E+01 -.675E+02   -.156E+00 0.953E+00 -.738E+00   0.771E-06 -.152E-05 0.108E-05
   -.302E+02 0.169E+01 0.173E+03   0.306E+02 -.289E+01 -.173E+03   -.300E+00 -.494E+00 0.117E+01   0.768E-06 -.252E-05 0.571E-06
   0.309E+01 -.121E+02 0.333E+01   -.297E+01 0.121E+02 -.273E+01   -.506E+00 -.149E+00 -.766E+00   -.126E-05 -.204E-05 -.651E-06
   -.349E+02 0.107E+02 0.132E+03   0.349E+02 -.104E+02 -.133E+03   -.559E+00 0.342E+00 0.300E+00   0.151E-05 -.681E-08 0.672E-06
   0.609E+01 0.169E+02 -.280E+02   -.583E+01 -.188E+02 0.284E+02   -.100E+01 -.641E+00 -.465E-01   0.343E-05 -.187E-05 0.149E-05
   -.941E+01 -.137E+02 0.464E+02   0.945E+01 0.154E+02 -.464E+02   0.623E+00 0.843E+00 -.516E+00   0.277E-05 0.105E-05 0.109E-05
   0.350E+02 -.690E+01 -.109E+03   -.358E+02 0.667E+01 0.109E+03   -.574E+00 -.210E-02 -.105E+01   0.576E-05 -.317E-06 0.192E-05
   -.228E+02 0.175E+02 0.500E+02   0.235E+02 -.181E+02 -.501E+02   0.448E+00 0.867E-01 0.904E+00   0.395E-05 -.504E-06 0.221E-05
   0.220E+02 -.257E+01 -.135E+03   -.213E+02 0.331E+01 0.135E+03   0.338E+00 0.257E+00 0.105E+00   0.175E-05 -.176E-05 0.215E-06
   0.169E+02 -.109E+01 -.609E+02   -.180E+02 0.843E+00 0.607E+02   -.406E+00 -.491E+00 -.649E+00   0.338E-06 -.159E-05 0.114E-05
   0.329E+02 -.191E+02 -.173E+03   -.330E+02 0.194E+02 0.173E+03   0.349E+00 -.436E+00 -.420E-01   0.825E-06 0.257E-05 -.117E-05
   -.106E+02 0.191E+02 -.578E+02   0.119E+02 -.203E+02 0.584E+02   0.840E+00 -.141E+01 -.991E+00   -.136E-05 0.862E-07 -.320E-07
   0.187E+02 0.617E+01 -.140E+03   -.192E+02 -.531E+01 0.140E+03   -.506E+00 0.146E+01 -.562E+00   -.315E-06 -.234E-05 -.141E-05
   0.156E+02 -.833E+00 -.449E+02   -.174E+02 0.124E+00 0.446E+02   -.258E+00 0.741E+00 0.652E+00   0.362E-05 -.163E-05 0.575E-06
   -.124E+01 -.283E+00 -.160E+03   0.160E+01 -.122E+01 0.160E+03   -.342E+00 -.816E-01 0.778E+00   -.752E-05 0.216E-05 -.449E-05
   -.124E+02 0.742E+01 -.430E+02   0.126E+02 -.815E+01 0.421E+02   0.124E+01 0.368E-02 0.145E+01   -.326E-05 -.193E-05 -.265E-05
   -.449E+01 0.610E+02 -.237E+03   0.216E+01 -.612E+02 0.238E+03   0.328E+00 0.245E+01 -.234E+01   -.120E-05 0.367E-05 -.505E-05
   0.100E+01 -.504E+02 -.147E+03   -.463E+01 0.498E+02 0.148E+03   0.192E+01 -.184E+01 -.652E+00   -.632E-06 -.176E-05 -.456E-05
   -.330E+01 0.612E+02 -.184E+03   0.690E+01 -.624E+02 0.184E+03   -.686E+00 0.241E+01 -.978E+00   0.103E-05 0.513E-05 -.482E-05
   -.815E+01 -.673E+02 -.145E+03   0.124E+02 0.684E+02 0.145E+03   -.163E+01 -.652E+00 -.171E+00   0.795E-06 -.624E-05 -.418E-05
   -.144E+02 -.145E+02 -.124E+03   0.150E+02 0.160E+02 0.124E+03   -.103E+01 0.107E+01 0.416E+00   -.751E-06 0.679E-06 -.194E-05
   0.853E+01 0.691E+01 -.100E+03   -.953E+01 -.790E+01 0.100E+03   -.705E+00 -.133E+01 0.835E+00   0.113E-05 -.153E-05 -.242E-05
   -.102E+02 0.140E+02 -.847E+02   0.101E+02 -.141E+02 0.845E+02   -.281E+00 -.550E+00 0.530E-01   0.553E-07 -.242E-05 -.200E-06
   -.145E+02 -.102E+02 -.105E+03   0.148E+02 0.990E+01 0.105E+03   0.183E+00 -.816E+00 -.144E+01   0.115E-05 0.362E-05 -.378E-06
   0.805E+01 -.448E+01 -.175E+02   -.857E+01 0.435E+01 0.175E+02   -.451E-01 -.495E-01 0.979E+00   0.575E-05 -.392E-05 -.107E-05
   0.504E+00 0.151E+02 -.235E+02   -.422E+00 -.159E+02 0.228E+02   0.513E+00 -.681E-01 0.129E+01   0.390E-05 0.294E-05 -.572E-06
   0.124E+02 0.187E+02 0.300E+02   -.125E+02 -.196E+02 -.302E+02   0.334E+00 -.230E+00 0.317E+00   0.159E-05 0.416E-06 0.590E-06
   0.901E+01 -.170E+02 0.578E+01   -.975E+01 0.178E+02 -.530E+01   -.643E+00 0.312E+00 -.746E+00   0.161E-05 -.114E-05 0.325E-06
   0.124E+02 -.656E+01 0.343E+02   -.126E+02 0.630E+01 -.345E+02   0.544E+00 -.427E+00 0.577E+00   0.282E-06 -.627E-06 0.907E-06
   0.127E+02 0.975E+00 0.663E+02   -.122E+02 -.347E+00 -.667E+02   0.840E+00 0.609E+00 0.735E+00   -.131E-05 0.220E-06 0.131E-05
   0.966E+01 0.574E+01 0.553E+02   -.987E+01 -.487E+01 -.553E+02   -.362E+00 0.605E+00 -.111E+01   0.172E-05 -.270E-05 -.183E-07
   0.192E+02 -.173E+02 0.105E+03   -.188E+02 0.172E+02 -.106E+03   0.398E+00 -.612E-01 0.686E+00   0.616E-06 -.511E-06 0.258E-06
   0.156E+02 -.203E+02 0.989E+02   -.147E+02 0.215E+02 -.999E+02   0.139E+01 0.815E+00 0.574E+00   0.584E-06 -.272E-05 0.755E-06
   0.214E+02 0.131E+02 0.919E+02   -.213E+02 -.137E+02 -.920E+02   0.219E-01 -.489E+00 -.924E-01   0.332E-05 0.150E-05 -.529E-06
   0.424E+02 0.152E+02 0.166E+03   -.433E+02 -.152E+02 -.166E+03   0.341E+00 0.723E+00 0.145E+01   -.162E-05 0.249E-06 0.185E-05
   0.344E+02 -.151E+02 0.138E+03   -.352E+02 0.149E+02 -.138E+03   0.121E+00 0.153E+00 0.310E+00   -.147E-05 0.442E-06 0.119E-05
   0.163E+02 -.255E+02 0.115E+03   -.163E+02 0.274E+02 -.115E+03   -.106E+00 0.773E-01 -.920E+00   -.466E-05 -.323E-05 0.254E-05
   0.114E+02 0.149E+02 0.110E+03   -.104E+02 -.157E+02 -.110E+03   0.228E+00 0.738E+00 -.900E+00   -.678E-05 -.416E-07 0.230E-05
   0.263E+02 0.208E+02 0.168E+03   -.269E+02 -.213E+02 -.169E+03   0.639E-01 0.431E+00 0.173E+01   -.427E-05 -.680E-06 0.272E-05
   0.268E+02 -.245E+02 0.152E+03   -.277E+02 0.254E+02 -.152E+03   -.882E+00 0.592E+00 0.429E+00   -.273E-05 -.477E-06 0.274E-05
   0.875E+01 -.442E+01 0.890E+02   -.892E+01 0.282E+01 -.885E+02   -.112E+00 -.126E+01 -.161E+01   -.312E-05 -.365E-06 0.252E-05
   0.144E+02 0.112E+02 0.144E+03   -.147E+02 -.120E+02 -.143E+03   -.585E+00 0.463E-01 -.108E+01   -.223E-05 0.679E-06 0.273E-05
   -.835E+01 0.125E+02 0.139E+03   0.900E+01 -.121E+02 -.139E+03   -.783E-01 0.858E+00 -.103E-01   -.361E-05 -.266E-06 0.243E-05
   -.984E+01 -.826E+01 0.187E+03   0.104E+02 0.776E+01 -.188E+03   0.902E-01 0.762E-01 0.157E+01   -.286E-05 0.156E-05 0.204E-05
   -.698E+01 -.169E+02 0.155E+03   0.626E+01 0.173E+02 -.155E+03   -.652E+00 0.156E-01 -.211E+00   0.538E-06 0.258E-05 0.218E-05
   -.152E+02 0.160E+02 0.124E+03   0.158E+02 -.163E+02 -.124E+03   0.754E+00 -.392E+00 -.365E+00   0.195E-05 -.202E-06 0.216E-05
   -.243E+02 -.631E+00 0.147E+03   0.246E+02 0.182E+01 -.148E+03   0.224E+00 0.403E+00 0.498E+00   0.293E-05 0.285E-05 0.165E-05
   -.141E+02 -.117E+02 0.114E+03   0.134E+02 0.115E+02 -.115E+03   -.358E+00 -.608E+00 0.242E+00   0.273E-05 0.943E-06 0.141E-05
   -.298E+02 -.110E+02 0.120E+03   0.304E+02 0.107E+02 -.119E+03   0.934E+00 -.399E+00 -.741E+00   -.203E-07 0.278E-05 0.660E-06
   -.745E+01 0.140E+02 0.462E+02   0.780E+01 -.143E+02 -.458E+02   -.109E+00 0.354E+00 0.206E+00   -.235E-05 -.553E-06 -.119E-05
   -.255E+02 0.768E+00 0.134E+03   0.247E+02 0.421E-01 -.135E+03   -.509E+00 0.407E+00 0.138E+01   0.194E-05 -.865E-06 0.333E-07
   0.669E+01 -.518E+01 0.187E+02   -.811E+01 0.402E+01 -.195E+02   -.858E+00 -.525E+00 -.123E+01   0.183E-05 0.144E-05 0.937E-06
   -.351E+02 -.189E+01 0.108E+03   0.349E+02 0.122E+01 -.109E+03   -.142E+00 -.636E+00 0.129E+00   0.295E-05 0.318E-06 0.102E-05
   0.176E+02 -.237E+01 -.712E+02   -.170E+02 0.350E+01 0.717E+02   -.196E+00 0.446E+00 0.763E+00   0.291E-05 0.246E-05 0.140E-05
   -.272E+02 -.318E+01 0.555E+02   0.273E+02 0.363E+01 -.560E+02   -.890E-01 -.531E-01 0.101E+01   0.535E-06 -.127E-05 -.361E-06
   0.158E+02 -.918E+01 -.137E+03   -.143E+02 0.101E+02 0.138E+03   0.162E+01 0.107E+01 -.109E+01   -.155E-05 0.669E-06 -.525E-06
   -.353E+02 -.110E+02 0.534E+02   0.364E+02 0.113E+02 -.540E+02   0.232E+00 -.795E+00 0.199E+01   -.938E-06 -.186E-05 -.670E-06
   0.452E+02 0.215E+02 -.187E+03   -.464E+02 -.226E+02 0.187E+03   -.483E-01 -.687E+00 -.124E+01   0.931E-06 0.537E-05 -.131E-06
   -.808E+01 0.156E+02 -.444E+02   0.876E+01 -.165E+02 0.442E+02   0.161E+00 -.287E+00 0.326E+00   0.190E-05 -.325E-06 0.693E-07
   0.209E+02 -.157E+02 -.128E+03   -.219E+02 0.162E+02 0.128E+03   -.166E-01 0.198E+00 0.211E+00   0.215E-05 0.146E-05 -.766E-06
   -.895E+00 -.934E+01 -.107E+03   0.365E+00 0.108E+02 0.107E+03   0.123E+00 0.124E+01 -.547E+00   -.205E-05 -.116E-05 -.247E-05
   -.187E+01 -.348E+01 -.140E+03   0.241E+01 0.483E+01 0.141E+03   0.114E+01 0.101E+01 0.373E+00   -.482E-05 0.110E-05 -.381E-05
   0.387E+01 0.651E+02 -.193E+03   -.751E+01 -.664E+02 0.194E+03   0.153E+01 0.412E+00 -.128E+01   0.209E-05 0.249E-05 -.459E-05
   -.502E+01 -.720E+02 -.166E+03   0.161E+01 0.739E+02 0.167E+03   0.139E+00 -.222E+01 -.278E+00   0.259E-05 -.490E-05 -.485E-05
 -----------------------------------------------------------------------------------------------
   0.156E+00 0.594E+00 0.219E+01   -.439E-12 0.526E-12 0.568E-13   -.970E-01 -.538E+00 -.216E+01   0.153E-05 0.146E-05 -.854E-05
 
 
 POSITION                                       TOTAL-FORCE (eV/Angst)
 -----------------------------------------------------------------------------------
      0.22187      0.89560     18.58160         0.701901      0.431303     -0.103059
      0.15536      2.28638     18.45970         2.280444     -2.147964      0.600477
      1.39281      0.21519     18.35320         1.216918      1.129697     -0.230264
      1.37257      2.89228     18.33870         2.219808     -1.435631     -0.828916
      2.67712      0.83329     18.11720         0.093387      1.496261      0.302344
      2.66417      2.22718     18.13300        -0.624246     -1.194430      0.195368
      3.92265      0.16285     17.77520        -1.358335      1.346012      0.076000
      3.88291      2.88154     17.77770        -0.896473      0.803183     -0.182248
      5.13495      0.81484     17.48880        -0.051756      1.930625     -0.512607
      5.08482      2.24014     17.49080         2.125523     -1.773830     -0.751919
      6.26441      0.16905     16.91160         0.313946     -0.003357     -0.062944
      6.28061      2.89537     16.96740        -1.318206     -0.616586      0.132702
      7.49238      0.82972     16.56250        -0.584175      1.038764      0.417462
      7.47079      2.23048     16.57470         0.876138     -1.117219      1.062705
      8.68847      0.19132     16.13200        -0.530765     -0.059427     -0.292532
      8.69307      2.90940     16.23770         0.127350     -2.494488     -1.133472
      9.90632      0.84931     15.82970         0.445699      0.472008     -0.301352
      9.94230      2.25439     15.84790        -2.054736     -1.614765      1.160055
     11.08360      0.14562     15.40320         0.413127      1.770142      0.803782
     11.10580      2.90990     15.47870         1.393739     -2.098170     -0.580263
     12.33070      0.86819     15.23390         0.282939     -2.505863     -1.369634
     12.34120      2.22485     15.15800         0.305516      0.261653      1.336442
     13.58470      0.15719     14.95930        -0.703019      2.509341      1.211033
     13.62440      2.85126     15.05140        -0.571218      2.024783     -0.131018
     14.82770      0.84143     15.00220         0.656485      0.999061     -0.080565
     14.88230      2.23200     14.96080        -0.418566     -1.012104      0.348398
     16.07100      0.21854     15.23310         0.201221     -1.084645     -0.099733
     16.16270      2.88420     15.02400        -0.943521     -0.901315      0.009896
     17.30980      0.83316     15.54070         0.046931      2.104358     -0.591865
     17.37640      2.22219     15.28170         0.118536     -1.700902      1.242636
     18.48010      0.20583     16.03260        -0.384648     -0.119117     -0.161494
     18.58120      2.86125     15.64470        -0.557666      0.705123     -0.169649
     19.65620      0.88443     16.48160        -0.750245     -2.563186      0.374604
     19.68670      2.19538     16.23600         0.668904      2.505640     -0.488892
     20.76070      0.20135     17.09630        -1.305713     -0.232291     -0.794850
     20.86890      2.89020     16.57470         1.192685     -0.510944      0.834553
     21.90360      0.86779     17.51350         1.061075      0.990243      0.271035
     21.97950      2.25378     17.25800        -1.496020     -0.736587     -0.834123
     23.07930      0.18798     17.97440         0.200179     -0.129293      0.042404
     23.16080      2.93596     17.51790         2.074586     -2.568347     -0.343174
     24.36120      0.80376     18.15380        -0.952195      2.316695     -0.595632
     24.39070      2.18230     17.88230        -2.021312      0.031964      0.346158
     25.59000      0.17060     18.42950         0.018192     -1.581918      0.504167
     25.58580      2.84990     18.08320         1.368730     -0.727827      0.527431
     26.79930      0.81672     18.67720        -2.003145      2.304334     -1.289369
     26.76850      2.23153     18.45320        -1.714414     -2.516481      0.359944
      0.19595      4.86275     18.53940         2.910259      1.211411     -0.537680
      0.20388      6.24493     18.47350         2.645285      0.450280      0.021828
      1.42265      4.22851     18.30450        -0.433244      2.529249      0.047618
      1.40814      6.96869     18.25750        -1.700156     -2.318391      0.723774
      2.63358      4.93072     17.97200        -0.379339     -0.650247     -0.161486
      2.62415      6.31076     18.01000         0.475634     -1.122287     -1.264068
      3.82689      4.25352     17.54700        -0.563526     -0.188529      0.963995
      3.83020      6.92922     17.57340         0.594142     -0.885770      0.568524
      4.98389      4.90276     17.07870         0.179634     -1.124769      0.068717
      5.00649      6.25316     17.10630        -1.378019      1.099479     -0.264144
      6.19397      4.24991     16.73790         0.325712     -0.682243      0.406973
      6.16224      6.90122     16.66640         1.363150      1.237311      0.306532
      7.38026      4.87341     16.29340        -0.576005      1.474261     -1.088252
      7.34995      6.26212     16.19610         0.773756     -0.095901      0.021242
      8.56223      4.20606     15.93020         2.293182      1.989716     -0.410905
      8.60184      6.93637     15.89630         0.051795     -1.122889     -0.159018
      9.79152      4.85429     15.42590        -0.600187      0.689478      1.154573
      9.80572      6.24179     15.46800        -0.692320     -0.034743      0.311305
     11.07390      4.23090     15.30480        -0.062231      1.906463     -0.806482
     11.06350      6.87962     15.30480         1.214030     -0.012083     -0.858210
     12.34360      4.87381     15.01810        -0.563251     -0.099183      1.054649
     12.35850      6.22575     15.02710        -1.784565      1.545248      0.321408
     13.61770      4.26697     15.08280        -0.284898     -2.864777     -1.098584
     13.60790      6.90520     14.96160        -0.921036     -0.737757     -0.502323
     14.86930      4.87866     14.99350         0.575485      1.210983     -0.103205
     14.85560      6.26329     14.91440         0.663107     -0.428084      0.957249
     16.15440      4.24135     15.06800        -1.372683      0.401708     -0.267609
     16.07270      6.94766     15.17050         1.285719     -0.709124      0.050977
     17.35700      4.90178     15.30640         0.512874      1.592585      0.370004
     17.34230      6.29728     15.42920        -1.049736     -0.807543     -0.182536
     18.55870      4.25704     15.63200         1.527655     -0.716719     -0.421949
     18.50020      6.93330     15.92610         0.236498      0.096293      0.590881
     19.77420      4.91946     16.01900        -1.243838      1.216347      0.761162
     19.70680      6.28644     16.34490        -2.285572     -1.682471     -2.030587
     20.93300      4.26649     16.42710        -0.305493     -1.308556     -0.382314
     20.75440      6.90425     16.97260         0.415845      1.575128      1.228707
     22.04190      4.92746     16.95570        -0.027221      0.400895      0.522711
     21.87020      6.20516     17.40890         3.133571      1.992135      0.350467
     23.22150      4.28159     17.29700         1.372668     -0.471589      1.348820
     23.07550      6.91488     17.98080        -1.189302     -1.700817     -1.341824
     24.37970      4.90635     17.83760         0.839080     -1.186576      0.123764
     24.34130      6.23564     18.09660        -1.021334      0.771619      0.062753
     25.60100      4.19880     18.19500        -0.407770      2.739607     -0.892450
     25.55800      6.86014     18.36590         1.680001      2.358116      0.779073
     26.78150      4.88046     18.54010        -2.113434     -0.885882     -0.479343
     26.80690      6.25254     18.52280        -3.277509     -0.375888     -0.094757
 -----------------------------------------------------------------------------------
    total drift:                                0.059369      0.055529      0.031523


--------------------------------------------------------------------------------------------------------



  FREE ENERGIE OF THE ION-ELECTRON SYSTEM (eV)
  ---------------------------------------------------
  free  energy   TOTEN  =      -829.16045795 eV

  energy  without entropy=     -829.08743679  energy(sigma->0) =     -829.12394737
 


--------------------------------------------------------------------------------------------------------


    POTLOK:  cpu time      0.4525: real time      0.4525


--------------------------------------------------------------------------------------------------------


     LOOP+:  cpu time    332.3322: real time    332.5433
    4ORBIT:  cpu time      0.0000: real time      0.0000

 total amount of memory used by VASP MPI-rank0  2294511. kBytes
=======================================================================

   base                                    :      30000. kBytes
   nonlr-proj                              :      15077. kBytes
   fftplans                                :     436558. kBytes
   grid                                    :     732614. kBytes
   one-center                              :        282. kBytes
   wavefun                                 :    1079980. kBytes
 
  
  
 General timing and accounting informations for this job:
 ========================================================
  
                  Total CPU time used (sec):      365.574
                            User time (sec):      357.111
                          System time (sec):        8.464
                         Elapsed time (sec):      365.863
  
                   Maximum memory used (kb):     3732408.
                   Average memory used (kb):          N/A
  
                          Minor page faults:      3178757
                          Major page faults:         6671
                 Voluntary context switches:         9805
