unknown system                          
            1
    28.050000    0.000000    0.000000
     0.000000    8.100000    0.000000
     0.000000    0.000000   33.500000
   C 
    92
Direct configuration=     1
   0.00790980  0.11056802  0.55467463
   0.00553879  0.28226914  0.55103582
   0.04965455  0.02656704  0.54785672
   0.04893298  0.35707160  0.54742388
   0.09544100  0.10287568  0.54081194
   0.09497932  0.27496049  0.54128358
   0.13984492  0.02010457  0.53060299
   0.13842816  0.35574568  0.53067761
   0.18306417  0.10059691  0.52205373
   0.18127701  0.27656049  0.52211343
   0.22333012  0.02086975  0.50482388
   0.22390766  0.35745309  0.50648955
   0.26710802  0.10243469  0.49440299
   0.26633832  0.27536790  0.49476716
   0.30974938  0.02361914  0.48155224
   0.30991337  0.35918519  0.48470746
   0.35316649  0.10485284  0.47252836
   0.35444920  0.27831975  0.47307164
   0.39513725  0.01797728  0.45979701
   0.39592870  0.35924691  0.46205075
   0.43959715  0.10718383  0.45474328
   0.43997148  0.27467284  0.45247761
   0.48430303  0.01940605  0.44654627
   0.48571836  0.35200741  0.44929552
   0.52861676  0.10388012  0.44782687
   0.53056328  0.27555556  0.44659104
   0.57294118  0.02698025  0.45471940
   0.57621034  0.35607407  0.44847761
   0.61710517  0.10285975  0.46390149
   0.61947950  0.27434444  0.45617015
   0.65882709  0.02541099  0.47858507
   0.66243137  0.35324074  0.46700597
   0.70075579  0.10918852  0.49198806
   0.70184314  0.27103457  0.48465672
   0.74013191  0.02485815  0.51033731
   0.74398930  0.35681481  0.49476716
   0.78087701  0.10713457  0.52279104
   0.78358289  0.27824444  0.51516418
   0.82279144  0.02320802  0.53654925
   0.82569697  0.36246420  0.52292239
   0.86849198  0.09922938  0.54190448
   0.86954367  0.26941975  0.53380000
   0.91229947  0.02106198  0.55013433
   0.91214973  0.35183951  0.53979701
   0.95541176  0.10082951  0.55752836
   0.95431373  0.27549753  0.55084179
   0.00698563  0.60033951  0.55341493
   0.00726848  0.77097901  0.55144776
   0.05071836  0.52203827  0.54640299
   0.05020107  0.86033210  0.54500000
   0.09388877  0.60873086  0.53647761
   0.09355258  0.77910617  0.53761194
   0.13643102  0.52512593  0.52379104
   0.13654902  0.85545926  0.52457910
   0.17767879  0.60527901  0.50981194
   0.17848449  0.77199506  0.51063582
   0.22081889  0.52468025  0.49963881
   0.21968770  0.85200247  0.49750448
   0.26311087  0.60165556  0.48637015
   0.26203030  0.77310123  0.48346567
   0.30524884  0.51926667  0.47552836
   0.30666096  0.85634198  0.47451642
   0.34907380  0.59929506  0.46047463
   0.34958004  0.77059136  0.46173134
   0.39479144  0.52233333  0.45685970
   0.39442068  0.84933580  0.45685970
   0.44005704  0.60170494  0.44830149
   0.44058824  0.76861111  0.44857015
   0.48547950  0.52678642  0.45023284
   0.48513012  0.85249383  0.44661493
   0.53009982  0.60230370  0.44756716
   0.52961141  0.77324568  0.44520597
   0.57591444  0.52362346  0.44979104
   0.57300178  0.85773580  0.45285075
   0.61878788  0.60515802  0.45690746
   0.61826381  0.77744198  0.46057313
   0.66162923  0.52556049  0.46662687
   0.65954367  0.85596296  0.47540597
   0.70496257  0.60734074  0.47817910
   0.70255971  0.77610370  0.48790746
   0.74627451  0.52672716  0.49036119
   0.73990731  0.85237654  0.50664478
   0.78580749  0.60832840  0.50614030
   0.77968627  0.76606914  0.51966866
   0.82786096  0.52859136  0.51632836
   0.82265597  0.85368889  0.53674030
   0.86915152  0.60572222  0.53246567
   0.86778253  0.76983210  0.54019701
   0.91269162  0.51837037  0.54313433
   0.91115865  0.84693086  0.54823582
   0.95477718  0.60252593  0.55343582
   0.95568271  0.77191852  0.55291940
