  92  92   0   0
  0.8273226E+02  0.2805000E-08  0.8100000E-09  0.3350000E-08  0.5000000E-15
   1.0000000000000000E-004
  CAR 
 unknown system                          
      3.76115218    -25.13648538  301     -3.16287565      1.00000000
    -25.136  0.0000E+00  0.0000E+00
    -25.040  0.0000E+00  0.0000E+00
    -24.944  0.0000E+00  0.0000E+00
    -24.848  0.0000E+00  0.0000E+00
    -24.751  0.0000E+00  0.0000E+00
    -24.655  0.0000E+00  0.0000E+00
    -24.559  0.0000E+00  0.0000E+00
    -24.462  0.0000E+00  0.0000E+00
    -24.366  0.0000E+00  0.0000E+00
    -24.270  0.2881E-14  0.2776E-15
    -24.173  0.6051E-12  0.5856E-13
    -24.077  0.7843E-10  0.7613E-11
    -23.981  0.6481E-08  0.6319E-09
    -23.884  0.3428E-06  0.3365E-07
    -23.788  0.1166E-04  0.1157E-05
    -23.692  0.2571E-03  0.2592E-04
    -23.595  0.3703E-02  0.3827E-03
    -23.499  0.3524E-01  0.3777E-02
    -23.403  0.2245E+00  0.2541E-01
    -23.306  0.9730E+00  0.1191E+00
    -23.210  0.2923E+01  0.4007E+00
    -23.114  0.6245E+01  0.1002E+01
    -23.017  0.9836E+01  0.1950E+01
    -22.921  0.1209E+02  0.3114E+01
    -22.825  0.1274E+02  0.4342E+01
    -22.728  0.1323E+02  0.5616E+01
    -22.632  0.1471E+02  0.7033E+01
    -22.536  0.1616E+02  0.8589E+01
    -22.439  0.1580E+02  0.1011E+02
    -22.343  0.1416E+02  0.1148E+02
    -22.247  0.1338E+02  0.1276E+02
    -22.150  0.1380E+02  0.1409E+02
    -22.054  0.1432E+02  0.1547E+02
    -21.958  0.1457E+02  0.1688E+02
    -21.861  0.1455E+02  0.1828E+02
    -21.765  0.1416E+02  0.1964E+02
    -21.669  0.1349E+02  0.2094E+02
    -21.572  0.1253E+02  0.2215E+02
    -21.476  0.1134E+02  0.2324E+02
    -21.380  0.1079E+02  0.2428E+02
    -21.283  0.1178E+02  0.2542E+02
    -21.187  0.1408E+02  0.2677E+02
    -21.091  0.1647E+02  0.2836E+02
    -20.994  0.1724E+02  0.3002E+02
    -20.898  0.1556E+02  0.3152E+02
    -20.802  0.1284E+02  0.3275E+02
    -20.706  0.1144E+02  0.3386E+02
    -20.609  0.1207E+02  0.3502E+02
    -20.513  0.1332E+02  0.3630E+02
    -20.417  0.1361E+02  0.3761E+02
    -20.320  0.1316E+02  0.3888E+02
    -20.224  0.1344E+02  0.4017E+02
    -20.128  0.1491E+02  0.4161E+02
    -20.031  0.1638E+02  0.4319E+02
    -19.935  0.1643E+02  0.4477E+02
    -19.839  0.1474E+02  0.4619E+02
    -19.742  0.1258E+02  0.4740E+02
    -19.646  0.1242E+02  0.4860E+02
    -19.550  0.1480E+02  0.5002E+02
    -19.453  0.1676E+02  0.5164E+02
    -19.357  0.1596E+02  0.5318E+02
    -19.261  0.1392E+02  0.5452E+02
    -19.164  0.1313E+02  0.5578E+02
    -19.068  0.1379E+02  0.5711E+02
    -18.972  0.1434E+02  0.5849E+02
    -18.875  0.1386E+02  0.5983E+02
    -18.779  0.1349E+02  0.6113E+02
    -18.683  0.1500E+02  0.6257E+02
    -18.586  0.1744E+02  0.6425E+02
    -18.490  0.1798E+02  0.6598E+02
    -18.394  0.1643E+02  0.6756E+02
    -18.297  0.1534E+02  0.6904E+02
    -18.201  0.1605E+02  0.7059E+02
    -18.105  0.1721E+02  0.7225E+02
    -18.008  0.1671E+02  0.7386E+02
    -17.912  0.1465E+02  0.7527E+02
    -17.816  0.1327E+02  0.7654E+02
    -17.719  0.1322E+02  0.7782E+02
    -17.623  0.1306E+02  0.7908E+02
    -17.527  0.1248E+02  0.8028E+02
    -17.430  0.1213E+02  0.8145E+02
    -17.334  0.1172E+02  0.8258E+02
    -17.238  0.1106E+02  0.8364E+02
    -17.141  0.1076E+02  0.8468E+02
    -17.045  0.1089E+02  0.8573E+02
    -16.949  0.1064E+02  0.8675E+02
    -16.852  0.9805E+01  0.8770E+02
    -16.756  0.9546E+01  0.8862E+02
    -16.660  0.1110E+02  0.8969E+02
    -16.564  0.1378E+02  0.9101E+02
    -16.467  0.1566E+02  0.9252E+02
    -16.371  0.1616E+02  0.9408E+02
    -16.275  0.1646E+02  0.9566E+02
    -16.178  0.1726E+02  0.9733E+02
    -16.082  0.1767E+02  0.9903E+02
    -15.986  0.1683E+02  0.1007E+03
    -15.889  0.1537E+02  0.1021E+03
    -15.793  0.1394E+02  0.1035E+03
    -15.697  0.1256E+02  0.1047E+03
    -15.600  0.1167E+02  0.1058E+03
    -15.504  0.1191E+02  0.1070E+03
    -15.408  0.1410E+02  0.1083E+03
    -15.311  0.1801E+02  0.1100E+03
    -15.215  0.2152E+02  0.1121E+03
    -15.119  0.2324E+02  0.1144E+03
    -15.022  0.2329E+02  0.1166E+03
    -14.926  0.2160E+02  0.1187E+03
    -14.830  0.1820E+02  0.1204E+03
    -14.733  0.1411E+02  0.1218E+03
    -14.637  0.1069E+02  0.1228E+03
    -14.541  0.8853E+01  0.1237E+03
    -14.444  0.8779E+01  0.1245E+03
    -14.348  0.9637E+01  0.1255E+03
    -14.252  0.1039E+02  0.1265E+03
    -14.155  0.1133E+02  0.1275E+03
    -14.059  0.1304E+02  0.1288E+03
    -13.963  0.1479E+02  0.1302E+03
    -13.866  0.1599E+02  0.1318E+03
    -13.770  0.1722E+02  0.1334E+03
    -13.674  0.1859E+02  0.1352E+03
    -13.577  0.1906E+02  0.1371E+03
    -13.481  0.1846E+02  0.1388E+03
    -13.385  0.1818E+02  0.1406E+03
    -13.288  0.1898E+02  0.1424E+03
    -13.192  0.1939E+02  0.1443E+03
    -13.096  0.1783E+02  0.1460E+03
    -12.999  0.1539E+02  0.1475E+03
    -12.903  0.1430E+02  0.1489E+03
    -12.807  0.1476E+02  0.1503E+03
    -12.711  0.1504E+02  0.1517E+03
    -12.614  0.1398E+02  0.1531E+03
    -12.518  0.1258E+02  0.1543E+03
    -12.422  0.1275E+02  0.1555E+03
    -12.325  0.1513E+02  0.1570E+03
    -12.229  0.1919E+02  0.1588E+03
    -12.133  0.2369E+02  0.1611E+03
    -12.036  0.2602E+02  0.1636E+03
    -11.940  0.2459E+02  0.1660E+03
    -11.844  0.2154E+02  0.1680E+03
    -11.747  0.1967E+02  0.1699E+03
    -11.651  0.1871E+02  0.1717E+03
    -11.555  0.1713E+02  0.1734E+03
    -11.458  0.1565E+02  0.1749E+03
    -11.362  0.1626E+02  0.1765E+03
    -11.266  0.1875E+02  0.1783E+03
    -11.169  0.2189E+02  0.1804E+03
    -11.073  0.2589E+02  0.1829E+03
    -10.977  0.3038E+02  0.1858E+03
    -10.880  0.3300E+02  0.1890E+03
    -10.784  0.3306E+02  0.1922E+03
    -10.688  0.3281E+02  0.1953E+03
    -10.591  0.3456E+02  0.1987E+03
    -10.495  0.3798E+02  0.2023E+03
    -10.399  0.3994E+02  0.2062E+03
    -10.302  0.3859E+02  0.2099E+03
    -10.206  0.3605E+02  0.2134E+03
    -10.110  0.3486E+02  0.2167E+03
    -10.013  0.3419E+02  0.2200E+03
     -9.917  0.3231E+02  0.2231E+03
     -9.821  0.3080E+02  0.2261E+03
     -9.724  0.3264E+02  0.2292E+03
     -9.628  0.3762E+02  0.2328E+03
     -9.532  0.4295E+02  0.2370E+03
     -9.435  0.4599E+02  0.2414E+03
     -9.339  0.4486E+02  0.2457E+03
     -9.243  0.3927E+02  0.2495E+03
     -9.146  0.3242E+02  0.2526E+03
     -9.050  0.2930E+02  0.2555E+03
     -8.954  0.3103E+02  0.2585E+03
     -8.857  0.3410E+02  0.2617E+03
     -8.761  0.3576E+02  0.2652E+03
     -8.665  0.3608E+02  0.2687E+03
     -8.569  0.3527E+02  0.2721E+03
     -8.472  0.3327E+02  0.2753E+03
     -8.376  0.3094E+02  0.2782E+03
     -8.280  0.2941E+02  0.2811E+03
     -8.183  0.2918E+02  0.2839E+03
     -8.087  0.2934E+02  0.2867E+03
     -7.991  0.2809E+02  0.2894E+03
     -7.894  0.2604E+02  0.2919E+03
     -7.798  0.2594E+02  0.2944E+03
     -7.702  0.2812E+02  0.2971E+03
     -7.605  0.3036E+02  0.3001E+03
     -7.509  0.3110E+02  0.3031E+03
     -7.413  0.3031E+02  0.3060E+03
     -7.316  0.2839E+02  0.3087E+03
     -7.220  0.2608E+02  0.3112E+03
     -7.124  0.2453E+02  0.3136E+03
     -7.027  0.2415E+02  0.3159E+03
     -6.931  0.2454E+02  0.3183E+03
     -6.835  0.2531E+02  0.3207E+03
     -6.738  0.2624E+02  0.3232E+03
     -6.642  0.2659E+02  0.3258E+03
     -6.546  0.2464E+02  0.3282E+03
     -6.449  0.2077E+02  0.3302E+03
     -6.353  0.1857E+02  0.3320E+03
     -6.257  0.1947E+02  0.3338E+03
     -6.160  0.2166E+02  0.3359E+03
     -6.064  0.2406E+02  0.3382E+03
     -5.968  0.2602E+02  0.3407E+03
     -5.871  0.2596E+02  0.3432E+03
     -5.775  0.2358E+02  0.3455E+03
     -5.679  0.2023E+02  0.3475E+03
     -5.582  0.1678E+02  0.3491E+03
     -5.486  0.1333E+02  0.3504E+03
     -5.390  0.1060E+02  0.3514E+03
     -5.293  0.1005E+02  0.3524E+03
     -5.197  0.1137E+02  0.3535E+03
     -5.101  0.1198E+02  0.3546E+03
     -5.004  0.1057E+02  0.3556E+03
     -4.908  0.8954E+01  0.3565E+03
     -4.812  0.9351E+01  0.3574E+03
     -4.715  0.1162E+02  0.3585E+03
     -4.619  0.1418E+02  0.3599E+03
     -4.523  0.1561E+02  0.3614E+03
     -4.427  0.1467E+02  0.3628E+03
     -4.330  0.1121E+02  0.3639E+03
     -4.234  0.7150E+01  0.3646E+03
     -4.138  0.4377E+01  0.3650E+03
     -4.041  0.2850E+01  0.3653E+03
     -3.945  0.1936E+01  0.3654E+03
     -3.849  0.1767E+01  0.3656E+03
     -3.752  0.2647E+01  0.3659E+03
     -3.656  0.4069E+01  0.3663E+03
     -3.560  0.4873E+01  0.3667E+03
     -3.463  0.4375E+01  0.3671E+03
     -3.367  0.3205E+01  0.3675E+03
     -3.271  0.2557E+01  0.3677E+03
     -3.174  0.2725E+01  0.3680E+03
     -3.078  0.3204E+01  0.3683E+03
     -2.982  0.3754E+01  0.3686E+03
     -2.885  0.4445E+01  0.3691E+03
     -2.789  0.5365E+01  0.3696E+03
     -2.693  0.6826E+01  0.3702E+03
     -2.596  0.8552E+01  0.3711E+03
     -2.500  0.8944E+01  0.3719E+03
     -2.404  0.7300E+01  0.3726E+03
     -2.307  0.5615E+01  0.3732E+03
     -2.211  0.5941E+01  0.3737E+03
     -2.115  0.7390E+01  0.3745E+03
     -2.018  0.7525E+01  0.3752E+03
     -1.922  0.5972E+01  0.3758E+03
     -1.826  0.5194E+01  0.3763E+03
     -1.729  0.7588E+01  0.3770E+03
     -1.633  0.1291E+02  0.3782E+03
     -1.537  0.1866E+02  0.3800E+03
     -1.440  0.2233E+02  0.3822E+03
     -1.344  0.2302E+02  0.3844E+03
     -1.248  0.2174E+02  0.3865E+03
     -1.151  0.2051E+02  0.3885E+03
     -1.055  0.1990E+02  0.3904E+03
     -0.959  0.1845E+02  0.3922E+03
     -0.862  0.1562E+02  0.3937E+03
     -0.766  0.1288E+02  0.3949E+03
     -0.670  0.1163E+02  0.3960E+03
     -0.573  0.1190E+02  0.3972E+03
     -0.477  0.1225E+02  0.3983E+03
     -0.381  0.1151E+02  0.3995E+03
     -0.285  0.1126E+02  0.4005E+03
     -0.188  0.1363E+02  0.4019E+03
     -0.092  0.1732E+02  0.4035E+03
      0.004  0.1965E+02  0.4054E+03
      0.101  0.2062E+02  0.4074E+03
      0.197  0.2155E+02  0.4095E+03
      0.293  0.2198E+02  0.4116E+03
      0.390  0.2072E+02  0.4136E+03
      0.486  0.1900E+02  0.4154E+03
      0.582  0.1968E+02  0.4173E+03
      0.679  0.2334E+02  0.4196E+03
      0.775  0.2748E+02  0.4222E+03
      0.871  0.3005E+02  0.4251E+03
      0.968  0.3230E+02  0.4282E+03
      1.064  0.3627E+02  0.4317E+03
      1.160  0.4129E+02  0.4357E+03
      1.257  0.4557E+02  0.4401E+03
      1.353  0.4837E+02  0.4447E+03
      1.449  0.4892E+02  0.4495E+03
      1.546  0.4606E+02  0.4539E+03
      1.642  0.3968E+02  0.4577E+03
      1.738  0.3065E+02  0.4607E+03
      1.835  0.1998E+02  0.4626E+03
      1.931  0.1004E+02  0.4636E+03
      2.027  0.3588E+01  0.4639E+03
      2.124  0.8688E+00  0.4640E+03
      2.220  0.1388E+00  0.4640E+03
      2.316  0.1442E-01  0.4640E+03
      2.413  0.9674E-03  0.4640E+03
      2.509  0.4173E-04  0.4640E+03
      2.605  0.1154E-05  0.4640E+03
      2.702  0.2039E-07  0.4640E+03
      2.798  0.2301E-09  0.4640E+03
      2.894  0.1655E-11  0.4640E+03
      2.991  0.7492E-14  0.4640E+03
      3.087  0.0000E+00  0.4640E+03
      3.183  0.0000E+00  0.4640E+03
      3.280  0.0000E+00  0.4640E+03
      3.376  0.0000E+00  0.4640E+03
      3.472  0.0000E+00  0.4640E+03
      3.569  0.0000E+00  0.4640E+03
      3.665  0.0000E+00  0.4640E+03
      3.761  0.0000E+00  0.4640E+03
