 vasp.6.5.0 16Dec24 (build Feb 19 2025 19:45:31) complex                         
 executed on              LinuxNV date 2025.10.25  21:05:40
 running    2 mpi-ranks, on    1 nodes
 distrk:  each k-point on    2 cores,    1 groups
 distr:  one band on NCORE=   1 cores,    2 groups
 Offloading initialized ...    2 GPUs detected


--------------------------------------------------------------------------------------------------------


 INCAR:
   ISTART = 0            (Not Read existing wavefunction
   ISPIN = 1            (Non-Spin polarised DFT, Default\=1)
   ICHARG = 2            (The initial guess charge density is generated by superposition of atomic charge density)
   LREAL = Auto         (Projection operators: automatic)
   ENCUT = 500          (Cut-off energy for plane wave basis set, in eV)
   LWAVE = .FALSE.       (Write WAVECAR or not)
   LCHARG = .FALSE.       (Write CHGCAR or not)
   PREC = Accurate   (Precision level)
   KGAMMA = .TRUE.
   ALGO = Normal
   NSW = 0           (Default: NSW \= 0)
   IBRION = -1           (Ions are not moved)
   ISMEAR = 0
   EDIFF = 1E-06        (SCF energy convergence
   NELM = 150          (Max electronic SCF steps)

 POTCAR:    PAW_PBE C 08Apr2002                   
 POTCAR:    PAW_PBE C 08Apr2002                   
   SHA256 =  253f7b50bb8d59471dbedb8285d89021f4a42ed1a2c5d38a03a736e69125dd95 C/POTCAR              
   COPYR  = (c) Copyright 08Apr2002 Georg Kresse                                                    
   COPYR  = This file is part of the software VASP. Any use, copying, and all other rights are regul
   COPYR  = If you do not have a valid VASP license, you may not use, copy or distribute this file. 
   VRHFIN =C: s2p2                                                                                  
   LEXCH  = PE                                                                                      
   EATOM  =   147.1560 eV,   10.8157 Ry                                                             
                                                                                                    
   TITEL  = PAW_PBE C 08Apr2002                                                                     
   LULTRA =        F    use ultrasoft PP ?                                                          
   IUNSCR =        1    unscreen: 0-lin 1-nonlin 2-no                                               
   RPACOR =    1.200    partial core radius                                                         
   POMASS =   12.011; ZVAL   =    4.000    mass and valenz                                          
   RCORE  =    1.500    outmost cutoff radius                                                       
   RWIGS  =    1.630; RWIGS  =    0.863    wigner-seitz radius (au A)                               
   ENMAX  =  400.000; ENMIN  =  300.000 eV                                                          
   ICORE  =        2    local potential                                                             
   LCOR   =        T    correct aug charges                                                         
   LPAW   =        T    paw PP                                                                      
   EAUG   =  644.873                                                                                
   DEXC   =    0.000                                                                                
   RMAX   =    1.529    core radius for proj-oper                                                   
   RAUG   =    1.300    factor for augmentation sphere                                              
   RDEP   =    1.501    radius for radial grids                                                     
   RDEPT  =    1.300    core radius for aug-charge                                                  
                                                                                                    
   Atomic configuration                                                                             
    4 entries                                                                                       
     n  l   j            E        occ.                                                              
     1  0  0.50      -273.3789   2.0000                                                             
     2  0  0.50       -13.7508   2.0000                                                             
     2  1  0.50        -5.2854   2.0000                                                             
     3  2  1.50        -5.4423   0.0000                                                             
   Description                                                                                      
     l       E           TYP  RCUT    TYP  RCUT                                                     
     0    -13.7508458     23  1.200                                                                 
     0     -8.2022199     23  1.200                                                                 
     1     -5.2854383     23  1.500                                                                 
     1     34.0145650     23  1.500                                                                 
     2     -5.4423304      7  1.500                                                                 
  local pseudopotential read in
  partial core-charges read in
  partial kinetic energy density read in
  atomic valenz-charges read in
  non local Contribution for L=            0  read in
    real space projection operators read in
  non local Contribution for L=            0  read in
    real space projection operators read in
  non local Contribution for L=            1  read in
    real space projection operators read in
  non local Contribution for L=            1  read in
    real space projection operators read in
    PAW grid and wavefunctions read in
 
   number of l-projection  operators is LMAX  =            4
   number of lm-projection operators is LMMAX =            8
 
 Optimization of the real space projectors (new method)

 maximal supplied QI-value         = 25.13
 optimisation between [QCUT,QGAM] = [ 11.31, 22.87] = [ 35.82,146.48] Ry 
 Optimized for a Real-space Cutoff    1.03 Angstroem

   l    n(q)    QCUT    max X(q) W(low)/X(q) W(high)/X(q)  e(spline) 
   0      7    11.310   115.676    0.20E-03    0.90E-03    0.20E-06
   0      7    11.310    87.132    0.20E-03    0.89E-03    0.19E-06
   1      6    11.310     4.429    0.16E-03    0.28E-03    0.12E-06
   1      6    11.310     2.733    0.12E-03    0.21E-03    0.99E-07
  PAW_PBE C 08Apr2002                   :
 energy of atom  1       EATOM= -147.1560
 kinetic energy error for atom=    0.0076 (will be added to EATOM!!)
 
 
 POSCAR:  C
  positions in cartesian coordinates
  No initial velocities read in


 exchange-correlation table for PE
   RHO(1)=    0.500       N(1)  =     2000
   RHO(2)=  100.500       N(2)  =     4000
 


--------------------------------------------------------------------------------------------------------


 ion  position               nearest neighbor table
   1  0.181  0.485 -0.634-   3 1.37   2 1.38  45 1.42  46 2.01
   2  0.183  0.652 -0.642-   1 1.38   4 1.39  46 1.48  45 2.00
   3  0.222  0.403 -0.622-  50 1.37   1 1.37   5 1.41
   4  0.226  0.735 -0.638-  49 1.36   2 1.39   6 1.43
   5  0.265  0.487 -0.615-   6 1.38   7 1.40   3 1.41
   6  0.268  0.653 -0.624-   5 1.38   8 1.42   4 1.43
   7  0.306  0.406 -0.601-  54 1.39   5 1.40   9 1.42
   8  0.311  0.735 -0.617-  53 1.38   6 1.42  10 1.44
   9  0.349  0.487 -0.593-  10 1.36   7 1.42  11 1.43
  10  0.353  0.651 -0.602-   9 1.36  12 1.40   8 1.44
  11  0.391  0.402 -0.578-  58 1.38  13 1.41   9 1.43
  12  0.395  0.732 -0.593-  57 1.39  10 1.40  14 1.42
  13  0.434  0.483 -0.570-  14 1.37  11 1.41  15 1.42
  14  0.437  0.648 -0.579-  13 1.37  16 1.40  12 1.42
  15  0.476  0.403 -0.557-  62 1.37  13 1.42  17 1.44
  16  0.479  0.732 -0.571-  61 1.38  14 1.40  18 1.41
  17  0.522  0.483 -0.552-  18 1.38  19 1.41  15 1.44
  18  0.522  0.649 -0.560-  17 1.38  16 1.41  20 1.42
  19  0.565  0.403 -0.544-  66 1.38  17 1.41  21 1.44
  20  0.566  0.732 -0.557-  65 1.38  22 1.42  18 1.42
  21  0.611  0.484 -0.545-  22 1.37  23 1.42  19 1.44
  22  0.611  0.651 -0.553-  21 1.37  24 1.41  20 1.42
  23  0.656  0.400 -0.545-  70 1.37  21 1.42  25 1.43
  24  0.655  0.733 -0.558-  69 1.37  26 1.41  22 1.41
  25  0.700  0.482 -0.553-  26 1.37  27 1.42  23 1.43
  26  0.698  0.649 -0.560-  25 1.37  24 1.41  28 1.41
  27  0.745  0.401 -0.556-  74 1.37  25 1.42  29 1.44
  28  0.741  0.731 -0.569-  73 1.38  26 1.41  30 1.43
  29  0.788  0.484 -0.567-  30 1.37  31 1.40  27 1.44
  30  0.786  0.649 -0.575-  29 1.37  28 1.43  32 1.43
  31  0.832  0.404 -0.573-  78 1.39  29 1.40  33 1.42
  32  0.828  0.735 -0.587-  77 1.38  34 1.43  30 1.43
  33  0.874  0.487 -0.587-  34 1.37  35 1.41  31 1.42
  34  0.872  0.653 -0.595-  33 1.37  36 1.41  32 1.43
  35  0.917  0.405 -0.596-  82 1.38  33 1.41  37 1.42
  36  0.913  0.735 -0.610-  81 1.38  34 1.41  38 1.41
  37  0.959  0.487 -0.608-  38 1.37  35 1.42  39 1.42
  38  0.957  0.653 -0.617-  37 1.37  40 1.41  36 1.41
  39  0.002  0.402 -0.618-  86 1.38  41 1.41  37 1.42
  40  0.999  0.733 -0.630-  85 1.39  38 1.41  42 1.42
  41  0.044  0.484 -0.628-  42 1.37  39 1.41  43 1.41
  42  0.043  0.651 -0.636-  41 1.37  40 1.42  44 1.42
  43  0.089  0.402 -0.630-  90 1.36  45 1.38  41 1.41
  44  0.086  0.733 -0.646-  89 1.37  46 1.41  42 1.42
  45  0.131  0.484 -0.638-  43 1.38  46 1.40   1 1.42   2 2.00
  46  0.130  0.653 -0.646-  45 1.40  44 1.41   2 1.48   1 2.01
  47  0.182  0.982 -0.645-  49 1.39  48 1.40  91 1.50  92 2.00
  48  0.181  0.152 -0.638-  50 1.39  47 1.40  92 1.42  91 2.04
  49  0.226  0.903 -0.639-   4 1.36  47 1.39  51 1.44
  50  0.221  0.235 -0.623-   3 1.37  48 1.39  52 1.41
  51  0.267  0.987 -0.624-  52 1.37  53 1.42  49 1.44
  52  0.265  0.152 -0.616-  51 1.37  50 1.41  54 1.42
  53  0.311  0.905 -0.615-   8 1.38  55 1.41  51 1.42
  54  0.305  0.234 -0.600-   7 1.39  56 1.42  52 1.42
  55  0.352  0.986 -0.601-  56 1.38  53 1.41  57 1.42
  56  0.348  0.151 -0.591-  55 1.38  54 1.42  58 1.42
  57  0.395  0.904 -0.592-  12 1.39  59 1.41  55 1.42
  58  0.390  0.233 -0.577-  11 1.38  60 1.42  56 1.42
  59  0.436  0.985 -0.577-  60 1.38  57 1.41  61 1.41
  60  0.433  0.151 -0.568-  59 1.38  58 1.42  62 1.43
  61  0.479  0.902 -0.571-  16 1.38  63 1.40  59 1.41
  62  0.476  0.234 -0.556-  15 1.37  60 1.43  64 1.44
  63  0.521  0.985 -0.561-  64 1.38  61 1.40  65 1.42
  64  0.521  0.152 -0.552-  63 1.38  66 1.42  62 1.44
  65  0.566  0.903 -0.558-  20 1.38  67 1.40  63 1.42
  66  0.565  0.233 -0.546-  19 1.38  64 1.42  68 1.42
  67  0.610  0.985 -0.554-  68 1.37  65 1.40  69 1.41
  68  0.610  0.151 -0.547-  67 1.37  66 1.42  70 1.43
  69  0.654  0.902 -0.559-  24 1.37  71 1.41  67 1.41
  70  0.656  0.231 -0.546-  23 1.37  72 1.42  68 1.43
  71  0.698  0.984 -0.562-  72 1.38  73 1.40  69 1.41
  72  0.700  0.150 -0.554-  71 1.38  74 1.41  70 1.42
  73  0.740  0.902 -0.571-  28 1.38  71 1.40  75 1.43
  74  0.744  0.233 -0.558-  27 1.37  72 1.41  76 1.44
  75  0.785  0.984 -0.578-  76 1.37  77 1.42  73 1.43
  76  0.787  0.150 -0.570-  75 1.37  78 1.43  74 1.44
  77  0.827  0.904 -0.590-  32 1.38  79 1.41  75 1.42
  78  0.831  0.234 -0.576-  31 1.39  76 1.43  80 1.43
  79  0.870  0.986 -0.599-  80 1.38  77 1.41  81 1.42
  80  0.873  0.152 -0.590-  79 1.38  82 1.41  78 1.43
  81  0.912  0.904 -0.613-  36 1.38  79 1.42  83 1.42
  82  0.916  0.236 -0.599-  35 1.38  80 1.41  84 1.43
  83  0.955  0.987 -0.622-  84 1.38  81 1.42  85 1.44
  84  0.958  0.153 -0.613-  83 1.38  86 1.40  82 1.43
  85  0.998  0.904 -0.633-  40 1.39  87 1.42  83 1.44
  86  0.002  0.232 -0.619-  39 1.38  84 1.40  88 1.41
  87  0.042  0.986 -0.640-  88 1.37  85 1.42  89 1.43
  88  0.044  0.151 -0.631-  87 1.37  86 1.41  90 1.43
  89  0.086  0.901 -0.648-  44 1.37  91 1.38  87 1.43
  90  0.089  0.233 -0.633-  43 1.36  92 1.39  88 1.43
  91  0.129  0.983 -0.649-  89 1.38  92 1.39  47 1.50  48 2.04
  92  0.131  0.152 -0.641-  91 1.39  90 1.39  48 1.42  47 2.00
 
  LATTYP: Found a simple orthorhombic cell.
 ALAT       =     8.1000000000
 B/A-ratio  =     3.4629629630
 C/A-ratio  =     4.1358024691
  
  Lattice vectors:
  
 A1 = (   0.0000000000,  -8.1000000000,   0.0000000000)
 A2 = (  28.0500000000,   0.0000000000,   0.0000000000)
 A3 = (   0.0000000000,   0.0000000000,  33.5000000000)


Analysis of symmetry for initial positions (statically):
=====================================================================
 Subroutine PRICEL returns:
 Original cell was already a primitive cell.
 

 Routine SETGRP: Setting up the symmetry group for a 
 simple orthorhombic supercell.


 Subroutine GETGRP returns: Found  1 space group operations
 (whereof  1 operations were pure point group operations)
 out of a pool of  8 trial point group operations.


The static configuration has the point symmetry C_1 .


Analysis of symmetry for dynamics (positions and initial velocities):
=====================================================================
 Subroutine PRICEL returns:
 Original cell was already a primitive cell.
 

 Routine SETGRP: Setting up the symmetry group for a 
 simple orthorhombic supercell.


 Subroutine GETGRP returns: Found  1 space group operations
 (whereof  1 operations were pure point group operations)
 out of a pool of  8 trial point group operations.


The dynamic configuration has the point symmetry C_1 .


 Subroutine INISYM returns: Found  1 space group operations
 (whereof  1 operations are pure point group operations),
 and found     1 'primitive' translations


----------------------------------------------------------------------------------------

                                     Primitive cell                                     

  volume of cell :    7611.3675

  direct lattice vectors                    reciprocal lattice vectors
    28.050000000  0.000000000  0.000000000     0.035650624  0.000000000  0.000000000
     0.000000000  8.100000000  0.000000000     0.000000000  0.123456790  0.000000000
     0.000000000  0.000000000 33.500000000     0.000000000  0.000000000  0.029850746

  length of vectors
    28.050000000  8.100000000 33.500000000     0.035650624  0.123456790  0.029850746

  position of ions in fractional coordinates (direct lattice)
     0.181169340  0.485144444  0.365970149
     0.182626738  0.652244444  0.357910448
     0.221539037  0.403140741  0.377910448
     0.225698039  0.735188889  0.362089552
     0.264748663  0.486860494  0.384776119
     0.267540820  0.653076543  0.376119403
     0.305597504  0.405939506  0.399104478
     0.311413547  0.734998765  0.383283582
     0.349373619  0.487040741  0.407164179
     0.352883779  0.650607407  0.397910448
     0.390752228  0.402401235  0.421791045
     0.395365419  0.732388889  0.407164179
     0.434238859  0.483148148  0.429552239
     0.436755793  0.648120988  0.420597015
     0.476299465  0.402691358  0.442985075
     0.479433155  0.732041975  0.428656716
     0.521504456  0.483200000  0.448358209
     0.521839572  0.649439506  0.439701493
     0.565361854  0.403479012  0.455820896
     0.566320856  0.731725926  0.442686567
     0.611122995  0.484392593  0.454626866
     0.610819964  0.651018519  0.447164179
     0.655629234  0.400271605  0.454626866
     0.654591800  0.733486420  0.442089552
     0.699750446  0.482295062  0.447462687
     0.698345811  0.649159259  0.440298507
     0.744638146  0.401493827  0.443582090
     0.741215686  0.731283951  0.430746269
     0.788327986  0.483611111  0.433134328
     0.785768271  0.649365432  0.425074627
     0.832114082  0.404288889  0.426865672
     0.827967914  0.734509877  0.412537313
     0.873814617  0.487093827  0.413432836
     0.872363636  0.653254321  0.405373134
     0.916819964  0.405353086  0.404179104
     0.913069519  0.734572840  0.390447761
     0.959055258  0.487104938  0.391641791
     0.956805704  0.652861728  0.383283582
     0.001784791  0.401825926  0.381791045
     0.998573975  0.732846914  0.370149254
     0.044332620  0.484253086  0.371940299
     0.042572549  0.650690123  0.364179104
     0.088635651  0.401618519  0.369850746
     0.085647059  0.732840741  0.353731343
     0.130591444  0.484091358  0.362388060
     0.130167558  0.652666667  0.353731343
     0.182477362  0.982216049  0.354626866
     0.181417825  0.151502469  0.362388060
     0.225547237  0.903014815  0.361194030
     0.221472727  0.234566667  0.376716418
     0.267273440  0.986816049  0.375820896
     0.264895187  0.151916049  0.383880597
     0.310889127  0.905139506  0.384776119
     0.305325134  0.234417284  0.400000000
     0.351749733  0.986254321  0.399104478
     0.348420321  0.151259259  0.408955224
     0.395119430  0.904338272  0.407761194
     0.390046346  0.232698765  0.423283582
     0.435689840  0.984925926  0.422985075
     0.433447415  0.150772840  0.431940299
     0.479336898  0.901804938  0.429253731
     0.476042781  0.233909877  0.443880597
     0.521372549  0.985122222  0.439402985
     0.521126560  0.151540741  0.447761194
     0.566074866  0.902586420  0.441791045
     0.565401070  0.233244444  0.454328358
     0.609675579  0.984527160  0.445671642
     0.610260250  0.150954321  0.452835821
     0.653750446  0.901918519  0.440895522
     0.655636364  0.231362963  0.454029851
     0.697878788  0.983785185  0.437910448
     0.699625668  0.150485185  0.446268657
     0.740349376  0.901817284  0.428656716
     0.743846702  0.232551852  0.442388060
     0.784563280  0.984039506  0.421791045
     0.786827094  0.150258025  0.429850746
     0.827429590  0.904027160  0.409850746
     0.830944742  0.233588889  0.423582090
     0.870377897  0.985734568  0.400895522
     0.873076649  0.152006173  0.409850746
     0.911900178  0.904128395  0.387164179
     0.915882353  0.235591358  0.400895522
     0.955240642  0.986890123  0.377611940
     0.957582888  0.152511111  0.386567164
     0.998467023  0.903538272  0.366567164
     0.001502809  0.231874074  0.380895522
     0.042384670  0.986202469  0.360298507
     0.043649911  0.151027160  0.368955224
     0.085934046  0.901348148  0.351940299
     0.088649554  0.233404938  0.367462687
     0.129269875  0.982709877  0.351044776
     0.130932977  0.151585185  0.358507463

  ion indices of the primitive-cell ions
   primitive index   ion index
                 1           1
                 2           2
                 3           3
                 4           4
                 5           5
                 6           6
                 7           7
                 8           8
                 9           9
                10          10
                11          11
                12          12
                13          13
                14          14
                15          15
                16          16
                17          17
                18          18
                19          19
                20          20
                21          21
                22          22
                23          23
                24          24
                25          25
                26          26
                27          27
                28          28
                29          29
                30          30
                31          31
                32          32
                33          33
                34          34
                35          35
                36          36
                37          37
                38          38
                39          39
                40          40
                41          41
                42          42
                43          43
                44          44
                45          45
                46          46
                47          47
                48          48
                49          49
                50          50
                51          51
                52          52
                53          53
                54          54
                55          55
                56          56
                57          57
                58          58
                59          59
                60          60
                61          61
                62          62
                63          63
                64          64
                65          65
                66          66
                67          67
                68          68
                69          69
                70          70
                71          71
                72          72
                73          73
                74          74
                75          75
                76          76
                77          77
                78          78
                79          79
                80          80
                81          81
                82          82
                83          83
                84          84
                85          85
                86          86
                87          87
                88          88
                89          89
                90          90
                91          91
                92          92

----------------------------------------------------------------------------------------

 
 
 KPOINTS: K-Spacing Value to Generate K-Mesh: 0.03

Automatic generation of k-mesh.
 Grid dimensions read from file:
 generate k-points for:    1    4    1

 Generating k-lattice:

  Cartesian coordinates                     Fractional coordinates (reciprocal lattice)
     0.035650624  0.000000000  0.000000000     1.000000000  0.000000000  0.000000000
     0.000000000  0.030864198  0.000000000     0.000000000  0.250000000  0.000000000
     0.000000000  0.000000000  0.029850746     0.000000000  0.000000000  1.000000000

  Length of vectors
     0.035650624  0.030864198  0.029850746

  Shift w.r.t. Gamma in fractional coordinates (k-lattice)
     0.000000000  0.000000000  0.000000000

 
 Subroutine IBZKPT returns following result:
 ===========================================
 
 Found      3 irreducible k-points:
 
 Following reciprocal coordinates:
            Coordinates               Weight
  0.000000  0.000000  0.000000      1.000000
  0.000000  0.250000  0.000000      2.000000
  0.000000  0.500000  0.000000      1.000000
 
 Following cartesian coordinates:
            Coordinates               Weight
  0.000000  0.000000  0.000000      1.000000
  0.000000  0.030864  0.000000      2.000000
  0.000000  0.061728  0.000000      1.000000
 


--------------------------------------------------------------------------------------------------------




 Dimension of arrays:
   k-points           NKPTS =      3   k-points in BZ     NKDIM =      3   number of bands    NBANDS=    232
   number of dos      NEDOS =    301   number of ions     NIONS =     92
   non local maximal  LDIM  =      4   non local SUM 2l+1 LMDIM =      8
   total plane-waves  NPLWV = ******
   max r-space proj   IRMAX =   1967   max aug-charges    IRDMAX=   5083
   dimension x,y,z NGX =   210 NGY =   60 NGZ =  250
   dimension x,y,z NGXF=   420 NGYF=  120 NGZF=  500
   support grid    NGXF=   420 NGYF=  120 NGZF=  500
   ions per type =              92
   NGX,Y,Z   is equivalent  to a cutoff of  12.45, 12.31, 12.41 a.u.
   NGXF,Y,Z  is equivalent  to a cutoff of  24.89, 24.63, 24.81 a.u.

 SYSTEM =  unknown system                          
 POSCAR =   C                                      

 Startparameter for this run:
   NWRITE =      2    write-flag & timer
   PREC   = accura    normal or accurate (medium, high low for compatibility)
   ISTART =      0    job   : 0-new  1-cont  2-samecut
   ICHARG =      2    charge: 1-file 2-atom 10-const
   ISPIN  =      1    spin polarized calculation?
   LNONCOLLINEAR =      F non collinear calculations
   LSORBIT =      F    spin-orbit coupling
   INIWAV =      1    electr: 0-lowe 1-rand  2-diag
   LASPH  =      F    aspherical Exc in radial PAW
 Electronic Relaxation 1
   ENCUT  =  500.0 eV  36.75 Ry    6.06 a.u.  51.14 14.77 61.08*2*pi/ulx,y,z
   ENINI  =  500.0     initial cutoff
   ENAUG  =  644.9 eV  augmentation charge cutoff
   NELM   =    150;   NELMIN=  2; NELMDL= -5     # of ELM steps 
   EDIFF  = 0.1E-05   stopping-criterion for ELM
   LREAL  =      T    real-space projection
   NLSPLINE    = F    spline interpolate recip. space projectors
   LCOMPAT=      F    compatible to vasp.4.4
   GGA_COMPAT  = T    GGA compatible to vasp.4.4-vasp.4.6
   LMAXPAW     = -100 max onsite density
   LMAXMIX     =    2 max onsite mixed and CHGCAR
   VOSKOWN=      0    Vosko Wilk Nusair interpolation
   ROPT   =   -0.00025
 Ionic relaxation
   EDIFFG = 0.1E-04   stopping-criterion for IOM
   NSW    =      0    number of steps for IOM
   NBLOCK =      1;   KBLOCK =      1    inner block; outer block 
   IBRION =     -1    ionic relax: 0-MD 1-quasi-New 2-CG
   NFREE  =      0    steps in history (QN), initial steepest desc. (CG)
   ISIF   =      2    stress and relaxation
   IWAVPR =     10    prediction:  0-non 1-charg 2-wave 3-comb
   ISYM   =      2    0-nonsym 1-usesym 2-fastsym
   LCORR  =      T    Harris-Foulkes like correction to forces

   POTIM  = 0.5000    time-step for ionic-motion
   TEIN   =    0.0    initial temperature
   TEBEG  =    0.0;   TEEND  =   0.0 temperature during run
   SMASS  =  -3.00    Nose mass-parameter (am)
   estimated Nose-frequenzy (Omega)   =  0.10E-29 period in steps = 0.13E+47 mass=  -0.180E-25a.u.
   SCALEE = 1.0000    scale energy and forces
   NPACO  =    256;   APACO  = 10.0  distance and # of slots for P.C.
   PSTRESS=    0.0 pullay stress

  Mass of Ions in am
   POMASS =  12.01
  Ionic Valenz
   ZVAL   =   4.00
  Atomic Wigner-Seitz radii
   RWIGS  =  -1.00
  virtual crystal weights 
   VCA    =   1.00
   NELECT =     368.0000    total number of electrons
   NUPDOWN=      -1.0000    fix difference up-down

 DOS related values:
   EMIN   =  10.00;   EMAX   =-10.00  energy-range for DOS
   EFERMI =   0.00;   METHOD = LEGACY      
   ISMEAR =     0;   SIGMA  =   0.20  broadening in eV -4-tet -1-fermi 0-gaus
   EFERMI_NEDOS =   21; number of points for ismear=-14 and -15

 Electronic relaxation 2 (details)
   IALGO  =     38    algorithm
   LDIAG  =      T    sub-space diagonalisation (order eigenvalues)
   LSUBROT=      F    optimize rotation matrix (better conditioning)
   TURBO    =      0    0=normal 1=particle mesh
   IRESTART =      0    0=no restart 2=restart with 2 vectors
   NREBOOT  =      0    no. of reboots
   NMIN     =      0    reboot dimension
   EREF     =   0.00    reference energy to select bands
   IMIX   =      4    mixing-type and parameters
     AMIX     =   0.40;   BMIX     =  1.00
     AMIX_MAG =   1.60;   BMIX_MAG =  1.00
     AMIN     =   0.10
     WC   =   100.;   INIMIX=   1;  MIXPRE=   1;  MAXMIX= -45

 Intra band minimization:
   WEIMIN = 0.0000     energy-eigenvalue tresh-hold
   EBREAK =  0.11E-08  absolut break condition
   DEPER  =   0.30     relativ break condition  

   TIME   =   0.40     timestep for ELM

  volume/ion in A,a.u.               =      82.73       558.30
  Fermi-wavevector in a.u.,A,eV,Ry     =   0.596398  1.127030  4.839472  0.355691
  Thomas-Fermi vector in A             =   1.646729
 
 Write flags
   LWAVE        =      F    write WAVECAR
   LDOWNSAMPLE  =      F    k-point downsampling of WAVECAR
   LCHARG       =      F    write CHGCAR
   LVTOT        =      F    write LOCPOT, total local potential
   LVHAR        =      F    write LOCPOT, Hartree potential only
   WRT_POTENTIAL= false  ! write potential to hdf5 file
   LELF         =      F    write electronic localiz. function (ELF)
   LORBIT       =      0    0 simple, 1 ext, 2 COOP (PROOUT), +10 PAW based schemes


 Python interface
   PLUGINS active      =      F    recompile with -DPLUGINS to activate
 
 Dipole corrections
   LMONO      =      F    monopole corrections only (constant potential shift)
   LDIPOL     =      F    correct potential (dipole corrections)
   IDIPOL     =      0    1-x, 2-y, 3-z, 4-all directions 
   EPSILON    =  1.0000000 bulk dielectric constant
   LVACPOTAV  =      F  vacuum potentials using an averaging scheme for the charge density
   VACPOTFLAT =  0.1000000 required flatness to determine vacuum potential
 
Coulomb truncation method
  LTRUNCATE          =      F  Coulomb kernel truncation to be used
  IDIMENSIONALITY    =      3  Dimensionality of cutoff (0 molecules / 2 surfaces)
  ISURFACE           =     -1  Direction of surface normal
  LCOARSEN           =      F  Coarsen the charge grid before padding, preferred

 
 Exchange correlation treatment:
   GGA     = PE    functional components
   XC_C    = 1    coefficients multiplying the functional components
   LIBXC   =     F    Libxc                    
   VOSKOWN =     0    Vosko Wilk Nusair interpolation
   LHFCALC =     F    Hartree Fock is set to
   LHFONE  =     F    Hartree Fock one center treatment
   AEXX    =    0.0000 exact exchange contribution

 Parameters of functionals:
   PE:
     No parameter
 
 Van der Waals corrections
   IVDW    =     0    specifies the selected vdW correction

 Linear response parameters
   LEPSILON=     F    determine dielectric tensor
   LRPA    =     F    only Hartree local field effects (RPA)
   LNABLA  =     F    use nabla operator in PAW spheres
   LVEL    =     F    velocity operator in full k-point grid
   CSHIFT  =0.1000    complex shift for real part using Kramers Kronig
   OMEGAMAX=  -1.0    maximum frequency
   DEG_THRESHOLD= 0.2000000E-02 threshold for treating states as degnerate
   RTIME   =   -0.100 relaxation time in fs
  (WPLASMAI=    0.000 imaginary part of plasma frequency in eV, 0.658/RTIME)
   DFIELD  = 0.0000000 0.0000000 0.0000000 field for delta impulse in time
 
  Optional k-point grid parameters
   LKPOINTS_OPT  =     F    use optional k-point grid
   KPOINTS_OPT_MODE=     1    mode for optional k-point grid
 
 Orbital magnetization related:
   ORBITALMAG=     F  switch on orbital magnetization
   LCHIMAG   =     F  perturbation theory with respect to B field
   DQ        =  0.001000  dq finite difference perturbation B field
   LLRAUG    =     F  two centre corrections for induced B field
   LBONE     =     F  B-component reconstruction in AE one-centre
   LVGVCALC  =     T  calculate vGv susceptibility
   LVGVAPPL  =     F  apply vGv susceptibility instead of pGv for G=0

 Random number generation:
   RANDOM_GENERATOR = DEFAULT
   PCG_SEED         = not used


--------------------------------------------------------------------------------------------------------


 Static calculation
 charge density and potential will be updated during run
 non-spin polarized calculation
 Variant of blocked Davidson
 Davidson routine will perform the subspace rotation
 perform sub-space diagonalisation
    after iterative eigenvector-optimisation
 modified Broyden-mixing scheme, WC =      100.0
 initial mixing is a Kerker type mixing with AMIX =  0.4000 and BMIX =      1.0000
 Hartree-type preconditioning will be used
 using additional bands            48
 real space projection scheme for non local part
 use partial core corrections
 calculate Harris-corrections to forces 
   (improved forces if not selfconsistent)
 use gradient corrections 
 use of overlap-Matrix (Vanderbilt PP)
 Gauss-broadening in eV      SIGMA  =   0.20


--------------------------------------------------------------------------------------------------------


  energy-cutoff  :      500.00
  volume of cell :     7611.37
      direct lattice vectors                 reciprocal lattice vectors
    28.050000000  0.000000000  0.000000000     0.035650624  0.000000000  0.000000000
     0.000000000  8.100000000  0.000000000     0.000000000  0.123456790  0.000000000
     0.000000000  0.000000000 33.500000000     0.000000000  0.000000000  0.029850746

  length of vectors
    28.050000000  8.100000000 33.500000000     0.035650624  0.123456790  0.029850746


 
 k-points in units of 2pi/SCALE and weight: K-Spacing Value to Generate K-Mesh: 0.03
   0.00000000  0.00000000  0.00000000       0.250
   0.00000000  0.03086420  0.00000000       0.500
   0.00000000  0.06172840  0.00000000       0.250
 
 k-points in reciprocal lattice and weights: K-Spacing Value to Generate K-Mesh: 0.03
   0.00000000  0.00000000  0.00000000       0.250
   0.00000000  0.25000000  0.00000000       0.500
   0.00000000  0.50000000  0.00000000       0.250
 
 position of ions in fractional coordinates (direct lattice) 
   0.18116934  0.48514444 -0.63402985
   0.18262674  0.65224444 -0.64208955
   0.22153904  0.40314074 -0.62208955
   0.22569804  0.73518889 -0.63791045
   0.26474866  0.48686049 -0.61522388
   0.26754082  0.65307654 -0.62388060
   0.30559750  0.40593951 -0.60089552
   0.31141355  0.73499877 -0.61671642
   0.34937362  0.48704074 -0.59283582
   0.35288378  0.65060741 -0.60208955
   0.39075223  0.40240123 -0.57820896
   0.39536542  0.73238889 -0.59283582
   0.43423886  0.48314815 -0.57044776
   0.43675579  0.64812099 -0.57940299
   0.47629947  0.40269136 -0.55701493
   0.47943316  0.73204198 -0.57134328
   0.52150446  0.48320000 -0.55164179
   0.52183957  0.64943951 -0.56029851
   0.56536185  0.40347901 -0.54417910
   0.56632086  0.73172593 -0.55731343
   0.61112299  0.48439259 -0.54537313
   0.61081996  0.65101852 -0.55283582
   0.65562923  0.40027160 -0.54537313
   0.65459180  0.73348642 -0.55791045
   0.69975045  0.48229506 -0.55253731
   0.69834581  0.64915926 -0.55970149
   0.74463815  0.40149383 -0.55641791
   0.74121569  0.73128395 -0.56925373
   0.78832799  0.48361111 -0.56686567
   0.78576827  0.64936543 -0.57492537
   0.83211408  0.40428889 -0.57313433
   0.82796791  0.73450988 -0.58746269
   0.87381462  0.48709383 -0.58656716
   0.87236364  0.65325432 -0.59462687
   0.91681996  0.40535309 -0.59582090
   0.91306952  0.73457284 -0.60955224
   0.95905526  0.48710494 -0.60835821
   0.95680570  0.65286173 -0.61671642
   0.00178479  0.40182593 -0.61820896
   0.99857398  0.73284691 -0.62985075
   0.04433262  0.48425309 -0.62805970
   0.04257255  0.65069012 -0.63582090
   0.08863565  0.40161852 -0.63014925
   0.08564706  0.73284074 -0.64626866
   0.13059144  0.48409136 -0.63761194
   0.13016756  0.65266667 -0.64626866
   0.18247736  0.98221605 -0.64537313
   0.18141783  0.15150247 -0.63761194
   0.22554724  0.90301481 -0.63880597
   0.22147273  0.23456667 -0.62328358
   0.26727344  0.98681605 -0.62417910
   0.26489519  0.15191605 -0.61611940
   0.31088913  0.90513951 -0.61522388
   0.30532513  0.23441728 -0.60000000
   0.35174973  0.98625432 -0.60089552
   0.34842032  0.15125926 -0.59104478
   0.39511943  0.90433827 -0.59223881
   0.39004635  0.23269877 -0.57671642
   0.43568984  0.98492593 -0.57701493
   0.43344742  0.15077284 -0.56805970
   0.47933690  0.90180494 -0.57074627
   0.47604278  0.23390988 -0.55611940
   0.52137255  0.98512222 -0.56059701
   0.52112656  0.15154074 -0.55223881
   0.56607487  0.90258642 -0.55820896
   0.56540107  0.23324444 -0.54567164
   0.60967558  0.98452716 -0.55432836
   0.61026025  0.15095432 -0.54716418
   0.65375045  0.90191852 -0.55910448
   0.65563636  0.23136296 -0.54597015
   0.69787879  0.98378519 -0.56208955
   0.69962567  0.15048519 -0.55373134
   0.74034938  0.90181728 -0.57134328
   0.74384670  0.23255185 -0.55761194
   0.78456328  0.98403951 -0.57820896
   0.78682709  0.15025802 -0.57014925
   0.82742959  0.90402716 -0.59014925
   0.83094474  0.23358889 -0.57641791
   0.87037790  0.98573457 -0.59910448
   0.87307665  0.15200617 -0.59014925
   0.91190018  0.90412840 -0.61283582
   0.91588235  0.23559136 -0.59910448
   0.95524064  0.98689012 -0.62238806
   0.95758289  0.15251111 -0.61343284
   0.99846702  0.90353827 -0.63343284
   0.00150281  0.23187407 -0.61910448
   0.04238467  0.98620247 -0.63970149
   0.04364991  0.15102716 -0.63104478
   0.08593405  0.90134815 -0.64805970
   0.08864955  0.23340494 -0.63253731
   0.12926988  0.98270988 -0.64895522
   0.13093298  0.15158519 -0.64149254
 
 position of ions in cartesian coordinates  (Angst):
   5.08180000  3.92967000-21.24000000
   5.12268000  5.28318000-21.51000000
   6.21417000  3.26544000-20.84000000
   6.33083000  5.95503000-21.37000000
   7.42620000  3.94357000-20.61000000
   7.50452000  5.28992000-20.90000000
   8.57201000  3.28811000-20.13000000
   8.73515000  5.95349000-20.66000000
   9.79993000  3.94503000-19.86000000
   9.89839000  5.26992000-20.17000000
  10.96060000  3.25945000-19.37000000
  11.09000000  5.93235000-19.86000000
  12.18040000  3.91350000-19.11000000
  12.25100000  5.24978000-19.41000000
  13.36020000  3.26180000-18.66000000
  13.44810000  5.92954000-19.14000000
  14.62820000  3.91392000-18.48000000
  14.63760000  5.26046000-18.77000000
  15.85840000  3.26818000-18.23000000
  15.88530000  5.92698000-18.67000000
  17.14200000  3.92358000-18.27000000
  17.13350000  5.27325000-18.52000000
  18.39040000  3.24220000-18.27000000
  18.36130000  5.94124000-18.69000000
  19.62800000  3.90659000-18.51000000
  19.58860000  5.25819000-18.75000000
  20.88710000  3.25210000-18.64000000
  20.79110000  5.92340000-19.07000000
  22.11260000  3.91725000-18.99000000
  22.04080000  5.25986000-19.26000000
  23.34080000  3.27474000-19.20000000
  23.22450000  5.94953000-19.68000000
  24.51050000  3.94546000-19.65000000
  24.46980000  5.29136000-19.92000000
  25.71680000  3.28336000-19.96000000
  25.61160000  5.95004000-20.42000000
  26.90150000  3.94555000-20.38000000
  26.83840000  5.28818000-20.66000000
   0.05006340  3.25479000-20.71000000
  28.01000000  5.93606000-21.10000000
   1.24353000  3.92245000-21.04000000
   1.19416000  5.27059000-21.30000000
   2.48623000  3.25311000-21.11000000
   2.40240000  5.93601000-21.65000000
   3.66309000  3.92114000-21.36000000
   3.65120000  5.28660000-21.65000000
   5.11849000  7.95595000-21.62000000
   5.08877000  1.22717000-21.36000000
   6.32660000  7.31442000-21.40000000
   6.21231000  1.89999000-20.88000000
   7.49702000  7.99321000-20.91000000
   7.43031000  1.23052000-20.64000000
   8.72044000  7.33163000-20.61000000
   8.56437000  1.89878000-20.10000000
   9.86658000  7.98866000-20.13000000
   9.77319000  1.22520000-19.80000000
  11.08310000  7.32514000-19.84000000
  10.94080000  1.88486000-19.32000000
  12.22110000  7.97790000-19.33000000
  12.15820000  1.22126000-19.03000000
  13.44540000  7.30462000-19.12000000
  13.35300000  1.89467000-18.63000000
  14.62450000  7.97949000-18.78000000
  14.61760000  1.22748000-18.50000000
  15.87840000  7.31095000-18.70000000
  15.85950000  1.88928000-18.28000000
  17.10140000  7.97467000-18.57000000
  17.11780000  1.22273000-18.33000000
  18.33770000  7.30554000-18.73000000
  18.39060000  1.87404000-18.29000000
  19.57550000  7.96866000-18.83000000
  19.62450000  1.21893000-18.55000000
  20.76680000  7.30472000-19.14000000
  20.86490000  1.88367000-18.68000000
  22.00700000  7.97072000-19.37000000
  22.07050000  1.21709000-19.10000000
  23.20940000  7.32262000-19.77000000
  23.30800000  1.89207000-19.31000000
  24.41410000  7.98445000-20.07000000
  24.48980000  1.23125000-19.77000000
  25.57880000  7.32344000-20.53000000
  25.69050000  1.90829000-20.07000000
  26.79450000  7.99381000-20.85000000
  26.86020000  1.23534000-20.55000000
  28.00700000  7.31866000-21.22000000
   0.04215380  1.87818000-20.74000000
   1.18889000  7.98824000-21.43000000
   1.22438000  1.22332000-21.14000000
   2.41045000  7.30092000-21.71000000
   2.48662000  1.89058000-21.19000000
   3.62602000  7.95995000-21.74000000
   3.67267000  1.22784000-21.49000000
 


--------------------------------------------------------------------------------------------------------


 k-point     1 :   0.0000 0.0000 0.0000  plane waves:  193173
 k-point     2 :   0.0000 0.2500 0.0000  plane waves:  193166
 k-point     3 :   0.0000 0.5000 0.0000  plane waves:  193226

 maximum and minimum number of plane-waves per node :    193226   193166

 maximum number of plane-waves:    193226
 maximum index in each direction: 
   IXMAX=   51   IYMAX=   14   IZMAX=   61
   IXMIN=  -51   IYMIN=  -15   IZMIN=  -61


 serial   3D FFT for wavefunctions
 parallel 3D FFT for charge:
    minimum data exchange during FFTs selected (reduces bandwidth)


 total amount of memory used by VASP MPI-rank0  2294532. kBytes
=======================================================================

   base                                    :      30000. kBytes
   nonlr-proj                              :      15098. kBytes
   fftplans                                :     436558. kBytes
   grid                                    :     732614. kBytes
   one-center                              :        282. kBytes
   wavefun                                 :    1079980. kBytes
 
     INWAV:  cpu time      0.0000: real time      0.0000
 Broyden mixing: mesh for mixing (old mesh)
   NGX =103   NGY = 29   NGZ =123
  (NGX  =420   NGY  =120   NGZ  =500)
  gives a total of 367401 points

 initial charge density was supplied:
 charge density of overlapping atoms calculated
 number of electron     368.0000000 magnetization 
 keeping initial charge density in first step


--------------------------------------------------------------------------------------------------------


 Maximum index for non-local projection operator          1875
 Maximum index for augmentation-charges          2388 (set IRDMAX)


--------------------------------------------------------------------------------------------------------


 First call to EWALD:  gamma=   0.090
 Maximum number of real-space cells   2x   6x   2
 Maximum number of reciprocal cells   4x   1x   4

    FEWALD:  cpu time      0.1594: real time      0.1594


--------------------------------------- Ionic step        1  -------------------------------------------




--------------------------------------- Iteration      1(   1)  ---------------------------------------


    POTLOK:  cpu time      0.4205: real time      0.4472
    SETDIJ:  cpu time      0.0418: real time      0.0418
     EDDAV:  cpu time     11.1803: real time     11.1857
       DOS:  cpu time      0.0008: real time      0.0008
    --------------------------------------------
      LOOP:  cpu time     11.6435: real time     11.6754

 eigenvalue-minimisations  :  1728
 total energy-change (2. order) : 0.3625310E+04  (-0.1198213E+05)
 number of electron     368.0000000 magnetization 
 augmentation part      368.0000000 magnetization 

 Free energy of the ion-electron system (eV)
  ---------------------------------------------------
  alpha Z        PSCENC =        91.34886789
  Ewald energy   TEWEN  =    119887.73045081
  -Hartree energ DENC   =   -129211.47075506
  -exchange      EXHF   =         0.00000000
  -V(xc)+E(xc)   XCENC  =      1221.70034694
  PAW double counting   =      9984.02826696   -10036.41360137
  entropy T*S    EENTRO =        -0.83623652
  eigenvalues    EBANDS =     -1848.43196558
  atomic energy  EATOM  =     13537.65479391
  Solvation  Ediel_sol  =         0.00000000
  ---------------------------------------------------
  free energy    TOTEN  =      3625.31016799 eV

  energy without entropy =     3626.14640451  energy(sigma->0) =     3625.72828625


--------------------------------------------------------------------------------------------------------




--------------------------------------- Iteration      1(   2)  ---------------------------------------


     EDDAV:  cpu time     13.1083: real time     13.1143
       DOS:  cpu time      0.0007: real time      0.0007
    --------------------------------------------
      LOOP:  cpu time     13.1090: real time     13.1151

 eigenvalue-minimisations  :  2136
 total energy-change (2. order) :-0.3460836E+04  (-0.3197404E+04)
 number of electron     368.0000000 magnetization 
 augmentation part      368.0000000 magnetization 

 Free energy of the ion-electron system (eV)
  ---------------------------------------------------
  alpha Z        PSCENC =        91.34886789
  Ewald energy   TEWEN  =    119887.73045081
  -Hartree energ DENC   =   -129211.47075506
  -exchange      EXHF   =         0.00000000
  -V(xc)+E(xc)   XCENC  =      1221.70034694
  PAW double counting   =      9984.02826696   -10036.41360137
  entropy T*S    EENTRO =        -0.15401268
  eigenvalues    EBANDS =     -5309.95060318
  atomic energy  EATOM  =     13537.65479391
  Solvation  Ediel_sol  =         0.00000000
  ---------------------------------------------------
  free energy    TOTEN  =       164.47375423 eV

  energy without entropy =      164.62776691  energy(sigma->0) =      164.55076057


--------------------------------------------------------------------------------------------------------




--------------------------------------- Iteration      1(   3)  ---------------------------------------


     EDDAV:  cpu time     11.3371: real time     11.3409
       DOS:  cpu time      0.0007: real time      0.0007
    --------------------------------------------
      LOOP:  cpu time     11.3378: real time     11.3416

 eigenvalue-minimisations  :  1792
 total energy-change (2. order) :-0.1004803E+04  (-0.9817821E+03)
 number of electron     368.0000000 magnetization 
 augmentation part      368.0000000 magnetization 

 Free energy of the ion-electron system (eV)
  ---------------------------------------------------
  alpha Z        PSCENC =        91.34886789
  Ewald energy   TEWEN  =    119887.73045081
  -Hartree energ DENC   =   -129211.47075506
  -exchange      EXHF   =         0.00000000
  -V(xc)+E(xc)   XCENC  =      1221.70034694
  PAW double counting   =      9984.02826696   -10036.41360137
  entropy T*S    EENTRO =        -0.06651747
  eigenvalues    EBANDS =     -6314.84157984
  atomic energy  EATOM  =     13537.65479391
  Solvation  Ediel_sol  =         0.00000000
  ---------------------------------------------------
  free energy    TOTEN  =      -840.32972723 eV

  energy without entropy =     -840.26320975  energy(sigma->0) =     -840.29646849


--------------------------------------------------------------------------------------------------------




--------------------------------------- Iteration      1(   4)  ---------------------------------------


     EDDAV:  cpu time     11.0061: real time     11.0099
       DOS:  cpu time      0.0007: real time      0.0007
    --------------------------------------------
      LOOP:  cpu time     11.0068: real time     11.0106

 eigenvalue-minimisations  :  1728
 total energy-change (2. order) :-0.5941167E+02  (-0.5854528E+02)
 number of electron     368.0000000 magnetization 
 augmentation part      368.0000000 magnetization 

 Free energy of the ion-electron system (eV)
  ---------------------------------------------------
  alpha Z        PSCENC =        91.34886789
  Ewald energy   TEWEN  =    119887.73045081
  -Hartree energ DENC   =   -129211.47075506
  -exchange      EXHF   =         0.00000000
  -V(xc)+E(xc)   XCENC  =      1221.70034694
  PAW double counting   =      9984.02826696   -10036.41360137
  entropy T*S    EENTRO =        -0.05607912
  eigenvalues    EBANDS =     -6374.26369207
  atomic energy  EATOM  =     13537.65479391
  Solvation  Ediel_sol  =         0.00000000
  ---------------------------------------------------
  free energy    TOTEN  =      -899.74140110 eV

  energy without entropy =     -899.68532198  energy(sigma->0) =     -899.71336154


--------------------------------------------------------------------------------------------------------




--------------------------------------- Iteration      1(   5)  ---------------------------------------


     EDDAV:  cpu time     11.3520: real time     11.3559
       DOS:  cpu time      0.0007: real time      0.0007
    CHARGE:  cpu time      1.2081: real time      1.2105
    MIXING:  cpu time      0.2748: real time      0.2754
    --------------------------------------------
      LOOP:  cpu time     12.8355: real time     12.8426

 eigenvalue-minimisations  :  1800
 total energy-change (2. order) :-0.1426615E+01  (-0.1406024E+01)
 number of electron     368.0000013 magnetization 
 augmentation part       10.1751681 magnetization 

 Broyden mixing:
  rms(total) = 0.45462E+01    rms(broyden)= 0.45456E+01
  rms(prec ) = 0.46631E+01
  weight for this iteration     100.00

 Free energy of the ion-electron system (eV)
  ---------------------------------------------------
  alpha Z        PSCENC =        91.34886789
  Ewald energy   TEWEN  =    119887.73045081
  -Hartree energ DENC   =   -129211.47075506
  -exchange      EXHF   =         0.00000000
  -V(xc)+E(xc)   XCENC  =      1221.70034694
  PAW double counting   =      9984.02826696   -10036.41360137
  entropy T*S    EENTRO =        -0.05632806
  eigenvalues    EBANDS =     -6375.69005798
  atomic energy  EATOM  =     13537.65479391
  Solvation  Ediel_sol  =         0.00000000
  ---------------------------------------------------
  free energy    TOTEN  =      -901.16801594 eV

  energy without entropy =     -901.11168789  energy(sigma->0) =     -901.13985191


--------------------------------------------------------------------------------------------------------




--------------------------------------- Iteration      1(   6)  ---------------------------------------


    POTLOK:  cpu time      0.3223: real time      0.3224
    SETDIJ:  cpu time      0.0404: real time      0.0404
     EDDAV:  cpu time     10.2813: real time     10.2848
       DOS:  cpu time      0.0007: real time      0.0007
    CHARGE:  cpu time      1.1584: real time      1.1601
    MIXING:  cpu time      0.2791: real time      0.2791
    --------------------------------------------
      LOOP:  cpu time     12.0823: real time     12.0875

 eigenvalue-minimisations  :  1584
 total energy-change (2. order) : 0.4935995E+02  (-0.4677090E+01)
 number of electron     368.0000013 magnetization 
 augmentation part        9.7490935 magnetization 

 Broyden mixing:
  rms(total) = 0.26713E+01    rms(broyden)= 0.26713E+01
  rms(prec ) = 0.27294E+01
  weight for this iteration     100.00

 eigenvalues of (default mixing * dielectric matrix)
  average eigenvalue GAMMA=   2.1889
  2.1889

 Free energy of the ion-electron system (eV)
  ---------------------------------------------------
  alpha Z        PSCENC =        91.34886789
  Ewald energy   TEWEN  =    119887.73045081
  -Hartree energ DENC   =   -129781.94768622
  -exchange      EXHF   =         0.00000000
  -V(xc)+E(xc)   XCENC  =      1245.05375383
  PAW double counting   =     18959.29452534   -19019.30415679
  entropy T*S    EENTRO =        -0.06349613
  eigenvalues    EBANDS =     -5771.57512306
  atomic energy  EATOM  =     13537.65479391
  Solvation  Ediel_sol  =         0.00000000
  ---------------------------------------------------
  free energy    TOTEN  =      -851.80807043 eV

  energy without entropy =     -851.74457430  energy(sigma->0) =     -851.77632237


--------------------------------------------------------------------------------------------------------




--------------------------------------- Iteration      1(   7)  ---------------------------------------


    POTLOK:  cpu time      0.3221: real time      0.3220
    SETDIJ:  cpu time      0.0403: real time      0.0403
     EDDAV:  cpu time     10.1968: real time     10.2001
       DOS:  cpu time      0.0007: real time      0.0007
    CHARGE:  cpu time      1.1554: real time      1.1562
    MIXING:  cpu time      0.2803: real time      0.2803
    --------------------------------------------
      LOOP:  cpu time     11.9957: real time     11.9997

 eigenvalue-minimisations  :  1568
 total energy-change (2. order) : 0.1850188E+02  (-0.6522046E+01)
 number of electron     368.0000012 magnetization 
 augmentation part        9.1920479 magnetization 

 Broyden mixing:
  rms(total) = 0.72751E+00    rms(broyden)= 0.72723E+00
  rms(prec ) = 0.73718E+00
  weight for this iteration     100.00

 eigenvalues of (default mixing * dielectric matrix)
  average eigenvalue GAMMA=   2.2362
  2.2362  2.2362

 Free energy of the ion-electron system (eV)
  ---------------------------------------------------
  alpha Z        PSCENC =        91.34886789
  Ewald energy   TEWEN  =    119887.73045081
  -Hartree energ DENC   =   -130550.04920101
  -exchange      EXHF   =         0.00000000
  -V(xc)+E(xc)   XCENC  =      1276.31005300
  PAW double counting   =     36688.95122742   -36755.89269273
  entropy T*S    EENTRO =        -0.07091934
  eigenvalues    EBANDS =     -5009.28876609
  atomic energy  EATOM  =     13537.65479391
  Solvation  Ediel_sol  =         0.00000000
  ---------------------------------------------------
  free energy    TOTEN  =      -833.30618614 eV

  energy without entropy =     -833.23526680  energy(sigma->0) =     -833.27072647


--------------------------------------------------------------------------------------------------------




--------------------------------------- Iteration      1(   8)  ---------------------------------------


    POTLOK:  cpu time      0.3218: real time      0.3218
    SETDIJ:  cpu time      0.0404: real time      0.0404
     EDDAV:  cpu time     10.3576: real time     10.3613
       DOS:  cpu time      0.0008: real time      0.0008
    CHARGE:  cpu time      1.1567: real time      1.1564
    MIXING:  cpu time      0.2811: real time      0.2823
    --------------------------------------------
      LOOP:  cpu time     12.1584: real time     12.1629

 eigenvalue-minimisations  :  1600
 total energy-change (2. order) : 0.3009045E+00  (-0.2278301E+00)
 number of electron     368.0000012 magnetization 
 augmentation part        9.1804178 magnetization 

 Broyden mixing:
  rms(total) = 0.88159E-01    rms(broyden)= 0.88122E-01
  rms(prec ) = 0.11204E+00
  weight for this iteration     100.00

 eigenvalues of (default mixing * dielectric matrix)
  average eigenvalue GAMMA=   1.8538
  1.1765  2.4275  1.9575

 Free energy of the ion-electron system (eV)
  ---------------------------------------------------
  alpha Z        PSCENC =        91.34886789
  Ewald energy   TEWEN  =    119887.73045081
  -Hartree energ DENC   =   -130645.60861904
  -exchange      EXHF   =         0.00000000
  -V(xc)+E(xc)   XCENC  =      1276.00423330
  PAW double counting   =     41037.91559003   -41102.05568005
  entropy T*S    EENTRO =        -0.06842522
  eigenvalues    EBANDS =     -4915.92649332
  atomic energy  EATOM  =     13537.65479391
  Solvation  Ediel_sol  =         0.00000000
  ---------------------------------------------------
  free energy    TOTEN  =      -833.00528169 eV

  energy without entropy =     -832.93685647  energy(sigma->0) =     -832.97106908


--------------------------------------------------------------------------------------------------------




--------------------------------------- Iteration      1(   9)  ---------------------------------------


    POTLOK:  cpu time      0.3220: real time      0.3220
    SETDIJ:  cpu time      0.0405: real time      0.0405
     EDDAV:  cpu time     10.5960: real time     10.5996
       DOS:  cpu time      0.0008: real time      0.0008
    CHARGE:  cpu time      1.1539: real time      1.1557
    MIXING:  cpu time      0.2866: real time      0.2868
    --------------------------------------------
      LOOP:  cpu time     12.3998: real time     12.4055

 eigenvalue-minimisations  :  1648
 total energy-change (2. order) : 0.9730120E-01  (-0.2355391E-01)
 number of electron     368.0000012 magnetization 
 augmentation part        9.1549607 magnetization 

 Broyden mixing:
  rms(total) = 0.55560E-01    rms(broyden)= 0.55550E-01
  rms(prec ) = 0.77555E-01
  weight for this iteration     100.00

 eigenvalues of (default mixing * dielectric matrix)
  average eigenvalue GAMMA=   1.7433
  2.2491  2.2491  1.2375  1.2375

 Free energy of the ion-electron system (eV)
  ---------------------------------------------------
  alpha Z        PSCENC =        91.34886789
  Ewald energy   TEWEN  =    119887.73045081
  -Hartree energ DENC   =   -130710.45490537
  -exchange      EXHF   =         0.00000000
  -V(xc)+E(xc)   XCENC  =      1277.38912970
  PAW double counting   =     41423.39918190   -41487.70313250
  entropy T*S    EENTRO =        -0.06860139
  eigenvalues    EBANDS =     -4852.20376544
  atomic energy  EATOM  =     13537.65479391
  Solvation  Ediel_sol  =         0.00000000
  ---------------------------------------------------
  free energy    TOTEN  =      -832.90798049 eV

  energy without entropy =     -832.83937910  energy(sigma->0) =     -832.87367979


--------------------------------------------------------------------------------------------------------




--------------------------------------- Iteration      1(  10)  ---------------------------------------


    POTLOK:  cpu time      0.3218: real time      0.3218
    SETDIJ:  cpu time      0.0405: real time      0.0405
     EDDAV:  cpu time     10.6927: real time     10.6965
       DOS:  cpu time      0.0008: real time      0.0008
    CHARGE:  cpu time      1.1562: real time      1.1564
    MIXING:  cpu time      0.2916: real time      0.2929
    --------------------------------------------
      LOOP:  cpu time     12.5036: real time     12.5089

 eigenvalue-minimisations  :  1672
 total energy-change (2. order) : 0.4698697E-01  (-0.4459266E-02)
 number of electron     368.0000012 magnetization 
 augmentation part        9.1462550 magnetization 

 Broyden mixing:
  rms(total) = 0.33546E-01    rms(broyden)= 0.33543E-01
  rms(prec ) = 0.52245E-01
  weight for this iteration     100.00

 eigenvalues of (default mixing * dielectric matrix)
  average eigenvalue GAMMA=   1.8007
  2.6104  2.6104  1.7737  1.1595  0.8494

 Free energy of the ion-electron system (eV)
  ---------------------------------------------------
  alpha Z        PSCENC =        91.34886789
  Ewald energy   TEWEN  =    119887.73045081
  -Hartree energ DENC   =   -130771.86924604
  -exchange      EXHF   =         0.00000000
  -V(xc)+E(xc)   XCENC  =      1277.80844066
  PAW double counting   =     41134.50185325   -41198.64924419
  entropy T*S    EENTRO =        -0.06856506
  eigenvalues    EBANDS =     -4791.31834475
  atomic energy  EATOM  =     13537.65479391
  Solvation  Ediel_sol  =         0.00000000
  ---------------------------------------------------
  free energy    TOTEN  =      -832.86099351 eV

  energy without entropy =     -832.79242846  energy(sigma->0) =     -832.82671099


--------------------------------------------------------------------------------------------------------




--------------------------------------- Iteration      1(  11)  ---------------------------------------


    POTLOK:  cpu time      0.3219: real time      0.3219
    SETDIJ:  cpu time      0.0402: real time      0.0403
     EDDAV:  cpu time     10.0567: real time     10.0635
       DOS:  cpu time      0.0008: real time      0.0008
    CHARGE:  cpu time      1.1678: real time      1.1688
    MIXING:  cpu time      0.2989: real time      0.2990
    --------------------------------------------
      LOOP:  cpu time     11.8863: real time     11.8942

 eigenvalue-minimisations  :  1544
 total energy-change (2. order) : 0.2714313E-01  (-0.2906110E-02)
 number of electron     368.0000012 magnetization 
 augmentation part        9.1392370 magnetization 

 Broyden mixing:
  rms(total) = 0.22902E-01    rms(broyden)= 0.22899E-01
  rms(prec ) = 0.34608E-01
  weight for this iteration     100.00

 eigenvalues of (default mixing * dielectric matrix)
  average eigenvalue GAMMA=   1.8421
  3.2516  2.4332  1.9821  0.9220  1.2318  1.2318

 Free energy of the ion-electron system (eV)
  ---------------------------------------------------
  alpha Z        PSCENC =        91.34886789
  Ewald energy   TEWEN  =    119887.73045081
  -Hartree energ DENC   =   -130843.19060461
  -exchange      EXHF   =         0.00000000
  -V(xc)+E(xc)   XCENC  =      1278.51858099
  PAW double counting   =     41124.45568583   -41188.52445569
  entropy T*S    EENTRO =        -0.06868802
  eigenvalues    EBANDS =     -4720.75848149
  atomic energy  EATOM  =     13537.65479391
  Solvation  Ediel_sol  =         0.00000000
  ---------------------------------------------------
  free energy    TOTEN  =      -832.83385038 eV

  energy without entropy =     -832.76516236  energy(sigma->0) =     -832.79950637


--------------------------------------------------------------------------------------------------------




--------------------------------------- Iteration      1(  12)  ---------------------------------------


    POTLOK:  cpu time      0.3198: real time      0.3198
    SETDIJ:  cpu time      0.0406: real time      0.0406
     EDDAV:  cpu time      9.8641: real time      9.8726
       DOS:  cpu time      0.0008: real time      0.0008
    CHARGE:  cpu time      1.1510: real time      1.1551
    MIXING:  cpu time      0.3069: real time      0.3070
    --------------------------------------------
      LOOP:  cpu time     11.6832: real time     11.6958

 eigenvalue-minimisations  :  1512
 total energy-change (2. order) :-0.1453487E-02  (-0.1704580E-02)
 number of electron     368.0000012 magnetization 
 augmentation part        9.1327763 magnetization 

 Broyden mixing:
  rms(total) = 0.13843E-01    rms(broyden)= 0.13840E-01
  rms(prec ) = 0.21225E-01
  weight for this iteration     100.00

 eigenvalues of (default mixing * dielectric matrix)
  average eigenvalue GAMMA=   2.1120
  5.0660  2.4228  2.1027  2.0300  0.9615  1.1005  1.1005

 Free energy of the ion-electron system (eV)
  ---------------------------------------------------
  alpha Z        PSCENC =        91.34886789
  Ewald energy   TEWEN  =    119887.73045081
  -Hartree energ DENC   =   -130899.04064743
  -exchange      EXHF   =         0.00000000
  -V(xc)+E(xc)   XCENC  =      1279.01740496
  PAW double counting   =     41190.78329608   -41254.85266255
  entropy T*S    EENTRO =        -0.06876419
  eigenvalues    EBANDS =     -4665.40804335
  atomic energy  EATOM  =     13537.65479391
  Solvation  Ediel_sol  =         0.00000000
  ---------------------------------------------------
  free energy    TOTEN  =      -832.83530387 eV

  energy without entropy =     -832.76653968  energy(sigma->0) =     -832.80092178


--------------------------------------------------------------------------------------------------------




--------------------------------------- Iteration      1(  13)  ---------------------------------------


    POTLOK:  cpu time      0.3238: real time      0.3240
    SETDIJ:  cpu time      0.0398: real time      0.0398
     EDDAV:  cpu time      9.9692: real time      9.9746
       DOS:  cpu time      0.0008: real time      0.0008
    CHARGE:  cpu time      1.1564: real time      1.1568
    MIXING:  cpu time      0.3125: real time      0.3149
    --------------------------------------------
      LOOP:  cpu time     11.8025: real time     11.8109

 eigenvalue-minimisations  :  1528
 total energy-change (2. order) :-0.1216017E-01  (-0.6728237E-03)
 number of electron     368.0000012 magnetization 
 augmentation part        9.1309971 magnetization 

 Broyden mixing:
  rms(total) = 0.84327E-02    rms(broyden)= 0.84314E-02
  rms(prec ) = 0.11656E-01
  weight for this iteration     100.00

 eigenvalues of (default mixing * dielectric matrix)
  average eigenvalue GAMMA=   2.1036
  5.4646  2.5239  2.5239  1.8757  1.2405  1.2405  0.8791  1.0805

 Free energy of the ion-electron system (eV)
  ---------------------------------------------------
  alpha Z        PSCENC =        91.34886789
  Ewald energy   TEWEN  =    119887.73045081
  -Hartree energ DENC   =   -130944.18507975
  -exchange      EXHF   =         0.00000000
  -V(xc)+E(xc)   XCENC  =      1279.15518097
  PAW double counting   =     41137.94196965   -41202.00455878
  entropy T*S    EENTRO =        -0.06866739
  eigenvalues    EBANDS =     -4620.42042134
  atomic energy  EATOM  =     13537.65479391
  Solvation  Ediel_sol  =         0.00000000
  ---------------------------------------------------
  free energy    TOTEN  =      -832.84746404 eV

  energy without entropy =     -832.77879665  energy(sigma->0) =     -832.81313035


--------------------------------------------------------------------------------------------------------




--------------------------------------- Iteration      1(  14)  ---------------------------------------


    POTLOK:  cpu time      0.3213: real time      0.3213
    SETDIJ:  cpu time      0.0403: real time      0.0403
     EDDAV:  cpu time      9.9216: real time      9.9252
       DOS:  cpu time      0.0008: real time      0.0008
    CHARGE:  cpu time      1.1567: real time      1.1570
    MIXING:  cpu time      0.3235: real time      0.3236
    --------------------------------------------
      LOOP:  cpu time     11.7642: real time     11.7680

 eigenvalue-minimisations  :  1520
 total energy-change (2. order) :-0.1834377E-01  (-0.1208966E-03)
 number of electron     368.0000012 magnetization 
 augmentation part        9.1299801 magnetization 

 Broyden mixing:
  rms(total) = 0.52558E-02    rms(broyden)= 0.52554E-02
  rms(prec ) = 0.74160E-02
  weight for this iteration     100.00

 eigenvalues of (default mixing * dielectric matrix)
  average eigenvalue GAMMA=   2.2599
  6.7236  3.1282  2.3896  2.0372  1.7275  1.1978  1.1978  0.9595  0.9778

 Free energy of the ion-electron system (eV)
  ---------------------------------------------------
  alpha Z        PSCENC =        91.34886789
  Ewald energy   TEWEN  =    119887.73045081
  -Hartree energ DENC   =   -130957.55790858
  -exchange      EXHF   =         0.00000000
  -V(xc)+E(xc)   XCENC  =      1279.17475991
  PAW double counting   =     41154.28784723   -41218.36169637
  entropy T*S    EENTRO =        -0.06868058
  eigenvalues    EBANDS =     -4607.07424204
  atomic energy  EATOM  =     13537.65479391
  Solvation  Ediel_sol  =         0.00000000
  ---------------------------------------------------
  free energy    TOTEN  =      -832.86580781 eV

  energy without entropy =     -832.79712723  energy(sigma->0) =     -832.83146752


--------------------------------------------------------------------------------------------------------




--------------------------------------- Iteration      1(  15)  ---------------------------------------


    POTLOK:  cpu time      0.3203: real time      0.3203
    SETDIJ:  cpu time      0.0403: real time      0.0403
     EDDAV:  cpu time      9.8490: real time      9.8526
       DOS:  cpu time      0.0008: real time      0.0008
    CHARGE:  cpu time      1.1564: real time      1.1576
    MIXING:  cpu time      0.3303: real time      0.3303
    --------------------------------------------
      LOOP:  cpu time     11.6970: real time     11.7019

 eigenvalue-minimisations  :  1504
 total energy-change (2. order) :-0.2003351E-01  (-0.1606806E-03)
 number of electron     368.0000012 magnetization 
 augmentation part        9.1299901 magnetization 

 Broyden mixing:
  rms(total) = 0.29839E-02    rms(broyden)= 0.29837E-02
  rms(prec ) = 0.39388E-02
  weight for this iteration     100.00

 eigenvalues of (default mixing * dielectric matrix)
  average eigenvalue GAMMA=   2.3037
  7.1018  3.7707  2.3239  2.3239  1.7890  1.3245  1.3245  0.9669  0.9669  1.1445

 Free energy of the ion-electron system (eV)
  ---------------------------------------------------
  alpha Z        PSCENC =        91.34886789
  Ewald energy   TEWEN  =    119887.73045081
  -Hartree energ DENC   =   -130967.76601606
  -exchange      EXHF   =         0.00000000
  -V(xc)+E(xc)   XCENC  =      1279.13312962
  PAW double counting   =     41138.03142555   -41202.10422293
  entropy T*S    EENTRO =        -0.06871794
  eigenvalues    EBANDS =     -4596.84555218
  atomic energy  EATOM  =     13537.65479391
  Solvation  Ediel_sol  =         0.00000000
  ---------------------------------------------------
  free energy    TOTEN  =      -832.88584132 eV

  energy without entropy =     -832.81712339  energy(sigma->0) =     -832.85148235


--------------------------------------------------------------------------------------------------------




--------------------------------------- Iteration      1(  16)  ---------------------------------------


    POTLOK:  cpu time      0.3212: real time      0.3213
    SETDIJ:  cpu time      0.0406: real time      0.0406
     EDDAV:  cpu time     10.2546: real time     10.2612
       DOS:  cpu time      0.0007: real time      0.0007
    CHARGE:  cpu time      1.1671: real time      1.1692
    MIXING:  cpu time      0.3389: real time      0.3400
    --------------------------------------------
      LOOP:  cpu time     12.1232: real time     12.1331

 eigenvalue-minimisations  :  1584
 total energy-change (2. order) :-0.8733377E-02  (-0.6044723E-04)
 number of electron     368.0000012 magnetization 
 augmentation part        9.1298199 magnetization 

 Broyden mixing:
  rms(total) = 0.18497E-02    rms(broyden)= 0.18497E-02
  rms(prec ) = 0.23146E-02
  weight for this iteration     100.00

 eigenvalues of (default mixing * dielectric matrix)
  average eigenvalue GAMMA=   2.3571
  7.9983  4.1636  2.3815  2.3815  1.9518  1.5047  1.5047  1.0924  1.0924  0.9288
  0.9288

 Free energy of the ion-electron system (eV)
  ---------------------------------------------------
  alpha Z        PSCENC =        91.34886789
  Ewald energy   TEWEN  =    119887.73045081
  -Hartree energ DENC   =   -130971.37409710
  -exchange      EXHF   =         0.00000000
  -V(xc)+E(xc)   XCENC  =      1279.12536053
  PAW double counting   =     41145.96649003   -41210.03580266
  entropy T*S    EENTRO =        -0.06870155
  eigenvalues    EBANDS =     -4593.24193656
  atomic energy  EATOM  =     13537.65479391
  Solvation  Ediel_sol  =         0.00000000
  ---------------------------------------------------
  free energy    TOTEN  =      -832.89457470 eV

  energy without entropy =     -832.82587315  energy(sigma->0) =     -832.86022393


--------------------------------------------------------------------------------------------------------




--------------------------------------- Iteration      1(  17)  ---------------------------------------


    POTLOK:  cpu time      0.3205: real time      0.3206
    SETDIJ:  cpu time      0.0403: real time      0.0403
     EDDAV:  cpu time     10.1509: real time     10.1543
       DOS:  cpu time      0.0007: real time      0.0007
    CHARGE:  cpu time      1.1576: real time      1.1592
    MIXING:  cpu time      0.3480: real time      0.3500
    --------------------------------------------
      LOOP:  cpu time     12.0181: real time     12.0250

 eigenvalue-minimisations  :  1560
 total energy-change (2. order) :-0.3452831E-02  (-0.1646824E-04)
 number of electron     368.0000012 magnetization 
 augmentation part        9.1296869 magnetization 

 Broyden mixing:
  rms(total) = 0.10157E-02    rms(broyden)= 0.10156E-02
  rms(prec ) = 0.13180E-02
  weight for this iteration     100.00

 eigenvalues of (default mixing * dielectric matrix)
  average eigenvalue GAMMA=   2.3978
  8.3728  4.8477  2.5309  2.5309  1.9405  1.4189  1.4189  1.3384  1.3384  0.9692
  0.9692  1.0973

 Free energy of the ion-electron system (eV)
  ---------------------------------------------------
  alpha Z        PSCENC =        91.34886789
  Ewald energy   TEWEN  =    119887.73045081
  -Hartree energ DENC   =   -130973.14820772
  -exchange      EXHF   =         0.00000000
  -V(xc)+E(xc)   XCENC  =      1279.12716898
  PAW double counting   =     41144.66539102   -41208.73454430
  entropy T*S    EENTRO =        -0.06870612
  eigenvalues    EBANDS =     -4591.47324199
  atomic energy  EATOM  =     13537.65479391
  Solvation  Ediel_sol  =         0.00000000
  ---------------------------------------------------
  free energy    TOTEN  =      -832.89802753 eV

  energy without entropy =     -832.82932141  energy(sigma->0) =     -832.86367447


--------------------------------------------------------------------------------------------------------




--------------------------------------- Iteration      1(  18)  ---------------------------------------


    POTLOK:  cpu time      0.3215: real time      0.3215
    SETDIJ:  cpu time      0.0402: real time      0.0402
     EDDAV:  cpu time      9.7405: real time      9.7438
       DOS:  cpu time      0.0007: real time      0.0007
    CHARGE:  cpu time      1.1561: real time      1.1586
    MIXING:  cpu time      0.3611: real time      0.3611
    --------------------------------------------
      LOOP:  cpu time     11.6201: real time     11.6260

 eigenvalue-minimisations  :  1480
 total energy-change (2. order) :-0.2023555E-02  (-0.8454549E-05)
 number of electron     368.0000012 magnetization 
 augmentation part        9.1296889 magnetization 

 Broyden mixing:
  rms(total) = 0.54428E-03    rms(broyden)= 0.54426E-03
  rms(prec ) = 0.70945E-03
  weight for this iteration     100.00

 eigenvalues of (default mixing * dielectric matrix)
  average eigenvalue GAMMA=   2.4335
  8.8638  5.1917  2.9750  2.3893  2.1564  1.9124  1.5054  1.5054  1.1317  1.1317
  0.9402  0.9402  0.9923

 Free energy of the ion-electron system (eV)
  ---------------------------------------------------
  alpha Z        PSCENC =        91.34886789
  Ewald energy   TEWEN  =    119887.73045081
  -Hartree energ DENC   =   -130973.78719618
  -exchange      EXHF   =         0.00000000
  -V(xc)+E(xc)   XCENC  =      1279.12420175
  PAW double counting   =     41145.67754630   -41209.74489349
  entropy T*S    EENTRO =        -0.06871043
  eigenvalues    EBANDS =     -4590.83511164
  atomic energy  EATOM  =     13537.65479391
  Solvation  Ediel_sol  =         0.00000000
  ---------------------------------------------------
  free energy    TOTEN  =      -832.90005109 eV

  energy without entropy =     -832.83134065  energy(sigma->0) =     -832.86569587


--------------------------------------------------------------------------------------------------------




--------------------------------------- Iteration      1(  19)  ---------------------------------------


    POTLOK:  cpu time      0.3205: real time      0.3204
    SETDIJ:  cpu time      0.0406: real time      0.0406
     EDDAV:  cpu time      9.0527: real time      9.0572
       DOS:  cpu time      0.0008: real time      0.0008
    CHARGE:  cpu time      1.1553: real time      1.1584
    MIXING:  cpu time      0.3729: real time      0.3728
    --------------------------------------------
      LOOP:  cpu time     10.9427: real time     10.9502

 eigenvalue-minimisations  :  1336
 total energy-change (2. order) :-0.8928832E-03  (-0.2656123E-05)
 number of electron     368.0000012 magnetization 
 augmentation part        9.1296699 magnetization 

 Broyden mixing:
  rms(total) = 0.36165E-03    rms(broyden)= 0.36162E-03
  rms(prec ) = 0.43498E-03
  weight for this iteration     100.00

 eigenvalues of (default mixing * dielectric matrix)
  average eigenvalue GAMMA=   2.4663
  9.0900  5.6409  3.4052  2.4663  2.3121  1.8584  1.4517  1.4517  1.3813  1.2633
  1.2633  0.9614  0.9614  1.0214

 Free energy of the ion-electron system (eV)
  ---------------------------------------------------
  alpha Z        PSCENC =        91.34886789
  Ewald energy   TEWEN  =    119887.73045081
  -Hartree energ DENC   =   -130974.16457087
  -exchange      EXHF   =         0.00000000
  -V(xc)+E(xc)   XCENC  =      1279.12389679
  PAW double counting   =     41143.88063543   -41207.94794910
  entropy T*S    EENTRO =        -0.06870787
  eigenvalues    EBANDS =     -4590.45836095
  atomic energy  EATOM  =     13537.65479391
  Solvation  Ediel_sol  =         0.00000000
  ---------------------------------------------------
  free energy    TOTEN  =      -832.90094397 eV

  energy without entropy =     -832.83223610  energy(sigma->0) =     -832.86659003


--------------------------------------------------------------------------------------------------------




--------------------------------------- Iteration      1(  20)  ---------------------------------------


    POTLOK:  cpu time      0.3199: real time      0.3199
    SETDIJ:  cpu time      0.0405: real time      0.0405
     EDDAV:  cpu time      8.9030: real time      8.9062
       DOS:  cpu time      0.0007: real time      0.0007
    CHARGE:  cpu time      1.1572: real time      1.1577
    MIXING:  cpu time      0.3847: real time      0.3854
    --------------------------------------------
      LOOP:  cpu time     10.8060: real time     10.8104

 eigenvalue-minimisations  :  1304
 total energy-change (2. order) :-0.3597261E-03  (-0.6111340E-06)
 number of electron     368.0000012 magnetization 
 augmentation part        9.1296629 magnetization 

 Broyden mixing:
  rms(total) = 0.19775E-03    rms(broyden)= 0.19774E-03
  rms(prec ) = 0.23318E-03
  weight for this iteration     100.00

 eigenvalues of (default mixing * dielectric matrix)
  average eigenvalue GAMMA=   2.4754
  9.1897  6.0058  3.7588  2.5266  2.5266  2.0510  1.5164  1.5164  1.4974  1.3978
  0.9657  0.9657  0.9853  1.1138  1.1138

 Free energy of the ion-electron system (eV)
  ---------------------------------------------------
  alpha Z        PSCENC =        91.34886789
  Ewald energy   TEWEN  =    119887.73045081
  -Hartree energ DENC   =   -130974.28019780
  -exchange      EXHF   =         0.00000000
  -V(xc)+E(xc)   XCENC  =      1279.12303594
  PAW double counting   =     41142.71171440   -41206.77951188
  entropy T*S    EENTRO =        -0.06870835
  eigenvalues    EBANDS =     -4590.34174861
  atomic energy  EATOM  =     13537.65479391
  Solvation  Ediel_sol  =         0.00000000
  ---------------------------------------------------
  free energy    TOTEN  =      -832.90130370 eV

  energy without entropy =     -832.83259535  energy(sigma->0) =     -832.86694952


--------------------------------------------------------------------------------------------------------




--------------------------------------- Iteration      1(  21)  ---------------------------------------


    POTLOK:  cpu time      0.3197: real time      0.3197
    SETDIJ:  cpu time      0.0405: real time      0.0405
     EDDAV:  cpu time      7.7216: real time      7.7242
       DOS:  cpu time      0.0008: real time      0.0008
    CHARGE:  cpu time      1.1646: real time      1.1691
    MIXING:  cpu time      0.3972: real time      0.3980
    --------------------------------------------
      LOOP:  cpu time      9.6444: real time      9.6523

 eigenvalue-minimisations  :  1064
 total energy-change (2. order) :-0.1376829E-03  (-0.1197506E-06)
 number of electron     368.0000012 magnetization 
 augmentation part        9.1296635 magnetization 

 Broyden mixing:
  rms(total) = 0.10796E-03    rms(broyden)= 0.10796E-03
  rms(prec ) = 0.12879E-03
  weight for this iteration     100.00

 eigenvalues of (default mixing * dielectric matrix)
  average eigenvalue GAMMA=   2.4794
  9.2805  6.2880  4.1263  2.7999  2.4174  1.9311  1.9311  1.4266  1.4266  1.4311
  1.4311  1.1475  1.1475  0.9581  0.9581  0.9696

 Free energy of the ion-electron system (eV)
  ---------------------------------------------------
  alpha Z        PSCENC =        91.34886789
  Ewald energy   TEWEN  =    119887.73045081
  -Hartree energ DENC   =   -130974.36708166
  -exchange      EXHF   =         0.00000000
  -V(xc)+E(xc)   XCENC  =      1279.12268309
  PAW double counting   =     41143.23549891   -41207.30324160
  entropy T*S    EENTRO =        -0.06870851
  eigenvalues    EBANDS =     -4590.25470422
  atomic energy  EATOM  =     13537.65479391
  Solvation  Ediel_sol  =         0.00000000
  ---------------------------------------------------
  free energy    TOTEN  =      -832.90144138 eV

  energy without entropy =     -832.83273287  energy(sigma->0) =     -832.86708712


[...]
   0.624E+01 -.663E+01 -.623E+02   -.610E+01 0.670E+01 0.624E+02   0.561E+00 0.222E+00 0.237E+00   -.102E-04 0.824E-06 -.310E-05
   0.762E+01 -.143E+02 -.200E+03   -.698E+01 0.145E+02 0.201E+03   0.450E-01 -.222E+00 -.671E+00   -.625E-05 0.517E-06 -.157E-05
   0.305E+01 0.114E+02 -.623E+02   -.323E+01 -.116E+02 0.621E+02   0.565E-01 0.406E+00 -.170E-01   -.965E-05 -.361E-05 -.247E-05
   0.141E+01 0.108E+02 -.174E+03   -.172E+01 -.112E+02 0.174E+03   -.415E+00 -.753E-01 -.948E-01   -.460E-05 -.468E-05 -.786E-06
   0.186E+01 -.721E+01 -.949E+02   -.196E+01 0.735E+01 0.950E+02   -.268E+00 -.610E-01 -.125E+00   -.841E-05 -.278E-05 -.125E-05
   -.102E+02 -.138E+02 -.181E+03   0.103E+02 0.142E+02 0.182E+03   0.247E-01 0.293E+00 -.320E+00   0.180E-05 -.484E-06 -.125E-05
   -.402E+01 0.122E+02 -.518E+02   0.394E+01 -.126E+02 0.516E+02   -.289E+00 -.158E+00 0.241E+00   0.183E-05 -.427E-05 -.213E-05
   -.163E+02 0.949E+01 -.138E+03   0.163E+02 -.994E+01 0.139E+03   0.748E-01 0.258E+00 0.102E+00   0.742E-05 -.407E-05 -.149E-05
   -.867E+01 -.517E+01 -.645E+02   0.891E+01 0.530E+01 0.646E+02   0.168E+00 0.270E+00 -.141E+00   0.117E-04 -.296E-05 -.256E-05
   -.270E+02 -.160E+02 -.154E+03   0.273E+02 0.167E+02 0.154E+03   -.185E+00 -.368E-01 -.452E+00   0.105E-04 0.114E-05 -.250E-05
   -.780E+01 0.118E+02 -.199E+02   0.806E+01 -.121E+02 0.196E+02   0.137E+00 0.201E+00 -.141E+00   0.145E-04 -.270E-05 -.347E-05
   -.161E+02 0.799E+01 -.115E+03   0.156E+02 -.823E+01 0.115E+03   -.425E+00 0.289E+00 0.197E+00   0.122E-04 0.132E-05 -.368E-05
   -.431E+01 -.113E+02 -.231E+02   0.436E+01 0.119E+02 0.230E+02   0.506E-01 0.477E+00 0.159E+00   0.134E-04 0.147E-06 -.342E-05
   -.329E+02 -.855E+01 -.136E+03   0.334E+02 0.835E+01 0.137E+03   -.272E+00 -.302E+00 -.110E+01   0.742E-05 -.200E-05 -.350E-05
   0.846E+01 0.142E+02 0.191E+02   -.849E+01 -.147E+02 -.193E+02   0.959E-01 -.157E+00 0.464E-01   0.628E-05 0.254E-05 -.156E-05
   -.139E+02 0.688E+01 -.755E+02   0.138E+02 -.714E+01 0.756E+02   0.360E+00 -.366E-01 0.178E+00   0.325E-05 -.160E-07 -.193E-05
   0.346E+01 -.995E+01 0.771E+01   -.394E+01 0.104E+02 -.744E+01   -.599E+00 -.945E-01 0.114E-01   0.318E-05 0.212E-06 -.103E-05
   -.192E+02 -.896E+01 -.685E+02   0.195E+02 0.905E+01 0.689E+02   0.982E-01 -.367E+00 -.468E+00   0.110E-06 -.112E-05 -.136E-05
   0.163E+02 0.115E+02 0.771E+02   -.162E+02 -.116E+02 -.775E+02   -.296E-01 0.907E-02 0.262E+00   0.105E-06 0.282E-05 0.435E-06
   -.994E+01 0.720E+01 -.288E+02   0.101E+02 -.765E+01 0.291E+02   -.155E+00 -.290E+00 -.707E+00   -.211E-05 -.551E-06 -.328E-06
   0.117E+02 -.908E+01 0.683E+02   -.118E+02 0.938E+01 -.683E+02   0.865E-01 0.257E-01 0.266E+00   -.186E-05 0.294E-06 0.965E-06
   0.112E+01 -.934E+01 0.131E+02   -.153E+01 0.966E+01 -.128E+02   0.850E-01 0.869E-01 0.545E+00   -.664E-05 -.142E-05 0.115E-05
   0.175E+02 0.908E+01 0.123E+03   -.175E+02 -.895E+01 -.123E+03   0.225E+00 0.276E+00 -.238E+00   -.554E-05 0.358E-05 0.245E-05
   -.229E+00 0.597E+01 0.525E+02   0.405E+00 -.593E+01 -.525E+02   -.498E-02 -.146E-01 0.895E-01   -.105E-04 0.451E-06 0.210E-05
   0.100E+02 -.989E+01 0.132E+03   -.100E+02 0.100E+02 -.132E+03   0.195E+00 -.469E-01 -.727E-01   -.814E-05 0.157E-05 0.308E-05
   -.110E+02 -.378E+01 0.201E+02   0.108E+02 0.415E+01 -.191E+02   0.246E+00 0.329E+00 -.112E+01   -.343E-05 0.246E-05 0.888E-06
   0.925E+00 0.106E+02 0.203E+03   -.932E+00 -.113E+02 -.203E+03   0.103E+01 -.362E+00 0.462E+00   -.449E-05 -.104E-05 0.324E-05
   -.341E+01 0.557E+02 0.108E+03   0.622E-01 -.566E+02 -.109E+03   0.101E+01 0.188E+01 0.647E+00   -.130E-05 0.297E-05 0.538E-06
   -.102E+02 -.612E+02 0.210E+03   0.703E+01 0.621E+02 -.210E+03   0.946E+00 -.172E+01 0.855E+00   -.497E-05 -.308E-05 0.308E-05
   -.572E+01 0.594E+02 0.219E+03   0.829E+01 -.601E+02 -.219E+03   -.101E+01 0.181E+01 0.642E+00   0.390E-05 0.564E-05 0.429E-05
   -.118E+02 -.587E+02 0.130E+03   0.155E+02 0.599E+02 -.130E+03   -.126E+01 -.160E+01 0.675E+00   -.426E-06 -.244E-05 0.147E-05
   -.219E+02 -.956E+01 0.189E+03   0.225E+02 0.103E+02 -.190E+03   -.483E+00 0.367E+00 0.505E+00   0.892E-05 0.432E-05 0.412E-05
   0.169E+02 0.746E+01 0.203E+02   -.171E+02 -.819E+01 -.194E+02   -.241E+00 -.440E+00 -.108E+01   0.595E-05 -.121E-04 0.899E-06
   -.131E+02 0.114E+02 0.108E+03   0.130E+02 -.119E+02 -.108E+03   0.167E+00 -.675E-01 -.284E+00   0.525E-05 0.136E-05 0.249E-05
   -.123E+01 -.805E+01 0.270E+02   0.136E+01 0.837E+01 -.271E+02   -.171E+00 0.790E-01 0.495E+00   0.765E-05 -.287E-05 0.154E-05
   -.170E+02 -.116E+02 0.101E+03   0.168E+02 0.118E+02 -.101E+03   -.989E-01 -.282E+00 -.232E+00   0.252E-05 -.151E-05 0.155E-05
   0.216E+02 0.109E+02 -.634E+02   -.216E+02 -.110E+02 0.640E+02   0.239E+00 0.641E-01 -.749E+00   0.455E-05 0.598E-06 -.276E-06
   -.122E+02 0.399E+01 0.521E+02   0.124E+02 -.402E+01 -.521E+02   -.300E-01 -.865E-02 0.464E+00   -.928E-06 0.103E-05 0.464E-06
   0.173E+02 -.549E+01 -.622E+02   -.173E+02 0.579E+01 0.623E+02   0.112E+00 0.827E-01 -.179E+00   -.873E-06 0.447E-06 -.140E-05
   -.126E+02 -.103E+02 0.545E+02   0.125E+02 0.102E+02 -.550E+02   -.167E+00 -.378E+00 0.477E+00   -.401E-05 -.102E-05 -.621E-06
   0.304E+02 0.133E+02 -.114E+03   -.307E+02 -.137E+02 0.115E+03   0.393E-01 0.170E+00 -.328E+00   -.426E-05 0.178E-05 -.265E-05
   0.425E+01 0.534E+01 -.243E+02   -.418E+01 -.547E+01 0.245E+02   0.182E+00 -.196E-01 -.176E+00   -.761E-05 0.244E-06 -.220E-05
   0.225E+02 -.548E+01 -.122E+03   -.223E+02 0.580E+01 0.122E+03   -.433E-01 -.814E-01 -.217E+00   -.610E-05 0.840E-06 -.257E-05
   0.620E+00 -.104E+02 -.126E+02   -.891E+00 0.107E+02 0.122E+02   -.101E+00 -.238E-02 0.307E+00   -.101E-04 -.847E-06 -.263E-05
   0.264E+02 0.170E+02 -.169E+03   -.263E+02 -.176E+02 0.170E+03   0.103E+00 -.293E+00 -.522E+00   -.971E-05 0.175E-05 -.308E-05
   0.457E+01 0.502E+01 -.603E+02   -.416E+01 -.510E+01 0.605E+02   0.638E+00 -.157E+00 0.152E+00   -.116E-04 -.912E-07 -.289E-05
   0.163E+02 -.921E+01 -.150E+03   -.165E+02 0.964E+01 0.150E+03   -.292E+00 -.112E+00 -.251E+00   -.106E-04 0.265E-05 -.225E-05
   0.610E+01 -.894E+01 -.494E+02   -.669E+01 0.887E+01 0.490E+02   -.288E-01 -.258E+00 0.295E+00   -.105E-04 0.453E-06 -.277E-05
   0.959E+01 0.130E+02 -.176E+03   -.950E+01 -.132E+02 0.177E+03   -.650E-01 -.123E+00 -.551E-01   -.739E-05 0.840E-06 -.181E-05
   -.170E+01 0.591E+01 -.800E+02   0.186E+01 -.602E+01 0.802E+02   0.317E+00 -.127E+00 -.306E+00   -.374E-05 0.167E-05 -.161E-05
   -.128E+01 -.123E+02 -.153E+03   0.137E+01 0.129E+02 0.153E+03   -.145E-01 -.105E+00 0.810E-02   -.226E-05 0.608E-05 -.771E-06
   -.182E+00 -.131E+02 -.374E+02   0.412E-01 0.137E+02 0.371E+02   0.320E+00 -.971E-01 0.301E+00   0.240E-05 0.713E-05 -.267E-05
   -.919E+01 0.162E+02 -.178E+03   0.908E+01 -.168E+02 0.179E+03   -.281E+00 0.999E-01 -.465E+00   0.215E-05 -.664E-06 -.112E-05
   -.373E+01 0.259E+01 -.375E+02   0.348E+01 -.239E+01 0.376E+02   0.105E+00 0.919E-01 0.171E+00   0.825E-05 0.229E-05 -.282E-05
   -.153E+02 -.699E+01 -.132E+03   0.152E+02 0.715E+01 0.132E+03   -.210E+00 -.102E+00 -.100E+00   0.551E-05 0.368E-05 -.119E-05
   -.343E+01 -.947E+01 0.796E+01   0.388E+01 0.936E+01 -.843E+01   0.567E+00 -.204E+00 0.276E+00   0.142E-04 0.190E-05 -.401E-05
   -.266E+02 0.161E+02 -.142E+03   0.272E+02 -.167E+02 0.142E+03   0.164E+00 -.177E+00 -.466E+00   0.113E-04 -.604E-06 -.299E-05
   0.350E+01 0.866E+01 0.937E+01   -.356E+01 -.889E+01 -.945E+01   0.592E-01 0.273E+00 0.153E+00   0.138E-04 0.819E-06 -.335E-05
   -.137E+02 -.104E+02 -.795E+02   0.135E+02 0.108E+02 0.795E+02   -.123E-01 0.250E+00 0.105E+00   0.118E-04 -.144E-05 -.378E-05
   0.155E+02 -.115E+02 0.510E+02   -.159E+02 0.116E+02 -.513E+02   -.313E+00 -.355E+00 0.452E+00   0.714E-05 -.250E-05 -.113E-05
   -.191E+02 0.137E+02 -.904E+02   0.192E+02 -.140E+02 0.905E+02   0.199E+00 -.672E-01 0.188E+00   0.755E-05 0.214E-05 -.262E-05
   0.129E+02 0.332E+01 0.590E+02   -.127E+02 -.316E+01 -.592E+02   -.806E-01 0.108E+00 0.292E+00   0.336E-05 -.324E-06 -.170E-06
   -.865E+01 -.627E+01 -.467E+02   0.837E+01 0.650E+01 0.469E+02   -.341E+00 0.100E+00 -.657E+00   0.266E-05 -.692E-06 -.181E-05
   0.248E+02 -.122E+02 0.116E+03   -.246E+02 0.125E+02 -.117E+03   0.796E-01 -.153E+00 0.411E+00   0.131E-05 -.198E-05 0.107E-05
   -.101E+02 0.126E+02 -.261E+02   0.104E+02 -.128E+02 0.261E+02   0.282E+00 -.228E+00 0.235E+00   0.160E-06 0.183E-05 -.494E-06
   0.248E+02 0.735E+01 0.134E+03   -.247E+02 -.781E+01 -.134E+03   -.132E-02 -.142E+00 0.583E+00   -.654E-06 -.196E-06 0.177E-05
   0.944E+01 -.817E+01 0.279E+02   -.995E+01 0.841E+01 -.278E+02   -.120E-02 0.511E-01 -.974E-01   -.689E-06 -.173E-05 -.328E-06
   0.275E+02 -.980E+01 0.165E+03   -.279E+02 0.992E+01 -.165E+03   -.413E+00 -.585E-01 0.494E+00   -.510E-05 -.659E-06 0.338E-05
   -.398E+01 0.120E+02 0.905E+01   0.399E+01 -.122E+02 -.842E+01   -.878E-01 0.473E+00 -.801E+00   -.555E-05 0.135E-06 0.427E-06
   0.149E+02 0.883E+01 0.173E+03   -.148E+02 -.917E+01 -.173E+03   -.235E+00 -.237E+00 0.194E+00   -.838E-05 0.396E-06 0.394E-05
   0.220E+01 -.102E+02 0.797E+02   -.169E+01 0.105E+02 -.800E+02   0.280E+00 0.483E-01 0.219E+00   -.765E-05 -.173E-05 0.191E-05
   0.386E+01 -.507E+01 0.218E+03   -.442E+01 0.541E+01 -.219E+03   0.521E+00 0.677E+00 0.486E+00   -.764E-05 0.165E-05 0.393E-05
   -.977E+01 0.872E+01 0.488E+02   0.966E+01 -.959E+01 -.480E+02   0.194E-01 -.246E+00 -.825E+00   -.431E-05 -.713E-05 0.788E-06
   -.152E+02 0.585E+02 0.227E+03   0.128E+02 -.591E+02 -.228E+03   0.180E+01 0.142E+01 0.557E+00   -.159E-05 0.544E-05 0.421E-05
   -.276E+01 -.606E+02 0.147E+03   -.884E+00 0.621E+02 -.148E+03   0.370E+00 -.182E+01 0.106E+01   0.163E-05 -.109E-05 0.214E-05
 -----------------------------------------------------------------------------------------------
   0.148E+00 0.248E+00 -.159E+01   0.502E-12 -.568E-12 0.881E-12   -.653E-01 -.165E+00 0.154E+01   -.234E-05 0.307E-05 -.361E-04
 
 
 POSITION                                       TOTAL-FORCE (eV/Angst)
 -----------------------------------------------------------------------------------
      5.08180      3.92967    -21.24000         2.150504      0.490488      0.215941
      5.12268      5.28318    -21.51000         1.661649     -0.150179      0.016393
      6.21417      3.26544    -20.84000        -0.354732      0.602331      0.106143
      6.33083      5.95503    -21.37000        -0.098673     -1.382239      0.114151
      7.42620      3.94357    -20.61000         0.080763      0.281627     -0.018397
      7.50452      5.28992    -20.90000        -0.031398      0.022288     -0.319967
      8.57201      3.28811    -20.13000         0.535752     -0.430918      0.289794
      8.73515      5.95349    -20.66000         0.191205     -0.638914      0.415549
      9.79993      3.94503    -19.86000         0.152470     -1.215588      0.075204
      9.89839      5.26992    -20.17000        -0.902988      0.930036     -0.291170
     10.96060      3.25945    -19.37000        -0.624759      0.384461      0.016047
     11.09000      5.93235    -19.86000         0.600514      0.427468     -0.174986
     12.18040      3.91350    -19.11000         0.286241     -0.135060      0.013338
     12.25100      5.24978    -19.41000        -0.392289      0.834034      0.157461
     13.36020      3.26180    -18.66000         0.468519      0.389311      0.174797
     13.44810      5.92954    -19.14000         0.439337     -0.336831     -0.049663
     14.62820      3.91392    -18.48000        -0.997362      0.208120     -0.397740
     14.63760      5.26046    -18.77000         0.699353      0.286396      0.282001
     15.85840      3.26818    -18.23000         0.690615      0.032319     -0.129262
     15.88530      5.92698    -18.67000        -0.124596      0.263286     -0.280546
     17.14200      3.92358    -18.27000        -0.723929     -0.521765     -0.052175
     17.13350      5.27325    -18.52000        -0.364752      0.084118      0.008582
     18.39040      3.24220    -18.27000         0.132885      0.708824      0.029177
     18.36130      5.94124    -18.69000        -0.366843     -0.593461     -0.032755
     19.62800      3.90659    -18.51000         0.099000     -0.197693      0.156664
     19.58860      5.25819    -18.75000         0.403242      0.407100     -0.006290
     20.88710      3.25210    -18.64000         0.060450      0.589848     -0.078315
     20.79110      5.92340    -19.07000         0.388949     -0.084464     -0.410812
     22.11260      3.91725    -18.99000        -0.941724      0.040229      0.360487
     22.04080      5.25986    -19.26000         0.097898      1.070810      0.105786
     23.34080      3.27474    -19.20000         0.229311     -0.497914     -0.552560
     23.22450      5.94953    -19.68000         0.059438     -0.707185     -0.217785
     24.51050      3.94546    -19.65000         0.201254     -0.298737      0.245809
     24.46980      5.29136    -19.92000        -1.073890      0.379179      0.280367
     25.71680      3.28336    -19.96000         0.392066     -0.275863     -0.115775
     25.61160      5.95004    -20.42000         0.072825     -0.091051     -0.158438
     26.90150      3.94555    -20.38000        -0.007124     -0.747216     -0.447541
     26.83840      5.28818    -20.66000        -0.010278      0.330280      0.246289
      0.05006      3.25479    -20.71000        -0.321817      0.412031      0.797643
     28.01000      5.93606    -21.10000         0.188434      0.400328     -0.581215
      1.24353      3.92245    -21.04000         0.170813      0.031364      0.082048
      1.19416      5.27059    -21.30000         0.198411      0.079216      0.015393
      2.48623      3.25311    -21.11000         0.034332      0.704868     -0.116172
      2.40240      5.93601    -21.65000         1.023718     -1.001505     -0.026838
      3.66309      3.92114    -21.36000        -2.337910      0.956295     -0.141137
      3.65120      5.28660    -21.65000        -2.241688     -0.845781      0.232657
      5.11849      7.95595    -21.62000         1.564364      1.063628      0.289778
      5.08877      1.22717    -21.36000         2.450997     -0.485858      0.334128
      6.32660      7.31442    -21.40000         0.144388      1.095342      0.019988
      6.21231      1.89999    -20.88000        -0.507873     -1.167900     -0.238120
      7.49702      7.99321    -20.91000         0.000674     -0.557854     -0.314861
      7.43031      1.23052    -20.64000        -0.043504      0.392384      0.418370
      8.72044      7.33163    -20.61000        -0.305806     -0.087998     -0.576842
      8.56437      1.89878    -20.10000         0.212693     -0.063645     -0.205159
      9.86658      7.98866    -20.13000         0.170003     -0.037513      0.453988
      9.77319      1.22520    -19.80000         0.086682      0.383537     -0.102959
     11.08310      7.32514    -19.84000        -0.205023     -0.509230      0.003037
     10.94080      1.88486    -19.32000        -0.230132     -0.185777      0.040268
     12.22110      7.97790    -19.33000         0.252125     -0.153158      0.001849
     12.15820      1.22126    -19.03000         0.165773      0.236718     -0.091696
     13.44540      7.30462    -19.12000        -0.373743      0.296762     -0.077637
     13.35300      1.89467    -18.63000         0.196840     -0.924063     -0.074995
     14.62450      7.97949    -18.78000         1.040058     -0.233947      0.339630
     14.61760      1.22748    -18.50000        -0.559522      0.310788     -0.196765
     15.87840      7.31095    -18.70000        -0.613408     -0.330572     -0.109489
     15.85950      1.88928    -18.28000         0.027273     -0.329216      0.216520
     17.10140      7.97467    -18.57000         0.478529     -0.234513     -0.128799
     17.11780      1.22273    -18.33000         0.068999      0.483452      0.019421
     18.33770      7.30554    -18.73000         0.178780      0.463029     -0.003487
     18.39060      1.87404    -18.29000        -0.385809     -0.494064     -0.055290
     19.57550      7.96866    -18.83000        -0.143192      0.290962      0.229970
     19.62450      1.21893    -18.55000        -0.298149      0.058566     -0.139170
     20.76680      7.30472    -19.14000         1.013039     -0.313399     -0.194186
     20.86490      1.88367    -18.68000         0.726268     -0.767408     -0.224807
     22.00700      7.97072    -19.37000        -0.006555      0.044659      0.069480
     22.07050      1.21709    -19.10000        -0.253909      0.644278      0.131192
     23.20940      7.32262    -19.77000        -0.729791     -0.251802      0.157600
     23.30800      1.89207    -19.31000         0.349637     -0.369037      0.277143
     24.41410      7.98445    -20.07000         0.091207      0.270524      0.110142
     24.48980      1.23125    -19.77000        -0.624134      0.334009     -0.459852
     25.57880      7.32344    -20.53000         0.257357      0.100530     -0.067951
     25.69050      1.90829    -20.07000         0.587454     -0.435071      0.263226
     26.79450      7.99381    -20.85000         0.175497     -0.605116      0.285650
     26.86020      1.23534    -20.55000        -0.513420      0.283094     -0.026189
     28.00700      7.31866    -21.22000        -0.861075      0.058773      0.179106
      0.04215      1.87818    -20.74000        -0.077784      0.271910     -0.170468
      1.18889      7.98824    -21.43000        -0.091320     -0.578259     -0.048825
      1.22438      1.22332    -21.14000         0.792151      0.366361     -0.022166
      2.41045      7.30092    -21.71000        -0.035464      1.017466     -0.061712
      2.48662      1.89058    -21.19000        -0.084097     -1.123096     -0.012418
      3.62602      7.95995    -21.74000        -0.604357      0.879524     -0.161999
      3.67267      1.22784    -21.49000        -3.275917     -0.302092      0.087173
 -----------------------------------------------------------------------------------
    total drift:                                0.082945      0.083168     -0.046796


--------------------------------------------------------------------------------------------------------



  FREE ENERGIE OF THE ION-ELECTRON SYSTEM (eV)
  ---------------------------------------------------
  free  energy   TOTEN  =      -832.90154008 eV

  energy  without entropy=     -832.83283134  energy(sigma->0) =     -832.86718571
 


--------------------------------------------------------------------------------------------------------


    POTLOK:  cpu time      0.4537: real time      0.4537


--------------------------------------------------------------------------------------------------------


     LOOP+:  cpu time    328.7803: real time    328.9806
    4ORBIT:  cpu time      0.0000: real time      0.0000

 total amount of memory used by VASP MPI-rank0  2294532. kBytes
=======================================================================

   base                                    :      30000. kBytes
   nonlr-proj                              :      15098. kBytes
   fftplans                                :     436558. kBytes
   grid                                    :     732614. kBytes
   one-center                              :        282. kBytes
   wavefun                                 :    1079980. kBytes
 
  
  
 General timing and accounting informations for this job:
 ========================================================
  
                  Total CPU time used (sec):      362.082
                            User time (sec):      353.614
                          System time (sec):        8.468
                         Elapsed time (sec):      362.361
  
                   Maximum memory used (kb):     3733864.
                   Average memory used (kb):          N/A
  
                          Minor page faults:      3179024
                          Major page faults:         6672
                 Voluntary context switches:        10301
