unknown system                          
            1
    28.050000    0.000000    0.000000
     0.000000    8.100000    0.000000
     0.000000    0.000000   33.500000
   C 
    92
Direct configuration=     1
   0.18116934  0.48514444 -0.63402985
   0.18262674  0.65224444 -0.64208955
   0.22153904  0.40314074 -0.62208955
   0.22569804  0.73518889 -0.63791045
   0.26474866  0.48686049 -0.61522388
   0.26754082  0.65307654 -0.62388060
   0.30559750  0.40593951 -0.60089552
   0.31141355  0.73499877 -0.61671642
   0.34937362  0.48704074 -0.59283582
   0.35288378  0.65060741 -0.60208955
   0.39075223  0.40240123 -0.57820896
   0.39536542  0.73238889 -0.59283582
   0.43423886  0.48314815 -0.57044776
   0.43675579  0.64812099 -0.57940299
   0.47629947  0.40269136 -0.55701493
   0.47943316  0.73204198 -0.57134328
   0.52150446  0.48320000 -0.55164179
   0.52183957  0.64943951 -0.56029851
   0.56536185  0.40347901 -0.54417910
   0.56632086  0.73172593 -0.55731343
   0.61112299  0.48439259 -0.54537313
   0.61081996  0.65101852 -0.55283582
   0.65562923  0.40027160 -0.54537313
   0.65459180  0.73348642 -0.55791045
   0.69975045  0.48229506 -0.55253731
   0.69834581  0.64915926 -0.55970149
   0.74463815  0.40149383 -0.55641791
   0.74121569  0.73128395 -0.56925373
   0.78832799  0.48361111 -0.56686567
   0.78576827  0.64936543 -0.57492537
   0.83211408  0.40428889 -0.57313433
   0.82796791  0.73450988 -0.58746269
   0.87381462  0.48709383 -0.58656716
   0.87236364  0.65325432 -0.59462687
   0.91681996  0.40535309 -0.59582090
   0.91306952  0.73457284 -0.60955224
   0.95905526  0.48710494 -0.60835821
   0.95680570  0.65286173 -0.61671642
   0.00178479  0.40182593 -0.61820896
   0.99857398  0.73284691 -0.62985075
   0.04433262  0.48425309 -0.62805970
   0.04257255  0.65069012 -0.63582090
   0.08863565  0.40161852 -0.63014925
   0.08564706  0.73284074 -0.64626866
   0.13059144  0.48409136 -0.63761194
   0.13016756  0.65266667 -0.64626866
   0.18247736  0.98221605 -0.64537313
   0.18141783  0.15150247 -0.63761194
   0.22554724  0.90301481 -0.63880597
   0.22147273  0.23456667 -0.62328358
   0.26727344  0.98681605 -0.62417910
   0.26489519  0.15191605 -0.61611940
   0.31088913  0.90513951 -0.61522388
   0.30532513  0.23441728 -0.60000000
   0.35174973  0.98625432 -0.60089552
   0.34842032  0.15125926 -0.59104478
   0.39511943  0.90433827 -0.59223881
   0.39004635  0.23269877 -0.57671642
   0.43568984  0.98492593 -0.57701493
   0.43344742  0.15077284 -0.56805970
   0.47933690  0.90180494 -0.57074627
   0.47604278  0.23390988 -0.55611940
   0.52137255  0.98512222 -0.56059701
   0.52112656  0.15154074 -0.55223881
   0.56607487  0.90258642 -0.55820896
   0.56540107  0.23324444 -0.54567164
   0.60967558  0.98452716 -0.55432836
   0.61026025  0.15095432 -0.54716418
   0.65375045  0.90191852 -0.55910448
   0.65563636  0.23136296 -0.54597015
   0.69787879  0.98378519 -0.56208955
   0.69962567  0.15048519 -0.55373134
   0.74034938  0.90181728 -0.57134328
   0.74384670  0.23255185 -0.55761194
   0.78456328  0.98403951 -0.57820896
   0.78682709  0.15025802 -0.57014925
   0.82742959  0.90402716 -0.59014925
   0.83094474  0.23358889 -0.57641791
   0.87037790  0.98573457 -0.59910448
   0.87307665  0.15200617 -0.59014925
   0.91190018  0.90412840 -0.61283582
   0.91588235  0.23559136 -0.59910448
   0.95524064  0.98689012 -0.62238806
   0.95758289  0.15251111 -0.61343284
   0.99846702  0.90353827 -0.63343284
   0.00150281  0.23187407 -0.61910448
   0.04238467  0.98620247 -0.63970149
   0.04364991  0.15102716 -0.63104478
   0.08593405  0.90134815 -0.64805970
   0.08864955  0.23340494 -0.63253731
   0.12926988  0.98270988 -0.64895522
   0.13093298  0.15158519 -0.64149254
