  92  92   0   0
  0.8273226E+02  0.2805000E-08  0.8100000E-09  0.3350000E-08  0.5000000E-15
   1.0000000000000000E-004
  CAR 
 unknown system                          
      3.73862012    -25.15546306  301     -3.14531336      1.00000000
    -25.155  0.0000E+00  0.0000E+00
    -25.059  0.0000E+00  0.0000E+00
    -24.963  0.0000E+00  0.0000E+00
    -24.867  0.0000E+00  0.0000E+00
    -24.770  0.0000E+00  0.0000E+00
    -24.674  0.0000E+00  0.0000E+00
    -24.578  0.0000E+00  0.0000E+00
    -24.481  0.0000E+00  0.0000E+00
    -24.385  0.0000E+00  0.0000E+00
    -24.289  0.2882E-14  0.2776E-15
    -24.192  0.5925E-12  0.5734E-13
    -24.096  0.7631E-10  0.7407E-11
    -24.000  0.6252E-08  0.6096E-09
    -23.903  0.3269E-06  0.3209E-07
    -23.807  0.1096E-04  0.1087E-05
    -23.711  0.2371E-03  0.2392E-04
    -23.614  0.3345E-02  0.3461E-03
    -23.518  0.3120E-01  0.3351E-02
    -23.422  0.1960E+00  0.2222E-01
    -23.326  0.8475E+00  0.1038E+00
    -23.229  0.2588E+01  0.3531E+00
    -23.133  0.5724E+01  0.9045E+00
    -23.037  0.9428E+01  0.1812E+01
    -22.940  0.1208E+02  0.2976E+01
    -22.844  0.1315E+02  0.4242E+01
    -22.748  0.1396E+02  0.5587E+01
    -22.651  0.1536E+02  0.7066E+01
    -22.555  0.1607E+02  0.8614E+01
    -22.459  0.1503E+02  0.1006E+02
    -22.362  0.1380E+02  0.1139E+02
    -22.266  0.1398E+02  0.1274E+02
    -22.170  0.1466E+02  0.1415E+02
    -22.073  0.1458E+02  0.1555E+02
    -21.977  0.1431E+02  0.1693E+02
    -21.881  0.1442E+02  0.1832E+02
    -21.784  0.1440E+02  0.1971E+02
    -21.688  0.1382E+02  0.2104E+02
    -21.592  0.1284E+02  0.2227E+02
    -21.496  0.1176E+02  0.2341E+02
    -21.399  0.1092E+02  0.2446E+02
    -21.303  0.1090E+02  0.2551E+02
    -21.207  0.1243E+02  0.2671E+02
    -21.110  0.1519E+02  0.2817E+02
    -21.014  0.1691E+02  0.2980E+02
    -20.918  0.1588E+02  0.3133E+02
    -20.821  0.1357E+02  0.3264E+02
    -20.725  0.1245E+02  0.3383E+02
    -20.629  0.1290E+02  0.3508E+02
    -20.532  0.1380E+02  0.3641E+02
    -20.436  0.1409E+02  0.3776E+02
    -20.340  0.1366E+02  0.3908E+02
    -20.243  0.1329E+02  0.4036E+02
    -20.147  0.1346E+02  0.4166E+02
    -20.051  0.1397E+02  0.4300E+02
    -19.955  0.1458E+02  0.4441E+02
    -19.858  0.1470E+02  0.4582E+02
    -19.762  0.1422E+02  0.4719E+02
    -19.666  0.1459E+02  0.4860E+02
    -19.569  0.1633E+02  0.5017E+02
    -19.473  0.1710E+02  0.5182E+02
    -19.377  0.1542E+02  0.5330E+02
    -19.280  0.1299E+02  0.5455E+02
    -19.184  0.1198E+02  0.5571E+02
    -19.088  0.1238E+02  0.5690E+02
    -18.991  0.1289E+02  0.5814E+02
    -18.895  0.1311E+02  0.5940E+02
    -18.799  0.1377E+02  0.6073E+02
    -18.702  0.1528E+02  0.6220E+02
    -18.606  0.1708E+02  0.6385E+02
    -18.510  0.1785E+02  0.6556E+02
    -18.414  0.1710E+02  0.6721E+02
    -18.317  0.1647E+02  0.6880E+02
    -18.221  0.1708E+02  0.7044E+02
    -18.125  0.1746E+02  0.7213E+02
    -18.028  0.1613E+02  0.7368E+02
    -17.932  0.1390E+02  0.7502E+02
    -17.836  0.1238E+02  0.7621E+02
    -17.739  0.1190E+02  0.7736E+02
    -17.643  0.1193E+02  0.7851E+02
    -17.547  0.1227E+02  0.7969E+02
    -17.450  0.1282E+02  0.8092E+02
    -17.354  0.1275E+02  0.8215E+02
    -17.258  0.1193E+02  0.8330E+02
    -17.161  0.1177E+02  0.8443E+02
    -17.065  0.1246E+02  0.8563E+02
    -16.969  0.1199E+02  0.8679E+02
    -16.872  0.1001E+02  0.8775E+02
    -16.776  0.9020E+01  0.8862E+02
    -16.680  0.1079E+02  0.8966E+02
    -16.584  0.1396E+02  0.9100E+02
    -16.487  0.1583E+02  0.9253E+02
    -16.391  0.1566E+02  0.9404E+02
    -16.295  0.1543E+02  0.9552E+02
    -16.198  0.1650E+02  0.9711E+02
    -16.102  0.1750E+02  0.9880E+02
    -16.006  0.1680E+02  0.1004E+03
    -15.909  0.1499E+02  0.1019E+03
    -15.813  0.1337E+02  0.1031E+03
    -15.717  0.1246E+02  0.1043E+03
    -15.620  0.1264E+02  0.1056E+03
    -15.524  0.1394E+02  0.1069E+03
    -15.428  0.1589E+02  0.1084E+03
    -15.331  0.1828E+02  0.1102E+03
    -15.235  0.2059E+02  0.1122E+03
    -15.139  0.2170E+02  0.1143E+03
    -15.043  0.2119E+02  0.1163E+03
    -14.946  0.1963E+02  0.1182E+03
    -14.850  0.1746E+02  0.1199E+03
    -14.754  0.1498E+02  0.1213E+03
    -14.657  0.1257E+02  0.1225E+03
    -14.561  0.1049E+02  0.1235E+03
    -14.465  0.9160E+01  0.1244E+03
    -14.368  0.8941E+01  0.1253E+03
    -14.272  0.9602E+01  0.1262E+03
    -14.176  0.1110E+02  0.1273E+03
    -14.079  0.1350E+02  0.1286E+03
    -13.983  0.1589E+02  0.1301E+03
    -13.887  0.1717E+02  0.1318E+03
    -13.790  0.1752E+02  0.1335E+03
    -13.694  0.1762E+02  0.1352E+03
    -13.598  0.1775E+02  0.1369E+03
    -13.502  0.1813E+02  0.1386E+03
    -13.405  0.1891E+02  0.1404E+03
    -13.309  0.1955E+02  0.1423E+03
    -13.213  0.1901E+02  0.1441E+03
    -13.116  0.1687E+02  0.1458E+03
    -13.020  0.1435E+02  0.1472E+03
    -12.924  0.1325E+02  0.1484E+03
    -12.827  0.1364E+02  0.1497E+03
    -12.731  0.1418E+02  0.1511E+03
    -12.635  0.1422E+02  0.1525E+03
    -12.538  0.1421E+02  0.1538E+03
    -12.442  0.1467E+02  0.1553E+03
    -12.346  0.1597E+02  0.1568E+03
    -12.249  0.1857E+02  0.1586E+03
    -12.153  0.2231E+02  0.1607E+03
    -12.057  0.2546E+02  0.1632E+03
    -11.960  0.2622E+02  0.1657E+03
    -11.864  0.2469E+02  0.1681E+03
    -11.768  0.2160E+02  0.1702E+03
    -11.672  0.1744E+02  0.1719E+03
    -11.575  0.1378E+02  0.1732E+03
    -11.479  0.1293E+02  0.1744E+03
    -11.383  0.1538E+02  0.1759E+03
    -11.286  0.1922E+02  0.1778E+03
    -11.190  0.2301E+02  0.1800E+03
    -11.094  0.2666E+02  0.1825E+03
    -10.997  0.3008E+02  0.1854E+03
    -10.901  0.3294E+02  0.1886E+03
    -10.805  0.3445E+02  0.1919E+03
    -10.708  0.3412E+02  0.1952E+03
    -10.612  0.3372E+02  0.1985E+03
    -10.516  0.3537E+02  0.2019E+03
    -10.419  0.3824E+02  0.2056E+03
    -10.323  0.3946E+02  0.2094E+03
    -10.227  0.3775E+02  0.2130E+03
    -10.131  0.3511E+02  0.2164E+03
    -10.034  0.3401E+02  0.2196E+03
     -9.938  0.3398E+02  0.2229E+03
     -9.842  0.3374E+02  0.2262E+03
     -9.745  0.3445E+02  0.2295E+03
     -9.649  0.3732E+02  0.2331E+03
     -9.553  0.4070E+02  0.2370E+03
     -9.456  0.4231E+02  0.2411E+03
     -9.360  0.4128E+02  0.2451E+03
     -9.264  0.3778E+02  0.2487E+03
     -9.167  0.3314E+02  0.2519E+03
     -9.071  0.2984E+02  0.2548E+03
     -8.975  0.2956E+02  0.2576E+03
     -8.878  0.3169E+02  0.2607E+03
     -8.782  0.3464E+02  0.2640E+03
     -8.686  0.3692E+02  0.2675E+03
     -8.590  0.3707E+02  0.2711E+03
     -8.493  0.3468E+02  0.2745E+03
     -8.397  0.3135E+02  0.2775E+03
     -8.301  0.2938E+02  0.2803E+03
     -8.204  0.2918E+02  0.2831E+03
     -8.108  0.2896E+02  0.2859E+03
     -8.012  0.2788E+02  0.2886E+03
     -7.915  0.2758E+02  0.2912E+03
     -7.819  0.2899E+02  0.2940E+03
     -7.723  0.3023E+02  0.2970E+03
     -7.626  0.2972E+02  0.2998E+03
     -7.530  0.2828E+02  0.3025E+03
     -7.434  0.2720E+02  0.3052E+03
     -7.337  0.2669E+02  0.3077E+03
     -7.241  0.2622E+02  0.3103E+03
     -7.145  0.2539E+02  0.3127E+03
     -7.049  0.2456E+02  0.3151E+03
     -6.952  0.2433E+02  0.3174E+03
     -6.856  0.2454E+02  0.3198E+03
     -6.760  0.2480E+02  0.3222E+03
     -6.663  0.2513E+02  0.3246E+03
     -6.567  0.2466E+02  0.3270E+03
     -6.471  0.2232E+02  0.3291E+03
     -6.374  0.1966E+02  0.3310E+03
     -6.278  0.1917E+02  0.3328E+03
     -6.182  0.2061E+02  0.3348E+03
     -6.085  0.2240E+02  0.3370E+03
     -5.989  0.2423E+02  0.3393E+03
     -5.893  0.2573E+02  0.3418E+03
     -5.796  0.2567E+02  0.3443E+03
     -5.700  0.2341E+02  0.3465E+03
     -5.604  0.1962E+02  0.3484E+03
     -5.507  0.1535E+02  0.3499E+03
     -5.411  0.1155E+02  0.3510E+03
     -5.315  0.9898E+01  0.3520E+03
     -5.219  0.1120E+02  0.3530E+03
     -5.122  0.1298E+02  0.3543E+03
     -5.026  0.1232E+02  0.3555E+03
     -4.930  0.1023E+02  0.3565E+03
     -4.833  0.9552E+01  0.3574E+03
     -4.737  0.1090E+02  0.3584E+03
     -4.641  0.1296E+02  0.3597E+03
     -4.544  0.1471E+02  0.3611E+03
     -4.448  0.1516E+02  0.3626E+03
     -4.352  0.1279E+02  0.3638E+03
     -4.255  0.8112E+01  0.3646E+03
     -4.159  0.4018E+01  0.3650E+03
     -4.063  0.2273E+01  0.3652E+03
     -3.966  0.2248E+01  0.3654E+03
     -3.870  0.2933E+01  0.3657E+03
     -3.774  0.3994E+01  0.3661E+03
     -3.678  0.4904E+01  0.3665E+03
     -3.581  0.4714E+01  0.3670E+03
     -3.485  0.3289E+01  0.3673E+03
     -3.389  0.1795E+01  0.3675E+03
     -3.292  0.1420E+01  0.3676E+03
     -3.196  0.2287E+01  0.3678E+03
     -3.100  0.3631E+01  0.3682E+03
     -3.003  0.4746E+01  0.3686E+03
     -2.907  0.5471E+01  0.3692E+03
     -2.811  0.5658E+01  0.3697E+03
     -2.714  0.5239E+01  0.3702E+03
     -2.618  0.4736E+01  0.3707E+03
     -2.522  0.5018E+01  0.3712E+03
     -2.425  0.6477E+01  0.3718E+03
     -2.329  0.8265E+01  0.3726E+03
     -2.233  0.9309E+01  0.3735E+03
     -2.137  0.9413E+01  0.3744E+03
     -2.040  0.8319E+01  0.3752E+03
     -1.944  0.6359E+01  0.3758E+03
     -1.848  0.5886E+01  0.3764E+03
     -1.751  0.9065E+01  0.3772E+03
     -1.655  0.1503E+02  0.3787E+03
     -1.559  0.2058E+02  0.3807E+03
     -1.462  0.2310E+02  0.3829E+03
     -1.366  0.2238E+02  0.3850E+03
     -1.270  0.2012E+02  0.3870E+03
     -1.173  0.1825E+02  0.3887E+03
     -1.077  0.1744E+02  0.3904E+03
     -0.981  0.1681E+02  0.3920E+03
     -0.884  0.1564E+02  0.3935E+03
     -0.788  0.1454E+02  0.3949E+03
     -0.692  0.1388E+02  0.3963E+03
     -0.595  0.1312E+02  0.3975E+03
     -0.499  0.1202E+02  0.3987E+03
     -0.403  0.1129E+02  0.3998E+03
     -0.307  0.1202E+02  0.4009E+03
     -0.210  0.1436E+02  0.4023E+03
     -0.114  0.1690E+02  0.4040E+03
     -0.018  0.1831E+02  0.4057E+03
      0.079  0.1923E+02  0.4076E+03
      0.175  0.2075E+02  0.4096E+03
      0.271  0.2175E+02  0.4117E+03
      0.368  0.2051E+02  0.4136E+03
      0.464  0.1815E+02  0.4154E+03
      0.560  0.1782E+02  0.4171E+03
      0.657  0.2112E+02  0.4191E+03
      0.753  0.2684E+02  0.4217E+03
      0.849  0.3214E+02  0.4248E+03
      0.946  0.3514E+02  0.4282E+03
      1.042  0.3645E+02  0.4317E+03
      1.138  0.3826E+02  0.4354E+03
      1.234  0.4218E+02  0.4395E+03
      1.331  0.4740E+02  0.4440E+03
      1.427  0.5089E+02  0.4489E+03
      1.523  0.4978E+02  0.4537E+03
      1.620  0.4297E+02  0.4579E+03
      1.716  0.3170E+02  0.4609E+03
      1.812  0.1916E+02  0.4628E+03
      1.909  0.8969E+01  0.4636E+03
      2.005  0.3057E+01  0.4639E+03
      2.101  0.7230E+00  0.4640E+03
      2.198  0.1148E+00  0.4640E+03
      2.294  0.1202E-01  0.4640E+03
      2.390  0.8187E-03  0.4640E+03
      2.487  0.3604E-04  0.4640E+03
      2.583  0.1020E-05  0.4640E+03
      2.679  0.1850E-07  0.4640E+03
      2.775  0.2144E-09  0.4640E+03
      2.872  0.1583E-11  0.4640E+03
      2.968  0.6340E-14  0.4640E+03
      3.064  0.0000E+00  0.4640E+03
      3.161  0.0000E+00  0.4640E+03
      3.257  0.0000E+00  0.4640E+03
      3.353  0.0000E+00  0.4640E+03
      3.450  0.0000E+00  0.4640E+03
      3.546  0.0000E+00  0.4640E+03
      3.642  0.0000E+00  0.4640E+03
      3.739  0.0000E+00  0.4640E+03
