       N       E                     dE             d eps       ncg     rms          rms(c)
DAV:   1     0.369497782401E+04    0.36950E+04   -0.11891E+05  1712   0.105E+03
DAV:   2     0.186145450306E+03   -0.35088E+04   -0.32501E+04  2136   0.238E+02
DAV:   3    -0.833888583499E+03   -0.10200E+04   -0.99708E+03  1776   0.135E+02
DAV:   4    -0.895958435320E+03   -0.62070E+02   -0.61057E+02  1712   0.432E+01
DAV:   5    -0.897479881283E+03   -0.15214E+01   -0.14987E+01  1784   0.656E+00    0.453E+01
DAV:   6    -0.848369033955E+03    0.49111E+02   -0.47011E+01  1584   0.125E+01    0.266E+01
DAV:   7    -0.830112217644E+03    0.18257E+02   -0.64498E+01  1560   0.143E+01    0.730E+00
DAV:   8    -0.829830686904E+03    0.28153E+00   -0.24215E+00  1576   0.333E+00    0.100E+00
DAV:   9    -0.829724216531E+03    0.10647E+00   -0.26597E-01  1656   0.990E-01    0.563E-01
DAV:  10    -0.829687175090E+03    0.37041E-01   -0.47112E-02  1760   0.424E-01    0.359E-01
DAV:  11    -0.829660716041E+03    0.26459E-01   -0.18890E-02  1560   0.232E-01    0.238E-01
DAV:  12    -0.829656349697E+03    0.43663E-02   -0.26081E-02  1568   0.234E-01    0.148E-01
DAV:  13    -0.829669098167E+03   -0.12748E-01   -0.78321E-03  1560   0.136E-01    0.809E-02
DAV:  14    -0.829686699624E+03   -0.17601E-01   -0.13542E-03  1592   0.677E-02    0.521E-02
DAV:  15    -0.829707117368E+03   -0.20418E-01   -0.18720E-03  1552   0.626E-02    0.285E-02
DAV:  16    -0.829714355100E+03   -0.72377E-02   -0.38033E-04  1632   0.332E-02    0.206E-02
DAV:  17    -0.829719375742E+03   -0.50206E-02   -0.33498E-04  1568   0.243E-02    0.984E-03
DAV:  18    -0.829721028491E+03   -0.16527E-02   -0.65530E-05  1656   0.120E-02    0.604E-03
DAV:  19    -0.829721866878E+03   -0.83839E-03   -0.24559E-05  1376   0.778E-03    0.359E-03
DAV:  20    -0.829722238189E+03   -0.37131E-03   -0.70555E-06  1360   0.391E-03    0.230E-03
DAV:  21    -0.829722444375E+03   -0.20619E-03   -0.26815E-06  1264   0.283E-03    0.104E-03
DAV:  22    -0.829722507998E+03   -0.63623E-04   -0.37614E-07  1056   0.119E-03    0.782E-04
DAV:  23    -0.829722544195E+03   -0.36198E-04   -0.34646E-07   936   0.103E-03    0.485E-04
DAV:  24    -0.829722556971E+03   -0.12775E-04   -0.11546E-07   976   0.609E-04    0.375E-04
DAV:  25    -0.829722561334E+03   -0.43634E-05   -0.39758E-08   936   0.541E-04    0.184E-04
DAV:  26    -0.829722565270E+03   -0.39364E-05   -0.41682E-08   888   0.313E-04    0.206E-04
DAV:  27    -0.829722566352E+03   -0.10816E-05   -0.92616E-09   936   0.242E-04    0.792E-05
DAV:  28    -0.829722568373E+03   -0.20208E-05   -0.95543E-09   920   0.165E-04    0.802E-05
DAV:  29    -0.829722568795E+03   -0.42241E-06   -0.24816E-09   936   0.102E-04
   1 F= -.82972257E+03 E0= -.82968578E+03  d E =-.735711E-01
