 vasp.6.5.0 16Dec24 (build Feb 19 2025 19:45:31) complex                         
 executed on              LinuxNV date 2025.10.25  10:42:57
 running    2 mpi-ranks, on    1 nodes
 distrk:  each k-point on    2 cores,    1 groups
 distr:  one band on NCORE=   1 cores,    2 groups
 Offloading initialized ...    2 GPUs detected


--------------------------------------------------------------------------------------------------------


 INCAR:
   ISTART = 0            (Not Read existing wavefunction
   ISPIN = 1            (Non-Spin polarised DFT, Default\=1)
   ICHARG = 2            (The initial guess charge density is generated by superposition of atomic charge density)
   LREAL = Auto         (Projection operators: automatic)
   ENCUT = 500          (Cut-off energy for plane wave basis set, in eV)
   LWAVE = .FALSE.       (Write WAVECAR or not)
   LCHARG = .FALSE.       (Write CHGCAR or not)
   PREC = Accurate   (Precision level)
   KGAMMA = .TRUE.
   ALGO = Normal
   NSW = 0           (Default: NSW \= 0)
   IBRION = -1           (Ions are not moved)
   ISMEAR = 0
   EDIFF = 1E-06        (SCF energy convergence
   NELM = 150          (Max electronic SCF steps)

 POTCAR:    PAW_PBE C 08Apr2002                   
 POTCAR:    PAW_PBE C 08Apr2002                   
   SHA256 =  253f7b50bb8d59471dbedb8285d89021f4a42ed1a2c5d38a03a736e69125dd95 C/POTCAR              
   COPYR  = (c) Copyright 08Apr2002 Georg Kresse                                                    
   COPYR  = This file is part of the software VASP. Any use, copying, and all other rights are regul
   COPYR  = If you do not have a valid VASP license, you may not use, copy or distribute this file. 
   VRHFIN =C: s2p2                                                                                  
   LEXCH  = PE                                                                                      
   EATOM  =   147.1560 eV,   10.8157 Ry                                                             
                                                                                                    
   TITEL  = PAW_PBE C 08Apr2002                                                                     
   LULTRA =        F    use ultrasoft PP ?                                                          
   IUNSCR =        1    unscreen: 0-lin 1-nonlin 2-no                                               
   RPACOR =    1.200    partial core radius                                                         
   POMASS =   12.011; ZVAL   =    4.000    mass and valenz                                          
   RCORE  =    1.500    outmost cutoff radius                                                       
   RWIGS  =    1.630; RWIGS  =    0.863    wigner-seitz radius (au A)                               
   ENMAX  =  400.000; ENMIN  =  300.000 eV                                                          
   ICORE  =        2    local potential                                                             
   LCOR   =        T    correct aug charges                                                         
   LPAW   =        T    paw PP                                                                      
   EAUG   =  644.873                                                                                
   DEXC   =    0.000                                                                                
   RMAX   =    1.529    core radius for proj-oper                                                   
   RAUG   =    1.300    factor for augmentation sphere                                              
   RDEP   =    1.501    radius for radial grids                                                     
   RDEPT  =    1.300    core radius for aug-charge                                                  
                                                                                                    
   Atomic configuration                                                                             
    4 entries                                                                                       
     n  l   j            E        occ.                                                              
     1  0  0.50      -273.3789   2.0000                                                             
     2  0  0.50       -13.7508   2.0000                                                             
     2  1  0.50        -5.2854   2.0000                                                             
     3  2  1.50        -5.4423   0.0000                                                             
   Description                                                                                      
     l       E           TYP  RCUT    TYP  RCUT                                                     
     0    -13.7508458     23  1.200                                                                 
     0     -8.2022199     23  1.200                                                                 
     1     -5.2854383     23  1.500                                                                 
     1     34.0145650     23  1.500                                                                 
     2     -5.4423304      7  1.500                                                                 
  local pseudopotential read in
  partial core-charges read in
  partial kinetic energy density read in
  atomic valenz-charges read in
  non local Contribution for L=            0  read in
    real space projection operators read in
  non local Contribution for L=            0  read in
    real space projection operators read in
  non local Contribution for L=            1  read in
    real space projection operators read in
  non local Contribution for L=            1  read in
    real space projection operators read in
    PAW grid and wavefunctions read in
 
   number of l-projection  operators is LMAX  =            4
   number of lm-projection operators is LMMAX =            8
 
 Optimization of the real space projectors (new method)

 maximal supplied QI-value         = 25.13
 optimisation between [QCUT,QGAM] = [ 11.31, 22.87] = [ 35.82,146.48] Ry 
 Optimized for a Real-space Cutoff    1.03 Angstroem

   l    n(q)    QCUT    max X(q) W(low)/X(q) W(high)/X(q)  e(spline) 
   0      7    11.310   115.676    0.20E-03    0.90E-03    0.20E-06
   0      7    11.310    87.132    0.20E-03    0.89E-03    0.19E-06
   1      6    11.310     4.429    0.16E-03    0.28E-03    0.12E-06
   1      6    11.310     2.733    0.12E-03    0.21E-03    0.99E-07
  PAW_PBE C 08Apr2002                   :
 energy of atom  1       EATOM= -147.1560
 kinetic energy error for atom=    0.0076 (will be added to EATOM!!)
 
 
 POSCAR:  C
  positions in cartesian coordinates
  No initial velocities read in


 exchange-correlation table for PE
   RHO(1)=    0.500       N(1)  =     2000
   RHO(2)=  100.500       N(2)  =     4000
 


--------------------------------------------------------------------------------------------------------


 ion  position               nearest neighbor table
   1  0.009  0.086  0.479-   3 1.40   2 1.40  45 1.48  46 2.05
   2  0.007  0.258  0.482-   4 1.39   1 1.40  46 1.42  45 2.01
   3  0.054  0.012  0.474-  50 1.37   1 1.40   5 1.45
   4  0.048  0.349  0.491-   2 1.39  49 1.39   6 1.41
   5  0.095  0.101  0.489-   6 1.39   7 1.43   3 1.45
   6  0.090  0.266  0.500-   5 1.39   4 1.41   8 1.46
   7  0.139  0.019  0.498-  54 1.36   9 1.40   5 1.43
   8  0.133  0.354  0.512-  53 1.33  10 1.43   6 1.46
   9  0.177  0.098  0.517-  11 1.40   7 1.40  10 1.43
  10  0.177  0.273  0.523-  12 1.38   9 1.43   8 1.43
  11  0.221  0.018  0.523-  58 1.33   9 1.40  13 1.45
  12  0.218  0.355  0.533-  10 1.38  57 1.39  14 1.47
  13  0.264  0.104  0.533-  14 1.35  15 1.42  11 1.45
  14  0.263  0.268  0.541-  13 1.35  16 1.42  12 1.47
  15  0.309  0.025  0.537-  17 1.38  13 1.42  62 1.42
  16  0.308  0.352  0.544-  61 1.37  18 1.41  14 1.42
  17  0.352  0.106  0.539-  18 1.36  15 1.38  19 1.38
  18  0.352  0.273  0.543-  17 1.36  16 1.41  20 1.41
  19  0.395  0.027  0.536-  17 1.38  21 1.39  66 1.40
  20  0.396  0.358  0.545-  65 1.38  22 1.40  18 1.41
  21  0.438  0.111  0.534-  19 1.39  22 1.42  23 1.43
  22  0.441  0.282  0.542-  20 1.40  21 1.42  24 1.45
  23  0.483  0.034  0.527-  70 1.38  25 1.41  21 1.43
  24  0.486  0.365  0.539-  69 1.34  26 1.38  22 1.45
  25  0.527  0.116  0.520-  26 1.38  27 1.40  23 1.41
  26  0.528  0.281  0.531-  24 1.38  25 1.38  28 1.46
  27  0.566  0.029  0.504-  74 1.37  25 1.40  29 1.41
  28  0.573  0.365  0.523-  73 1.36  30 1.46  26 1.46
  29  0.609  0.112  0.498-  30 1.38  27 1.41  31 1.42
  30  0.615  0.274  0.509-  29 1.38  32 1.41  28 1.46
  31  0.651  0.033  0.484-  78 1.38  33 1.41  29 1.42
  32  0.657  0.358  0.499-  34 1.38  77 1.39  30 1.41
  33  0.696  0.107  0.476-  34 1.39  35 1.40  31 1.41
  34  0.697  0.274  0.486-  32 1.38  33 1.39  36 1.45
  35  0.738  0.022  0.468-  82 1.35  33 1.40  37 1.43
  36  0.743  0.359  0.484-  81 1.40  38 1.40  34 1.45
  37  0.783  0.104  0.465-  39 1.42  38 1.43  35 1.43
  38  0.785  0.276  0.474-  40 1.36  36 1.40  37 1.43
  39  0.825  0.016  0.455-  86 1.39  37 1.42  41 1.49
  40  0.828  0.352  0.471-  38 1.36  85 1.39  42 1.45
  41  0.873  0.099  0.459-  42 1.35  43 1.41  39 1.49
  42  0.873  0.261  0.468-  41 1.35  44 1.39  40 1.45
  43  0.916  0.013  0.457-  45 1.37  90 1.37  41 1.41
  44  0.915  0.352  0.469-  42 1.39  89 1.40  46 1.42
  45  0.959  0.085  0.466-  43 1.37  46 1.44   1 1.48   2 2.01
  46  0.958  0.261  0.472-  44 1.42   2 1.42  45 1.44   1 2.05
  47  0.015  0.595  0.460-  49 1.39  48 1.39  91 1.53  92 2.07
  48  0.017  0.763  0.453-  50 1.36  47 1.39  92 1.58  91 2.07
  49  0.052  0.514  0.480-  47 1.39   4 1.39  51 1.43
  50  0.056  0.847  0.466-  48 1.36   3 1.37  52 1.43
  51  0.095  0.602  0.487-  52 1.37  53 1.43  49 1.43
  52  0.098  0.767  0.479-  51 1.37  50 1.43  54 1.45
  53  0.134  0.516  0.506-   8 1.33  51 1.43  55 1.44
  54  0.141  0.854  0.491-   7 1.36  56 1.41  52 1.45
  55  0.177  0.602  0.516-  57 1.36  56 1.38  53 1.44
  56  0.181  0.766  0.505-  55 1.38  54 1.41  58 1.44
  57  0.216  0.526  0.531-  55 1.36  12 1.39  59 1.43
  58  0.223  0.855  0.518-  11 1.33  60 1.44  56 1.44
  59  0.261  0.605  0.539-  60 1.37  57 1.43  61 1.47
  60  0.264  0.772  0.533-  59 1.37  62 1.42  58 1.44
  61  0.307  0.521  0.545-  16 1.37  63 1.41  59 1.47
  62  0.310  0.850  0.536-  64 1.39  15 1.42  60 1.42
  63  0.350  0.604  0.550-  64 1.39  61 1.41  65 1.48
  64  0.353  0.774  0.546-  63 1.39  62 1.39  66 1.41
  65  0.398  0.528  0.549-  20 1.38  67 1.41  63 1.48
  66  0.396  0.856  0.540-  68 1.37  19 1.40  64 1.41
  67  0.442  0.608  0.545-  68 1.40  65 1.41  69 1.41
  68  0.440  0.778  0.538-  66 1.37  67 1.40  70 1.45
  69  0.486  0.530  0.538-  24 1.34  71 1.38  67 1.41
  70  0.482  0.864  0.524-  72 1.38  23 1.38  68 1.45
  71  0.527  0.613  0.526-  69 1.38  73 1.41  72 1.41
  72  0.523  0.780  0.514-  70 1.38  74 1.39  71 1.41
  73  0.571  0.533  0.520-  28 1.36  75 1.39  71 1.41
  74  0.565  0.860  0.504-  27 1.37  76 1.38  72 1.39
  75  0.611  0.612  0.506-  73 1.39  76 1.42  77 1.44
  76  0.608  0.785  0.500-  74 1.38  75 1.42  78 1.44
  77  0.655  0.529  0.498-  32 1.39  79 1.42  75 1.44
  78  0.650  0.864  0.484-  31 1.38  76 1.44  80 1.45
  79  0.696  0.613  0.483-  80 1.36  77 1.42  81 1.46
  80  0.694  0.777  0.474-  79 1.36  82 1.39  78 1.45
  81  0.743  0.531  0.482-  83 1.39  36 1.40  79 1.46
  82  0.736  0.856  0.462-  35 1.35  80 1.39  84 1.46
  83  0.785  0.599  0.468-  85 1.36  81 1.39  84 1.41
  84  0.781  0.768  0.458-  83 1.41  86 1.43  82 1.46
  85  0.828  0.522  0.465-  83 1.36  40 1.39  87 1.44
  86  0.826  0.845  0.451-  39 1.39  84 1.43  88 1.43
  87  0.873  0.601  0.456-  88 1.39  89 1.43  85 1.44
  88  0.872  0.771  0.450-  87 1.39  90 1.41  86 1.43
  89  0.918  0.521  0.460-  91 1.37  44 1.40  87 1.43
  90  0.917  0.849  0.446-  43 1.37  88 1.41  92 1.44
  91  0.961  0.597  0.454-  92 1.34  89 1.37  47 1.53  48 2.07
  92  0.961  0.760  0.447-  91 1.34  90 1.44  48 1.58  47 2.07
 
  LATTYP: Found a simple orthorhombic cell.
 ALAT       =     8.1000000000
 B/A-ratio  =     3.4629629630
 C/A-ratio  =     4.1358024691
  
  Lattice vectors:
  
 A1 = (   0.0000000000,  -8.1000000000,   0.0000000000)
 A2 = (  28.0500000000,   0.0000000000,   0.0000000000)
 A3 = (   0.0000000000,   0.0000000000,  33.5000000000)


Analysis of symmetry for initial positions (statically):
=====================================================================
 Subroutine PRICEL returns:
 Original cell was already a primitive cell.
 

 Routine SETGRP: Setting up the symmetry group for a 
 simple orthorhombic supercell.


 Subroutine GETGRP returns: Found  1 space group operations
 (whereof  1 operations were pure point group operations)
 out of a pool of  8 trial point group operations.


The static configuration has the point symmetry C_1 .


Analysis of symmetry for dynamics (positions and initial velocities):
=====================================================================
 Subroutine PRICEL returns:
 Original cell was already a primitive cell.
 

 Routine SETGRP: Setting up the symmetry group for a 
 simple orthorhombic supercell.


 Subroutine GETGRP returns: Found  1 space group operations
 (whereof  1 operations were pure point group operations)
 out of a pool of  8 trial point group operations.


The dynamic configuration has the point symmetry C_1 .


 Subroutine INISYM returns: Found  1 space group operations
 (whereof  1 operations are pure point group operations),
 and found     1 'primitive' translations


----------------------------------------------------------------------------------------

                                     Primitive cell                                     

  volume of cell :    7611.3675

  direct lattice vectors                    reciprocal lattice vectors
    28.050000000  0.000000000  0.000000000     0.035650624  0.000000000  0.000000000
     0.000000000  8.100000000  0.000000000     0.000000000  0.123456790  0.000000000
     0.000000000  0.000000000 33.500000000     0.000000000  0.000000000  0.029850746

  length of vectors
    28.050000000  8.100000000 33.500000000     0.035650624  0.123456790  0.029850746

  position of ions in fractional coordinates (direct lattice)
     0.009390517  0.085632963  0.479223881
     0.007201604  0.257751852  0.481597015
     0.054023529  0.011950975  0.474373134
     0.047645989  0.348556790  0.490797015
     0.094960784  0.101167160  0.489462687
     0.090358289  0.265879012  0.500059701
     0.138934403  0.018651728  0.498032836
     0.133429947  0.353913580  0.512023881
     0.176891979  0.098291975  0.517438806
     0.177057041  0.273028395  0.522758209
     0.220586096  0.018106667  0.522719403
     0.218331194  0.355245679  0.532862687
     0.264107665  0.104061481  0.533441791
     0.263317291  0.267932099  0.541131343
     0.309064884  0.025060988  0.537053731
     0.307527986  0.351750617  0.543513433
     0.352048128  0.106415926  0.539295522
     0.352286988  0.273290123  0.542991045
     0.395379679  0.027127407  0.535752239
     0.396160428  0.358492593  0.545286567
     0.438385027  0.111018395  0.533862687
     0.440852050  0.281938272  0.542459701
     0.483311943  0.033939136  0.526531343
     0.486488414  0.364629630  0.538555224
     0.526830660  0.116147654  0.519976119
     0.528117647  0.280664198  0.530582090
     0.565586453  0.029381975  0.504223881
     0.573262032  0.364977778  0.522734328
     0.609176471  0.111776667  0.497764179
     0.615076649  0.274059259  0.508928358
     0.651319073  0.033234815  0.483731343
     0.657472371  0.358372840  0.499462687
     0.695882353  0.107049753  0.476179104
     0.697012478  0.273795062  0.486041791
     0.738235294  0.021608395  0.467701493
     0.742513369  0.358809877  0.483549254
     0.783222816  0.104126296  0.464964179
     0.785037433  0.276160494  0.474423881
     0.825450980  0.016045679  0.454710448
     0.828121212  0.351977778  0.471017910
     0.872787879  0.098947160  0.458734328
     0.872616756  0.260591358  0.468307463
     0.916331551  0.012864815  0.456641791
     0.914623886  0.351666667  0.468585075
     0.958848485  0.085345802  0.466307463
     0.957636364  0.261412346  0.472370149
     0.015193725  0.595112346  0.460256716
     0.016988520  0.763361728  0.452582090
     0.051644920  0.514350617  0.480167164
     0.055944385  0.847318519  0.465507463
     0.095240998  0.601767901  0.487462687
     0.098304813  0.766682716  0.479122388
     0.133557576  0.515817284  0.506268657
     0.141214617  0.853506173  0.490674627
     0.177120499  0.602498765  0.515513433
     0.181062745  0.766471605  0.505405970
     0.216425312  0.526206173  0.530602985
     0.223015330  0.854790123  0.517835821
     0.260899822  0.605016049  0.538704478
     0.264340820  0.771814815  0.533438806
     0.306749020  0.520922222  0.544898507
     0.309595009  0.849800000  0.535919403
     0.350266667  0.603903704  0.550382090
     0.352609626  0.773841975  0.545820896
     0.398085561  0.527577778  0.548805970
     0.396228164  0.855564198  0.539701493
     0.442278075  0.608196296  0.545441791
     0.439582888  0.777654321  0.538092537
     0.486278075  0.529959259  0.538382090
     0.481518717  0.863681481  0.523558209
     0.526631016  0.612770370  0.525743284
     0.522973262  0.779787654  0.514385075
     0.570666667  0.532740741  0.520167164
     0.564641711  0.860060494  0.503516418
     0.611147950  0.611693827  0.505785075
     0.608459893  0.784629630  0.499883582
     0.655483066  0.529325926  0.497653731
     0.650360071  0.863501235  0.484032836
     0.696245989  0.612854321  0.482829851
     0.694192513  0.776962963  0.474176119
     0.742720143  0.530848148  0.481591045
     0.735832442  0.856270370  0.462149254
     0.784991087  0.598644444  0.467868657
     0.780966132  0.767540741  0.458382090
     0.828064171  0.521791358  0.465319403
     0.825807487  0.845216049  0.450785075
     0.872741533  0.601166667  0.455901493
     0.872003565  0.770664198  0.449835821
     0.917939394  0.520548148  0.459883582
     0.916641711  0.848956790  0.446131343
     0.961019608  0.596739506  0.454116418
     0.961094474  0.759609877  0.447143284

  ion indices of the primitive-cell ions
   primitive index   ion index
                 1           1
                 2           2
                 3           3
                 4           4
                 5           5
                 6           6
                 7           7
                 8           8
                 9           9
                10          10
                11          11
                12          12
                13          13
                14          14
                15          15
                16          16
                17          17
                18          18
                19          19
                20          20
                21          21
                22          22
                23          23
                24          24
                25          25
                26          26
                27          27
                28          28
                29          29
                30          30
                31          31
                32          32
                33          33
                34          34
                35          35
                36          36
                37          37
                38          38
                39          39
                40          40
                41          41
                42          42
                43          43
                44          44
                45          45
                46          46
                47          47
                48          48
                49          49
                50          50
                51          51
                52          52
                53          53
                54          54
                55          55
                56          56
                57          57
                58          58
                59          59
                60          60
                61          61
                62          62
                63          63
                64          64
                65          65
                66          66
                67          67
                68          68
                69          69
                70          70
                71          71
                72          72
                73          73
                74          74
                75          75
                76          76
                77          77
                78          78
                79          79
                80          80
                81          81
                82          82
                83          83
                84          84
                85          85
                86          86
                87          87
                88          88
                89          89
                90          90
                91          91
                92          92

----------------------------------------------------------------------------------------

 
 
 KPOINTS: K-Spacing Value to Generate K-Mesh: 0.03

Automatic generation of k-mesh.
 Grid dimensions read from file:
 generate k-points for:    1    4    1

 Generating k-lattice:

  Cartesian coordinates                     Fractional coordinates (reciprocal lattice)
     0.035650624  0.000000000  0.000000000     1.000000000  0.000000000  0.000000000
     0.000000000  0.030864198  0.000000000     0.000000000  0.250000000  0.000000000
     0.000000000  0.000000000  0.029850746     0.000000000  0.000000000  1.000000000

  Length of vectors
     0.035650624  0.030864198  0.029850746

  Shift w.r.t. Gamma in fractional coordinates (k-lattice)
     0.000000000  0.000000000  0.000000000

 
 Subroutine IBZKPT returns following result:
 ===========================================
 
 Found      3 irreducible k-points:
 
 Following reciprocal coordinates:
            Coordinates               Weight
  0.000000  0.000000  0.000000      1.000000
  0.000000  0.250000  0.000000      2.000000
  0.000000  0.500000  0.000000      1.000000
 
 Following cartesian coordinates:
            Coordinates               Weight
  0.000000  0.000000  0.000000      1.000000
  0.000000  0.030864  0.000000      2.000000
  0.000000  0.061728  0.000000      1.000000
 


--------------------------------------------------------------------------------------------------------




 Dimension of arrays:
   k-points           NKPTS =      3   k-points in BZ     NKDIM =      3   number of bands    NBANDS=    232
   number of dos      NEDOS =    301   number of ions     NIONS =     92
   non local maximal  LDIM  =      4   non local SUM 2l+1 LMDIM =      8
   total plane-waves  NPLWV = ******
   max r-space proj   IRMAX =   1967   max aug-charges    IRDMAX=   5083
   dimension x,y,z NGX =   210 NGY =   60 NGZ =  250
   dimension x,y,z NGXF=   420 NGYF=  120 NGZF=  500
   support grid    NGXF=   420 NGYF=  120 NGZF=  500
   ions per type =              92
   NGX,Y,Z   is equivalent  to a cutoff of  12.45, 12.31, 12.41 a.u.
   NGXF,Y,Z  is equivalent  to a cutoff of  24.89, 24.63, 24.81 a.u.

 SYSTEM =  unknown system                          
 POSCAR =   C                                      

 Startparameter for this run:
   NWRITE =      2    write-flag & timer
   PREC   = accura    normal or accurate (medium, high low for compatibility)
   ISTART =      0    job   : 0-new  1-cont  2-samecut
   ICHARG =      2    charge: 1-file 2-atom 10-const
   ISPIN  =      1    spin polarized calculation?
   LNONCOLLINEAR =      F non collinear calculations
   LSORBIT =      F    spin-orbit coupling
   INIWAV =      1    electr: 0-lowe 1-rand  2-diag
   LASPH  =      F    aspherical Exc in radial PAW
 Electronic Relaxation 1
   ENCUT  =  500.0 eV  36.75 Ry    6.06 a.u.  51.14 14.77 61.08*2*pi/ulx,y,z
   ENINI  =  500.0     initial cutoff
   ENAUG  =  644.9 eV  augmentation charge cutoff
   NELM   =    150;   NELMIN=  2; NELMDL= -5     # of ELM steps 
   EDIFF  = 0.1E-05   stopping-criterion for ELM
   LREAL  =      T    real-space projection
   NLSPLINE    = F    spline interpolate recip. space projectors
   LCOMPAT=      F    compatible to vasp.4.4
   GGA_COMPAT  = T    GGA compatible to vasp.4.4-vasp.4.6
   LMAXPAW     = -100 max onsite density
   LMAXMIX     =    2 max onsite mixed and CHGCAR
   VOSKOWN=      0    Vosko Wilk Nusair interpolation
   ROPT   =   -0.00025
 Ionic relaxation
   EDIFFG = 0.1E-04   stopping-criterion for IOM
   NSW    =      0    number of steps for IOM
   NBLOCK =      1;   KBLOCK =      1    inner block; outer block 
   IBRION =     -1    ionic relax: 0-MD 1-quasi-New 2-CG
   NFREE  =      0    steps in history (QN), initial steepest desc. (CG)
   ISIF   =      2    stress and relaxation
   IWAVPR =     10    prediction:  0-non 1-charg 2-wave 3-comb
   ISYM   =      2    0-nonsym 1-usesym 2-fastsym
   LCORR  =      T    Harris-Foulkes like correction to forces

   POTIM  = 0.5000    time-step for ionic-motion
   TEIN   =    0.0    initial temperature
   TEBEG  =    0.0;   TEEND  =   0.0 temperature during run
   SMASS  =  -3.00    Nose mass-parameter (am)
   estimated Nose-frequenzy (Omega)   =  0.10E-29 period in steps = 0.13E+47 mass=  -0.180E-25a.u.
   SCALEE = 1.0000    scale energy and forces
   NPACO  =    256;   APACO  = 10.0  distance and # of slots for P.C.
   PSTRESS=    0.0 pullay stress

  Mass of Ions in am
   POMASS =  12.01
  Ionic Valenz
   ZVAL   =   4.00
  Atomic Wigner-Seitz radii
   RWIGS  =  -1.00
  virtual crystal weights 
   VCA    =   1.00
   NELECT =     368.0000    total number of electrons
   NUPDOWN=      -1.0000    fix difference up-down

 DOS related values:
   EMIN   =  10.00;   EMAX   =-10.00  energy-range for DOS
   EFERMI =   0.00;   METHOD = LEGACY      
   ISMEAR =     0;   SIGMA  =   0.20  broadening in eV -4-tet -1-fermi 0-gaus
   EFERMI_NEDOS =   21; number of points for ismear=-14 and -15

 Electronic relaxation 2 (details)
   IALGO  =     38    algorithm
   LDIAG  =      T    sub-space diagonalisation (order eigenvalues)
   LSUBROT=      F    optimize rotation matrix (better conditioning)
   TURBO    =      0    0=normal 1=particle mesh
   IRESTART =      0    0=no restart 2=restart with 2 vectors
   NREBOOT  =      0    no. of reboots
   NMIN     =      0    reboot dimension
   EREF     =   0.00    reference energy to select bands
   IMIX   =      4    mixing-type and parameters
     AMIX     =   0.40;   BMIX     =  1.00
     AMIX_MAG =   1.60;   BMIX_MAG =  1.00
     AMIN     =   0.10
     WC   =   100.;   INIMIX=   1;  MIXPRE=   1;  MAXMIX= -45

 Intra band minimization:
   WEIMIN = 0.0000     energy-eigenvalue tresh-hold
   EBREAK =  0.11E-08  absolut break condition
   DEPER  =   0.30     relativ break condition  

   TIME   =   0.40     timestep for ELM

  volume/ion in A,a.u.               =      82.73       558.30
  Fermi-wavevector in a.u.,A,eV,Ry     =   0.596398  1.127030  4.839472  0.355691
  Thomas-Fermi vector in A             =   1.646729
 
 Write flags
   LWAVE        =      F    write WAVECAR
   LDOWNSAMPLE  =      F    k-point downsampling of WAVECAR
   LCHARG       =      F    write CHGCAR
   LVTOT        =      F    write LOCPOT, total local potential
   LVHAR        =      F    write LOCPOT, Hartree potential only
   WRT_POTENTIAL= false  ! write potential to hdf5 file
   LELF         =      F    write electronic localiz. function (ELF)
   LORBIT       =      0    0 simple, 1 ext, 2 COOP (PROOUT), +10 PAW based schemes


 Python interface
   PLUGINS active      =      F    recompile with -DPLUGINS to activate
 
 Dipole corrections
   LMONO      =      F    monopole corrections only (constant potential shift)
   LDIPOL     =      F    correct potential (dipole corrections)
   IDIPOL     =      0    1-x, 2-y, 3-z, 4-all directions 
   EPSILON    =  1.0000000 bulk dielectric constant
   LVACPOTAV  =      F  vacuum potentials using an averaging scheme for the charge density
   VACPOTFLAT =  0.1000000 required flatness to determine vacuum potential
 
Coulomb truncation method
  LTRUNCATE          =      F  Coulomb kernel truncation to be used
  IDIMENSIONALITY    =      3  Dimensionality of cutoff (0 molecules / 2 surfaces)
  ISURFACE           =     -1  Direction of surface normal
  LCOARSEN           =      F  Coarsen the charge grid before padding, preferred

 
 Exchange correlation treatment:
   GGA     = PE    functional components
   XC_C    = 1    coefficients multiplying the functional components
   LIBXC   =     F    Libxc                    
   VOSKOWN =     0    Vosko Wilk Nusair interpolation
   LHFCALC =     F    Hartree Fock is set to
   LHFONE  =     F    Hartree Fock one center treatment
   AEXX    =    0.0000 exact exchange contribution

 Parameters of functionals:
   PE:
     No parameter
 
 Van der Waals corrections
   IVDW    =     0    specifies the selected vdW correction

 Linear response parameters
   LEPSILON=     F    determine dielectric tensor
   LRPA    =     F    only Hartree local field effects (RPA)
   LNABLA  =     F    use nabla operator in PAW spheres
   LVEL    =     F    velocity operator in full k-point grid
   CSHIFT  =0.1000    complex shift for real part using Kramers Kronig
   OMEGAMAX=  -1.0    maximum frequency
   DEG_THRESHOLD= 0.2000000E-02 threshold for treating states as degnerate
   RTIME   =   -0.100 relaxation time in fs
  (WPLASMAI=    0.000 imaginary part of plasma frequency in eV, 0.658/RTIME)
   DFIELD  = 0.0000000 0.0000000 0.0000000 field for delta impulse in time
 
  Optional k-point grid parameters
   LKPOINTS_OPT  =     F    use optional k-point grid
   KPOINTS_OPT_MODE=     1    mode for optional k-point grid
 
 Orbital magnetization related:
   ORBITALMAG=     F  switch on orbital magnetization
   LCHIMAG   =     F  perturbation theory with respect to B field
   DQ        =  0.001000  dq finite difference perturbation B field
   LLRAUG    =     F  two centre corrections for induced B field
   LBONE     =     F  B-component reconstruction in AE one-centre
   LVGVCALC  =     T  calculate vGv susceptibility
   LVGVAPPL  =     F  apply vGv susceptibility instead of pGv for G=0

 Random number generation:
   RANDOM_GENERATOR = DEFAULT
   PCG_SEED         = not used


--------------------------------------------------------------------------------------------------------


 Static calculation
 charge density and potential will be updated during run
 non-spin polarized calculation
 Variant of blocked Davidson
 Davidson routine will perform the subspace rotation
 perform sub-space diagonalisation
    after iterative eigenvector-optimisation
 modified Broyden-mixing scheme, WC =      100.0
 initial mixing is a Kerker type mixing with AMIX =  0.4000 and BMIX =      1.0000
 Hartree-type preconditioning will be used
 using additional bands            48
 real space projection scheme for non local part
 use partial core corrections
 calculate Harris-corrections to forces 
   (improved forces if not selfconsistent)
 use gradient corrections 
 use of overlap-Matrix (Vanderbilt PP)
 Gauss-broadening in eV      SIGMA  =   0.20


--------------------------------------------------------------------------------------------------------


  energy-cutoff  :      500.00
  volume of cell :     7611.37
      direct lattice vectors                 reciprocal lattice vectors
    28.050000000  0.000000000  0.000000000     0.035650624  0.000000000  0.000000000
     0.000000000  8.100000000  0.000000000     0.000000000  0.123456790  0.000000000
     0.000000000  0.000000000 33.500000000     0.000000000  0.000000000  0.029850746

  length of vectors
    28.050000000  8.100000000 33.500000000     0.035650624  0.123456790  0.029850746


 
 k-points in units of 2pi/SCALE and weight: K-Spacing Value to Generate K-Mesh: 0.03
   0.00000000  0.00000000  0.00000000       0.250
   0.00000000  0.03086420  0.00000000       0.500
   0.00000000  0.06172840  0.00000000       0.250
 
 k-points in reciprocal lattice and weights: K-Spacing Value to Generate K-Mesh: 0.03
   0.00000000  0.00000000  0.00000000       0.250
   0.00000000  0.25000000  0.00000000       0.500
   0.00000000  0.50000000  0.00000000       0.250
 
 position of ions in fractional coordinates (direct lattice) 
   0.00939052  0.08563296  0.47922388
   0.00720160  0.25775185  0.48159701
   0.05402353  0.01195098  0.47437313
   0.04764599  0.34855679  0.49079701
   0.09496078  0.10116716  0.48946269
   0.09035829  0.26587901  0.50005970
   0.13893440  0.01865173  0.49803284
   0.13342995  0.35391358  0.51202388
   0.17689198  0.09829198  0.51743881
   0.17705704  0.27302840  0.52275821
   0.22058610  0.01810667  0.52271940
   0.21833119  0.35524568  0.53286269
   0.26410766  0.10406148  0.53344179
   0.26331729  0.26793210  0.54113134
   0.30906488  0.02506099  0.53705373
   0.30752799  0.35175062  0.54351343
   0.35204813  0.10641593  0.53929552
   0.35228699  0.27329012  0.54299104
   0.39537968  0.02712741  0.53575224
   0.39616043  0.35849259  0.54528657
   0.43838503  0.11101840  0.53386269
   0.44085205  0.28193827  0.54245970
   0.48331194  0.03393914  0.52653134
   0.48648841  0.36462963  0.53855522
   0.52683066  0.11614765  0.51997612
   0.52811765  0.28066420  0.53058209
   0.56558645  0.02938198  0.50422388
   0.57326203  0.36497778  0.52273433
   0.60917647  0.11177667  0.49776418
   0.61507665  0.27405926  0.50892836
   0.65131907  0.03323481  0.48373134
   0.65747237  0.35837284  0.49946269
   0.69588235  0.10704975  0.47617910
   0.69701248  0.27379506  0.48604179
   0.73823529  0.02160840  0.46770149
   0.74251337  0.35880988  0.48354925
   0.78322282  0.10412630  0.46496418
   0.78503743  0.27616049  0.47442388
   0.82545098  0.01604568  0.45471045
   0.82812121  0.35197778  0.47101791
   0.87278788  0.09894716  0.45873433
   0.87261676  0.26059136  0.46830746
   0.91633155  0.01286481  0.45664179
   0.91462389  0.35166667  0.46858507
   0.95884848  0.08534580  0.46630746
   0.95763636  0.26141235  0.47237015
   0.01519373  0.59511235  0.46025672
   0.01698852  0.76336173  0.45258209
   0.05164492  0.51435062  0.48016716
   0.05594439  0.84731852  0.46550746
   0.09524100  0.60176790  0.48746269
   0.09830481  0.76668272  0.47912239
   0.13355758  0.51581728  0.50626866
   0.14121462  0.85350617  0.49067463
   0.17712050  0.60249877  0.51551343
   0.18106275  0.76647160  0.50540597
   0.21642531  0.52620617  0.53060299
   0.22301533  0.85479012  0.51783582
   0.26089982  0.60501605  0.53870448
   0.26434082  0.77181481  0.53343881
   0.30674902  0.52092222  0.54489851
   0.30959501  0.84980000  0.53591940
   0.35026667  0.60390370  0.55038209
   0.35260963  0.77384198  0.54582090
   0.39808556  0.52757778  0.54880597
   0.39622816  0.85556420  0.53970149
   0.44227807  0.60819630  0.54544179
   0.43958289  0.77765432  0.53809254
   0.48627807  0.52995926  0.53838209
   0.48151872  0.86368148  0.52355821
   0.52663102  0.61277037  0.52574328
   0.52297326  0.77978765  0.51438507
   0.57066667  0.53274074  0.52016716
   0.56464171  0.86006049  0.50351642
   0.61114795  0.61169383  0.50578507
   0.60845989  0.78462963  0.49988358
   0.65548307  0.52932593  0.49765373
   0.65036007  0.86350123  0.48403284
   0.69624599  0.61285432  0.48282985
   0.69419251  0.77696296  0.47417612
   0.74272014  0.53084815  0.48159104
   0.73583244  0.85627037  0.46214925
   0.78499109  0.59864444  0.46786866
   0.78096613  0.76754074  0.45838209
   0.82806417  0.52179136  0.46531940
   0.82580749  0.84521605  0.45078507
   0.87274153  0.60116667  0.45590149
   0.87200357  0.77066420  0.44983582
   0.91793939  0.52054815  0.45988358
   0.91664171  0.84895679  0.44613134
   0.96101961  0.59673951  0.45411642
   0.96109447  0.75960988  0.44714328
 
 position of ions in cartesian coordinates  (Angst):
   0.26340400  0.69362700 16.05400000
   0.20200500  2.08779000 16.13350000
   1.51536000  0.09680290 15.89150000
   1.33647000  2.82331000 16.44170000
   2.66365000  0.81945400 16.39700000
   2.53455000  2.15362000 16.75200000
   3.89711000  0.15107900 16.68410000
   3.74271000  2.86670000 17.15280000
   4.96182000  0.79616500 17.33420000
   4.96645000  2.21153000 17.51240000
   6.18744000  0.14666400 17.51110000
   6.12419000  2.87749000 17.85090000
   7.40822000  0.84289800 17.87030000
   7.38605000  2.17025000 18.12790000
   8.66927000  0.20299400 17.99130000
   8.62616000  2.84918000 18.20770000
   9.87495000  0.86196900 18.06640000
   9.88165000  2.21365000 18.19020000
  11.09040000  0.21973200 17.94770000
  11.11230000  2.90379000 18.26710000
  12.29670000  0.89924900 17.88440000
  12.36590000  2.28370000 18.17240000
  13.55690000  0.27490700 17.63880000
  13.64600000  2.95350000 18.04160000
  14.77760000  0.94079600 17.41920000
  14.81370000  2.27338000 17.77450000
  15.86470000  0.23799400 16.89150000
  16.08000000  2.95632000 17.51160000
  17.08740000  0.90539100 16.67510000
  17.25290000  2.21988000 17.04910000
  18.26950000  0.26920200 16.20500000
  18.44210000  2.90282000 16.73200000
  19.51950000  0.86710300 15.95200000
  19.55120000  2.21774000 16.28240000
  20.70750000  0.17502800 15.66800000
  20.82750000  2.90636000 16.19890000
  21.96940000  0.84342300 15.57630000
  22.02030000  2.23690000 15.89320000
  23.15390000  0.12997000 15.23280000
  23.22880000  2.85102000 15.77910000
  24.48170000  0.80147200 15.36760000
  24.47690000  2.11079000 15.68830000
  25.70310000  0.10420500 15.29750000
  25.65520000  2.84850000 15.69760000
  26.89570000  0.69130100 15.62130000
  26.86170000  2.11744000 15.82440000
   0.42618400  4.82041000 15.41860000
   0.47652800  6.18323000 15.16150000
   1.44864000  4.16624000 16.08560000
   1.56924000  6.86328000 15.59450000
   2.67151000  4.87432000 16.33000000
   2.75745000  6.21013000 16.05060000
   3.74629000  4.17812000 16.96000000
   3.96107000  6.91340000 16.43760000
   4.96823000  4.88024000 17.26970000
   5.07881000  6.20842000 16.93110000
   6.07073000  4.26227000 17.77520000
   6.25558000  6.92380000 17.34750000
   7.31824000  4.90063000 18.04660000
   7.41476000  6.25170000 17.87020000
   8.60431000  4.21947000 18.25410000
   8.68414000  6.88338000 17.95330000
   9.82498000  4.89162000 18.43780000
   9.89070000  6.26812000 18.28500000
  11.16630000  4.27338000 18.38500000
  11.11420000  6.93007000 18.08000000
  12.40590000  4.92639000 18.27230000
  12.33030000  6.29900000 18.02610000
  13.64010000  4.29267000 18.03580000
  13.50660000  6.99582000 17.53920000
  14.77200000  4.96344000 17.61240000
  14.66940000  6.31628000 17.23190000
  16.00720000  4.31520000 17.42560000
  15.83820000  6.96649000 16.86780000
  17.14270000  4.95472000 16.94380000
  17.06730000  6.35550000 16.74610000
  18.38630000  4.28754000 16.67140000
  18.24260000  6.99436000 16.21510000
  19.52970000  4.96412000 16.17480000
  19.47210000  6.29340000 15.88490000
  20.83330000  4.29987000 16.13330000
  20.64010000  6.93579000 15.48200000
  22.01900000  4.84902000 15.67360000
  21.90610000  6.21708000 15.35580000
  23.22720000  4.22651000 15.58820000
  23.16390000  6.84625000 15.10130000
  24.48040000  4.86945000 15.27270000
  24.45970000  6.24238000 15.06950000
  25.74820000  4.21644000 15.40610000
  25.71180000  6.87655000 14.94540000
  26.95660000  4.83359000 15.21290000
  26.95870000  6.15284000 14.97930000
 


--------------------------------------------------------------------------------------------------------


 k-point     1 :   0.0000 0.0000 0.0000  plane waves:  193173
 k-point     2 :   0.0000 0.2500 0.0000  plane waves:  193166
 k-point     3 :   0.0000 0.5000 0.0000  plane waves:  193226

 maximum and minimum number of plane-waves per node :    193226   193166

 maximum number of plane-waves:    193226
 maximum index in each direction: 
   IXMAX=   51   IYMAX=   14   IZMAX=   61
   IXMIN=  -51   IYMIN=  -15   IZMIN=  -61


 serial   3D FFT for wavefunctions
 parallel 3D FFT for charge:
    minimum data exchange during FFTs selected (reduces bandwidth)


 total amount of memory used by VASP MPI-rank0  2294510. kBytes
=======================================================================

   base                                    :      30000. kBytes
   nonlr-proj                              :      15076. kBytes
   fftplans                                :     436558. kBytes
   grid                                    :     732614. kBytes
   one-center                              :        282. kBytes
   wavefun                                 :    1079980. kBytes
 
     INWAV:  cpu time      0.0000: real time      0.0000
 Broyden mixing: mesh for mixing (old mesh)
   NGX =103   NGY = 29   NGZ =123
  (NGX  =420   NGY  =120   NGZ  =500)
  gives a total of 367401 points

 initial charge density was supplied:
 charge density of overlapping atoms calculated
 number of electron     368.0000000 magnetization 
 keeping initial charge density in first step


--------------------------------------------------------------------------------------------------------


 Maximum index for non-local projection operator          1872
 Maximum index for augmentation-charges          2385 (set IRDMAX)


--------------------------------------------------------------------------------------------------------


 First call to EWALD:  gamma=   0.090
 Maximum number of real-space cells   2x   6x   2
 Maximum number of reciprocal cells   4x   1x   4

    FEWALD:  cpu time      0.1596: real time      0.1596


--------------------------------------- Ionic step        1  -------------------------------------------




--------------------------------------- Iteration      1(   1)  ---------------------------------------


    POTLOK:  cpu time      0.4178: real time      0.4350
    SETDIJ:  cpu time      0.0412: real time      0.0412
     EDDAV:  cpu time     11.0506: real time     11.0556
       DOS:  cpu time      0.0008: real time      0.0008
    --------------------------------------------
      LOOP:  cpu time     11.5104: real time     11.5326

 eigenvalue-minimisations  :  1712
 total energy-change (2. order) : 0.3694978E+04  (-0.1189144E+05)
 number of electron     368.0000000 magnetization 
 augmentation part      368.0000000 magnetization 

 Free energy of the ion-electron system (eV)
  ---------------------------------------------------
  alpha Z        PSCENC =        91.34886789
  Ewald energy   TEWEN  =    119926.28391153
  -Hartree energ DENC   =   -129262.35326935
  -exchange      EXHF   =         0.00000000
  -V(xc)+E(xc)   XCENC  =      1220.75435848
  PAW double counting   =      9984.02826696   -10036.41360137
  entropy T*S    EENTRO =        -0.80252477
  eigenvalues    EBANDS =     -1765.52297928
  atomic energy  EATOM  =     13537.65479391
  Solvation  Ediel_sol  =         0.00000000
  ---------------------------------------------------
  free energy    TOTEN  =      3694.97782401 eV

  energy without entropy =     3695.78034878  energy(sigma->0) =     3695.37908639


--------------------------------------------------------------------------------------------------------




--------------------------------------- Iteration      1(   2)  ---------------------------------------


     EDDAV:  cpu time     13.0472: real time     13.0521
       DOS:  cpu time      0.0007: real time      0.0007
    --------------------------------------------
      LOOP:  cpu time     13.0479: real time     13.0528

 eigenvalue-minimisations  :  2136
 total energy-change (2. order) :-0.3508832E+04  (-0.3250104E+04)
 number of electron     368.0000000 magnetization 
 augmentation part      368.0000000 magnetization 

 Free energy of the ion-electron system (eV)
  ---------------------------------------------------
  alpha Z        PSCENC =        91.34886789
  Ewald energy   TEWEN  =    119926.28391153
  -Hartree energ DENC   =   -129262.35326935
  -exchange      EXHF   =         0.00000000
  -V(xc)+E(xc)   XCENC  =      1220.75435848
  PAW double counting   =      9984.02826696   -10036.41360137
  entropy T*S    EENTRO =        -0.19640046
  eigenvalues    EBANDS =     -5274.96147729
  atomic energy  EATOM  =     13537.65479391
  Solvation  Ediel_sol  =         0.00000000
  ---------------------------------------------------
  free energy    TOTEN  =       186.14545031 eV

  energy without entropy =      186.34185076  energy(sigma->0) =      186.24365053


--------------------------------------------------------------------------------------------------------




--------------------------------------- Iteration      1(   3)  ---------------------------------------


     EDDAV:  cpu time     11.2155: real time     11.2198
       DOS:  cpu time      0.0007: real time      0.0007
    --------------------------------------------
      LOOP:  cpu time     11.2162: real time     11.2205

 eigenvalue-minimisations  :  1776
 total energy-change (2. order) :-0.1020034E+04  (-0.9970830E+03)
 number of electron     368.0000000 magnetization 
 augmentation part      368.0000000 magnetization 

 Free energy of the ion-electron system (eV)
  ---------------------------------------------------
  alpha Z        PSCENC =        91.34886789
  Ewald energy   TEWEN  =    119926.28391153
  -Hartree energ DENC   =   -129262.35326935
  -exchange      EXHF   =         0.00000000
  -V(xc)+E(xc)   XCENC  =      1220.75435848
  PAW double counting   =      9984.02826696   -10036.41360137
  entropy T*S    EENTRO =        -0.04382912
  eigenvalues    EBANDS =     -6295.14808243
  atomic energy  EATOM  =     13537.65479391
  Solvation  Ediel_sol  =         0.00000000
  ---------------------------------------------------
  free energy    TOTEN  =      -833.88858350 eV

  energy without entropy =     -833.84475438  energy(sigma->0) =     -833.86666894


--------------------------------------------------------------------------------------------------------




--------------------------------------- Iteration      1(   4)  ---------------------------------------


     EDDAV:  cpu time     10.8806: real time     10.8847
       DOS:  cpu time      0.0007: real time      0.0007
    --------------------------------------------
      LOOP:  cpu time     10.8813: real time     10.8853

 eigenvalue-minimisations  :  1712
 total energy-change (2. order) :-0.6206985E+02  (-0.6105666E+02)
 number of electron     368.0000000 magnetization 
 augmentation part      368.0000000 magnetization 

 Free energy of the ion-electron system (eV)
  ---------------------------------------------------
  alpha Z        PSCENC =        91.34886789
  Ewald energy   TEWEN  =    119926.28391153
  -Hartree energ DENC   =   -129262.35326935
  -exchange      EXHF   =         0.00000000
  -V(xc)+E(xc)   XCENC  =      1220.75435848
  PAW double counting   =      9984.02826696   -10036.41360137
  entropy T*S    EENTRO =        -0.05942548
  eigenvalues    EBANDS =     -6357.20233790
  atomic energy  EATOM  =     13537.65479391
  Solvation  Ediel_sol  =         0.00000000
  ---------------------------------------------------
  free energy    TOTEN  =      -895.95843532 eV

  energy without entropy =     -895.89900984  energy(sigma->0) =     -895.92872258


--------------------------------------------------------------------------------------------------------




--------------------------------------- Iteration      1(   5)  ---------------------------------------


     EDDAV:  cpu time     11.2256: real time     11.2295
       DOS:  cpu time      0.0007: real time      0.0007
    CHARGE:  cpu time      1.2052: real time      1.2073
    MIXING:  cpu time      0.2741: real time      0.2760
    --------------------------------------------
      LOOP:  cpu time     12.7056: real time     12.7135

 eigenvalue-minimisations  :  1784
 total energy-change (2. order) :-0.1521446E+01  (-0.1498702E+01)
 number of electron     368.0000003 magnetization 
 augmentation part       10.1276580 magnetization 

 Broyden mixing:
  rms(total) = 0.45333E+01    rms(broyden)= 0.45327E+01
  rms(prec ) = 0.46501E+01
  weight for this iteration     100.00

 Free energy of the ion-electron system (eV)
  ---------------------------------------------------
  alpha Z        PSCENC =        91.34886789
  Ewald energy   TEWEN  =    119926.28391153
  -Hartree energ DENC   =   -129262.35326935
  -exchange      EXHF   =         0.00000000
  -V(xc)+E(xc)   XCENC  =      1220.75435848
  PAW double counting   =      9984.02826696   -10036.41360137
  entropy T*S    EENTRO =        -0.05988422
  eigenvalues    EBANDS =     -6358.72332512
  atomic energy  EATOM  =     13537.65479391
  Solvation  Ediel_sol  =         0.00000000
  ---------------------------------------------------
  free energy    TOTEN  =      -897.47988128 eV

  energy without entropy =     -897.41999706  energy(sigma->0) =     -897.44993917


--------------------------------------------------------------------------------------------------------




--------------------------------------- Iteration      1(   6)  ---------------------------------------


    POTLOK:  cpu time      0.3221: real time      0.3221
    SETDIJ:  cpu time      0.0402: real time      0.0403
     EDDAV:  cpu time     10.2505: real time     10.2543
       DOS:  cpu time      0.0008: real time      0.0007
    CHARGE:  cpu time      1.1553: real time      1.1581
    MIXING:  cpu time      0.2784: real time      0.2784
    --------------------------------------------
      LOOP:  cpu time     12.0472: real time     12.0539

 eigenvalue-minimisations  :  1584
 total energy-change (2. order) : 0.4911085E+02  (-0.4701082E+01)
 number of electron     368.0000003 magnetization 
 augmentation part        9.7035354 magnetization 

 Broyden mixing:
  rms(total) = 0.26619E+01    rms(broyden)= 0.26619E+01
  rms(prec ) = 0.27198E+01
  weight for this iteration     100.00

 eigenvalues of (default mixing * dielectric matrix)
  average eigenvalue GAMMA=   2.1819
  2.1819

 Free energy of the ion-electron system (eV)
  ---------------------------------------------------
  alpha Z        PSCENC =        91.34886789
  Ewald energy   TEWEN  =    119926.28391153
  -Hartree energ DENC   =   -129830.72128085
  -exchange      EXHF   =         0.00000000
  -V(xc)+E(xc)   XCENC  =      1243.99977536
  PAW double counting   =     18899.59316766   -18959.55443099
  entropy T*S    EENTRO =        -0.06557356
  eigenvalues    EBANDS =     -5756.90826490
  atomic energy  EATOM  =     13537.65479391
  Solvation  Ediel_sol  =         0.00000000
  ---------------------------------------------------
  free energy    TOTEN  =      -848.36903396 eV

  energy without entropy =     -848.30346039  energy(sigma->0) =     -848.33624717


--------------------------------------------------------------------------------------------------------




--------------------------------------- Iteration      1(   7)  ---------------------------------------


    POTLOK:  cpu time      0.3211: real time      0.3212
    SETDIJ:  cpu time      0.0403: real time      0.0403
     EDDAV:  cpu time     10.1213: real time     10.1249
       DOS:  cpu time      0.0007: real time      0.0007
    CHARGE:  cpu time      1.1536: real time      1.1547
    MIXING:  cpu time      0.2795: real time      0.2801
    --------------------------------------------
      LOOP:  cpu time     11.9165: real time     11.9218

 eigenvalue-minimisations  :  1560
 total energy-change (2. order) : 0.1825682E+02  (-0.6449758E+01)
 number of electron     368.0000002 magnetization 
 augmentation part        9.1504285 magnetization 

 Broyden mixing:
  rms(total) = 0.72969E+00    rms(broyden)= 0.72941E+00
  rms(prec ) = 0.73939E+00
  weight for this iteration     100.00

 eigenvalues of (default mixing * dielectric matrix)
  average eigenvalue GAMMA=   2.1976
  2.1976  2.1976

 Free energy of the ion-electron system (eV)
  ---------------------------------------------------
  alpha Z        PSCENC =        91.34886789
  Ewald energy   TEWEN  =    119926.28391153
  -Hartree energ DENC   =   -130591.03285119
  -exchange      EXHF   =         0.00000000
  -V(xc)+E(xc)   XCENC  =      1274.94852998
  PAW double counting   =     36411.04995010   -36477.87028125
  entropy T*S    EENTRO =        -0.07753772
  eigenvalues    EBANDS =     -5002.41760087
  atomic energy  EATOM  =     13537.65479391
  Solvation  Ediel_sol  =         0.00000000
  ---------------------------------------------------
  free energy    TOTEN  =      -830.11221764 eV

  energy without entropy =     -830.03467992  energy(sigma->0) =     -830.07344878


--------------------------------------------------------------------------------------------------------




--------------------------------------- Iteration      1(   8)  ---------------------------------------


    POTLOK:  cpu time      0.3214: real time      0.3214
    SETDIJ:  cpu time      0.0404: real time      0.0403
     EDDAV:  cpu time     10.2035: real time     10.2073
       DOS:  cpu time      0.0008: real time      0.0008
    CHARGE:  cpu time      1.1559: real time      1.1561
    MIXING:  cpu time      0.2806: real time      0.2824
    --------------------------------------------
      LOOP:  cpu time     12.0025: real time     12.0083

 eigenvalue-minimisations  :  1576
 total energy-change (2. order) : 0.2815307E+00  (-0.2421527E+00)
 number of electron     368.0000002 magnetization 
 augmentation part        9.1357004 magnetization 

 Broyden mixing:
  rms(total) = 0.10034E+00    rms(broyden)= 0.10031E+00
  rms(prec ) = 0.12234E+00
  weight for this iteration     100.00

 eigenvalues of (default mixing * dielectric matrix)
  average eigenvalue GAMMA=   1.8600
  1.2314  2.4386  1.9100

 Free energy of the ion-electron system (eV)
  ---------------------------------------------------
  alpha Z        PSCENC =        91.34886789
  Ewald energy   TEWEN  =    119926.28391153
  -Hartree energ DENC   =   -130683.33219426
  -exchange      EXHF   =         0.00000000
  -V(xc)+E(xc)   XCENC  =      1274.73908108
  PAW double counting   =     40645.79735283   -40709.96237938
  entropy T*S    EENTRO =        -0.07208548
  eigenvalues    EBANDS =     -4912.28803501
  atomic energy  EATOM  =     13537.65479391
  Solvation  Ediel_sol  =         0.00000000
  ---------------------------------------------------
  free energy    TOTEN  =      -829.83068690 eV

  energy without entropy =     -829.75860143  energy(sigma->0) =     -829.79464417


--------------------------------------------------------------------------------------------------------




--------------------------------------- Iteration      1(   9)  ---------------------------------------


    POTLOK:  cpu time      0.3211: real time      0.3211
    SETDIJ:  cpu time      0.0402: real time      0.0402
     EDDAV:  cpu time     10.6021: real time     10.6089
       DOS:  cpu time      0.0007: real time      0.0007
    CHARGE:  cpu time      1.1542: real time      1.1539
    MIXING:  cpu time      0.2851: real time      0.2869
    --------------------------------------------
      LOOP:  cpu time     12.4035: real time     12.4118

 eigenvalue-minimisations  :  1656
 total energy-change (2. order) : 0.1064704E+00  (-0.2659750E-01)
 number of electron     368.0000002 magnetization 
 augmentation part        9.1119679 magnetization 

 Broyden mixing:
  rms(total) = 0.56325E-01    rms(broyden)= 0.56316E-01
  rms(prec ) = 0.77655E-01
  weight for this iteration     100.00

 eigenvalues of (default mixing * dielectric matrix)
  average eigenvalue GAMMA=   1.7021
  2.2070  2.2070  1.0538  1.3405

 Free energy of the ion-electron system (eV)
  ---------------------------------------------------
  alpha Z        PSCENC =        91.34886789
  Ewald energy   TEWEN  =    119926.28391153
  -Hartree energ DENC   =   -130752.80555124
  -exchange      EXHF   =         0.00000000
  -V(xc)+E(xc)   XCENC  =      1276.15437134
  PAW double counting   =     41174.81287063   -41239.05373561
  entropy T*S    EENTRO =        -0.07327037
  eigenvalues    EBANDS =     -4844.04647460
  atomic energy  EATOM  =     13537.65479391
  Solvation  Ediel_sol  =         0.00000000
  ---------------------------------------------------
  free energy    TOTEN  =      -829.72421653 eV

  energy without entropy =     -829.65094616  energy(sigma->0) =     -829.68758134


--------------------------------------------------------------------------------------------------------




--------------------------------------- Iteration      1(  10)  ---------------------------------------


    POTLOK:  cpu time      0.3213: real time      0.3213
    SETDIJ:  cpu time      0.0400: real time      0.0400
     EDDAV:  cpu time     11.1250: real time     11.1291
       DOS:  cpu time      0.0007: real time      0.0007
    CHARGE:  cpu time      1.1533: real time      1.1547
    MIXING:  cpu time      0.2925: real time      0.2925
    --------------------------------------------
      LOOP:  cpu time     12.9329: real time     12.9383

 eigenvalue-minimisations  :  1760
 total energy-change (2. order) : 0.3704144E-01  (-0.4711159E-02)
 number of electron     368.0000002 magnetization 
 augmentation part        9.1025110 magnetization 

 Broyden mixing:
  rms(total) = 0.35948E-01    rms(broyden)= 0.35945E-01
  rms(prec ) = 0.55129E-01
  weight for this iteration     100.00

 eigenvalues of (default mixing * dielectric matrix)
  average eigenvalue GAMMA=   1.7006
  2.4259  2.4259  1.5418  1.2762  0.8330

 Free energy of the ion-electron system (eV)
  ---------------------------------------------------
  alpha Z        PSCENC =        91.34886789
  Ewald energy   TEWEN  =    119926.28391153
  -Hartree energ DENC   =   -130801.94985303
  -exchange      EXHF   =         0.00000000
  -V(xc)+E(xc)   XCENC  =      1276.47753004
  PAW double counting   =     40953.64039811   -41017.74139566
  entropy T*S    EENTRO =        -0.07351138
  eigenvalues    EBANDS =     -4795.32791650
  atomic energy  EATOM  =     13537.65479391
  Solvation  Ediel_sol  =         0.00000000
  ---------------------------------------------------
  free energy    TOTEN  =      -829.68717509 eV

  energy without entropy =     -829.61366371  energy(sigma->0) =     -829.65041940


--------------------------------------------------------------------------------------------------------




--------------------------------------- Iteration      1(  11)  ---------------------------------------


    POTLOK:  cpu time      0.3212: real time      0.3212
    SETDIJ:  cpu time      0.0401: real time      0.0401
     EDDAV:  cpu time     10.1113: real time     10.1183
       DOS:  cpu time      0.0008: real time      0.0008
    CHARGE:  cpu time      1.1601: real time      1.1627
    MIXING:  cpu time      0.2968: real time      0.2982
    --------------------------------------------
      LOOP:  cpu time     11.9303: real time     11.9413

 eigenvalue-minimisations  :  1560
 total energy-change (2. order) : 0.2645905E-01  (-0.1889012E-02)
 number of electron     368.0000002 magnetization 
 augmentation part        9.0981387 magnetization 

 Broyden mixing:
  rms(total) = 0.23826E-01    rms(broyden)= 0.23824E-01
  rms(prec ) = 0.37951E-01
  weight for this iteration     100.00

 eigenvalues of (default mixing * dielectric matrix)
  average eigenvalue GAMMA=   1.7902
  3.0706  2.5221  1.9210  0.9309  1.1484  1.1484

 Free energy of the ion-electron system (eV)
  ---------------------------------------------------
  alpha Z        PSCENC =        91.34886789
  Ewald energy   TEWEN  =    119926.28391153
  -Hartree energ DENC   =   -130861.05933759
  -exchange      EXHF   =         0.00000000
  -V(xc)+E(xc)   XCENC  =      1276.98776172
  PAW double counting   =     40889.72611685   -40953.72570838
  entropy T*S    EENTRO =        -0.07354366
  eigenvalues    EBANDS =     -4736.80357831
  atomic energy  EATOM  =     13537.65479391
  Solvation  Ediel_sol  =         0.00000000
  ---------------------------------------------------
  free energy    TOTEN  =      -829.66071604 eV

  energy without entropy =     -829.58717238  energy(sigma->0) =     -829.62394421


--------------------------------------------------------------------------------------------------------




--------------------------------------- Iteration      1(  12)  ---------------------------------------


    POTLOK:  cpu time      0.3210: real time      0.3210
    SETDIJ:  cpu time      0.0401: real time      0.0401
     EDDAV:  cpu time     10.1519: real time     10.1554
       DOS:  cpu time      0.0008: real time      0.0008
    CHARGE:  cpu time      1.1520: real time      1.1533
    MIXING:  cpu time      0.3077: real time      0.3075
    --------------------------------------------
      LOOP:  cpu time     11.9734: real time     11.9780

 eigenvalue-minimisations  :  1568
 total energy-change (2. order) : 0.4366343E-02  (-0.2608100E-02)
 number of electron     368.0000002 magnetization 
 augmentation part        9.0907129 magnetization 

 Broyden mixing:
  rms(total) = 0.14766E-01    rms(broyden)= 0.14762E-01
  rms(prec ) = 0.22622E-01
  weight for this iteration     100.00

 eigenvalues of (default mixing * dielectric matrix)
  average eigenvalue GAMMA=   2.0609
  4.8228  2.3739  2.0444  2.0444  0.9449  1.0981  1.0981

 Free energy of the ion-electron system (eV)
  ---------------------------------------------------
  alpha Z        PSCENC =        91.34886789
  Ewald energy   TEWEN  =    119926.28391153
  -Hartree energ DENC   =   -130929.51903013
  -exchange      EXHF   =         0.00000000
  -V(xc)+E(xc)   XCENC  =      1277.64511133
  PAW double counting   =     40929.73496906   -40993.71429796
  entropy T*S    EENTRO =        -0.07361022
  eigenvalues    EBANDS =     -4669.01706510
  atomic energy  EATOM  =     13537.65479391
  Solvation  Ediel_sol  =         0.00000000
  ---------------------------------------------------
  free energy    TOTEN  =      -829.65634970 eV

  energy without entropy =     -829.58273948  energy(sigma->0) =     -829.61954459


--------------------------------------------------------------------------------------------------------




--------------------------------------- Iteration      1(  13)  ---------------------------------------


    POTLOK:  cpu time      0.3215: real time      0.3216
    SETDIJ:  cpu time      0.0402: real time      0.0402
     EDDAV:  cpu time     10.0961: real time     10.0998
       DOS:  cpu time      0.0007: real time      0.0007
    CHARGE:  cpu time      1.1545: real time      1.1549
    MIXING:  cpu time      0.3150: real time      0.3150
    --------------------------------------------
      LOOP:  cpu time     11.9281: real time     11.9322

 eigenvalue-minimisations  :  1560
 total energy-change (2. order) :-0.1274847E-01  (-0.7832099E-03)
 number of electron     368.0000002 magnetization 
 augmentation part        9.0880543 magnetization 

 Broyden mixing:
  rms(total) = 0.80944E-02    rms(broyden)= 0.80924E-02
  rms(prec ) = 0.11702E-01
  weight for this iteration     100.00

 eigenvalues of (default mixing * dielectric matrix)
  average eigenvalue GAMMA=   2.1033
  5.5255  2.4899  2.4899  1.9016  1.1996  1.1996  0.8905  1.1303

 Free energy of the ion-electron system (eV)
  ---------------------------------------------------
  alpha Z        PSCENC =        91.34886789
  Ewald energy   TEWEN  =    119926.28391153
  -Hartree energ DENC   =   -130978.57468852
  -exchange      EXHF   =         0.00000000
  -V(xc)+E(xc)   XCENC  =      1277.83708723
  PAW double counting   =     40891.53901497   -40955.51577791
  entropy T*S    EENTRO =        -0.07342606
  eigenvalues    EBANDS =     -4620.16888120
  atomic energy  EATOM  =     13537.65479391
  Solvation  Ediel_sol  =         0.00000000
  ---------------------------------------------------
  free energy    TOTEN  =      -829.66909817 eV

  energy without entropy =     -829.59567211  energy(sigma->0) =     -829.63238514


--------------------------------------------------------------------------------------------------------




--------------------------------------- Iteration      1(  14)  ---------------------------------------


    POTLOK:  cpu time      0.3219: real time      0.3220
    SETDIJ:  cpu time      0.0402: real time      0.0402
     EDDAV:  cpu time     10.2828: real time     10.2865
       DOS:  cpu time      0.0007: real time      0.0007
    CHARGE:  cpu time      1.1536: real time      1.1544
    MIXING:  cpu time      0.3206: real time      0.3224
    --------------------------------------------
      LOOP:  cpu time     12.1198: real time     12.1263

 eigenvalue-minimisations  :  1592
 total energy-change (2. order) :-0.1760146E-01  (-0.1354220E-03)
 number of electron     368.0000002 magnetization 
 augmentation part        9.0870881 magnetization 

 Broyden mixing:
  rms(total) = 0.52092E-02    rms(broyden)= 0.52087E-02
  rms(prec ) = 0.73652E-02
  weight for this iteration     100.00

 eigenvalues of (default mixing * dielectric matrix)
  average eigenvalue GAMMA=   2.2405
  6.5188  2.9841  2.6051  1.8822  1.8822  1.1962  1.1962  0.9500  0.9500

 Free energy of the ion-electron system (eV)
  ---------------------------------------------------
  alpha Z        PSCENC =        91.34886789
  Ewald energy   TEWEN  =    119926.28391153
  -Hartree energ DENC   =   -130994.55269846
  -exchange      EXHF   =         0.00000000
  -V(xc)+E(xc)   XCENC  =      1277.85680987
  PAW double counting   =     40888.39719872   -40952.38767116
  entropy T*S    EENTRO =        -0.07357581
  eigenvalues    EBANDS =     -4604.21433610
  atomic energy  EATOM  =     13537.65479391
  Solvation  Ediel_sol  =         0.00000000
  ---------------------------------------------------
  free energy    TOTEN  =      -829.68669962 eV

  energy without entropy =     -829.61312381  energy(sigma->0) =     -829.64991172


--------------------------------------------------------------------------------------------------------




--------------------------------------- Iteration      1(  15)  ---------------------------------------


    POTLOK:  cpu time      0.3217: real time      0.3217
    SETDIJ:  cpu time      0.0402: real time      0.0402
     EDDAV:  cpu time     10.0797: real time     10.0833
       DOS:  cpu time      0.0007: real time      0.0007
    CHARGE:  cpu time      1.1527: real time      1.1547
    MIXING:  cpu time      0.3298: real time      0.3319
    --------------------------------------------
      LOOP:  cpu time     11.9248: real time     11.9325

 eigenvalue-minimisations  :  1552
 total energy-change (2. order) :-0.2041774E-01  (-0.1872036E-03)
 number of electron     368.0000002 magnetization 
 augmentation part        9.0867692 magnetization 

 Broyden mixing:
  rms(total) = 0.28499E-02    rms(broyden)= 0.28496E-02
  rms(prec ) = 0.38447E-02
  weight for this iteration     100.00

 eigenvalues of (default mixing * dielectric matrix)
  average eigenvalue GAMMA=   2.2699
  7.1894  3.5829  2.2968  2.2968  1.7461  1.2754  1.2754  1.1528  0.9419  0.9419

 Free energy of the ion-electron system (eV)
  ---------------------------------------------------
  alpha Z        PSCENC =        91.34886789
  Ewald energy   TEWEN  =    119926.28391153
  -Hartree energ DENC   =   -131004.77711791
  -exchange      EXHF   =         0.00000000
  -V(xc)+E(xc)   XCENC  =      1277.83254580
  PAW double counting   =     40897.40326378   -40961.39251463
  entropy T*S    EENTRO =        -0.07361677
  eigenvalues    EBANDS =     -4593.98725096
  atomic energy  EATOM  =     13537.65479391
  Solvation  Ediel_sol  =         0.00000000
  ---------------------------------------------------
  free energy    TOTEN  =      -829.70711737 eV

  energy without entropy =     -829.63350059  energy(sigma->0) =     -829.67030898


--------------------------------------------------------------------------------------------------------




--------------------------------------- Iteration      1(  16)  ---------------------------------------


    POTLOK:  cpu time      0.3220: real time      0.3220
    SETDIJ:  cpu time      0.0403: real time      0.0404
     EDDAV:  cpu time     10.4963: real time     10.5001
       DOS:  cpu time      0.0008: real time      0.0008
    CHARGE:  cpu time      1.1615: real time      1.1639
    MIXING:  cpu time      0.3386: real time      0.3401
    --------------------------------------------
      LOOP:  cpu time     12.3595: real time     12.3672

 eigenvalue-minimisations  :  1632
 total energy-change (2. order) :-0.7237732E-02  (-0.3803272E-04)
 number of electron     368.0000002 magnetization 
 augmentation part        9.0867653 magnetization 

 Broyden mixing:
  rms(total) = 0.20570E-02    rms(broyden)= 0.20569E-02
  rms(prec ) = 0.25829E-02
  weight for this iteration     100.00

 eigenvalues of (default mixing * dielectric matrix)
  average eigenvalue GAMMA=   2.3806
  8.0745  4.1332  2.4296  2.4296  1.8893  1.5630  1.5630  0.9565  0.9565  1.0955
  1.0955

 Free energy of the ion-electron system (eV)
  ---------------------------------------------------
  alpha Z        PSCENC =        91.34886789
  Ewald energy   TEWEN  =    119926.28391153
  -Hartree energ DENC   =   -131007.82694274
  -exchange      EXHF   =         0.00000000
  -V(xc)+E(xc)   XCENC  =      1277.81137935
  PAW double counting   =     40886.95032224   -40950.93633858
  entropy T*S    EENTRO =        -0.07354600
  eigenvalues    EBANDS =     -4590.92680269
  atomic energy  EATOM  =     13537.65479391
  Solvation  Ediel_sol  =         0.00000000
  ---------------------------------------------------
  free energy    TOTEN  =      -829.71435510 eV

  energy without entropy =     -829.64080910  energy(sigma->0) =     -829.67758210


--------------------------------------------------------------------------------------------------------




--------------------------------------- Iteration      1(  17)  ---------------------------------------


    POTLOK:  cpu time      0.3220: real time      0.3220
    SETDIJ:  cpu time      0.0401: real time      0.0401
     EDDAV:  cpu time     10.1626: real time     10.1663
       DOS:  cpu time      0.0007: real time      0.0007
    CHARGE:  cpu time      1.1518: real time      1.1555
    MIXING:  cpu time      0.3498: real time      0.3503
    --------------------------------------------
      LOOP:  cpu time     12.0270: real time     12.0350

 eigenvalue-minimisations  :  1568
 total energy-change (2. order) :-0.5020642E-02  (-0.3349797E-04)
 number of electron     368.0000002 magnetization 
 augmentation part        9.0866422 magnetization 

 Broyden mixing:
  rms(total) = 0.98415E-03    rms(broyden)= 0.98402E-03
  rms(prec ) = 0.12590E-02
  weight for this iteration     100.00

 eigenvalues of (default mixing * dielectric matrix)
  average eigenvalue GAMMA=   2.3945
  8.4160  4.6579  2.5162  2.5162  2.0696  1.6394  1.3744  1.3744  0.9742  0.9742
  1.1109  1.1109

 Free energy of the ion-electron system (eV)
  ---------------------------------------------------
  alpha Z        PSCENC =        91.34886789
  Ewald energy   TEWEN  =    119926.28391153
  -Hartree energ DENC   =   -131010.11687049
  -exchange      EXHF   =         0.00000000
  -V(xc)+E(xc)   XCENC  =      1277.81423916
  PAW double counting   =     40893.99248848   -40957.97633302
  entropy T*S    EENTRO =        -0.07357415
  eigenvalues    EBANDS =     -4588.64689903
  atomic energy  EATOM  =     13537.65479391
  Solvation  Ediel_sol  =         0.00000000
  ---------------------------------------------------
  free energy    TOTEN  =      -829.71937574 eV

  energy without entropy =     -829.64580159  energy(sigma->0) =     -829.68258866


--------------------------------------------------------------------------------------------------------




--------------------------------------- Iteration      1(  18)  ---------------------------------------


    POTLOK:  cpu time      0.3197: real time      0.3198
    SETDIJ:  cpu time      0.0403: real time      0.0403
     EDDAV:  cpu time     10.6026: real time     10.6065
       DOS:  cpu time      0.0007: real time      0.0007
    CHARGE:  cpu time      1.1558: real time      1.1558
    MIXING:  cpu time      0.3602: real time      0.3615
    --------------------------------------------
      LOOP:  cpu time     12.4793: real time     12.4845

 eigenvalue-minimisations  :  1656
 total energy-change (2. order) :-0.1652749E-02  (-0.6552966E-05)
 number of electron     368.0000002 magnetization 
 augmentation part        9.0865683 magnetization 

 Broyden mixing:
  rms(total) = 0.60360E-03    rms(broyden)= 0.60352E-03
  rms(prec ) = 0.76313E-03
  weight for this iteration     100.00

 eigenvalues of (default mixing * dielectric matrix)
  average eigenvalue GAMMA=   2.4016
  8.8228  4.9819  2.7889  2.5705  1.8910  1.7457  1.5980  1.5980  1.1413  1.1413
  0.9466  0.9466  1.0481

 Free energy of the ion-electron system (eV)
  ---------------------------------------------------
  alpha Z        PSCENC =        91.34886789
  Ewald energy   TEWEN  =    119926.28391153
  -Hartree energ DENC   =   -131010.73934037
  -exchange      EXHF   =         0.00000000
  -V(xc)+E(xc)   XCENC  =      1277.81384170
  PAW double counting   =     40891.17211606   -40955.15648598
  entropy T*S    EENTRO =        -0.07356446
  eigenvalues    EBANDS =     -4588.02516877
  atomic energy  EATOM  =     13537.65479391
  Solvation  Ediel_sol  =         0.00000000
  ---------------------------------------------------
  free energy    TOTEN  =      -829.72102849 eV

  energy without entropy =     -829.64746404  energy(sigma->0) =     -829.68424626


--------------------------------------------------------------------------------------------------------




--------------------------------------- Iteration      1(  19)  ---------------------------------------


    POTLOK:  cpu time      0.3218: real time      0.3218
    SETDIJ:  cpu time      0.0403: real time      0.0403
     EDDAV:  cpu time      9.2258: real time      9.2292
       DOS:  cpu time      0.0008: real time      0.0008
    CHARGE:  cpu time      1.1533: real time      1.1545
    MIXING:  cpu time      0.3723: real time      0.3735
    --------------------------------------------
      LOOP:  cpu time     11.1143: real time     11.1201

 eigenvalue-minimisations  :  1376
 total energy-change (2. order) :-0.8383872E-03  (-0.2455870E-05)
 number of electron     368.0000002 magnetization 
 augmentation part        9.0865944 magnetization 

 Broyden mixing:
  rms(total) = 0.35917E-03    rms(broyden)= 0.35915E-03
  rms(prec ) = 0.44624E-03
  weight for this iteration     100.00

 eigenvalues of (default mixing * dielectric matrix)
  average eigenvalue GAMMA=   2.4081
  8.9387  5.5375  3.1429  2.3976  2.3976  1.8901  1.4472  1.4472  1.2783  1.2783
  0.9338  1.0447  0.9894  0.9894

 Free energy of the ion-electron system (eV)
  ---------------------------------------------------
  alpha Z        PSCENC =        91.34886789
  Ewald energy   TEWEN  =    119926.28391153
  -Hartree energ DENC   =   -131010.99068805
  -exchange      EXHF   =         0.00000000
  -V(xc)+E(xc)   XCENC  =      1277.81157111
  PAW double counting   =     40890.90153267   -40954.88461837
  entropy T*S    EENTRO =        -0.07356835
  eigenvalues    EBANDS =     -4587.77366922
  atomic energy  EATOM  =     13537.65479391
  Solvation  Ediel_sol  =         0.00000000
  ---------------------------------------------------
  free energy    TOTEN  =      -829.72186688 eV

  energy without entropy =     -829.64829853  energy(sigma->0) =     -829.68508270


--------------------------------------------------------------------------------------------------------




--------------------------------------- Iteration      1(  20)  ---------------------------------------


    POTLOK:  cpu time      0.3196: real time      0.3197
    SETDIJ:  cpu time      0.0403: real time      0.0403
     EDDAV:  cpu time      9.1466: real time      9.1500
       DOS:  cpu time      0.0007: real time      0.0007
    CHARGE:  cpu time      1.1546: real time      1.1572
    MIXING:  cpu time      0.3829: real time      0.3850
    --------------------------------------------
      LOOP:  cpu time     11.0448: real time     11.0530

 eigenvalue-minimisations  :  1360
 total energy-change (2. order) :-0.3713105E-03  (-0.7055457E-06)
 number of electron     368.0000002 magnetization 
 augmentation part        9.0865765 magnetization 

 Broyden mixing:
  rms(total) = 0.22997E-03    rms(broyden)= 0.22996E-03
  rms(prec ) = 0.27752E-03
  weight for this iteration     100.00

 eigenvalues of (default mixing * dielectric matrix)
  average eigenvalue GAMMA=   2.4370
  9.1680  5.8443  3.6014  2.4872  2.4872  1.9355  1.6202  1.6202  1.3289  1.3289
  1.1314  0.9780  0.9780  1.0233  1.0233

 Free energy of the ion-electron system (eV)
  ---------------------------------------------------
  alpha Z        PSCENC =        91.34886789
  Ewald energy   TEWEN  =    119926.28391153
  -Hartree energ DENC   =   -131011.15547240
  -exchange      EXHF   =         0.00000000
  -V(xc)+E(xc)   XCENC  =      1277.81168251
  PAW double counting   =     40891.36867563   -40955.35212595
  entropy T*S    EENTRO =        -0.07357319
  eigenvalues    EBANDS =     -4587.60899811
  atomic energy  EATOM  =     13537.65479391
  Solvation  Ediel_sol  =         0.00000000
  ---------------------------------------------------
  free energy    TOTEN  =      -829.72223819 eV

  energy without entropy =     -829.64866500  energy(sigma->0) =     -829.68545159


--------------------------------------------------------------------------------------------------------




--------------------------------------- Iteration      1(  21)  ---------------------------------------


    POTLOK:  cpu time      0.3216: real time      0.3216
    SETDIJ:  cpu time      0.0403: real time      0.0403
     EDDAV:  cpu time      8.6797: real time      8.6828
       DOS:  cpu time      0.0008: real time      0.0007
    CHARGE:  cpu time      1.1635: real time      1.1644
    MIXING:  cpu time      0.3961: real time      0.3974
    --------------------------------------------
      LOOP:  cpu time     10.6018: real time     10.6071

 eigenvalue-minimisations  :  1264
 total energy-change (2. order) :-0.2061862E-03  (-0.2681502E-06)
 number of electron     368.0000002 magnetization 
 augmentation part        9.0865775 magnetization 

 Broyden mixing:
  rms(total) = 0.10425E-03    rms(broyden)= 0.10424E-03
  rms(prec ) = 0.13057E-03
  weight for this iteration     100.00

 eigenvalues of (default mixing * dielectric matrix)
  average eigenvalue GAMMA=   2.4186
  9.1697  6.1921  3.8117  2.5384  2.5384  2.0955  1.7601  1.5392  1.5392  1.2275
  1.2275  1.1401  0.9438  0.9438  1.0153  1.0153

 Free energy of the ion-electron system (eV)
  ---------------------------------------------------
  alpha Z        PSCENC =        91.34886789
  Ewald energy   TEWEN  =    119926.28391153
  -Hartree energ DENC   =   -131011.22644419
  -exchange      EXHF   =         0.00000000
  -V(xc)+E(xc)   XCENC  =      1277.81079090
  PAW double counting   =     40890.55461771   -40954.53839564
  entropy T*S    EENTRO =        -0.07357125
  eigenvalues    EBANDS =     -4587.53701524
  atomic energy  EATOM  =     13537.65479391
  Solvation  Ediel_sol  =         0.00000000
  ---------------------------------------------------
  free energy    TOTEN  =      -829.72244437 eV

  energy without entropy =     -829.64887313  energy(sigma->0) =     -829.68565875


[...]
   0.140E+01 -.172E+02 -.111E+03   -.153E+01 0.180E+02 0.112E+03   -.170E+00 0.407E+00 0.171E+00   -.183E-05 -.666E-05 -.123E-05
   -.341E+01 -.166E+01 -.357E+02   0.348E+01 0.758E+00 0.353E+02   0.407E+00 -.434E+00 0.683E+00   -.131E-04 -.208E-05 0.383E-06
   0.329E+01 0.869E+01 -.135E+03   -.316E+01 -.842E+01 0.135E+03   0.760E+00 0.379E-01 0.352E+00   -.105E-04 -.829E-06 -.482E-06
   -.816E+01 -.865E+00 -.473E+02   0.934E+01 0.218E+01 0.473E+02   0.117E+01 0.372E+00 0.760E+00   -.730E-05 -.532E-05 -.815E-06
   -.229E+02 -.121E+01 -.156E+03   0.234E+02 0.392E+00 0.156E+03   -.226E+00 -.905E+00 -.153E+01   0.560E-06 0.626E-05 -.717E-07
   -.353E+01 -.129E+02 -.438E+02   0.305E+01 0.133E+02 0.441E+02   -.108E+01 -.102E+01 -.103E+01   0.638E-05 0.913E-06 -.175E-05
   -.115E+02 0.215E+02 -.152E+03   0.103E+02 -.231E+02 0.153E+03   -.796E+00 -.949E+00 0.694E+00   0.751E-05 0.119E-04 0.107E-05
   -.806E+01 -.470E+00 -.285E+02   0.798E+01 0.659E+00 0.284E+02   -.116E+01 -.636E+00 0.489E+00   0.498E-05 -.557E-06 -.118E-05
   -.394E+02 0.167E+01 -.148E+03   0.416E+02 -.138E+01 0.148E+03   0.842E+00 -.227E+00 -.129E+01   -.531E-05 0.102E-05 0.246E-05
   0.137E+02 -.160E+02 0.737E+02   -.137E+02 0.166E+02 -.742E+02   0.586E+00 0.906E+00 0.781E+00   -.187E-05 -.463E-05 -.601E-06
   -.398E+02 0.212E+02 -.141E+03   0.397E+02 -.230E+02 0.141E+03   -.848E+00 -.741E+00 -.886E-01   -.231E-05 0.565E-05 0.338E-05
   0.112E+02 0.114E+01 0.528E+02   -.113E+02 -.135E+01 -.529E+02   0.118E+01 0.389E+00 0.213E+00   -.373E-06 -.381E-05 -.187E-05
   -.177E+02 -.385E+01 -.920E+02   0.169E+02 0.448E+01 0.926E+02   -.137E+01 0.100E+01 -.299E+00   0.679E-05 -.627E-06 -.781E-06
   0.203E+02 -.158E+02 0.109E+03   -.206E+02 0.158E+02 -.110E+03   -.102E+00 -.105E+01 0.721E-01   0.343E-05 0.411E-05 -.366E-05
   -.182E+02 0.106E+01 -.647E+02   0.177E+02 -.912E+00 0.652E+02   -.785E+00 -.175E+00 -.254E+00   0.415E-05 -.267E-05 -.264E-06
   0.114E+02 -.105E+01 0.119E+03   -.114E+02 0.155E+01 -.119E+03   -.846E+00 0.923E+00 0.143E+01   0.196E-05 -.148E-05 -.230E-05
   -.123E+02 -.431E+01 0.168E+02   0.140E+02 0.416E+01 -.176E+02   0.134E+01 0.470E+00 0.484E+00   -.435E-05 -.305E-05 -.412E-07
   0.236E+01 -.174E+02 0.109E+03   -.112E+01 0.186E+02 -.109E+03   -.488E+00 0.831E+00 -.117E+01   -.909E-05 -.337E-05 -.175E-05
   -.430E+01 0.127E+02 -.516E+02   0.299E+01 -.128E+02 0.520E+02   -.951E-01 -.181E+00 -.699E+00   0.840E-06 -.305E-05 -.444E-06
   0.268E+01 0.101E+00 0.962E+02   -.260E+01 0.247E+00 -.959E+02   -.251E+00 -.254E+00 -.130E+00   -.926E-05 0.528E-05 0.158E-05
   0.149E+01 0.147E+02 -.273E+00   -.251E+01 -.161E+02 0.130E+00   -.272E+00 -.148E+01 0.114E-01   0.325E-05 0.350E-05 0.235E-06
   0.967E+00 -.200E+02 0.173E+03   -.315E+00 0.206E+02 -.174E+03   0.961E+00 0.110E+01 0.987E+00   0.963E-05 0.196E-05 -.192E-05
   -.246E+02 0.804E+01 -.191E+01   0.265E+02 -.798E+01 0.190E+01   0.319E+00 0.114E+00 -.226E+00   0.416E-05 -.119E-05 -.625E-08
   0.770E+01 0.168E+02 0.117E+03   -.935E+01 -.185E+02 -.117E+03   -.556E+00 -.245E+00 0.649E+00   0.158E-04 0.451E-05 0.172E-05
   0.216E+01 -.626E+01 -.196E+01   -.347E+01 0.717E+01 0.251E+01   -.518E+00 0.164E+01 -.839E+00   0.353E-05 -.279E-05 -.485E-06
   -.165E+02 -.220E+01 0.124E+03   0.164E+02 0.191E+01 -.124E+03   0.808E+00 0.270E+00 -.656E+00   -.975E-06 0.194E-05 -.785E-06
   -.199E+02 -.138E+02 0.498E+01   0.211E+02 0.143E+02 -.472E+01   0.215E+01 -.117E+01 0.135E-01   -.324E-05 -.102E-05 0.120E-06
   -.256E+02 0.588E+02 0.756E+02   0.236E+02 -.586E+02 -.757E+02   0.663E+00 0.280E+01 0.102E+01   -.854E-05 -.324E-05 -.226E-05
   -.451E+00 -.578E+02 0.117E+02   -.339E+01 0.583E+02 -.123E+02   0.134E+01 -.186E+01 -.698E-01   0.190E-05 0.759E-06 0.181E-07
   -.848E+01 0.726E+02 0.183E+03   0.100E+02 -.742E+02 -.184E+03   -.231E+01 0.112E+01 0.858E+00   0.944E-06 -.504E-05 0.135E-05
   -.115E+02 -.565E+02 0.274E+03   0.117E+02 0.571E+02 -.275E+03   -.188E+01 -.137E+01 0.146E+01   0.869E-05 0.579E-05 0.190E-05
   0.141E+02 0.394E+01 0.399E+02   -.140E+02 -.342E+01 -.391E+02   -.232E+00 0.518E+00 -.990E+00   -.102E-05 -.664E-05 0.210E-05
   -.257E+02 -.800E+01 0.193E+03   0.266E+02 0.775E+01 -.193E+03   0.633E+00 0.117E+00 -.227E+00   0.799E-06 0.592E-05 -.129E-05
   -.256E+01 0.132E+02 0.504E+02   0.245E+01 -.140E+02 -.506E+02   -.251E+00 -.916E+00 0.398E+00   0.117E-05 -.343E-05 0.131E-05
   -.298E+02 -.981E+01 0.136E+03   0.301E+02 0.106E+02 -.137E+03   0.450E-01 -.355E+00 -.156E+00   -.465E-05 0.327E-05 -.357E-05
   0.246E+02 -.225E+02 -.479E+02   -.244E+02 0.249E+02 0.480E+02   0.101E+01 0.138E+01 -.151E+00   0.257E-05 -.293E-06 0.264E-05
   -.224E+02 0.921E+01 0.132E+03   0.223E+02 -.102E+02 -.132E+03   -.638E+00 -.694E+00 0.753E+00   -.179E-06 0.294E-05 -.121E-05
   0.301E+02 0.206E+01 -.564E+02   -.322E+02 -.219E+01 0.557E+02   0.291E+00 0.230E+00 -.551E+00   0.786E-06 -.409E-05 0.233E-05
   -.184E+02 -.893E+00 0.663E+02   0.188E+02 0.150E+01 -.665E+02   0.110E+00 0.700E+00 0.660E+00   0.187E-05 -.386E-05 0.189E-05
   0.194E+02 -.849E+01 -.135E+03   -.182E+02 0.800E+01 0.136E+03   0.173E+01 -.895E+00 0.311E+00   -.989E-05 0.322E-05 -.153E-05
   -.948E+01 0.189E+02 0.232E+02   0.969E+01 -.210E+02 -.241E+02   -.337E+00 -.839E+00 0.121E+01   -.200E-05 0.461E-05 -.196E-06
   0.197E+02 0.171E+02 -.155E+03   -.191E+02 -.178E+02 0.155E+03   0.101E+01 0.137E+00 -.298E+00   -.850E-05 -.143E-05 -.947E-06
   0.160E+02 -.137E+02 -.997E+02   -.162E+02 0.142E+02 0.100E+03   0.229E+00 -.141E+00 -.164E+01   -.642E-05 0.404E-05 -.229E-05
   0.237E+02 -.148E+02 -.146E+03   -.250E+02 0.152E+02 0.146E+03   -.157E+00 0.378E+00 0.843E+00   -.151E-05 -.644E-05 -.479E-06
   0.105E+02 0.840E+01 -.444E+02   -.106E+02 -.757E+01 0.434E+02   -.100E+01 0.140E+01 0.223E+01   0.390E-05 0.108E-05 0.586E-07
   0.436E+01 0.135E+02 -.209E+03   -.306E+01 -.137E+02 0.209E+03   0.137E+01 0.605E+00 -.110E+01   0.454E-07 0.454E-05 -.827E-06
   0.251E+01 -.693E+01 -.170E+03   -.266E+01 0.645E+01 0.171E+03   -.740E+00 -.213E+00 -.171E+01   0.360E-05 0.638E-05 -.152E-05
   0.296E+01 -.171E+02 -.180E+03   -.452E+01 0.174E+02 0.180E+03   -.115E+01 -.534E+00 0.452E+00   -.136E-06 -.458E-05 -.561E-06
   0.228E+01 0.629E+01 -.893E+02   -.267E+01 -.587E+01 0.890E+02   -.319E+00 0.605E+00 0.651E+00   -.814E-05 0.356E-05 -.247E-06
   -.174E+02 0.755E+00 -.192E+03   0.177E+02 -.916E-01 0.192E+03   -.938E+00 0.784E+00 -.104E+01   0.757E-05 -.406E-05 -.861E-06
   -.209E+02 -.600E+01 -.107E+03   0.224E+02 0.571E+01 0.107E+03   0.405E+00 0.434E-02 -.842E+00   -.520E-05 0.677E-06 0.637E-06
   -.196E+02 -.172E+02 -.153E+03   0.193E+02 0.184E+02 0.154E+03   -.622E+00 0.196E+00 0.110E+00   0.496E-05 -.578E-05 0.926E-06
   0.182E+02 0.943E+01 0.105E+02   -.196E+02 -.929E+01 -.107E+02   0.136E+00 -.586E+00 0.105E+01   0.407E-05 -.272E-05 -.160E-05
   -.208E+02 -.403E+01 -.844E+02   0.211E+02 0.521E+01 0.842E+02   0.234E+00 0.173E+00 -.487E+00   -.109E-05 -.417E-05 0.261E-05
   0.145E+02 0.102E+02 0.540E+02   -.148E+02 -.114E+02 -.539E+02   0.742E+00 -.611E+00 0.109E+01   0.736E-05 -.102E-05 -.118E-05
   -.252E+02 -.125E+02 -.106E+03   0.250E+02 0.128E+02 0.107E+03   0.327E+00 -.380E+00 -.430E+00   -.470E-05 0.306E-05 0.350E-05
   0.151E+02 0.112E+02 0.793E+02   -.156E+02 -.114E+02 -.798E+02   0.560E+00 0.928E+00 0.509E+00   -.305E-05 0.295E-05 -.558E-07
   -.227E+02 0.192E+01 -.286E+02   0.235E+02 -.100E+01 0.277E+02   0.824E+00 0.644E+00 0.607E+00   -.505E-05 -.187E-05 0.295E-05
   -.178E+02 -.896E+00 0.380E+01   0.195E+02 -.222E+00 -.351E+01   0.432E+00 -.128E+01 -.194E+01   -.750E-05 0.338E-05 0.867E-06
   -.105E+02 -.150E+02 -.385E+02   0.104E+02 0.158E+02 0.391E+02   -.123E+00 -.120E+00 -.484E+00   0.326E-05 -.525E-05 -.141E-06
   0.159E+02 0.224E+02 0.998E+02   -.160E+02 -.230E+02 -.100E+03   0.301E+00 -.427E+00 0.573E+00   0.511E-05 0.227E-05 -.431E-05
   0.722E+00 0.155E+02 0.458E+02   -.329E+00 -.165E+02 -.462E+02   0.939E+00 -.370E+00 0.119E+01   0.215E-05 0.494E-05 -.331E-05
   0.307E+02 -.356E+01 0.128E+03   -.320E+02 0.412E+01 -.128E+03   -.656E+00 -.917E-01 0.464E-01   0.586E-05 0.148E-05 -.589E-05
   0.151E+01 -.197E+02 -.438E+02   -.282E+01 0.196E+02 0.449E+02   -.784E+00 -.148E+01 -.145E+01   0.426E-05 0.491E-05 -.256E-05
   0.164E+02 0.169E+02 0.200E+03   -.153E+02 -.180E+02 -.201E+03   0.127E+01 -.732E+00 0.157E+01   -.807E-05 0.301E-05 -.152E-05
   0.255E+01 -.330E+01 0.680E+02   -.353E+01 0.487E+01 -.687E+02   -.958E+00 0.179E+01 0.533E+00   0.195E-05 -.298E-05 -.134E-05
   0.218E+02 -.670E+01 0.165E+03   -.221E+02 0.654E+01 -.165E+03   0.994E+00 0.111E+00 -.620E+00   -.569E-05 -.677E-05 -.969E-06
   -.199E+02 -.109E+02 0.607E+02   0.222E+02 0.105E+02 -.605E+02   0.409E+00 -.679E+00 -.172E+00   -.496E-05 -.131E-05 0.587E-06
   0.889E+01 0.107E+02 0.207E+03   -.973E+01 -.108E+02 -.207E+03   0.180E+00 0.154E+01 0.793E+00   0.676E-05 -.631E-05 -.322E-05
   -.310E+01 0.186E+02 0.136E+03   0.325E+01 -.185E+02 -.137E+03   -.146E+00 -.691E-01 0.970E+00   0.194E-05 -.491E-06 0.208E-06
   0.169E+01 -.106E+02 0.181E+03   -.163E+01 0.995E+01 -.181E+03   -.565E+00 -.114E+01 -.102E+01   0.448E-05 0.303E-05 -.163E-05
   -.183E+02 0.446E+01 0.872E+02   0.170E+02 -.491E+01 -.865E+02   -.848E+00 -.949E+00 -.279E+00   0.636E-05 -.335E-05 0.100E-05
   -.320E+02 0.736E-01 0.245E+03   0.327E+02 -.207E+00 -.246E+03   0.292E+00 -.900E+00 0.179E+01   -.255E-05 0.123E-04 0.316E-05
   -.346E+02 0.760E+02 0.163E+03   0.345E+02 -.783E+02 -.164E+03   0.790E+00 0.118E+01 0.985E+00   -.202E-05 -.672E-05 0.137E-05
   -.366E+02 -.709E+02 0.245E+03   0.349E+02 0.732E+02 -.246E+03   0.127E+01 0.187E+00 0.511E+00   -.101E-05 -.100E-06 0.489E-06
 -----------------------------------------------------------------------------------------------
   -.960E+00 0.461E+00 -.306E+01   0.711E-13 0.242E-12 0.909E-12   0.921E+00 -.407E+00 0.295E+01   -.656E-05 0.373E-05 -.265E-04
 
 
 POSITION                                       TOTAL-FORCE (eV/Angst)
 -----------------------------------------------------------------------------------
      0.26340      0.69363     16.05400         1.483238      0.512636     -1.472284
      0.20200      2.08779     16.13350         2.145498      0.340638      1.618094
      1.51536      0.09680     15.89150        -0.665643      2.135942      1.238066
      1.33647      2.82331     16.44170        -0.333157     -0.024895     -0.425800
      2.66365      0.81945     16.39700        -0.415186     -0.648051      0.554105
      2.53455      2.15362     16.75200         1.402449     -0.413859      0.094846
      3.89711      0.15108     16.68410        -0.856743      1.513685     -0.157201
      3.74271      2.86670     17.15280        -0.791212     -3.049902      0.109107
      4.96182      0.79616     17.33420         0.727171      1.651289     -0.592786
      4.96645      2.21153     17.51240        -2.070861     -1.995840     -0.449208
      6.18744      0.14666     17.51110         1.179218      2.370036      0.357293
      6.12419      2.87749     17.85090         1.182003     -0.483650      0.921105
      7.40822      0.84290     17.87030        -0.349823     -1.442009      0.454019
      7.38605      2.17025     18.12790        -1.283654      2.063654     -1.377794
      8.66927      0.20299     17.99130        -1.606624     -2.172769     -1.046184
      8.62616      2.84918     18.20770        -0.204522      0.020695      0.579710
      9.87495      0.86197     18.06640         0.156218      0.186082     -0.088757
      9.88165      2.21365     18.19020        -0.298528      1.241974      0.230480
     11.09040      0.21973     17.94770         0.486060     -1.334474      0.256826
     11.11230      2.90379     18.26710         0.885609      0.312554      0.431852
     12.29670      0.89925     17.88440         2.348247      1.687850      0.762686
     12.36590      2.28370     18.17240         0.261918     -1.723010     -1.313499
     13.55690      0.27491     17.63880        -1.556152     -0.616812     -0.735899
     13.64600      2.95350     18.04160        -2.063583     -2.510336      1.058463
     14.77760      0.94080     17.41920        -1.235050     -0.448005      0.411694
     14.81370      2.27338     17.77450         2.994213      0.062415     -1.390276
     15.86470      0.23799     16.89150         0.617444      1.450229      0.313895
     16.08000      2.95632     17.51160        -0.897923     -2.540883      0.158568
     17.08740      0.90539     16.67510         1.117052      0.173312      0.137832
     17.25290      2.21988     17.04910        -2.172248      1.628991      0.299619
     18.26950      0.26920     16.20500        -0.420069     -1.019854     -0.396281
     18.44210      2.90282     16.73200        -1.273721     -0.032456      0.296503
     19.51950      0.86710     15.95200        -0.882683      1.420253      1.226725
     19.55120      2.21774     16.28240         3.024336      0.321556     -0.263759
     20.70750      0.17503     15.66800         0.751617      2.036057     -1.001953
     20.82750      2.90636     16.19890        -1.403664     -0.293089     -0.270679
     21.96940      0.84342     15.57630        -0.169666      0.092762      0.227790
     22.02030      2.23690     15.89320        -1.287545     -2.841046     -0.129847
     23.15390      0.12997     15.23280         1.613444      1.744149      0.608628
     23.22880      2.85102     15.77910         2.214486      0.179705     -0.237375
     24.48170      0.80147     15.36760        -2.206083     -1.880717      0.049852
     24.47690      2.11079     15.68830        -1.822352      2.551180     -0.281917
     25.70310      0.10420     15.29750         0.738353     -0.028840     -0.820976
     25.65520      2.84850     15.69760         3.308732     -0.595814      0.273819
     26.89570      0.69130     15.62130        -1.337319      2.983441      0.934144
     26.86170      2.11744     15.82440        -2.504375     -1.335206     -0.626012
      0.42618      4.82041     15.41860        -0.791094     -0.451330      0.096229
      0.47653      6.18323     15.16150        -1.655849     -0.808939     -0.115325
      1.44864      4.16624     16.08560        -0.205815      1.039152     -0.180085
      1.56924      6.86328     15.59450         1.600322     -0.131386     -0.183783
      2.67151      4.87432     16.33000        -0.362142     -1.653269      0.164836
      2.75745      6.21013     16.05060         0.390745      0.401183     -0.403848
      3.74629      4.17812     16.96000         1.205659      3.727197     -0.118596
      3.96107      6.91340     16.43760        -0.693184     -1.712787      0.091658
      4.96823      4.88024     17.26970        -1.796045      0.102382     -1.234876
      5.07881      6.20842     16.93110         0.523906      1.311302      0.535591
      6.07073      4.26227     17.77520         2.923564     -1.391731      1.146579
      6.25558      6.92380     17.34750        -0.131805     -2.894666      0.370455
      7.31824      4.90063     18.04660         1.527740     -0.509005     -0.122718
      7.41476      6.25170     17.87020         0.010834      0.309884     -1.246743
      8.60431      4.21947     18.25410        -1.417730      0.854811      0.604146
      8.68414      6.88338     17.95330        -1.097116      2.238311      1.220633
      9.82498      4.89162     18.43780         2.677872      0.477509     -0.767523
      9.89070      6.26812     18.28500        -0.886035     -0.699091     -0.779598
     11.16630      4.27338     18.38500        -2.709872     -0.278611      0.705449
     11.11420      6.93007     18.08000        -0.708701      1.024619      0.311852
     12.40590      4.92639     18.27230        -0.705646      1.447017     -0.778487
     12.33030      6.29900     18.02610         1.917055     -0.283594     -0.647069
     13.64010      4.29267     18.03580        -0.913376      1.408024      0.579896
     13.50660      6.99582     17.53920        -1.191424     -0.443099      0.870808
     14.77200      4.96344     17.61240         0.605108      1.350703     -0.720994
     14.66940      6.31628     17.23190         0.410494     -1.825192      1.174765
     16.00720      4.31520     17.42560         0.201608     -0.008491     -0.030182
     15.83820      6.96649     16.86780         0.048811      0.724538     -0.056956
     17.14270      4.95472     16.94380         1.558004      1.567274     -0.321340
     17.06730      6.35550     16.74610         2.122360     -2.402297     -1.647648
     18.38630      4.28754     16.67140        -0.296506      0.707553      0.138455
     18.24260      6.99436     16.21510         0.198304     -1.063523     -0.019270
     19.52970      4.96412     16.17480         1.331977     -1.385167      0.790085
     19.47210      6.29340     15.88490        -1.982807      0.468284      0.379067
     20.83330      4.29987     16.13330        -2.092966     -1.536347     -0.295535
     20.64010      6.93579     15.48200         2.308553     -1.846425      0.296404
     22.01900      4.84902     15.67360        -1.938580      3.350489     -0.191859
     21.90610      6.21708     15.35580         0.715152     -0.048671     -0.417797
     23.22720      4.22651     15.58820         2.668500     -1.171430      0.048740
     23.16390      6.84625     15.10130        -0.664875      1.506691      0.292005
     24.48040      4.86945     15.27270         0.008110      0.078176      0.383412
     24.45970      6.24238     15.06950        -0.496526     -1.783540     -0.814741
     25.74820      4.21644     15.40610        -2.083158     -1.401693      0.448440
     25.71180      6.87655     14.94540         1.050207     -1.033252      0.464754
     26.95660      4.83359     15.21290         0.667555     -1.097561      0.080359
     26.95870      6.15284     14.97930        -0.380110      2.516430     -0.626885
 -----------------------------------------------------------------------------------
    total drift:                               -0.038709      0.053988     -0.115921


--------------------------------------------------------------------------------------------------------



  FREE ENERGIE OF THE ION-ELECTRON SYSTEM (eV)
  ---------------------------------------------------
  free  energy   TOTEN  =      -829.72256880 eV

  energy  without entropy=     -829.64899770  energy(sigma->0) =     -829.68578325
 


--------------------------------------------------------------------------------------------------------


    POTLOK:  cpu time      0.4542: real time      0.4542


--------------------------------------------------------------------------------------------------------


     LOOP+:  cpu time    332.7399: real time    332.9281
    4ORBIT:  cpu time      0.0000: real time      0.0000

 total amount of memory used by VASP MPI-rank0  2294510. kBytes
=======================================================================

   base                                    :      30000. kBytes
   nonlr-proj                              :      15076. kBytes
   fftplans                                :     436558. kBytes
   grid                                    :     732614. kBytes
   one-center                              :        282. kBytes
   wavefun                                 :    1079980. kBytes
 
  
  
 General timing and accounting informations for this job:
 ========================================================
  
                  Total CPU time used (sec):      365.968
                            User time (sec):      357.606
                          System time (sec):        8.362
                         Elapsed time (sec):      366.242
  
                   Maximum memory used (kb):     3732188.
                   Average memory used (kb):          N/A
  
                          Minor page faults:      3178684
                          Major page faults:         5006
                 Voluntary context switches:         9753
