       N       E                     dE             d eps       ncg     rms          rms(c)
DAV:   1     0.361048433419E+04    0.36105E+04   -0.11967E+05  1728   0.105E+03
DAV:   2     0.163425389120E+03   -0.34471E+04   -0.31970E+04  2144   0.236E+02
DAV:   3    -0.833517288208E+03   -0.99694E+03   -0.97352E+03  1800   0.133E+02
DAV:   4    -0.894652698485E+03   -0.61135E+02   -0.60089E+02  1712   0.423E+01
DAV:   5    -0.896182732500E+03   -0.15300E+01   -0.15080E+01  1816   0.653E+00    0.451E+01
DAV:   6    -0.847580419982E+03    0.48602E+02   -0.46452E+01  1560   0.125E+01    0.265E+01
DAV:   7    -0.829504410166E+03    0.18076E+02   -0.64219E+01  1560   0.143E+01    0.723E+00
DAV:   8    -0.829229411770E+03    0.27500E+00   -0.24319E+00  1616   0.335E+00    0.102E+00
DAV:   9    -0.829125265770E+03    0.10415E+00   -0.26199E-01  1648   0.988E-01    0.565E-01
DAV:  10    -0.829090516002E+03    0.34750E-01   -0.42215E-02  1760   0.414E-01    0.369E-01
DAV:  11    -0.829060111293E+03    0.30405E-01   -0.23668E-02  1576   0.253E-01    0.238E-01
DAV:  12    -0.829056411607E+03    0.36997E-02   -0.21407E-02  1544   0.219E-01    0.154E-01
DAV:  13    -0.829069240589E+03   -0.12829E-01   -0.85698E-03  1528   0.153E-01    0.816E-02
DAV:  14    -0.829083508069E+03   -0.14267E-01   -0.12410E-03  1600   0.701E-02    0.612E-02
DAV:  15    -0.829103485098E+03   -0.19977E-01   -0.16292E-03  1560   0.671E-02    0.296E-02
DAV:  16    -0.829113400832E+03   -0.99157E-02   -0.61582E-04  1608   0.406E-02    0.238E-02
DAV:  17    -0.829118663706E+03   -0.52629E-02   -0.33580E-04  1616   0.254E-02    0.118E-02
DAV:  18    -0.829120587539E+03   -0.19238E-02   -0.76206E-05  1656   0.133E-02    0.743E-03
DAV:  19    -0.829121714411E+03   -0.11269E-02   -0.34510E-05  1376   0.932E-03    0.380E-03
DAV:  20    -0.829122265381E+03   -0.55097E-03   -0.15277E-05  1344   0.541E-03    0.303E-03
DAV:  21    -0.829122483132E+03   -0.21775E-03   -0.28578E-06  1296   0.358E-03    0.167E-03
DAV:  22    -0.829122578533E+03   -0.95401E-04   -0.73174E-07   992   0.170E-03    0.111E-03
DAV:  23    -0.829122623496E+03   -0.44962E-04   -0.58009E-07  1000   0.149E-03    0.615E-04
DAV:  24    -0.829122643403E+03   -0.19907E-04   -0.17762E-07   984   0.819E-04    0.590E-04
DAV:  25    -0.829122648960E+03   -0.55572E-05   -0.52164E-08   936   0.677E-04    0.178E-04
DAV:  26    -0.829122654382E+03   -0.54217E-05   -0.57010E-08   896   0.471E-04    0.399E-04
DAV:  27    -0.829122655701E+03   -0.13192E-05   -0.12753E-08   952   0.350E-04    0.111E-04
DAV:  28    -0.829122657587E+03   -0.18853E-05   -0.11892E-08   944   0.216E-04    0.928E-05
DAV:  29    -0.829122658745E+03   -0.11586E-05   -0.41170E-09   952   0.119E-04    0.551E-05
DAV:  30    -0.829122659306E+03   -0.56080E-06   -0.19712E-09   928   0.700E-05
   1 F= -.82912266E+03 E0= -.82908764E+03  d E =-.700411E-01
