 vasp.6.5.0 16Dec24 (build Feb 19 2025 19:45:31) complex                         
 executed on              LinuxNV date 2025.10.25  15:14:56
 running    2 mpi-ranks, on    1 nodes
 distrk:  each k-point on    2 cores,    1 groups
 distr:  one band on NCORE=   1 cores,    2 groups
 Offloading initialized ...    2 GPUs detected


--------------------------------------------------------------------------------------------------------


 INCAR:
   ISTART = 0            (Not Read existing wavefunction
   ISPIN = 1            (Non-Spin polarised DFT, Default\=1)
   ICHARG = 2            (The initial guess charge density is generated by superposition of atomic charge density)
   LREAL = Auto         (Projection operators: automatic)
   ENCUT = 500          (Cut-off energy for plane wave basis set, in eV)
   LWAVE = .FALSE.       (Write WAVECAR or not)
   LCHARG = .FALSE.       (Write CHGCAR or not)
   PREC = Accurate   (Precision level)
   KGAMMA = .TRUE.
   ALGO = Normal
   NSW = 0           (Default: NSW \= 0)
   IBRION = -1           (Ions are not moved)
   ISMEAR = 0
   EDIFF = 1E-06        (SCF energy convergence
   NELM = 150          (Max electronic SCF steps)

 POTCAR:    PAW_PBE C 08Apr2002                   
 POTCAR:    PAW_PBE C 08Apr2002                   
   SHA256 =  253f7b50bb8d59471dbedb8285d89021f4a42ed1a2c5d38a03a736e69125dd95 C/POTCAR              
   COPYR  = (c) Copyright 08Apr2002 Georg Kresse                                                    
   COPYR  = This file is part of the software VASP. Any use, copying, and all other rights are regul
   COPYR  = If you do not have a valid VASP license, you may not use, copy or distribute this file. 
   VRHFIN =C: s2p2                                                                                  
   LEXCH  = PE                                                                                      
   EATOM  =   147.1560 eV,   10.8157 Ry                                                             
                                                                                                    
   TITEL  = PAW_PBE C 08Apr2002                                                                     
   LULTRA =        F    use ultrasoft PP ?                                                          
   IUNSCR =        1    unscreen: 0-lin 1-nonlin 2-no                                               
   RPACOR =    1.200    partial core radius                                                         
   POMASS =   12.011; ZVAL   =    4.000    mass and valenz                                          
   RCORE  =    1.500    outmost cutoff radius                                                       
   RWIGS  =    1.630; RWIGS  =    0.863    wigner-seitz radius (au A)                               
   ENMAX  =  400.000; ENMIN  =  300.000 eV                                                          
   ICORE  =        2    local potential                                                             
   LCOR   =        T    correct aug charges                                                         
   LPAW   =        T    paw PP                                                                      
   EAUG   =  644.873                                                                                
   DEXC   =    0.000                                                                                
   RMAX   =    1.529    core radius for proj-oper                                                   
   RAUG   =    1.300    factor for augmentation sphere                                              
   RDEP   =    1.501    radius for radial grids                                                     
   RDEPT  =    1.300    core radius for aug-charge                                                  
                                                                                                    
   Atomic configuration                                                                             
    4 entries                                                                                       
     n  l   j            E        occ.                                                              
     1  0  0.50      -273.3789   2.0000                                                             
     2  0  0.50       -13.7508   2.0000                                                             
     2  1  0.50        -5.2854   2.0000                                                             
     3  2  1.50        -5.4423   0.0000                                                             
   Description                                                                                      
     l       E           TYP  RCUT    TYP  RCUT                                                     
     0    -13.7508458     23  1.200                                                                 
     0     -8.2022199     23  1.200                                                                 
     1     -5.2854383     23  1.500                                                                 
     1     34.0145650     23  1.500                                                                 
     2     -5.4423304      7  1.500                                                                 
  local pseudopotential read in
  partial core-charges read in
  partial kinetic energy density read in
  atomic valenz-charges read in
  non local Contribution for L=            0  read in
    real space projection operators read in
  non local Contribution for L=            0  read in
    real space projection operators read in
  non local Contribution for L=            1  read in
    real space projection operators read in
  non local Contribution for L=            1  read in
    real space projection operators read in
    PAW grid and wavefunctions read in
 
   number of l-projection  operators is LMAX  =            4
   number of lm-projection operators is LMMAX =            8
 
 Optimization of the real space projectors (new method)

 maximal supplied QI-value         = 25.13
 optimisation between [QCUT,QGAM] = [ 11.31, 22.87] = [ 35.82,146.48] Ry 
 Optimized for a Real-space Cutoff    1.03 Angstroem

   l    n(q)    QCUT    max X(q) W(low)/X(q) W(high)/X(q)  e(spline) 
   0      7    11.310   115.676    0.20E-03    0.90E-03    0.20E-06
   0      7    11.310    87.132    0.20E-03    0.89E-03    0.19E-06
   1      6    11.310     4.429    0.16E-03    0.28E-03    0.12E-06
   1      6    11.310     2.733    0.12E-03    0.21E-03    0.99E-07
  PAW_PBE C 08Apr2002                   :
 energy of atom  1       EATOM= -147.1560
 kinetic energy error for atom=    0.0076 (will be added to EATOM!!)
 
 
 POSCAR:  C
  positions in cartesian coordinates
  No initial velocities read in


 exchange-correlation table for PE
   RHO(1)=    0.500       N(1)  =     2000
   RHO(2)=  100.500       N(2)  =     4000
 


--------------------------------------------------------------------------------------------------------


 ion  position               nearest neighbor table
   1  0.005  0.097  0.452-   2 1.42   3 1.44  45 1.48  46 2.06
   2  0.005  0.273  0.453-   4 1.39   1 1.42  46 1.47  45 2.02
   3  0.049  0.012  0.446-  50 1.34   5 1.43   1 1.44
   4  0.050  0.347  0.450-   2 1.39   6 1.40  49 1.43
   5  0.093  0.101  0.440-   6 1.38   3 1.43   7 1.44
   6  0.093  0.271  0.441-   5 1.38   4 1.40   8 1.45
   7  0.138  0.019  0.444-  54 1.35   9 1.42   5 1.44
   8  0.138  0.353  0.446-  53 1.38  10 1.39   6 1.45
   9  0.182  0.102  0.447-  10 1.40   7 1.42  11 1.43
  10  0.182  0.274  0.452-   8 1.39   9 1.40  12 1.45
  11  0.227  0.028  0.455-  58 1.39  13 1.42   9 1.43
  12  0.226  0.359  0.460-  57 1.38  14 1.42  10 1.45
  13  0.270  0.109  0.466-  14 1.40  11 1.42  15 1.45
  14  0.271  0.281  0.468-  13 1.40  12 1.42  16 1.44
  15  0.313  0.021  0.477-  62 1.34  17 1.42  13 1.45
  16  0.313  0.359  0.482-  61 1.39  18 1.40  14 1.44
  17  0.356  0.102  0.489-  18 1.38  15 1.42  19 1.42
  18  0.355  0.272  0.494-  17 1.38  16 1.40  20 1.45
  19  0.395  0.023  0.508-  66 1.37  21 1.41  17 1.42
  20  0.391  0.360  0.516-  65 1.35  22 1.43  18 1.45
  21  0.437  0.108  0.519-  22 1.36  19 1.41  23 1.43
  22  0.435  0.276  0.521-  21 1.36  20 1.43  24 1.45
  23  0.479  0.032  0.534-  25 1.39  70 1.39  21 1.43
  24  0.480  0.359  0.530-  69 1.36  26 1.40  22 1.45
  25  0.524  0.105  0.536-  26 1.37  23 1.39  27 1.39
  26  0.522  0.274  0.536-  25 1.37  24 1.40  28 1.40
  27  0.567  0.022  0.543-  74 1.38  25 1.39  29 1.41
  28  0.566  0.356  0.542-  73 1.37  30 1.38  26 1.40
  29  0.611  0.106  0.541-  30 1.34  27 1.41  31 1.46
  30  0.609  0.271  0.538-  29 1.34  28 1.38  32 1.45
  31  0.656  0.018  0.541-  78 1.31  33 1.43  29 1.46
  32  0.653  0.359  0.534-  77 1.33  30 1.45  34 1.45
  33  0.700  0.101  0.532-  35 1.38  34 1.40  31 1.43
  34  0.698  0.273  0.527-  33 1.40  36 1.44  32 1.45
  35  0.743  0.016  0.529-  82 1.38  33 1.38  37 1.48
  36  0.743  0.356  0.524-  81 1.36  38 1.41  34 1.44
  37  0.786  0.103  0.516-  38 1.38  39 1.47  35 1.48
  38  0.785  0.273  0.514-  37 1.38  36 1.41  40 1.45
  39  0.832  0.015  0.511-  86 1.35  41 1.45  37 1.47
  40  0.830  0.357  0.508-  85 1.38  38 1.45  42 1.46
  41  0.874  0.097  0.497-  43 1.38  42 1.41  39 1.45
  42  0.874  0.272  0.496-  44 1.38  41 1.41  40 1.46
  43  0.915  0.020  0.483-  41 1.38  90 1.39  45 1.42
  44  0.916  0.348  0.487-  89 1.36  42 1.38  46 1.41
  45  0.955  0.104  0.467-  46 1.39  43 1.42   1 1.48   2 2.02
  46  0.956  0.276  0.467-  45 1.39  44 1.41   2 1.47   1 2.06
  47  0.008  0.599  0.469-  48 1.38  49 1.39  91 1.45  92 2.02
  48  0.008  0.770  0.468-  47 1.38  50 1.42  92 1.46  91 2.02
  49  0.050  0.520  0.459-  47 1.39  51 1.41   4 1.43
  50  0.050  0.850  0.455-   3 1.34  52 1.38  48 1.42
  51  0.094  0.604  0.458-  52 1.37  53 1.39  49 1.41
  52  0.094  0.773  0.458-  51 1.37  50 1.38  54 1.43
  53  0.137  0.522  0.451-   8 1.38  51 1.39  55 1.42
  54  0.138  0.854  0.450-   7 1.35  56 1.41  52 1.43
  55  0.180  0.604  0.459-  57 1.39  56 1.39  53 1.42
  56  0.182  0.775  0.455-  55 1.39  54 1.41  58 1.41
  57  0.223  0.527  0.467-  12 1.38  55 1.39  59 1.41
  58  0.227  0.856  0.457-  11 1.39  56 1.41  60 1.50
  59  0.266  0.607  0.479-  60 1.36  61 1.40  57 1.41
  60  0.269  0.773  0.476-  59 1.36  62 1.40  58 1.50
  61  0.307  0.525  0.491-  16 1.39  59 1.40  63 1.41
  62  0.311  0.860  0.486-  15 1.34  60 1.40  64 1.44
  63  0.345  0.605  0.511-  64 1.37  61 1.41  65 1.41
  64  0.349  0.773  0.506-  63 1.37  66 1.41  62 1.44
  65  0.388  0.525  0.522-  20 1.35  63 1.41  67 1.44
  66  0.391  0.857  0.515-  19 1.37  64 1.41  68 1.44
  67  0.432  0.608  0.531-  68 1.39  69 1.40  65 1.44
  68  0.435  0.779  0.529-  67 1.39  70 1.41  66 1.44
  69  0.474  0.522  0.539-  24 1.36  67 1.40  71 1.49
  70  0.477  0.862  0.540-  23 1.39  68 1.41  72 1.43
  71  0.521  0.607  0.544-  72 1.37  73 1.39  69 1.49
  72  0.520  0.775  0.549-  71 1.37  70 1.43  74 1.44
  73  0.564  0.523  0.547-  28 1.37  71 1.39  75 1.42
  74  0.566  0.854  0.549-  76 1.37  27 1.38  72 1.44
  75  0.609  0.602  0.550-  76 1.40  73 1.42  77 1.43
  76  0.609  0.775  0.550-  74 1.37  75 1.40  78 1.50
  77  0.654  0.519  0.544-  32 1.33  75 1.43  79 1.45
  78  0.656  0.858  0.547-  31 1.31  80 1.46  76 1.50
  79  0.700  0.601  0.544-  80 1.36  81 1.41  77 1.45
  80  0.701  0.769  0.546-  79 1.36  82 1.44  78 1.46
  81  0.742  0.519  0.534-  36 1.36  79 1.41  83 1.44
  82  0.745  0.848  0.535-  35 1.38  84 1.41  80 1.44
  83  0.788  0.600  0.530-  84 1.37  85 1.42  81 1.44
  84  0.790  0.769  0.533-  83 1.37  82 1.41  86 1.46
  85  0.830  0.524  0.516-  40 1.38  83 1.42  87 1.44
  86  0.834  0.852  0.520-  39 1.35  88 1.44  84 1.46
  87  0.875  0.602  0.508-  88 1.38  85 1.44  89 1.50
  88  0.878  0.772  0.511-  87 1.38  90 1.42  86 1.44
  89  0.919  0.514  0.492-  44 1.36  91 1.36  87 1.50
  90  0.917  0.852  0.492-  92 1.38  43 1.39  88 1.42
  91  0.960  0.599  0.485-  89 1.36  92 1.43  47 1.45  48 2.02
  92  0.960  0.776  0.484-  90 1.38  91 1.43  48 1.46  47 2.02
 
  LATTYP: Found a simple orthorhombic cell.
 ALAT       =     8.1000000000
 B/A-ratio  =     3.4629629630
 C/A-ratio  =     4.1358024691
  
  Lattice vectors:
  
 A1 = (   0.0000000000,  -8.1000000000,   0.0000000000)
 A2 = (  28.0500000000,   0.0000000000,   0.0000000000)
 A3 = (   0.0000000000,   0.0000000000,  33.5000000000)


Analysis of symmetry for initial positions (statically):
=====================================================================
 Subroutine PRICEL returns:
 Original cell was already a primitive cell.
 

 Routine SETGRP: Setting up the symmetry group for a 
 simple orthorhombic supercell.


 Subroutine GETGRP returns: Found  1 space group operations
 (whereof  1 operations were pure point group operations)
 out of a pool of  8 trial point group operations.


The static configuration has the point symmetry C_1 .


Analysis of symmetry for dynamics (positions and initial velocities):
=====================================================================
 Subroutine PRICEL returns:
 Original cell was already a primitive cell.
 

 Routine SETGRP: Setting up the symmetry group for a 
 simple orthorhombic supercell.


 Subroutine GETGRP returns: Found  1 space group operations
 (whereof  1 operations were pure point group operations)
 out of a pool of  8 trial point group operations.


The dynamic configuration has the point symmetry C_1 .


 Subroutine INISYM returns: Found  1 space group operations
 (whereof  1 operations are pure point group operations),
 and found     1 'primitive' translations


----------------------------------------------------------------------------------------

                                     Primitive cell                                     

  volume of cell :    7611.3675

  direct lattice vectors                    reciprocal lattice vectors
    28.050000000  0.000000000  0.000000000     0.035650624  0.000000000  0.000000000
     0.000000000  8.100000000  0.000000000     0.000000000  0.123456790  0.000000000
     0.000000000  0.000000000 33.500000000     0.000000000  0.000000000  0.029850746

  length of vectors
    28.050000000  8.100000000 33.500000000     0.035650624  0.123456790  0.029850746

  position of ions in fractional coordinates (direct lattice)
     0.004748627  0.096934198  0.451868657
     0.005271515  0.272729630  0.453286567
     0.049166845  0.011691333  0.446226866
     0.049613547  0.347386420  0.450438806
     0.092638503  0.100978025  0.439764179
     0.092959715  0.270788889  0.441304478
     0.137814260  0.019065926  0.444444776
     0.138419608  0.352930864  0.445826866
     0.182186453  0.102066049  0.446767164
     0.181716578  0.273941975  0.451877612
     0.227164349  0.027999877  0.455397015
     0.226231729  0.358823457  0.460202985
     0.270467736  0.108699383  0.465585075
     0.270509091  0.281124691  0.467985075
     0.313485918  0.021439506  0.476955224
     0.313467023  0.358653086  0.482077612
     0.355706239  0.102286420  0.489402985
     0.354546881  0.272141975  0.493805970
     0.394873440  0.022804074  0.508113433
     0.390581105  0.360444444  0.516220896
     0.436784314  0.107872840  0.519477612
     0.435172906  0.276016049  0.520507463
     0.479158645  0.031641481  0.534400000
     0.479557932  0.359260494  0.529552239
     0.523725490  0.105174198  0.536411940
     0.522156863  0.273840741  0.536426866
     0.566581105  0.022497654  0.542919403
     0.565907308  0.355513580  0.541582090
     0.610524064  0.106461605  0.541480597
     0.608552585  0.271440741  0.538349254
     0.656014260  0.017699630  0.540856716
     0.653147950  0.359185185  0.533991045
     0.699818182  0.101367654  0.531955224
     0.697647059  0.272512346  0.527382090
     0.742502674  0.016268765  0.529182090
     0.742976827  0.355940741  0.523997015
     0.786153298  0.102751358  0.516202985
     0.785415330  0.273425926  0.514044776
     0.831522282  0.014808519  0.510835821
     0.830327986  0.357418519  0.507546269
     0.873918004  0.097114691  0.496528358
     0.874007130  0.271696296  0.496480597
     0.914983957  0.019909136  0.483477612
     0.916327986  0.347861728  0.486817910
     0.955048128  0.103687284  0.467023881
     0.955518717  0.275790123  0.466802985
     0.007732406  0.599433333  0.469495522
     0.007977504  0.770148148  0.468071642
     0.049915508  0.520281481  0.459050746
     0.049883066  0.849806173  0.454543284
     0.094031016  0.603760494  0.458155224
     0.093658111  0.772945679  0.457808955
     0.136747594  0.522354321  0.450537313
     0.137931551  0.853669136  0.450023881
     0.180215330  0.604393827  0.459107463
     0.182447772  0.775233333  0.455376119
     0.223437077  0.527160494  0.466516418
     0.227092692  0.855955556  0.457035821
     0.265745098  0.606592593  0.478901493
     0.269303387  0.773338272  0.475776119
     0.307226738  0.524612346  0.491253731
     0.310945098  0.859745679  0.485820896
     0.345318004  0.604728395  0.510701493
     0.348866310  0.772813580  0.506059701
     0.387821747  0.525040741  0.522229851
     0.391333333  0.856739506  0.515349254
     0.432053476  0.607744444  0.530689552
     0.434573975  0.779418519  0.529220896
     0.474295900  0.522271605  0.538585075
     0.476962567  0.861756790  0.539949254
     0.520966132  0.607119753  0.543886567
     0.519935829  0.775141975  0.549131343
     0.564171123  0.523140741  0.546585075
     0.566067736  0.854419753  0.549140299
     0.609119430  0.601659259  0.549850746
     0.609012478  0.774535802  0.550385075
     0.653607843  0.518970370  0.543683582
     0.656413547  0.858451852  0.546776119
     0.699607843  0.601434568  0.543620896
     0.701440285  0.768988889  0.545728358
     0.742392157  0.519002469  0.533904478
     0.745262032  0.847941975  0.534516418
     0.787786096  0.600446914  0.529722388
     0.790049911  0.768664198  0.532931343
     0.830263815  0.523980247  0.515898507
     0.833607843  0.852387654  0.520244776
     0.875404635  0.602469136  0.507779104
     0.877939394  0.771680247  0.510829851
     0.918573975  0.514218519  0.492065672
     0.916623886  0.851630864  0.491761194
     0.959525847  0.599448148  0.484991045
     0.959639929  0.775587654  0.484059701

  ion indices of the primitive-cell ions
   primitive index   ion index
                 1           1
                 2           2
                 3           3
                 4           4
                 5           5
                 6           6
                 7           7
                 8           8
                 9           9
                10          10
                11          11
                12          12
                13          13
                14          14
                15          15
                16          16
                17          17
                18          18
                19          19
                20          20
                21          21
                22          22
                23          23
                24          24
                25          25
                26          26
                27          27
                28          28
                29          29
                30          30
                31          31
                32          32
                33          33
                34          34
                35          35
                36          36
                37          37
                38          38
                39          39
                40          40
                41          41
                42          42
                43          43
                44          44
                45          45
                46          46
                47          47
                48          48
                49          49
                50          50
                51          51
                52          52
                53          53
                54          54
                55          55
                56          56
                57          57
                58          58
                59          59
                60          60
                61          61
                62          62
                63          63
                64          64
                65          65
                66          66
                67          67
                68          68
                69          69
                70          70
                71          71
                72          72
                73          73
                74          74
                75          75
                76          76
                77          77
                78          78
                79          79
                80          80
                81          81
                82          82
                83          83
                84          84
                85          85
                86          86
                87          87
                88          88
                89          89
                90          90
                91          91
                92          92

----------------------------------------------------------------------------------------

 
 
 KPOINTS: K-Spacing Value to Generate K-Mesh: 0.03

Automatic generation of k-mesh.
 Grid dimensions read from file:
 generate k-points for:    1    4    1

 Generating k-lattice:

  Cartesian coordinates                     Fractional coordinates (reciprocal lattice)
     0.035650624  0.000000000  0.000000000     1.000000000  0.000000000  0.000000000
     0.000000000  0.030864198  0.000000000     0.000000000  0.250000000  0.000000000
     0.000000000  0.000000000  0.029850746     0.000000000  0.000000000  1.000000000

  Length of vectors
     0.035650624  0.030864198  0.029850746

  Shift w.r.t. Gamma in fractional coordinates (k-lattice)
     0.000000000  0.000000000  0.000000000

 
 Subroutine IBZKPT returns following result:
 ===========================================
 
 Found      3 irreducible k-points:
 
 Following reciprocal coordinates:
            Coordinates               Weight
  0.000000  0.000000  0.000000      1.000000
  0.000000  0.250000  0.000000      2.000000
  0.000000  0.500000  0.000000      1.000000
 
 Following cartesian coordinates:
            Coordinates               Weight
  0.000000  0.000000  0.000000      1.000000
  0.000000  0.030864  0.000000      2.000000
  0.000000  0.061728  0.000000      1.000000
 


--------------------------------------------------------------------------------------------------------




 Dimension of arrays:
   k-points           NKPTS =      3   k-points in BZ     NKDIM =      3   number of bands    NBANDS=    232
   number of dos      NEDOS =    301   number of ions     NIONS =     92
   non local maximal  LDIM  =      4   non local SUM 2l+1 LMDIM =      8
   total plane-waves  NPLWV = ******
   max r-space proj   IRMAX =   1967   max aug-charges    IRDMAX=   5083
   dimension x,y,z NGX =   210 NGY =   60 NGZ =  250
   dimension x,y,z NGXF=   420 NGYF=  120 NGZF=  500
   support grid    NGXF=   420 NGYF=  120 NGZF=  500
   ions per type =              92
   NGX,Y,Z   is equivalent  to a cutoff of  12.45, 12.31, 12.41 a.u.
   NGXF,Y,Z  is equivalent  to a cutoff of  24.89, 24.63, 24.81 a.u.

 SYSTEM =  unknown system                          
 POSCAR =   C                                      

 Startparameter for this run:
   NWRITE =      2    write-flag & timer
   PREC   = accura    normal or accurate (medium, high low for compatibility)
   ISTART =      0    job   : 0-new  1-cont  2-samecut
   ICHARG =      2    charge: 1-file 2-atom 10-const
   ISPIN  =      1    spin polarized calculation?
   LNONCOLLINEAR =      F non collinear calculations
   LSORBIT =      F    spin-orbit coupling
   INIWAV =      1    electr: 0-lowe 1-rand  2-diag
   LASPH  =      F    aspherical Exc in radial PAW
 Electronic Relaxation 1
   ENCUT  =  500.0 eV  36.75 Ry    6.06 a.u.  51.14 14.77 61.08*2*pi/ulx,y,z
   ENINI  =  500.0     initial cutoff
   ENAUG  =  644.9 eV  augmentation charge cutoff
   NELM   =    150;   NELMIN=  2; NELMDL= -5     # of ELM steps 
   EDIFF  = 0.1E-05   stopping-criterion for ELM
   LREAL  =      T    real-space projection
   NLSPLINE    = F    spline interpolate recip. space projectors
   LCOMPAT=      F    compatible to vasp.4.4
   GGA_COMPAT  = T    GGA compatible to vasp.4.4-vasp.4.6
   LMAXPAW     = -100 max onsite density
   LMAXMIX     =    2 max onsite mixed and CHGCAR
   VOSKOWN=      0    Vosko Wilk Nusair interpolation
   ROPT   =   -0.00025
 Ionic relaxation
   EDIFFG = 0.1E-04   stopping-criterion for IOM
   NSW    =      0    number of steps for IOM
   NBLOCK =      1;   KBLOCK =      1    inner block; outer block 
   IBRION =     -1    ionic relax: 0-MD 1-quasi-New 2-CG
   NFREE  =      0    steps in history (QN), initial steepest desc. (CG)
   ISIF   =      2    stress and relaxation
   IWAVPR =     10    prediction:  0-non 1-charg 2-wave 3-comb
   ISYM   =      2    0-nonsym 1-usesym 2-fastsym
   LCORR  =      T    Harris-Foulkes like correction to forces

   POTIM  = 0.5000    time-step for ionic-motion
   TEIN   =    0.0    initial temperature
   TEBEG  =    0.0;   TEEND  =   0.0 temperature during run
   SMASS  =  -3.00    Nose mass-parameter (am)
   estimated Nose-frequenzy (Omega)   =  0.10E-29 period in steps = 0.13E+47 mass=  -0.180E-25a.u.
   SCALEE = 1.0000    scale energy and forces
   NPACO  =    256;   APACO  = 10.0  distance and # of slots for P.C.
   PSTRESS=    0.0 pullay stress

  Mass of Ions in am
   POMASS =  12.01
  Ionic Valenz
   ZVAL   =   4.00
  Atomic Wigner-Seitz radii
   RWIGS  =  -1.00
  virtual crystal weights 
   VCA    =   1.00
   NELECT =     368.0000    total number of electrons
   NUPDOWN=      -1.0000    fix difference up-down

 DOS related values:
   EMIN   =  10.00;   EMAX   =-10.00  energy-range for DOS
   EFERMI =   0.00;   METHOD = LEGACY      
   ISMEAR =     0;   SIGMA  =   0.20  broadening in eV -4-tet -1-fermi 0-gaus
   EFERMI_NEDOS =   21; number of points for ismear=-14 and -15

 Electronic relaxation 2 (details)
   IALGO  =     38    algorithm
   LDIAG  =      T    sub-space diagonalisation (order eigenvalues)
   LSUBROT=      F    optimize rotation matrix (better conditioning)
   TURBO    =      0    0=normal 1=particle mesh
   IRESTART =      0    0=no restart 2=restart with 2 vectors
   NREBOOT  =      0    no. of reboots
   NMIN     =      0    reboot dimension
   EREF     =   0.00    reference energy to select bands
   IMIX   =      4    mixing-type and parameters
     AMIX     =   0.40;   BMIX     =  1.00
     AMIX_MAG =   1.60;   BMIX_MAG =  1.00
     AMIN     =   0.10
     WC   =   100.;   INIMIX=   1;  MIXPRE=   1;  MAXMIX= -45

 Intra band minimization:
   WEIMIN = 0.0000     energy-eigenvalue tresh-hold
   EBREAK =  0.11E-08  absolut break condition
   DEPER  =   0.30     relativ break condition  

   TIME   =   0.40     timestep for ELM

  volume/ion in A,a.u.               =      82.73       558.30
  Fermi-wavevector in a.u.,A,eV,Ry     =   0.596398  1.127030  4.839472  0.355691
  Thomas-Fermi vector in A             =   1.646729
 
 Write flags
   LWAVE        =      F    write WAVECAR
   LDOWNSAMPLE  =      F    k-point downsampling of WAVECAR
   LCHARG       =      F    write CHGCAR
   LVTOT        =      F    write LOCPOT, total local potential
   LVHAR        =      F    write LOCPOT, Hartree potential only
   WRT_POTENTIAL= false  ! write potential to hdf5 file
   LELF         =      F    write electronic localiz. function (ELF)
   LORBIT       =      0    0 simple, 1 ext, 2 COOP (PROOUT), +10 PAW based schemes


 Python interface
   PLUGINS active      =      F    recompile with -DPLUGINS to activate
 
 Dipole corrections
   LMONO      =      F    monopole corrections only (constant potential shift)
   LDIPOL     =      F    correct potential (dipole corrections)
   IDIPOL     =      0    1-x, 2-y, 3-z, 4-all directions 
   EPSILON    =  1.0000000 bulk dielectric constant
   LVACPOTAV  =      F  vacuum potentials using an averaging scheme for the charge density
   VACPOTFLAT =  0.1000000 required flatness to determine vacuum potential
 
Coulomb truncation method
  LTRUNCATE          =      F  Coulomb kernel truncation to be used
  IDIMENSIONALITY    =      3  Dimensionality of cutoff (0 molecules / 2 surfaces)
  ISURFACE           =     -1  Direction of surface normal
  LCOARSEN           =      F  Coarsen the charge grid before padding, preferred

 
 Exchange correlation treatment:
   GGA     = PE    functional components
   XC_C    = 1    coefficients multiplying the functional components
   LIBXC   =     F    Libxc                    
   VOSKOWN =     0    Vosko Wilk Nusair interpolation
   LHFCALC =     F    Hartree Fock is set to
   LHFONE  =     F    Hartree Fock one center treatment
   AEXX    =    0.0000 exact exchange contribution

 Parameters of functionals:
   PE:
     No parameter
 
 Van der Waals corrections
   IVDW    =     0    specifies the selected vdW correction

 Linear response parameters
   LEPSILON=     F    determine dielectric tensor
   LRPA    =     F    only Hartree local field effects (RPA)
   LNABLA  =     F    use nabla operator in PAW spheres
   LVEL    =     F    velocity operator in full k-point grid
   CSHIFT  =0.1000    complex shift for real part using Kramers Kronig
   OMEGAMAX=  -1.0    maximum frequency
   DEG_THRESHOLD= 0.2000000E-02 threshold for treating states as degnerate
   RTIME   =   -0.100 relaxation time in fs
  (WPLASMAI=    0.000 imaginary part of plasma frequency in eV, 0.658/RTIME)
   DFIELD  = 0.0000000 0.0000000 0.0000000 field for delta impulse in time
 
  Optional k-point grid parameters
   LKPOINTS_OPT  =     F    use optional k-point grid
   KPOINTS_OPT_MODE=     1    mode for optional k-point grid
 
 Orbital magnetization related:
   ORBITALMAG=     F  switch on orbital magnetization
   LCHIMAG   =     F  perturbation theory with respect to B field
   DQ        =  0.001000  dq finite difference perturbation B field
   LLRAUG    =     F  two centre corrections for induced B field
   LBONE     =     F  B-component reconstruction in AE one-centre
   LVGVCALC  =     T  calculate vGv susceptibility
   LVGVAPPL  =     F  apply vGv susceptibility instead of pGv for G=0

 Random number generation:
   RANDOM_GENERATOR = DEFAULT
   PCG_SEED         = not used


--------------------------------------------------------------------------------------------------------


 Static calculation
 charge density and potential will be updated during run
 non-spin polarized calculation
 Variant of blocked Davidson
 Davidson routine will perform the subspace rotation
 perform sub-space diagonalisation
    after iterative eigenvector-optimisation
 modified Broyden-mixing scheme, WC =      100.0
 initial mixing is a Kerker type mixing with AMIX =  0.4000 and BMIX =      1.0000
 Hartree-type preconditioning will be used
 using additional bands            48
 real space projection scheme for non local part
 use partial core corrections
 calculate Harris-corrections to forces 
   (improved forces if not selfconsistent)
 use gradient corrections 
 use of overlap-Matrix (Vanderbilt PP)
 Gauss-broadening in eV      SIGMA  =   0.20


--------------------------------------------------------------------------------------------------------


  energy-cutoff  :      500.00
  volume of cell :     7611.37
      direct lattice vectors                 reciprocal lattice vectors
    28.050000000  0.000000000  0.000000000     0.035650624  0.000000000  0.000000000
     0.000000000  8.100000000  0.000000000     0.000000000  0.123456790  0.000000000
     0.000000000  0.000000000 33.500000000     0.000000000  0.000000000  0.029850746

  length of vectors
    28.050000000  8.100000000 33.500000000     0.035650624  0.123456790  0.029850746


 
 k-points in units of 2pi/SCALE and weight: K-Spacing Value to Generate K-Mesh: 0.03
   0.00000000  0.00000000  0.00000000       0.250
   0.00000000  0.03086420  0.00000000       0.500
   0.00000000  0.06172840  0.00000000       0.250
 
 k-points in reciprocal lattice and weights: K-Spacing Value to Generate K-Mesh: 0.03
   0.00000000  0.00000000  0.00000000       0.250
   0.00000000  0.25000000  0.00000000       0.500
   0.00000000  0.50000000  0.00000000       0.250
 
 position of ions in fractional coordinates (direct lattice) 
   0.00474863  0.09693420  0.45186866
   0.00527152  0.27272963  0.45328657
   0.04916684  0.01169133  0.44622687
   0.04961355  0.34738642  0.45043881
   0.09263850  0.10097802  0.43976418
   0.09295971  0.27078889  0.44130448
   0.13781426  0.01906593  0.44444478
   0.13841961  0.35293086  0.44582687
   0.18218645  0.10206605  0.44676716
   0.18171658  0.27394198  0.45187761
   0.22716435  0.02799988  0.45539701
   0.22623173  0.35882346  0.46020299
   0.27046774  0.10869938  0.46558507
   0.27050909  0.28112469  0.46798507
   0.31348592  0.02143951  0.47695522
   0.31346702  0.35865309  0.48207761
   0.35570624  0.10228642  0.48940299
   0.35454688  0.27214198  0.49380597
   0.39487344  0.02280407  0.50811343
   0.39058111  0.36044444  0.51622090
   0.43678431  0.10787284  0.51947761
   0.43517291  0.27601605  0.52050746
   0.47915865  0.03164148  0.53440000
   0.47955793  0.35926049  0.52955224
   0.52372549  0.10517420  0.53641194
   0.52215686  0.27384074  0.53642687
   0.56658111  0.02249765  0.54291940
   0.56590731  0.35551358  0.54158209
   0.61052406  0.10646160  0.54148060
   0.60855258  0.27144074  0.53834925
   0.65601426  0.01769963  0.54085672
   0.65314795  0.35918519  0.53399104
   0.69981818  0.10136765  0.53195522
   0.69764706  0.27251235  0.52738209
   0.74250267  0.01626877  0.52918209
   0.74297683  0.35594074  0.52399701
   0.78615330  0.10275136  0.51620299
   0.78541533  0.27342593  0.51404478
   0.83152228  0.01480852  0.51083582
   0.83032799  0.35741852  0.50754627
   0.87391800  0.09711469  0.49652836
   0.87400713  0.27169630  0.49648060
   0.91498396  0.01990914  0.48347761
   0.91632799  0.34786173  0.48681791
   0.95504813  0.10368728  0.46702388
   0.95551872  0.27579012  0.46680299
   0.00773241  0.59943333  0.46949552
   0.00797750  0.77014815  0.46807164
   0.04991551  0.52028148  0.45905075
   0.04988307  0.84980617  0.45454328
   0.09403102  0.60376049  0.45815522
   0.09365811  0.77294568  0.45780896
   0.13674759  0.52235432  0.45053731
   0.13793155  0.85366914  0.45002388
   0.18021533  0.60439383  0.45910746
   0.18244777  0.77523333  0.45537612
   0.22343708  0.52716049  0.46651642
   0.22709269  0.85595556  0.45703582
   0.26574510  0.60659259  0.47890149
   0.26930339  0.77333827  0.47577612
   0.30722674  0.52461235  0.49125373
   0.31094510  0.85974568  0.48582090
   0.34531800  0.60472840  0.51070149
   0.34886631  0.77281358  0.50605970
   0.38782175  0.52504074  0.52222985
   0.39133333  0.85673951  0.51534925
   0.43205348  0.60774444  0.53068955
   0.43457398  0.77941852  0.52922090
   0.47429590  0.52227160  0.53858507
   0.47696257  0.86175679  0.53994925
   0.52096613  0.60711975  0.54388657
   0.51993583  0.77514198  0.54913134
   0.56417112  0.52314074  0.54658507
   0.56606774  0.85441975  0.54914030
   0.60911943  0.60165926  0.54985075
   0.60901248  0.77453580  0.55038507
   0.65360784  0.51897037  0.54368358
   0.65641355  0.85845185  0.54677612
   0.69960784  0.60143457  0.54362090
   0.70144029  0.76898889  0.54572836
   0.74239216  0.51900247  0.53390448
   0.74526203  0.84794198  0.53451642
   0.78778610  0.60044691  0.52972239
   0.79004991  0.76866420  0.53293134
   0.83026381  0.52398025  0.51589851
   0.83360784  0.85238765  0.52024478
   0.87540463  0.60246914  0.50777910
   0.87793939  0.77168025  0.51082985
   0.91857398  0.51421852  0.49206567
   0.91662389  0.85163086  0.49176119
   0.95952585  0.59944815  0.48499104
   0.95963993  0.77558765  0.48405970
 
 position of ions in cartesian coordinates  (Angst):
   0.13319900  0.78516700 15.13760000
   0.14786600  2.20911000 15.18510000
   1.37913000  0.09469980 14.94860000
   1.39166000  2.81383000 15.08970000
   2.59851000  0.81792200 14.73210000
   2.60752000  2.19339000 14.78370000
   3.86569000  0.15443400 14.88890000
   3.88267000  2.85874000 14.93520000
   5.11033000  0.82673500 14.96670000
   5.09715000  2.21893000 15.13790000
   6.37196000  0.22679900 15.25580000
   6.34580000  2.90647000 15.41680000
   7.58662000  0.88046500 15.59710000
   7.58778000  2.27711000 15.67750000
   8.79328000  0.17366000 15.97800000
   8.79275000  2.90509000 16.14960000
   9.97756000  0.82852000 16.39500000
   9.94504000  2.20435000 16.54250000
  11.07620000  0.18471300 17.02180000
  10.95580000  2.91960000 17.29340000
  12.25180000  0.87377000 17.40250000
  12.20660000  2.23573000 17.43700000
  13.44040000  0.25629600 17.90240000
  13.45160000  2.91001000 17.74000000
  14.69050000  0.85191100 17.96980000
  14.64650000  2.21811000 17.97030000
  15.89260000  0.18223100 18.18780000
  15.87370000  2.87966000 18.14300000
  17.12520000  0.86233900 18.13960000
  17.06990000  2.19867000 18.03470000
  18.40120000  0.14336700 18.11870000
  18.32080000  2.90940000 17.88870000
  19.62990000  0.82107800 17.82050000
  19.56900000  2.20735000 17.66730000
  20.82720000  0.13177700 17.72760000
  20.84050000  2.88312000 17.55390000
  22.05160000  0.83228600 17.29280000
  22.03090000  2.21475000 17.22050000
  23.32420000  0.11994900 17.11300000
  23.29070000  2.89509000 17.00280000
  24.51340000  0.78662900 16.63370000
  24.51590000  2.20074000 16.63210000
  25.66530000  0.16126400 16.19650000
  25.70300000  2.81768000 16.30840000
  26.78910000  0.83986700 15.64530000
  26.80230000  2.23390000 15.63790000
   0.21689400  4.85541000 15.72810000
   0.22376900  6.23820000 15.68040000
   1.40013000  4.21428000 15.37820000
   1.39922000  6.88343000 15.22720000
   2.63757000  4.89046000 15.34820000
   2.62711000  6.26086000 15.33660000
   3.83577000  4.23107000 15.09300000
   3.86898000  6.91472000 15.07580000
   5.05504000  4.89559000 15.38010000
   5.11766000  6.27939000 15.25510000
   6.26741000  4.27000000 15.62830000
   6.36995000  6.93324000 15.31070000
   7.45415000  4.91340000 16.04320000
   7.55396000  6.26404000 15.93850000
   8.61771000  4.24936000 16.45700000
   8.72201000  6.96394000 16.27500000
   9.68617000  4.89830000 17.10850000
   9.78570000  6.25979000 16.95300000
  10.87840000  4.25283000 17.49470000
  10.97690000  6.93959000 17.26420000
  12.11910000  4.92273000 17.77810000
  12.18980000  6.31329000 17.72890000
  13.30400000  4.23040000 18.04260000
  13.37880000  6.98023000 18.08830000
  14.61310000  4.91767000 18.22020000
  14.58420000  6.27865000 18.39590000
  15.82500000  4.23744000 18.31060000
  15.87820000  6.92080000 18.39620000
  17.08580000  4.87344000 18.42000000
  17.08280000  6.27374000 18.43790000
  18.33370000  4.20366000 18.21340000
  18.41240000  6.95346000 18.31700000
  19.62400000  4.87162000 18.21130000
  19.67540000  6.22881000 18.28190000
  20.82410000  4.20392000 17.88580000
  20.90460000  6.86833000 17.90630000
  22.09740000  4.86362000 17.74570000
  22.16090000  6.22618000 17.85320000
  23.28890000  4.24424000 17.28260000
  23.38270000  6.90434000 17.42820000
  24.55510000  4.88000000 17.01060000
  24.62620000  6.25061000 17.11280000
  25.76600000  4.16517000 16.48420000
  25.71130000  6.89821000 16.47400000
  26.91470000  4.85553000 16.24720000
  26.91790000  6.28226000 16.21600000
 


--------------------------------------------------------------------------------------------------------


 k-point     1 :   0.0000 0.0000 0.0000  plane waves:  193173
 k-point     2 :   0.0000 0.2500 0.0000  plane waves:  193166
 k-point     3 :   0.0000 0.5000 0.0000  plane waves:  193226

 maximum and minimum number of plane-waves per node :    193226   193166

 maximum number of plane-waves:    193226
 maximum index in each direction: 
   IXMAX=   51   IYMAX=   14   IZMAX=   61
   IXMIN=  -51   IYMIN=  -15   IZMIN=  -61


 serial   3D FFT for wavefunctions
 parallel 3D FFT for charge:
    minimum data exchange during FFTs selected (reduces bandwidth)


 total amount of memory used by VASP MPI-rank0  2294503. kBytes
=======================================================================

   base                                    :      30000. kBytes
   nonlr-proj                              :      15069. kBytes
   fftplans                                :     436558. kBytes
   grid                                    :     732614. kBytes
   one-center                              :        282. kBytes
   wavefun                                 :    1079980. kBytes
 
     INWAV:  cpu time      0.0000: real time      0.0000
 Broyden mixing: mesh for mixing (old mesh)
   NGX =103   NGY = 29   NGZ =123
  (NGX  =420   NGY  =120   NGZ  =500)
  gives a total of 367401 points

 initial charge density was supplied:
 charge density of overlapping atoms calculated
 number of electron     368.0000000 magnetization 
 keeping initial charge density in first step


--------------------------------------------------------------------------------------------------------


 Maximum index for non-local projection operator          1872
 Maximum index for augmentation-charges          2383 (set IRDMAX)


--------------------------------------------------------------------------------------------------------


 First call to EWALD:  gamma=   0.090
 Maximum number of real-space cells   2x   6x   2
 Maximum number of reciprocal cells   4x   1x   4

    FEWALD:  cpu time      0.1602: real time      0.1602


--------------------------------------- Ionic step        1  -------------------------------------------




--------------------------------------- Iteration      1(   1)  ---------------------------------------


    POTLOK:  cpu time      0.4174: real time      0.4329
    SETDIJ:  cpu time      0.0419: real time      0.0419
     EDDAV:  cpu time     11.1644: real time     11.1711
       DOS:  cpu time      0.0008: real time      0.0008
    --------------------------------------------
      LOOP:  cpu time     11.6245: real time     11.6467

 eigenvalue-minimisations  :  1728
 total energy-change (2. order) : 0.3610484E+04  (-0.1196677E+05)
 number of electron     368.0000000 magnetization 
 augmentation part      368.0000000 magnetization 

 Free energy of the ion-electron system (eV)
  ---------------------------------------------------
  alpha Z        PSCENC =        91.34886789
  Ewald energy   TEWEN  =    119081.22751720
  -Hartree energ DENC   =   -128431.82003453
  -exchange      EXHF   =         0.00000000
  -V(xc)+E(xc)   XCENC  =      1219.87937726
  PAW double counting   =      9984.02826696   -10036.41360137
  entropy T*S    EENTRO =        -0.85718769
  eigenvalues    EBANDS =     -1834.56366544
  atomic energy  EATOM  =     13537.65479391
  Solvation  Ediel_sol  =         0.00000000
  ---------------------------------------------------
  free energy    TOTEN  =      3610.48433419 eV

  energy without entropy =     3611.34152188  energy(sigma->0) =     3610.91292804


--------------------------------------------------------------------------------------------------------




--------------------------------------- Iteration      1(   2)  ---------------------------------------


     EDDAV:  cpu time     13.1398: real time     13.1443
       DOS:  cpu time      0.0007: real time      0.0007
    --------------------------------------------
      LOOP:  cpu time     13.1405: real time     13.1450

 eigenvalue-minimisations  :  2144
 total energy-change (2. order) :-0.3447059E+04  (-0.3196955E+04)
 number of electron     368.0000000 magnetization 
 augmentation part      368.0000000 magnetization 

 Free energy of the ion-electron system (eV)
  ---------------------------------------------------
  alpha Z        PSCENC =        91.34886789
  Ewald energy   TEWEN  =    119081.22751720
  -Hartree energ DENC   =   -128431.82003453
  -exchange      EXHF   =         0.00000000
  -V(xc)+E(xc)   XCENC  =      1219.87937726
  PAW double counting   =      9984.02826696   -10036.41360137
  entropy T*S    EENTRO =        -0.21506463
  eigenvalues    EBANDS =     -5282.26473357
  atomic energy  EATOM  =     13537.65479391
  Solvation  Ediel_sol  =         0.00000000
  ---------------------------------------------------
  free energy    TOTEN  =       163.42538912 eV

  energy without entropy =      163.64045375  energy(sigma->0) =      163.53292144


--------------------------------------------------------------------------------------------------------




--------------------------------------- Iteration      1(   3)  ---------------------------------------


     EDDAV:  cpu time     11.3668: real time     11.3707
       DOS:  cpu time      0.0007: real time      0.0007
    --------------------------------------------
      LOOP:  cpu time     11.3675: real time     11.3714

 eigenvalue-minimisations  :  1800
 total energy-change (2. order) :-0.9969427E+03  (-0.9735185E+03)
 number of electron     368.0000000 magnetization 
 augmentation part      368.0000000 magnetization 

 Free energy of the ion-electron system (eV)
  ---------------------------------------------------
  alpha Z        PSCENC =        91.34886789
  Ewald energy   TEWEN  =    119081.22751720
  -Hartree energ DENC   =   -128431.82003453
  -exchange      EXHF   =         0.00000000
  -V(xc)+E(xc)   XCENC  =      1219.87937726
  PAW double counting   =      9984.02826696   -10036.41360137
  entropy T*S    EENTRO =        -0.03506430
  eigenvalues    EBANDS =     -6279.38741122
  atomic energy  EATOM  =     13537.65479391
  Solvation  Ediel_sol  =         0.00000000
  ---------------------------------------------------
  free energy    TOTEN  =      -833.51728821 eV

  energy without entropy =     -833.48222390  energy(sigma->0) =     -833.49975606


--------------------------------------------------------------------------------------------------------




--------------------------------------- Iteration      1(   4)  ---------------------------------------


     EDDAV:  cpu time     10.9122: real time     10.9159
       DOS:  cpu time      0.0007: real time      0.0007
    --------------------------------------------
      LOOP:  cpu time     10.9128: real time     10.9166

 eigenvalue-minimisations  :  1712
 total energy-change (2. order) :-0.6113541E+02  (-0.6008852E+02)
 number of electron     368.0000000 magnetization 
 augmentation part      368.0000000 magnetization 

 Free energy of the ion-electron system (eV)
  ---------------------------------------------------
  alpha Z        PSCENC =        91.34886789
  Ewald energy   TEWEN  =    119081.22751720
  -Hartree energ DENC   =   -128431.82003453
  -exchange      EXHF   =         0.00000000
  -V(xc)+E(xc)   XCENC  =      1219.87937726
  PAW double counting   =      9984.02826696   -10036.41360137
  entropy T*S    EENTRO =        -0.06575672
  eigenvalues    EBANDS =     -6340.49212908
  atomic energy  EATOM  =     13537.65479391
  Solvation  Ediel_sol  =         0.00000000
  ---------------------------------------------------
  free energy    TOTEN  =      -894.65269849 eV

  energy without entropy =     -894.58694176  energy(sigma->0) =     -894.61982012


--------------------------------------------------------------------------------------------------------




--------------------------------------- Iteration      1(   5)  ---------------------------------------


     EDDAV:  cpu time     11.4165: real time     11.4205
       DOS:  cpu time      0.0007: real time      0.0007
    CHARGE:  cpu time      1.2080: real time      1.2085
    MIXING:  cpu time      0.2746: real time      0.2758
    --------------------------------------------
      LOOP:  cpu time     12.8999: real time     12.9055

 eigenvalue-minimisations  :  1816
 total energy-change (2. order) :-0.1530034E+01  (-0.1508036E+01)
 number of electron     368.0000005 magnetization 
 augmentation part       10.0885649 magnetization 

 Broyden mixing:
  rms(total) = 0.45101E+01    rms(broyden)= 0.45095E+01
  rms(prec ) = 0.46264E+01
  weight for this iteration     100.00

 Free energy of the ion-electron system (eV)
  ---------------------------------------------------
  alpha Z        PSCENC =        91.34886789
  Ewald energy   TEWEN  =    119081.22751720
  -Hartree energ DENC   =   -128431.82003453
  -exchange      EXHF   =         0.00000000
  -V(xc)+E(xc)   XCENC  =      1219.87937726
  PAW double counting   =      9984.02826696   -10036.41360137
  entropy T*S    EENTRO =        -0.06610886
  eigenvalues    EBANDS =     -6342.02181096
  atomic energy  EATOM  =     13537.65479391
  Solvation  Ediel_sol  =         0.00000000
  ---------------------------------------------------
  free energy    TOTEN  =      -896.18273250 eV

  energy without entropy =     -896.11662364  energy(sigma->0) =     -896.14967807


--------------------------------------------------------------------------------------------------------




--------------------------------------- Iteration      1(   6)  ---------------------------------------


    POTLOK:  cpu time      0.3204: real time      0.3203
    SETDIJ:  cpu time      0.0406: real time      0.0406
     EDDAV:  cpu time     10.1441: real time     10.1475
       DOS:  cpu time      0.0007: real time      0.0007
    CHARGE:  cpu time      1.1605: real time      1.1643
    MIXING:  cpu time      0.2757: real time      0.2779
    --------------------------------------------
      LOOP:  cpu time     11.9421: real time     11.9513

 eigenvalue-minimisations  :  1560
 total energy-change (2. order) : 0.4860231E+02  (-0.4645184E+01)
 number of electron     368.0000005 magnetization 
 augmentation part        9.6692528 magnetization 

 Broyden mixing:
  rms(total) = 0.26477E+01    rms(broyden)= 0.26476E+01
  rms(prec ) = 0.27053E+01
  weight for this iteration     100.00

 eigenvalues of (default mixing * dielectric matrix)
  average eigenvalue GAMMA=   2.1836
  2.1836

 Free energy of the ion-electron system (eV)
  ---------------------------------------------------
  alpha Z        PSCENC =        91.34886789
  Ewald energy   TEWEN  =    119081.22751720
  -Hartree energ DENC   =   -128996.01481769
  -exchange      EXHF   =         0.00000000
  -V(xc)+E(xc)   XCENC  =      1242.99595809
  PAW double counting   =     18833.91506127   -18893.80937471
  entropy T*S    EENTRO =        -0.06505627
  eigenvalues    EBANDS =     -5744.83336967
  atomic energy  EATOM  =     13537.65479391
  Solvation  Ediel_sol  =         0.00000000
  ---------------------------------------------------
  free energy    TOTEN  =      -847.58041998 eV

  energy without entropy =     -847.51536371  energy(sigma->0) =     -847.54789185


--------------------------------------------------------------------------------------------------------




--------------------------------------- Iteration      1(   7)  ---------------------------------------


    POTLOK:  cpu time      0.3217: real time      0.3217
    SETDIJ:  cpu time      0.0406: real time      0.0407
     EDDAV:  cpu time     10.1496: real time     10.1532
       DOS:  cpu time      0.0008: real time      0.0008
    CHARGE:  cpu time      1.1565: real time      1.1569
    MIXING:  cpu time      0.2807: real time      0.2807
    --------------------------------------------
      LOOP:  cpu time     11.9499: real time     11.9539

 eigenvalue-minimisations  :  1560
 total energy-change (2. order) : 0.1807601E+02  (-0.6421854E+01)
 number of electron     368.0000005 magnetization 
 augmentation part        9.1207984 magnetization 

 Broyden mixing:
  rms(total) = 0.72300E+00    rms(broyden)= 0.72273E+00
  rms(prec ) = 0.73274E+00
  weight for this iteration     100.00

 eigenvalues of (default mixing * dielectric matrix)
  average eigenvalue GAMMA=   2.1860
  2.1860  2.1860

 Free energy of the ion-electron system (eV)
  ---------------------------------------------------
  alpha Z        PSCENC =        91.34886789
  Ewald energy   TEWEN  =    119081.22751720
  -Hartree energ DENC   =   -129751.70126802
  -exchange      EXHF   =         0.00000000
  -V(xc)+E(xc)   XCENC  =      1273.79420203
  PAW double counting   =     36190.31087441   -36257.01017233
  entropy T*S    EENTRO =        -0.07347664
  eigenvalues    EBANDS =     -4995.05574862
  atomic energy  EATOM  =     13537.65479391
  Solvation  Ediel_sol  =         0.00000000
  ---------------------------------------------------
  free energy    TOTEN  =      -829.50441017 eV

  energy without entropy =     -829.43093353  energy(sigma->0) =     -829.46767185


--------------------------------------------------------------------------------------------------------




--------------------------------------- Iteration      1(   8)  ---------------------------------------


    POTLOK:  cpu time      0.3215: real time      0.3216
    SETDIJ:  cpu time      0.0403: real time      0.0403
     EDDAV:  cpu time     10.4288: real time     10.4325
       DOS:  cpu time      0.0008: real time      0.0008
    CHARGE:  cpu time      1.1569: real time      1.1574
    MIXING:  cpu time      0.2825: real time      0.2826
    --------------------------------------------
      LOOP:  cpu time     12.2307: real time     12.2351

 eigenvalue-minimisations  :  1616
 total energy-change (2. order) : 0.2749984E+00  (-0.2431861E+00)
 number of electron     368.0000005 magnetization 
 augmentation part        9.1046345 magnetization 

 Broyden mixing:
  rms(total) = 0.10199E+00    rms(broyden)= 0.10196E+00
  rms(prec ) = 0.12359E+00
  weight for this iteration     100.00

 eigenvalues of (default mixing * dielectric matrix)
  average eigenvalue GAMMA=   1.8539
  1.1934  2.4317  1.9367

 Free energy of the ion-electron system (eV)
  ---------------------------------------------------
  alpha Z        PSCENC =        91.34886789
  Ewald energy   TEWEN  =    119081.22751720
  -Hartree energ DENC   =   -129842.57062367
  -exchange      EXHF   =         0.00000000
  -V(xc)+E(xc)   XCENC  =      1273.57309276
  PAW double counting   =     40295.60925393   -40359.70394563
  entropy T*S    EENTRO =        -0.06865505
  eigenvalues    EBANDS =     -4906.29971312
  atomic energy  EATOM  =     13537.65479391
  Solvation  Ediel_sol  =         0.00000000
  ---------------------------------------------------
  free energy    TOTEN  =      -829.22941177 eV

  energy without entropy =     -829.16075672  energy(sigma->0) =     -829.19508425


--------------------------------------------------------------------------------------------------------




--------------------------------------- Iteration      1(   9)  ---------------------------------------


    POTLOK:  cpu time      0.3220: real time      0.3219
    SETDIJ:  cpu time      0.0401: real time      0.0401
     EDDAV:  cpu time     10.5939: real time     10.5977
       DOS:  cpu time      0.0008: real time      0.0008
    CHARGE:  cpu time      1.1564: real time      1.1566
    MIXING:  cpu time      0.2869: real time      0.2869
    --------------------------------------------
      LOOP:  cpu time     12.4000: real time     12.4040

 eigenvalue-minimisations  :  1648
 total energy-change (2. order) : 0.1041460E+00  (-0.2619924E-01)
 number of electron     368.0000005 magnetization 
 augmentation part        9.0822290 magnetization 

 Broyden mixing:
  rms(total) = 0.56515E-01    rms(broyden)= 0.56506E-01
  rms(prec ) = 0.77874E-01
  weight for this iteration     100.00

 eigenvalues of (default mixing * dielectric matrix)
  average eigenvalue GAMMA=   1.6738
  2.2028  2.2028  1.0791  1.2103

 Free energy of the ion-electron system (eV)
  ---------------------------------------------------
  alpha Z        PSCENC =        91.34886789
  Ewald energy   TEWEN  =    119081.22751720
  -Hartree energ DENC   =   -129911.52351616
  -exchange      EXHF   =         0.00000000
  -V(xc)+E(xc)   XCENC  =      1274.94530526
  PAW double counting   =     40877.63874160   -40941.76013433
  entropy T*S    EENTRO =        -0.06984697
  eigenvalues    EBANDS =     -4838.58699417
  atomic energy  EATOM  =     13537.65479391
  Solvation  Ediel_sol  =         0.00000000
  ---------------------------------------------------
  free energy    TOTEN  =      -829.12526577 eV

  energy without entropy =     -829.05541880  energy(sigma->0) =     -829.09034229


--------------------------------------------------------------------------------------------------------




--------------------------------------- Iteration      1(  10)  ---------------------------------------


    POTLOK:  cpu time      0.3218: real time      0.3218
    SETDIJ:  cpu time      0.0403: real time      0.0403
     EDDAV:  cpu time     11.1489: real time     11.1530
       DOS:  cpu time      0.0007: real time      0.0007
    CHARGE:  cpu time      1.1568: real time      1.1583
    MIXING:  cpu time      0.2908: real time      0.2929
    --------------------------------------------
      LOOP:  cpu time     12.9593: real time     12.9670

 eigenvalue-minimisations  :  1760
 total energy-change (2. order) : 0.3474977E-01  (-0.4221458E-02)
 number of electron     368.0000005 magnetization 
 augmentation part        9.0727239 magnetization 

 Broyden mixing:
  rms(total) = 0.36868E-01    rms(broyden)= 0.36865E-01
  rms(prec ) = 0.56490E-01
  weight for this iteration     100.00

 eigenvalues of (default mixing * dielectric matrix)
  average eigenvalue GAMMA=   1.7172
  2.4450  2.4450  1.6072  1.2279  0.8609

 Free energy of the ion-electron system (eV)
  ---------------------------------------------------
  alpha Z        PSCENC =        91.34886789
  Ewald energy   TEWEN  =    119081.22751720
  -Hartree energ DENC   =   -129956.68586633
  -exchange      EXHF   =         0.00000000
  -V(xc)+E(xc)   XCENC  =      1275.26122584
  PAW double counting   =     40674.54232663   -40738.54852086
  entropy T*S    EENTRO =        -0.06999952
  eigenvalues    EBANDS =     -4793.82086076
  atomic energy  EATOM  =     13537.65479391
  Solvation  Ediel_sol  =         0.00000000
  ---------------------------------------------------
  free energy    TOTEN  =      -829.09051600 eV

  energy without entropy =     -829.02051648  energy(sigma->0) =     -829.05551624


--------------------------------------------------------------------------------------------------------




--------------------------------------- Iteration      1(  11)  ---------------------------------------


    POTLOK:  cpu time      0.3219: real time      0.3221
    SETDIJ:  cpu time      0.0403: real time      0.0403
     EDDAV:  cpu time     10.2136: real time     10.2173
       DOS:  cpu time      0.0007: real time      0.0007
    CHARGE:  cpu time      1.1665: real time      1.1680
    MIXING:  cpu time      0.2974: real time      0.2987
    --------------------------------------------
      LOOP:  cpu time     12.0404: real time     12.0471

 eigenvalue-minimisations  :  1576
 total energy-change (2. order) : 0.3040471E-01  (-0.2366784E-02)
 number of electron     368.0000005 magnetization 
 augmentation part        9.0677124 magnetization 

 Broyden mixing:
  rms(total) = 0.23820E-01    rms(broyden)= 0.23818E-01
  rms(prec ) = 0.37607E-01
  weight for this iteration     100.00

 eigenvalues of (default mixing * dielectric matrix)
  average eigenvalue GAMMA=   1.7708
  2.9763  2.5484  1.9142  0.9490  1.1185  1.1185

 Free energy of the ion-electron system (eV)
  ---------------------------------------------------
  alpha Z        PSCENC =        91.34886789
  Ewald energy   TEWEN  =    119081.22751720
  -Hartree energ DENC   =   -130022.91241707
  -exchange      EXHF   =         0.00000000
  -V(xc)+E(xc)   XCENC  =      1275.84437559
  PAW double counting   =     40589.57131882   -40653.46818512
  entropy T*S    EENTRO =        -0.06993002
  eigenvalues    EBANDS =     -4728.25645250
  atomic energy  EATOM  =     13537.65479391
  Solvation  Ediel_sol  =         0.00000000
  ---------------------------------------------------
  free energy    TOTEN  =      -829.06011129 eV

  energy without entropy =     -828.99018127  energy(sigma->0) =     -829.02514628


--------------------------------------------------------------------------------------------------------




--------------------------------------- Iteration      1(  12)  ---------------------------------------


    POTLOK:  cpu time      0.3215: real time      0.3217
    SETDIJ:  cpu time      0.0404: real time      0.0404
     EDDAV:  cpu time     10.0488: real time     10.0525
       DOS:  cpu time      0.0008: real time      0.0008
    CHARGE:  cpu time      1.1549: real time      1.1568
    MIXING:  cpu time      0.3062: real time      0.3062
    --------------------------------------------
      LOOP:  cpu time     11.8727: real time     11.8783

 eigenvalue-minimisations  :  1544
 total energy-change (2. order) : 0.3699686E-02  (-0.2140727E-02)
 number of electron     368.0000005 magnetization 
 augmentation part        9.0608407 magnetization 

 Broyden mixing:
  rms(total) = 0.15404E-01    rms(broyden)= 0.15401E-01
  rms(prec ) = 0.23507E-01
  weight for this iteration     100.00

 eigenvalues of (default mixing * dielectric matrix)
  average eigenvalue GAMMA=   2.0365
  4.6665  2.4239  2.0202  2.0202  0.9406  1.0922  1.0922

 Free energy of the ion-electron system (eV)
  ---------------------------------------------------
  alpha Z        PSCENC =        91.34886789
  Ewald energy   TEWEN  =    119081.22751720
  -Hartree energ DENC   =   -130085.17099376
  -exchange      EXHF   =         0.00000000
  -V(xc)+E(xc)   XCENC  =      1276.44238536
  PAW double counting   =     40635.44552312   -40699.32318497
  entropy T*S    EENTRO =        -0.07012180
  eigenvalues    EBANDS =     -4666.61119857
  atomic energy  EATOM  =     13537.65479391
  Solvation  Ediel_sol  =         0.00000000
  ---------------------------------------------------
  free energy    TOTEN  =      -829.05641161 eV

  energy without entropy =     -828.98628981  energy(sigma->0) =     -829.02135071


--------------------------------------------------------------------------------------------------------




--------------------------------------- Iteration      1(  13)  ---------------------------------------


    POTLOK:  cpu time      0.3223: real time      0.3224
    SETDIJ:  cpu time      0.0401: real time      0.0401
     EDDAV:  cpu time      9.9608: real time      9.9643
       DOS:  cpu time      0.0007: real time      0.0007
    CHARGE:  cpu time      1.1553: real time      1.1565
    MIXING:  cpu time      0.3153: real time      0.3153
    --------------------------------------------
      LOOP:  cpu time     11.7946: real time     11.7994

 eigenvalue-minimisations  :  1528
 total energy-change (2. order) :-0.1282898E-01  (-0.8569841E-03)
 number of electron     368.0000005 magnetization 
 augmentation part        9.0580557 magnetization 

 Broyden mixing:
  rms(total) = 0.81553E-02    rms(broyden)= 0.81531E-02
  rms(prec ) = 0.11935E-01
  weight for this iteration     100.00

 eigenvalues of (default mixing * dielectric matrix)
  average eigenvalue GAMMA=   2.0591
  5.4094  2.4290  2.4290  1.9231  1.1581  1.1581  0.8806  1.0858

 Free energy of the ion-electron system (eV)
  ---------------------------------------------------
  alpha Z        PSCENC =        91.34886789
  Ewald energy   TEWEN  =    119081.22751720
  -Hartree energ DENC   =   -130136.11016760
  -exchange      EXHF   =         0.00000000
  -V(xc)+E(xc)   XCENC  =      1276.65751889
  PAW double counting   =     40596.58572172   -40660.45789967
  entropy T*S    EENTRO =        -0.06993124
  eigenvalues    EBANDS =     -4615.90566169
  atomic energy  EATOM  =     13537.65479391
  Solvation  Ediel_sol  =         0.00000000
  ---------------------------------------------------
  free energy    TOTEN  =      -829.06924059 eV

  energy without entropy =     -828.99930935  energy(sigma->0) =     -829.03427497


--------------------------------------------------------------------------------------------------------




--------------------------------------- Iteration      1(  14)  ---------------------------------------


    POTLOK:  cpu time      0.3224: real time      0.3225
    SETDIJ:  cpu time      0.0404: real time      0.0405
     EDDAV:  cpu time     10.3355: real time     10.3391
       DOS:  cpu time      0.0007: real time      0.0007
    CHARGE:  cpu time      1.1526: real time      1.1563
    MIXING:  cpu time      0.3218: real time      0.3228
    --------------------------------------------
      LOOP:  cpu time     12.1735: real time     12.1818

 eigenvalue-minimisations  :  1600
 total energy-change (2. order) :-0.1426748E-01  (-0.1240990E-03)
 number of electron     368.0000005 magnetization 
 augmentation part        9.0570792 magnetization 

 Broyden mixing:
  rms(total) = 0.61230E-02    rms(broyden)= 0.61225E-02
  rms(prec ) = 0.83828E-02
  weight for this iteration     100.00

 eigenvalues of (default mixing * dielectric matrix)
  average eigenvalue GAMMA=   2.1533
  6.2227  2.6349  2.6349  1.8017  1.5323  1.5323  1.1165  0.9521  0.9521

 Free energy of the ion-electron system (eV)
  ---------------------------------------------------
  alpha Z        PSCENC =        91.34886789
  Ewald energy   TEWEN  =    119081.22751720
  -Hartree energ DENC   =   -130151.40561597
  -exchange      EXHF   =         0.00000000
  -V(xc)+E(xc)   XCENC  =      1276.68690979
  PAW double counting   =     40594.66372199   -40658.54599133
  entropy T*S    EENTRO =        -0.06999079
  eigenvalues    EBANDS =     -4600.64372075
  atomic energy  EATOM  =     13537.65479391
  Solvation  Ediel_sol  =         0.00000000
  ---------------------------------------------------
  free energy    TOTEN  =      -829.08350807 eV

  energy without entropy =     -829.01351728  energy(sigma->0) =     -829.04851267


--------------------------------------------------------------------------------------------------------




--------------------------------------- Iteration      1(  15)  ---------------------------------------


    POTLOK:  cpu time      0.3223: real time      0.3223
    SETDIJ:  cpu time      0.0404: real time      0.0404
     EDDAV:  cpu time     10.1262: real time     10.1297
       DOS:  cpu time      0.0008: real time      0.0008
    CHARGE:  cpu time      1.1547: real time      1.1566
    MIXING:  cpu time      0.3335: real time      0.3336
    --------------------------------------------
      LOOP:  cpu time     11.9780: real time     11.9834

 eigenvalue-minimisations  :  1560
 total energy-change (2. order) :-0.1997703E-01  (-0.1629197E-03)
 number of electron     368.0000005 magnetization 
 augmentation part        9.0567012 magnetization 

 Broyden mixing:
  rms(total) = 0.29568E-02    rms(broyden)= 0.29564E-02
  rms(prec ) = 0.42754E-02
  weight for this iteration     100.00

 eigenvalues of (default mixing * dielectric matrix)
  average eigenvalue GAMMA=   2.2337
  7.0523  3.4805  2.2375  2.2375  1.7264  1.2968  1.2968  0.9683  0.9683  1.0723

 Free energy of the ion-electron system (eV)
  ---------------------------------------------------
  alpha Z        PSCENC =        91.34886789
  Ewald energy   TEWEN  =    119081.22751720
  -Hartree energ DENC   =   -130162.12126699
  -exchange      EXHF   =         0.00000000
  -V(xc)+E(xc)   XCENC  =      1276.67148613
  PAW double counting   =     40601.79333678   -40665.67585255
  entropy T*S    EENTRO =        -0.07008677
  eigenvalues    EBANDS =     -4589.93228069
  atomic energy  EATOM  =     13537.65479391
  Solvation  Ediel_sol  =         0.00000000
  ---------------------------------------------------
  free energy    TOTEN  =      -829.10348510 eV

  energy without entropy =     -829.03339832  energy(sigma->0) =     -829.06844171


--------------------------------------------------------------------------------------------------------




--------------------------------------- Iteration      1(  16)  ---------------------------------------


    POTLOK:  cpu time      0.3223: real time      0.3223
    SETDIJ:  cpu time      0.0402: real time      0.0402
     EDDAV:  cpu time     10.3739: real time     10.3804
       DOS:  cpu time      0.0007: real time      0.0007
    CHARGE:  cpu time      1.1639: real time      1.1670
    MIXING:  cpu time      0.3414: real time      0.3421
    --------------------------------------------
      LOOP:  cpu time     12.2425: real time     12.2528

 eigenvalue-minimisations  :  1608
 total energy-change (2. order) :-0.9915734E-02  (-0.6158202E-04)
 number of electron     368.0000005 magnetization 
 augmentation part        9.0566572 magnetization 

 Broyden mixing:
  rms(total) = 0.23808E-02    rms(broyden)= 0.23807E-02
  rms(prec ) = 0.29344E-02
  weight for this iteration     100.00

 eigenvalues of (default mixing * dielectric matrix)
  average eigenvalue GAMMA=   2.3215
  7.7976  3.8908  2.3841  2.3841  1.8998  1.5552  1.5552  0.9401  1.0091  1.0604
  1.0604

 Free energy of the ion-electron system (eV)
  ---------------------------------------------------
  alpha Z        PSCENC =        91.34886789
  Ewald energy   TEWEN  =    119081.22751720
  -Hartree energ DENC   =   -130166.56600048
  -exchange      EXHF   =         0.00000000
  -V(xc)+E(xc)   XCENC  =      1276.64412827
  PAW double counting   =     40591.06189642   -40654.94412663
  entropy T*S    EENTRO =        -0.07003430
  eigenvalues    EBANDS =     -4585.47044311
  atomic energy  EATOM  =     13537.65479391
  Solvation  Ediel_sol  =         0.00000000
  ---------------------------------------------------
  free energy    TOTEN  =      -829.11340083 eV

  energy without entropy =     -829.04336653  energy(sigma->0) =     -829.07838368


--------------------------------------------------------------------------------------------------------




--------------------------------------- Iteration      1(  17)  ---------------------------------------


    POTLOK:  cpu time      0.3223: real time      0.3223
    SETDIJ:  cpu time      0.0401: real time      0.0401
     EDDAV:  cpu time     10.4050: real time     10.4143
       DOS:  cpu time      0.0007: real time      0.0007
    CHARGE:  cpu time      1.1535: real time      1.1546
    MIXING:  cpu time      0.3507: real time      0.3508
    --------------------------------------------
      LOOP:  cpu time     12.2724: real time     12.2829

 eigenvalue-minimisations  :  1616
 total energy-change (2. order) :-0.5262874E-02  (-0.3357997E-04)
 number of electron     368.0000005 magnetization 
 augmentation part        9.0564982 magnetization 

 Broyden mixing:
  rms(total) = 0.11767E-02    rms(broyden)= 0.11766E-02
  rms(prec ) = 0.14989E-02
  weight for this iteration     100.00

 eigenvalues of (default mixing * dielectric matrix)
  average eigenvalue GAMMA=   2.3251
  8.2892  4.4439  2.4214  2.4214  1.9352  1.4552  1.4552  1.2526  1.2526  0.9759
  0.9759  1.0220

 Free energy of the ion-electron system (eV)
  ---------------------------------------------------
  alpha Z        PSCENC =        91.34886789
  Ewald energy   TEWEN  =    119081.22751720
  -Hartree energ DENC   =   -130168.96057495
  -exchange      EXHF   =         0.00000000
  -V(xc)+E(xc)   XCENC  =      1276.64633093
  PAW double counting   =     40597.82319090   -40661.70279326
  entropy T*S    EENTRO =        -0.07004448
  eigenvalues    EBANDS =     -4583.08595184
  atomic energy  EATOM  =     13537.65479391
  Solvation  Ediel_sol  =         0.00000000
  ---------------------------------------------------
  free energy    TOTEN  =      -829.11866371 eV

  energy without entropy =     -829.04861923  energy(sigma->0) =     -829.08364147


--------------------------------------------------------------------------------------------------------




--------------------------------------- Iteration      1(  18)  ---------------------------------------


    POTLOK:  cpu time      0.3222: real time      0.3222
    SETDIJ:  cpu time      0.0402: real time      0.0402
     EDDAV:  cpu time     10.6127: real time     10.6163
       DOS:  cpu time      0.0007: real time      0.0007
    CHARGE:  cpu time      1.1554: real time      1.1564
    MIXING:  cpu time      0.3601: real time      0.3613
    --------------------------------------------
      LOOP:  cpu time     12.4913: real time     12.4973

 eigenvalue-minimisations  :  1656
 total energy-change (2. order) :-0.1923833E-02  (-0.7620595E-05)
 number of electron     368.0000005 magnetization 
 augmentation part        9.0564496 magnetization 

 Broyden mixing:
  rms(total) = 0.74324E-03    rms(broyden)= 0.74317E-03
  rms(prec ) = 0.93973E-03
  weight for this iteration     100.00

 eigenvalues of (default mixing * dielectric matrix)
  average eigenvalue GAMMA=   2.3428
  8.6747  4.7547  2.5868  2.5868  1.9424  1.5760  1.5760  1.4911  1.2815  0.9609
  0.9609  1.0322  1.0322

 Free energy of the ion-electron system (eV)
  ---------------------------------------------------
  alpha Z        PSCENC =        91.34886789
  Ewald energy   TEWEN  =    119081.22751720
  -Hartree energ DENC   =   -130169.70146076
  -exchange      EXHF   =         0.00000000
  -V(xc)+E(xc)   XCENC  =      1276.64342835
  PAW double counting   =     40596.47285784   -40660.35244825
  entropy T*S    EENTRO =        -0.07004075
  eigenvalues    EBANDS =     -4582.34410296
  atomic energy  EATOM  =     13537.65479391
  Solvation  Ediel_sol  =         0.00000000
  ---------------------------------------------------
  free energy    TOTEN  =      -829.12058754 eV

  energy without entropy =     -829.05054678  energy(sigma->0) =     -829.08556716


--------------------------------------------------------------------------------------------------------




--------------------------------------- Iteration      1(  19)  ---------------------------------------


    POTLOK:  cpu time      0.3224: real time      0.3224
    SETDIJ:  cpu time      0.0402: real time      0.0403
     EDDAV:  cpu time      9.2221: real time      9.2253
       DOS:  cpu time      0.0008: real time      0.0008
    CHARGE:  cpu time      1.1553: real time      1.1563
    MIXING:  cpu time      0.3727: real time      0.3727
    --------------------------------------------
      LOOP:  cpu time     11.1135: real time     11.1177

 eigenvalue-minimisations  :  1376
 total energy-change (2. order) :-0.1126873E-02  (-0.3450997E-05)
 number of electron     368.0000005 magnetization 
 augmentation part        9.0564550 magnetization 

 Broyden mixing:
  rms(total) = 0.37976E-03    rms(broyden)= 0.37972E-03
  rms(prec ) = 0.50065E-03
  weight for this iteration     100.00

 eigenvalues of (default mixing * dielectric matrix)
  average eigenvalue GAMMA=   2.3803
  8.9176  5.3908  3.0469  2.3148  2.3148  1.8734  1.5767  1.5767  1.1903  1.1903
  0.9294  1.0253  0.9885  0.9885

 Free energy of the ion-electron system (eV)
  ---------------------------------------------------
  alpha Z        PSCENC =        91.34886789
  Ewald energy   TEWEN  =    119081.22751720
  -Hartree energ DENC   =   -130170.08559717
  -exchange      EXHF   =         0.00000000
  -V(xc)+E(xc)   XCENC  =      1276.64223567
  PAW double counting   =     40595.41456049   -40659.29287791
  entropy T*S    EENTRO =        -0.07003867
  eigenvalues    EBANDS =     -4581.96117582
  atomic energy  EATOM  =     13537.65479391
  Solvation  Ediel_sol  =         0.00000000
  ---------------------------------------------------
  free energy    TOTEN  =      -829.12171441 eV

  energy without entropy =     -829.05167574  energy(sigma->0) =     -829.08669507


--------------------------------------------------------------------------------------------------------




--------------------------------------- Iteration      1(  20)  ---------------------------------------


    POTLOK:  cpu time      0.3222: real time      0.3222
    SETDIJ:  cpu time      0.0402: real time      0.0402
     EDDAV:  cpu time      9.0668: real time      9.0699
       DOS:  cpu time      0.0007: real time      0.0007
    CHARGE:  cpu time      1.1570: real time      1.1585
    MIXING:  cpu time      0.3844: real time      0.3845
    --------------------------------------------
      LOOP:  cpu time     10.9713: real time     10.9760

 eigenvalue-minimisations  :  1344
 total energy-change (2. order) :-0.5509695E-03  (-0.1527705E-05)
 number of electron     368.0000005 magnetization 
 augmentation part        9.0564408 magnetization 

 Broyden mixing:
  rms(total) = 0.30308E-03    rms(broyden)= 0.30306E-03
  rms(prec ) = 0.35353E-03
  weight for this iteration     100.00

 eigenvalues of (default mixing * dielectric matrix)
  average eigenvalue GAMMA=   2.3898
  9.1090  5.6455  3.3877  2.4303  2.3695  1.9238  1.6185  1.6185  1.3387  1.3387
  1.0905  0.9588  0.9588  1.0291  1.0291

 Free energy of the ion-electron system (eV)
  ---------------------------------------------------
  alpha Z        PSCENC =        91.34886789
  Ewald energy   TEWEN  =    119081.22751720
  -Hartree energ DENC   =   -130170.33044883
  -exchange      EXHF   =         0.00000000
  -V(xc)+E(xc)   XCENC  =      1276.64231781
  PAW double counting   =     40595.84210725   -40659.72042097
  entropy T*S    EENTRO =        -0.07004042
  eigenvalues    EBANDS =     -4581.71695922
  atomic energy  EATOM  =     13537.65479391
  Solvation  Ediel_sol  =         0.00000000
  ---------------------------------------------------
  free energy    TOTEN  =      -829.12226538 eV

  energy without entropy =     -829.05222496  energy(sigma->0) =     -829.08724517


--------------------------------------------------------------------------------------------------------




--------------------------------------- Iteration      1(  21)  ---------------------------------------


    POTLOK:  cpu time      0.3200: real time      0.3199
    SETDIJ:  cpu time      0.0405: real time      0.0405
     EDDAV:  cpu time      8.8468: real time      8.8501
       DOS:  cpu time      0.0008: real time      0.0008
    CHARGE:  cpu time      1.1662: real time      1.1699
    MIXING:  cpu time      0.3957: real time      0.3960
    --------------------------------------------
      LOOP:  cpu time     10.7699: real time     10.7773

 eigenvalue-minimisations  :  1296
 total energy-change (2. order) :-0.2177512E-03  (-0.2857838E-06)
 number of electron     368.0000005 magnetization 
 augmentation part        9.0564381 magnetization 

 Broyden mixing:
  rms(total) = 0.16718E-03    rms(broyden)= 0.16717E-03
  rms(prec ) = 0.19623E-03
  weight for this iteration     100.00

 eigenvalues of (default mixing * dielectric matrix)
  average eigenvalue GAMMA=   2.3830
  9.1264  6.0577  3.6351  2.4893  2.4893  2.0158  1.6310  1.6310  1.5140  1.3507
  1.1424  1.1424  0.9677  0.9677  0.9835  0.9835

 Free energy of the ion-electron system (eV)
  ---------------------------------------------------
  alpha Z        PSCENC =        91.34886789
  Ewald energy   TEWEN  =    119081.22751720
  -Hartree energ DENC   =   -130170.40723577
  -exchange      EXHF   =         0.00000000
  -V(xc)+E(xc)   XCENC  =      1276.64160584
  PAW double counting   =     40594.90671238   -40658.78541792
  entropy T*S    EENTRO =        -0.07004114
  eigenvalues    EBANDS =     -4581.63928552
  atomic energy  EATOM  =     13537.65479391
  Solvation  Ediel_sol  =         0.00000000
  ---------------------------------------------------
  free energy    TOTEN  =      -829.12248313 eV

  energy without entropy =     -829.05244199  energy(sigma->0) =     -829.08746256


[...]
   -.242E+02 -.100E+02 0.612E+02   0.249E+02 0.104E+02 -.610E+02   -.916E+00 0.105E+01 0.526E+00   0.688E-05 0.513E-06 0.253E-05
   -.577E+01 -.739E+01 0.677E+01   0.548E+01 0.748E+01 -.671E+01   -.551E-01 -.291E-01 -.539E+00   0.619E-05 -.220E-06 0.198E-05
   0.298E+02 0.211E+02 -.100E+03   -.299E+02 -.229E+02 0.100E+03   0.111E+01 -.122E+01 -.214E+01   0.571E-05 0.252E-05 0.269E-05
   -.314E+01 0.163E+02 -.128E+02   0.351E+01 -.169E+02 0.122E+02   -.239E+00 0.797E-01 0.873E+00   0.670E-05 -.101E-05 0.208E-05
   0.349E+01 -.167E+02 -.256E+02   -.304E+01 0.182E+02 0.254E+02   0.486E+00 0.543E-01 0.500E+00   0.811E-05 -.506E-06 0.175E-05
   0.230E+02 -.783E+01 -.110E+03   -.238E+02 0.741E+01 0.110E+03   -.492E+00 -.148E+01 -.132E+01   0.813E-05 0.261E-05 0.209E-06
   0.103E+01 0.499E+01 -.222E+02   -.217E+01 -.570E+01 0.215E+02   -.149E+01 -.684E+00 0.166E+01   0.801E-05 -.166E-05 0.176E-05
   -.221E+01 0.137E+02 -.534E+02   0.255E+01 -.139E+02 0.528E+02   -.120E+01 0.676E+00 0.123E+01   0.249E-05 0.268E-05 0.311E-06
   0.872E+01 -.114E+02 -.714E+02   -.821E+01 0.119E+02 0.716E+02   0.466E+00 0.338E+00 -.890E+00   0.489E-05 -.182E-05 -.757E-07
   -.407E+01 -.156E+01 -.100E+03   0.483E+01 0.143E+01 0.101E+03   -.211E+00 0.311E+00 -.101E+00   -.694E-05 -.853E-06 -.152E-05
   -.143E+01 0.240E+01 -.980E+02   0.475E+00 -.249E+01 0.981E+02   -.549E+00 -.741E-01 -.399E+00   -.344E-05 0.143E-05 -.936E-06
   -.233E+02 0.182E+02 -.909E+02   0.242E+02 -.201E+02 0.909E+02   -.219E+00 -.639E+00 -.485E+00   -.834E-05 0.182E-05 -.956E-06
   -.181E+02 -.116E+02 -.462E+02   0.195E+02 0.128E+02 0.457E+02   0.995E+00 0.668E+00 0.231E+00   -.129E-04 0.223E-05 0.662E-06
   -.786E+01 -.258E+02 -.897E+02   0.767E+01 0.289E+02 0.893E+02   -.478E+00 0.146E+01 -.245E+00   -.540E-05 0.120E-05 -.360E-06
   -.960E+01 0.159E+02 0.260E+01   0.954E+01 -.180E+02 -.321E+01   0.488E+00 -.122E+01 0.864E+00   -.141E-04 0.538E-06 0.148E-05
   -.534E+01 0.229E+01 -.394E+02   0.428E+01 -.183E+01 0.393E+02   -.791E+00 0.109E+00 0.926E-01   -.829E-05 -.725E-05 0.236E-05
   0.304E+01 -.865E+01 0.242E+02   -.291E+01 0.898E+01 -.246E+02   0.365E+00 -.218E+00 0.661E+00   -.514E-05 -.103E-05 0.123E-05
   -.260E+02 -.117E+02 -.599E+02   0.279E+02 0.123E+02 0.600E+02   0.864E+00 0.715E+00 -.144E+01   -.125E-04 -.187E-05 0.311E-05
   -.263E+01 0.118E+02 -.139E+01   0.162E+01 -.126E+02 0.127E+01   -.938E+00 -.304E+00 0.907E-01   -.178E-05 0.356E-05 0.740E-06
   -.276E+01 0.176E+02 0.100E+02   0.253E+01 -.188E+02 -.102E+02   0.330E+00 -.393E+00 0.618E+00   -.662E-05 -.223E-07 0.109E-05
   -.320E+01 -.640E+01 0.356E+02   0.435E+01 0.640E+01 -.361E+02   0.285E+00 -.291E+00 0.340E+00   -.838E-05 0.698E-05 0.758E-06
   0.386E+00 -.213E+02 -.178E+02   -.127E+01 0.227E+02 0.177E+02   -.226E+00 0.958E+00 -.166E-01   0.654E-05 -.217E-05 -.211E-05
   -.327E+01 0.153E+02 0.197E+02   0.323E+01 -.159E+02 -.197E+02   -.302E+00 -.699E+00 0.309E+00   -.206E-07 -.950E-07 -.135E-05
   0.164E+02 0.475E+01 0.198E+02   -.174E+02 -.362E+01 -.197E+02   -.692E+00 0.963E+00 -.188E+00   0.904E-05 -.155E-05 -.390E-05
   0.182E+02 -.680E+01 0.174E+02   -.200E+02 0.553E+01 -.173E+02   -.480E+00 -.372E+00 0.159E+00   0.138E-04 0.144E-05 -.467E-05
   -.293E+01 0.263E+01 0.834E+02   0.385E+01 -.299E+01 -.840E+02   0.368E+00 0.105E+00 0.394E+00   -.935E-06 -.260E-05 0.186E-06
   -.133E+02 0.694E+01 0.226E+02   0.144E+02 -.728E+01 -.223E+02   0.541E+00 0.918E+00 -.196E+01   0.324E-05 0.317E-05 -.649E-06
   0.275E+02 0.681E+02 0.136E+03   -.306E+02 -.688E+02 -.136E+03   0.897E+00 0.353E+00 -.239E+00   -.244E-05 0.347E-06 0.167E-05
   0.288E+02 -.704E+02 0.150E+03   -.323E+02 0.712E+02 -.150E+03   0.135E+01 -.259E+01 0.159E+01   -.556E-05 0.452E-05 0.379E-05
   0.214E+02 0.687E+02 0.409E+02   -.185E+02 -.701E+02 -.415E+02   -.543E+00 0.183E+01 0.288E+00   -.632E-05 0.479E-05 0.304E-05
   0.232E+02 -.697E+02 0.542E+02   -.199E+02 0.709E+02 -.547E+02   -.138E+01 -.115E+01 -.170E+00   0.358E-05 -.335E-05 -.697E-06
   0.295E+02 0.132E+02 0.778E+02   -.292E+02 -.147E+02 -.783E+02   -.438E+00 -.327E+00 0.757E+00   0.139E-05 0.587E-05 0.218E-05
   0.462E+02 0.631E+01 0.131E+03   -.471E+02 -.744E+01 -.132E+03   -.565E+00 0.492E-01 0.202E+01   0.490E-05 -.283E-05 0.133E-05
   0.126E+02 0.150E+02 0.397E+02   -.132E+02 -.154E+02 -.391E+02   -.477E+00 -.718E-01 -.135E+01   0.344E-06 0.709E-05 0.178E-05
   0.276E+01 -.158E+02 0.321E+02   -.178E+01 0.162E+02 -.312E+02   0.343E+00 -.704E+00 -.212E+01   -.475E-05 0.997E-06 0.457E-06
   0.984E+00 -.502E+01 0.158E+03   -.547E+00 0.477E+01 -.159E+03   0.808E+00 -.447E-01 0.230E+01   -.308E-05 0.499E-05 0.324E-05
   0.320E+01 0.140E+02 0.143E+03   -.326E+01 -.150E+02 -.144E+03   -.183E-02 0.253E+00 0.139E+01   -.787E-05 -.173E-05 0.257E-05
   0.380E+01 0.754E+01 0.644E+02   -.446E+01 -.730E+01 -.640E+02   0.886E+00 0.560E+00 -.988E+00   -.296E-05 -.112E-05 0.218E-05
   -.132E+02 -.108E+02 0.113E+03   0.133E+02 0.110E+02 -.112E+03   -.437E+00 -.555E+00 -.736E+00   -.118E-04 -.431E-05 0.136E-05
   -.547E+01 -.439E+01 0.478E+02   0.542E+01 0.390E+01 -.479E+02   0.577E+00 -.691E+00 -.186E+00   -.104E-05 0.498E-05 0.243E-05
   -.412E+02 0.157E+02 0.174E+03   0.429E+02 -.160E+02 -.174E+03   -.565E+00 -.626E-01 0.243E+01   -.196E-05 -.386E-05 0.149E-06
   0.107E+02 0.112E+02 0.413E+01   -.112E+02 -.116E+02 -.388E+01   0.543E+00 0.226E+00 -.407E-01   0.137E-05 -.375E-05 0.224E-05
   0.608E+01 -.219E+02 0.447E+02   -.746E+01 0.234E+02 -.449E+02   -.116E+01 0.380E+00 -.150E+01   0.778E-05 -.499E-05 0.458E-05
   0.122E+02 0.170E+00 -.239E+02   -.121E+02 -.878E+00 0.240E+02   0.605E+00 -.296E+00 0.465E+00   0.319E-05 0.286E-05 0.216E-05
   -.948E+01 0.993E+01 0.302E+02   0.101E+02 -.116E+02 -.297E+02   -.595E+00 -.120E+01 0.133E+00   0.756E-05 -.407E-06 0.241E-05
   0.467E+02 0.980E+01 -.144E+03   -.473E+02 -.101E+02 0.144E+03   0.104E+01 0.796E+00 -.117E+01   0.457E-05 -.187E-05 0.205E-05
   0.255E+02 -.158E+02 -.754E+02   -.261E+02 0.164E+02 0.752E+02   -.200E-01 0.101E+01 -.417E+00   0.332E-05 0.279E-06 0.681E-06
   0.337E+02 -.113E+02 -.156E+03   -.334E+02 0.126E+02 0.157E+03   0.350E+00 -.370E+00 -.264E+00   0.525E-05 0.594E-07 0.140E-05
   0.138E+02 0.107E+02 -.732E+02   -.132E+02 -.112E+02 0.737E+02   0.924E+00 0.118E+00 -.986E-02   0.553E-05 0.245E-05 0.929E-06
   0.270E+02 0.504E+01 -.123E+03   -.275E+02 -.451E+01 0.123E+03   -.385E-01 -.288E+00 0.972E+00   0.448E-05 -.174E-05 0.482E-06
   0.183E+02 -.106E+02 -.102E+03   -.189E+02 0.107E+02 0.102E+03   -.968E+00 -.817E+00 0.441E+00   0.542E-05 -.311E-06 0.835E-06
   0.170E+02 -.130E+02 -.164E+03   -.157E+02 0.138E+02 0.165E+03   0.203E+01 0.653E+00 -.212E+01   0.596E-05 -.239E-05 -.117E-05
   0.242E+02 0.745E+01 -.163E+03   -.239E+02 -.709E+01 0.163E+03   -.888E-01 -.574E+00 -.167E+00   0.649E-05 0.232E-05 0.880E-07
   0.201E+02 0.118E+02 -.118E+03   -.221E+02 -.121E+02 0.118E+03   -.706E+00 -.245E+00 0.198E+01   0.656E-05 -.106E-05 -.195E-06
   0.208E+02 -.131E+02 -.213E+03   -.207E+02 0.134E+02 0.214E+03   0.785E+00 0.200E+00 -.189E+01   0.534E-05 -.820E-06 -.280E-05
   0.230E+01 -.110E+02 -.144E+03   -.175E+01 0.114E+02 0.144E+03   0.844E+00 -.107E+00 -.360E+00   -.493E-05 -.567E-05 -.279E-05
   0.989E+01 0.831E+01 -.165E+03   -.114E+02 -.836E+01 0.165E+03   -.393E+00 0.644E+00 0.109E+00   -.449E-05 0.283E-05 -.272E-05
   -.156E+02 0.705E+01 -.174E+03   0.157E+02 -.645E+01 0.174E+03   0.236E+00 0.546E+00 -.700E+00   -.124E-04 -.317E-05 -.243E-05
   -.277E+02 -.803E+01 -.166E+03   0.300E+02 0.732E+01 0.166E+03   0.100E+01 -.455E+00 0.916E-01   -.125E-04 0.250E-05 -.225E-05
   -.164E+02 -.210E+02 -.125E+03   0.168E+02 0.229E+02 0.126E+03   0.345E+00 0.671E+00 -.216E+00   -.782E-05 -.158E-05 -.705E-06
   -.102E+02 0.303E+02 -.152E+03   0.964E+01 -.337E+02 0.152E+03   -.504E+00 -.131E+01 0.417E+00   -.716E-05 0.606E-05 -.177E-05
   -.121E+02 0.178E+02 -.159E+03   0.111E+02 -.186E+02 0.159E+03   0.148E+00 -.370E+00 -.306E+00   -.376E-05 -.241E-05 -.467E-06
   -.197E+02 -.177E+02 -.187E+03   0.196E+02 0.188E+02 0.188E+03   -.549E+00 0.245E+00 -.152E+01   -.406E-05 0.122E-05 -.561E-06
   -.204E+02 -.766E+01 -.111E+03   0.207E+02 0.836E+01 0.111E+03   0.124E+01 0.257E+00 -.358E+00   -.493E-05 -.103E-05 0.401E-06
   -.181E+02 0.677E+01 -.932E+02   0.178E+02 -.724E+01 0.928E+02   -.389E+00 0.100E+01 0.219E+01   -.719E-05 0.111E-05 0.505E-06
   -.268E+02 0.205E+02 -.130E+03   0.262E+02 -.211E+02 0.131E+03   0.846E+00 0.163E+00 -.201E+00   -.625E-05 -.185E-05 0.169E-05
   -.473E+02 -.209E+02 -.178E+03   0.482E+02 0.216E+02 0.179E+03   -.385E+00 0.373E+00 -.194E+01   -.443E-05 -.100E-05 0.202E-05
   -.196E+02 -.104E+02 -.651E+02   0.200E+02 0.106E+02 0.650E+02   0.994E+00 -.739E+00 -.319E+00   -.412E-05 0.129E-05 0.114E-05
   -.255E+02 0.107E+02 -.127E+03   0.252E+02 -.119E+02 0.127E+03   0.822E-01 -.191E-01 0.128E+00   0.294E-05 -.159E-05 0.208E-06
   -.263E+02 0.241E+02 -.700E+02   0.271E+02 -.248E+02 0.698E+02   0.220E+00 -.529E-01 0.173E+00   0.918E-05 -.821E-06 -.356E-05
   -.383E+02 -.147E+02 -.130E+03   0.381E+02 0.144E+02 0.131E+03   -.103E+01 -.176E+00 -.174E+01   0.860E-05 0.656E-05 -.267E-05
   0.216E+01 -.581E+01 -.133E+02   -.387E+01 0.674E+01 0.133E+02   -.213E+00 0.144E+01 0.159E+01   0.105E-04 -.382E-05 -.441E-05
   -.523E+01 -.634E+00 0.455E+01   0.513E+01 0.944E+00 -.557E+01   0.177E+01 0.537E+00 0.122E+01   0.177E-05 -.159E-06 -.172E-05
   -.170E+02 0.546E+02 -.368E+02   0.146E+02 -.546E+02 0.386E+02   0.111E+01 0.151E+01 -.148E+01   0.537E-06 0.293E-06 -.642E-06
   -.185E+02 -.645E+02 -.241E+02   0.160E+02 0.651E+02 0.260E+02   0.471E+00 -.277E+01 -.144E+01   0.246E-07 -.770E-05 -.229E-06
 -----------------------------------------------------------------------------------------------
   -.228E+00 -.107E+01 -.182E+00   0.243E-12 0.171E-12 -.107E-11   0.191E+00 0.124E+01 0.206E+00   -.881E-05 -.265E-05 0.573E-04
 
 
 POSITION                                       TOTAL-FORCE (eV/Angst)
 -----------------------------------------------------------------------------------
      0.13320      0.78517     15.13760         2.088853      1.329226     -0.760950
      0.14787      2.20911     15.18510         2.123355     -2.269260     -0.795186
      1.37913      0.09470     14.94860        -1.935484      3.546128     -0.244975
      1.39166      2.81383     15.08970        -1.156921      2.951997      0.159394
      2.59851      0.81792     14.73210         0.475992     -0.780384      0.548814
      2.60752      2.19339     14.78370         0.753994     -0.483565      0.376385
      3.86569      0.15443     14.88890        -0.228084      1.382507     -1.025102
      3.88267      2.85874     14.93520        -1.548938      0.587076      0.157794
      5.11033      0.82673     14.96670         0.850957      1.333395      0.887801
      5.09715      2.21893     15.13790         1.492058     -0.715452     -1.305305
      6.37196      0.22680     15.25580        -0.171521     -1.346058     -0.386060
      6.34580      2.90647     15.41680        -0.864259     -0.375540      0.646631
      7.58662      0.88046     15.59710         0.637579      0.288403     -0.382713
      7.58778      2.27711     15.67750         0.389436     -1.473358     -0.471702
      8.79328      0.17366     15.97800        -0.356445      2.146381     -0.015926
      8.79275      2.90509     16.14960        -2.063715      0.018925      0.243427
      9.97756      0.82852     16.39500         0.252045      0.826938      0.643502
      9.94504      2.20435     16.54250        -0.258103      1.392409      0.729192
     11.07620      0.18471     17.02180        -0.341752      0.054507     -0.482054
     10.95580      2.91960     17.29340         0.941170     -3.027367     -1.904207
     12.25180      0.87377     17.40250         0.129232     -0.488375      0.236265
     12.20660      2.23573     17.43700         0.939238      1.504338      0.352084
     13.44040      0.25630     17.90240        -1.258875     -1.905713     -1.042909
     13.45160      2.91001     17.74000        -2.636479     -1.397037      0.909656
     14.69050      0.85191     17.96980        -0.853174      0.556266      0.534519
     14.64650      2.21811     17.97030         0.975255      0.811810     -0.607395
     15.89260      0.18223     18.18780         0.545852      0.172052      0.318097
     15.87370      2.87966     18.14300        -1.500452     -0.171347     -0.333974
     17.12520      0.86234     18.13960         0.641625     -2.571382     -0.486568
     17.06990      2.19867     18.03470         2.394873      1.827391     -0.300523
     18.40120      0.14337     18.11870        -0.669955      4.611040     -0.592114
     18.32080      2.90940     17.88870         0.429669     -3.256600      0.252776
     19.62990      0.82108     17.82050        -1.851440      0.571222     -0.011178
     19.56900      2.20735     17.66730         0.494680      0.109536      0.297800
     20.82720      0.13178     17.72760         2.769739      1.342625     -1.339321
     20.84050      2.88312     17.55390        -1.945743     -1.123820     -0.036322
     22.05160      0.83229     17.29280         0.098329     -1.580764      0.448666
     22.03090      2.21475     17.22050         1.434098     -0.289565     -0.224443
     23.32420      0.11995     17.11300        -1.109294      2.344949     -0.073094
     23.29070      2.89509     17.00280        -0.346798     -1.232093      0.297046
     24.51340      0.78663     16.63370        -1.720335      2.089891     -0.053616
     24.51590      2.20074     16.63210        -2.283803     -1.649621      0.285639
     25.66530      0.16126     16.19650         1.292330     -0.254413     -0.192289
     25.70300      2.81768     16.30840         1.643714      0.574656     -1.700216
     26.78910      0.83987     15.64530        -2.127827     -0.381657      0.221052
     26.80230      2.23390     15.63790        -2.160580     -1.730058      1.463529
      0.21689      4.85541     15.72810         2.369473      0.395273     -0.270963
      0.22377      6.23820     15.68040         1.900180     -0.024293     -0.678683
      1.40013      4.21428     15.37820        -0.198720     -1.844315      0.222661
      1.39922      6.88343     15.22720        -1.449449     -1.087004      1.679552
      2.63757      4.89046     15.34820        -1.140623     -0.519620     -0.735020
      2.62711      6.26086     15.33660         1.326165     -0.326741     -1.196464
      3.83577      4.23107     15.09300         1.245882     -0.295740      1.463041
      3.86898      6.91472     15.07580        -0.064443     -0.725962      0.773411
      5.05504      4.89559     15.38010         0.227872      0.801750     -0.563402
      5.11766      6.27939     15.25510        -0.391860     -0.404008     -0.025286
      6.26741      4.27000     15.62830         0.530059     -1.185475     -0.328067
      6.36995      6.93324     15.31070         1.133903     -0.337867      2.090253
      7.45415      4.91340     16.04320         0.087837     -0.147132      0.208749
      7.55396      6.26404     15.93850        -2.538952      1.901356     -1.638816
      8.61771      4.24936     16.45700         0.755854     -1.006696      0.576235
      8.72201      6.96394     16.27500         0.077005     -2.836524      0.585853
      9.68617      4.89830     17.10850         0.457752      0.530669     -0.615824
      9.78570      6.25979     16.95300        -0.644271      1.610823     -0.584378
     10.87840      4.25283     17.49470         0.614600      0.931230     -0.022731
     10.97690      6.93959     17.26420         1.502766     -0.405903      0.439504
     12.11910      4.92273     17.77810        -0.587516      0.234752      0.803984
     12.18980      6.31329     17.72890        -1.543926     -0.714035      0.538239
     13.30400      4.23040     18.04260         3.244036      1.444366     -0.857361
     13.37880      6.98023     18.08830         0.246745     -0.215585     -0.291827
     14.61310      4.91767     18.22020        -2.704459     -0.502814      1.229960
     14.58420      6.27865     18.39590         0.844372      0.502364     -1.028141
     15.82500      4.23744     18.31060         1.399856      0.289293     -0.264352
     15.87820      6.92080     18.39620        -1.885395      0.593645      0.174889
     17.08580      4.87344     18.42000         0.326946      1.146827     -0.204760
     17.08280      6.27374     18.43790         3.266904     -1.169828      0.346710
     18.33370      4.20366     18.21340         0.691220      2.526852      0.302904
     18.41240      6.95346     18.31700        -1.044619     -4.718438      0.815477
     19.62400      4.87162     18.21130        -0.826159     -1.182524      0.033584
     19.67540      6.22881     18.28190        -0.664673      1.356515     -0.782246
     20.82410      4.20392     17.88580         1.538786      0.955069     -0.340496
     20.90460      6.86833     17.90630        -0.701432      0.527958      1.765881
     22.09740      4.86362     17.74570         0.225949     -0.409355      0.140145
     22.16090      6.22618     17.85320         0.576620      1.042776     -1.113958
     23.28890      4.24424     17.28260         1.370946     -0.620253     -0.330943
     23.38270      6.90434     17.42820        -0.288766     -1.211302      0.305086
     24.55510      4.88000     17.01060         1.019585     -0.733823      0.041581
     24.62620      6.25061     17.11280        -1.206190     -0.501203     -0.524977
     25.76600      4.16517     16.48420        -1.923356      2.360186      1.574814
     25.71130      6.89821     16.47400         1.669616      0.846265      0.209041
     26.91470      4.85553     16.24720        -1.249479      1.502123      0.385885
     26.91790      6.28226     16.21600        -2.000733     -2.243894      0.449327
 -----------------------------------------------------------------------------------
    total drift:                               -0.036717      0.167016      0.024216


--------------------------------------------------------------------------------------------------------



  FREE ENERGIE OF THE ION-ELECTRON SYSTEM (eV)
  ---------------------------------------------------
  free  energy   TOTEN  =      -829.12265931 eV

  energy  without entropy=     -829.05261823  energy(sigma->0) =     -829.08763877
 


--------------------------------------------------------------------------------------------------------


    POTLOK:  cpu time      0.4545: real time      0.4544


--------------------------------------------------------------------------------------------------------


     LOOP+:  cpu time    343.2728: real time    343.4712
    4ORBIT:  cpu time      0.0000: real time      0.0000

 total amount of memory used by VASP MPI-rank0  2294503. kBytes
=======================================================================

   base                                    :      30000. kBytes
   nonlr-proj                              :      15069. kBytes
   fftplans                                :     436558. kBytes
   grid                                    :     732614. kBytes
   one-center                              :        282. kBytes
   wavefun                                 :    1079980. kBytes
 
  
  
 General timing and accounting informations for this job:
 ========================================================
  
                  Total CPU time used (sec):      376.600
                            User time (sec):      367.759
                          System time (sec):        8.840
                         Elapsed time (sec):      376.905
  
                   Maximum memory used (kb):     3733228.
                   Average memory used (kb):          N/A
  
                          Minor page faults:      3265508
                          Major page faults:         5700
                 Voluntary context switches:         9928
