<?xml version="1.0" encoding="ISO-8859-1"?>
<modeling>
 <generator>
  <i name="program" type="string">vasp </i>
  <i name="version" type="string">6.5.0  </i>
  <i name="subversion" type="string">16Dec24 (build Feb 19 2025 19:45:31) complex                          parallel </i>
  <i name="platform" type="string">LinuxNV </i>
  <i name="date" type="string">2025 10 25 </i>
  <i name="time" type="string">15:14:56 </i>
 </generator>
 <incar>
  <i type="int" name="ISTART">     0</i>
  <i type="string" name="PREC">Accurate   (Precision level)</i>
  <i type="string" name="ALGO">Normal</i>
  <i type="int" name="ISPIN">     1</i>
  <i type="int" name="ICHARG">     2</i>
  <i type="int" name="NELM">   150</i>
  <i type="int" name="IBRION">    -1</i>
  <i name="EDIFF">      0.00000100</i>
  <i type="int" name="NSW">     0</i>
  <i name="ENCUT">    500.00000000</i>
  <i type="string" name="LREAL">Auto         (Projection operators: automatic)</i>
  <i type="int" name="ISMEAR">     0</i>
  <i type="logical" name="KGAMMA"> T  </i>
  <i type="logical" name="LWAVE"> F  </i>
  <i type="logical" name="LCHARG"> F  </i>
 </incar>
 <primitive_cell>
  <structure name="primitive_cell" >
   <crystal>
    <varray name="basis" >
     <v>      28.05000000       0.00000000       0.00000000 </v>
     <v>       0.00000000       8.10000000       0.00000000 </v>
     <v>       0.00000000       0.00000000      33.50000000 </v>
    </varray>
    <i name="volume">   7611.36750000 </i>
    <varray name="rec_basis" >
     <v>       0.03565062       0.00000000       0.00000000 </v>
     <v>       0.00000000       0.12345679       0.00000000 </v>
     <v>       0.00000000       0.00000000       0.02985075 </v>
    </varray>
   </crystal>
   <varray name="positions" >
    <v>       0.00474863       0.09693420       0.45186866 </v>
    <v>       0.00527152       0.27272963       0.45328657 </v>
    <v>       0.04916684       0.01169133       0.44622687 </v>
    <v>       0.04961355       0.34738642       0.45043881 </v>
    <v>       0.09263850       0.10097802       0.43976418 </v>
    <v>       0.09295971       0.27078889       0.44130448 </v>
    <v>       0.13781426       0.01906593       0.44444478 </v>
    <v>       0.13841961       0.35293086       0.44582687 </v>
    <v>       0.18218645       0.10206605       0.44676716 </v>
    <v>       0.18171658       0.27394198       0.45187761 </v>
    <v>       0.22716435       0.02799988       0.45539701 </v>
    <v>       0.22623173       0.35882346       0.46020299 </v>
    <v>       0.27046774       0.10869938       0.46558507 </v>
    <v>       0.27050909       0.28112469       0.46798507 </v>
    <v>       0.31348592       0.02143951       0.47695522 </v>
    <v>       0.31346702       0.35865309       0.48207761 </v>
    <v>       0.35570624       0.10228642       0.48940299 </v>
    <v>       0.35454688       0.27214198       0.49380597 </v>
    <v>       0.39487344       0.02280407       0.50811343 </v>
    <v>       0.39058111       0.36044444       0.51622090 </v>
    <v>       0.43678431       0.10787284       0.51947761 </v>
    <v>       0.43517291       0.27601605       0.52050746 </v>
    <v>       0.47915865       0.03164148       0.53440000 </v>
    <v>       0.47955793       0.35926049       0.52955224 </v>
    <v>       0.52372549       0.10517420       0.53641194 </v>
    <v>       0.52215686       0.27384074       0.53642687 </v>
    <v>       0.56658111       0.02249765       0.54291940 </v>
    <v>       0.56590731       0.35551358       0.54158209 </v>
    <v>       0.61052406       0.10646160       0.54148060 </v>
    <v>       0.60855258       0.27144074       0.53834925 </v>
    <v>       0.65601426       0.01769963       0.54085672 </v>
    <v>       0.65314795       0.35918519       0.53399104 </v>
    <v>       0.69981818       0.10136765       0.53195522 </v>
    <v>       0.69764706       0.27251235       0.52738209 </v>
    <v>       0.74250267       0.01626877       0.52918209 </v>
    <v>       0.74297683       0.35594074       0.52399701 </v>
    <v>       0.78615330       0.10275136       0.51620299 </v>
    <v>       0.78541533       0.27342593       0.51404478 </v>
    <v>       0.83152228       0.01480852       0.51083582 </v>
    <v>       0.83032799       0.35741852       0.50754627 </v>
    <v>       0.87391800       0.09711469       0.49652836 </v>
    <v>       0.87400713       0.27169630       0.49648060 </v>
    <v>       0.91498396       0.01990914       0.48347761 </v>
    <v>       0.91632799       0.34786173       0.48681791 </v>
    <v>       0.95504813       0.10368728       0.46702388 </v>
    <v>       0.95551872       0.27579012       0.46680299 </v>
    <v>       0.00773241       0.59943333       0.46949552 </v>
    <v>       0.00797750       0.77014815       0.46807164 </v>
    <v>       0.04991551       0.52028148       0.45905075 </v>
    <v>       0.04988307       0.84980617       0.45454328 </v>
    <v>       0.09403102       0.60376049       0.45815522 </v>
    <v>       0.09365811       0.77294568       0.45780896 </v>
    <v>       0.13674759       0.52235432       0.45053731 </v>
    <v>       0.13793155       0.85366914       0.45002388 </v>
    <v>       0.18021533       0.60439383       0.45910746 </v>
    <v>       0.18244777       0.77523333       0.45537612 </v>
    <v>       0.22343708       0.52716049       0.46651642 </v>
    <v>       0.22709269       0.85595556       0.45703582 </v>
    <v>       0.26574510       0.60659259       0.47890149 </v>
    <v>       0.26930339       0.77333827       0.47577612 </v>
    <v>       0.30722674       0.52461235       0.49125373 </v>
    <v>       0.31094510       0.85974568       0.48582090 </v>
    <v>       0.34531800       0.60472840       0.51070149 </v>
    <v>       0.34886631       0.77281358       0.50605970 </v>
    <v>       0.38782175       0.52504074       0.52222985 </v>
    <v>       0.39133333       0.85673951       0.51534925 </v>
    <v>       0.43205348       0.60774444       0.53068955 </v>
    <v>       0.43457398       0.77941852       0.52922090 </v>
    <v>       0.47429590       0.52227160       0.53858507 </v>
    <v>       0.47696257       0.86175679       0.53994925 </v>
    <v>       0.52096613       0.60711975       0.54388657 </v>
    <v>       0.51993583       0.77514198       0.54913134 </v>
    <v>       0.56417112       0.52314074       0.54658507 </v>
    <v>       0.56606774       0.85441975       0.54914030 </v>
    <v>       0.60911943       0.60165926       0.54985075 </v>
    <v>       0.60901248       0.77453580       0.55038507 </v>
    <v>       0.65360784       0.51897037       0.54368358 </v>
    <v>       0.65641355       0.85845185       0.54677612 </v>
    <v>       0.69960784       0.60143457       0.54362090 </v>
    <v>       0.70144029       0.76898889       0.54572836 </v>
    <v>       0.74239216       0.51900247       0.53390448 </v>
    <v>       0.74526203       0.84794198       0.53451642 </v>
    <v>       0.78778610       0.60044691       0.52972239 </v>
    <v>       0.79004991       0.76866420       0.53293134 </v>
    <v>       0.83026381       0.52398025       0.51589851 </v>
    <v>       0.83360784       0.85238765       0.52024478 </v>
    <v>       0.87540463       0.60246914       0.50777910 </v>
    <v>       0.87793939       0.77168025       0.51082985 </v>
    <v>       0.91857398       0.51421852       0.49206567 </v>
    <v>       0.91662389       0.85163086       0.49176119 </v>
    <v>       0.95952585       0.59944815       0.48499104 </v>
    <v>       0.95963993       0.77558765       0.48405970 </v>
   </varray>
  </structure>
  <varray name="primitive_index" >
   <v type="int" >        1 </v>
   <v type="int" >        2 </v>
   <v type="int" >        3 </v>
   <v type="int" >        4 </v>
   <v type="int" >        5 </v>
   <v type="int" >        6 </v>
   <v type="int" >        7 </v>
   <v type="int" >        8 </v>
   <v type="int" >        9 </v>
   <v type="int" >       10 </v>
   <v type="int" >       11 </v>
   <v type="int" >       12 </v>
   <v type="int" >       13 </v>
   <v type="int" >       14 </v>
   <v type="int" >       15 </v>
   <v type="int" >       16 </v>
   <v type="int" >       17 </v>
   <v type="int" >       18 </v>
   <v type="int" >       19 </v>
   <v type="int" >       20 </v>
   <v type="int" >       21 </v>
   <v type="int" >       22 </v>
   <v type="int" >       23 </v>
   <v type="int" >       24 </v>
   <v type="int" >       25 </v>
   <v type="int" >       26 </v>
   <v type="int" >       27 </v>
   <v type="int" >       28 </v>
   <v type="int" >       29 </v>
   <v type="int" >       30 </v>
   <v type="int" >       31 </v>
   <v type="int" >       32 </v>
   <v type="int" >       33 </v>
   <v type="int" >       34 </v>
   <v type="int" >       35 </v>
   <v type="int" >       36 </v>
   <v type="int" >       37 </v>
   <v type="int" >       38 </v>
   <v type="int" >       39 </v>
   <v type="int" >       40 </v>
   <v type="int" >       41 </v>
   <v type="int" >       42 </v>
   <v type="int" >       43 </v>
   <v type="int" >       44 </v>
   <v type="int" >       45 </v>
   <v type="int" >       46 </v>
   <v type="int" >       47 </v>
   <v type="int" >       48 </v>
   <v type="int" >       49 </v>
   <v type="int" >       50 </v>
   <v type="int" >       51 </v>
   <v type="int" >       52 </v>
   <v type="int" >       53 </v>
   <v type="int" >       54 </v>
   <v type="int" >       55 </v>
   <v type="int" >       56 </v>
   <v type="int" >       57 </v>
   <v type="int" >       58 </v>
   <v type="int" >       59 </v>
   <v type="int" >       60 </v>
   <v type="int" >       61 </v>
   <v type="int" >       62 </v>
   <v type="int" >       63 </v>
   <v type="int" >       64 </v>
   <v type="int" >       65 </v>
   <v type="int" >       66 </v>
   <v type="int" >       67 </v>
   <v type="int" >       68 </v>
   <v type="int" >       69 </v>
   <v type="int" >       70 </v>
   <v type="int" >       71 </v>
   <v type="int" >       72 </v>
   <v type="int" >       73 </v>
   <v type="int" >       74 </v>
   <v type="int" >       75 </v>
   <v type="int" >       76 </v>
   <v type="int" >       77 </v>
   <v type="int" >       78 </v>
   <v type="int" >       79 </v>
   <v type="int" >       80 </v>
   <v type="int" >       81 </v>
   <v type="int" >       82 </v>
   <v type="int" >       83 </v>
   <v type="int" >       84 </v>
   <v type="int" >       85 </v>
   <v type="int" >       86 </v>
   <v type="int" >       87 </v>
   <v type="int" >       88 </v>
   <v type="int" >       89 </v>
   <v type="int" >       90 </v>
   <v type="int" >       91 </v>
   <v type="int" >       92 </v>
  </varray>
 </primitive_cell>
 <kpoints>
  <generation param="Gamma">
   <v type="int" name="divisions">       1        4        1 </v>
   <v name="usershift">      0.00000000       0.00000000       0.00000000 </v>
   <v name="genvec1">      1.00000000       0.00000000       0.00000000 </v>
   <v name="genvec2">      0.00000000       0.25000000       0.00000000 </v>
   <v name="genvec3">      0.00000000       0.00000000       1.00000000 </v>
   <v name="shift">      0.00000000       0.00000000       0.00000000 </v>
  </generation>
  <varray name="kpointlist" >
   <v>       0.00000000       0.00000000       0.00000000 </v>
   <v>       0.00000000       0.25000000       0.00000000 </v>
   <v>       0.00000000       0.50000000       0.00000000 </v>
  </varray>
  <varray name="weights" >
   <v>       0.25000000 </v>
   <v>       0.50000000 </v>
   <v>       0.25000000 </v>
  </varray>
 </kpoints>
 <parameters>
  <separator name="general" >
   <i type="string" name="SYSTEM">unknown system</i>
   <i type="logical" name="LCOMPAT"> F  </i>
  </separator>
  <separator name="electronic" >
   <i type="string" name="PREC">accura</i>
   <i name="ENMAX">    500.00000000</i>
   <i name="ENAUG">    644.87300000</i>
   <i name="EDIFF">      0.00000100</i>
   <i type="int" name="IALGO">    38</i>
   <i type="int" name="IWAVPR">    10</i>
   <i type="int" name="NBANDS">   232</i>
   <i type="int" name="NBANDSLOW">    -1</i>
   <i type="int" name="NBANDSHIGH">    -1</i>
   <i name="NELECT">    368.00000000</i>
   <i type="int" name="TURBO">     0</i>
   <i type="int" name="IRESTART">     0</i>
   <i type="int" name="NREBOOT">     0</i>
   <i type="int" name="NMIN">     0</i>
   <i name="EREF">      0.00000000</i>
   <separator name="electronic smearing" >
    <i type="int" name="ISMEAR">     0</i>
    <i name="SIGMA">      0.20000000</i>
    <i name="KSPACING">      0.50000000</i>
    <i type="logical" name="KGAMMA"> T  </i>
    <i type="logical" name="KBLOWUP"> T  </i>
   </separator>
   <separator name="electronic projectors" >
    <i type="logical" name="LREAL"> T  </i>
    <v name="ROPT">     -0.00025000</v>
    <i type="int" name="LMAXPAW">  -100</i>
    <i type="int" name="LMAXMIX">     2</i>
    <i type="logical" name="NLSPLINE"> F  </i>
   </separator>
   <separator name="electronic startup" >
    <i type="int" name="ISTART">     0</i>
    <i type="int" name="ICHARG">     2</i>
    <i type="int" name="INIWAV">     1</i>
   </separator>
   <separator name="electronic spin" >
    <i type="int" name="ISPIN">     1</i>
    <i type="logical" name="LNONCOLLINEAR"> F  </i>
    <v name="MAGMOM">      1.00000000      1.00000000      1.00000000      1.00000000      1.00000000      1.00000000      1.00000000      1.00000000      1.00000000      1.00000000      1.00000000      1.00000000      1.00000000      1.00000000      1.00000000      1.00000000      1.00000000      1.00000000      1.00000000      1.00000000
      1.00000000      1.00000000      1.00000000      1.00000000      1.00000000      1.00000000      1.00000000      1.00000000      1.00000000      1.00000000      1.00000000      1.00000000      1.00000000      1.00000000      1.00000000      1.00000000      1.00000000      1.00000000      1.00000000      1.00000000
      1.00000000      1.00000000      1.00000000      1.00000000      1.00000000      1.00000000      1.00000000      1.00000000      1.00000000      1.00000000      1.00000000      1.00000000      1.00000000      1.00000000      1.00000000      1.00000000      1.00000000      1.00000000      1.00000000      1.00000000
      1.00000000      1.00000000      1.00000000      1.00000000      1.00000000      1.00000000      1.00000000      1.00000000      1.00000000      1.00000000      1.00000000      1.00000000      1.00000000      1.00000000      1.00000000      1.00000000      1.00000000      1.00000000      1.00000000      1.00000000
      1.00000000      1.00000000      1.00000000      1.00000000      1.00000000      1.00000000      1.00000000      1.00000000      1.00000000      1.00000000      1.00000000      1.00000000</v>
    <i name="NUPDOWN">     -1.00000000</i>
    <i type="logical" name="LSORBIT"> F  </i>
    <v name="SAXIS">      0.00000000      0.00000000      1.00000000</v>
    <i type="logical" name="LSPIRAL"> F  </i>
    <v name="QSPIRAL">      0.00000000      0.00000000      0.00000000</v>
    <i type="logical" name="LZEROZ"> F  </i>
   </separator>
   <separator name="electronic exchange-correlation" >
    <i type="logical" name="LASPH"> F  </i>
   </separator>
   <separator name="electronic convergence" >
    <i type="int" name="NELM">   150</i>
    <i type="int" name="NELMDL">    -5</i>
    <i type="int" name="NELMIN">     2</i>
    <i name="ENINI">    500.00000000</i>
    <separator name="electronic convergence detail" >
     <i type="logical" name="LDIAG"> T  </i>
     <i type="logical" name="LSUBROT"> F  </i>
     <i name="WEIMIN">      0.00000000</i>
     <i name="EBREAK">      0.00000000</i>
     <i name="DEPER">      0.30000000</i>
     <i type="int" name="NRMM">     4</i>
     <i name="TIME">      0.40000000</i>
    </separator>
   </separator>
   <separator name="electronic mixer" >
    <i name="AMIX">      0.40000000</i>
    <i name="BMIX">      1.00000000</i>
    <i name="AMIN">      0.10000000</i>
    <i name="AMIX_MAG">      1.60000000</i>
    <i name="BMIX_MAG">      1.00000000</i>
    <separator name="electronic mixer details" >
     <i type="int" name="IMIX">     4</i>
     <i type="logical" name="MIXFIRST"> F  </i>
     <i type="int" name="MAXMIX">   -45</i>
     <i name="WC">    100.00000000</i>
     <i type="int" name="INIMIX">     1</i>
     <i type="int" name="MIXPRE">     1</i>
     <i type="int" name="MREMOVE">     5</i>
    </separator>
   </separator>
   <separator name="electronic dipolcorrection" >
    <i type="logical" name="LDIPOL"> F  </i>
    <i type="logical" name="LMONO"> F  </i>
    <i type="int" name="IDIPOL">     0</i>
    <i name="EPSILON">      1.00000000</i>
    <v name="DIPOL">   -100.00000000   -100.00000000   -100.00000000</v>
    <i name="EFIELD">      0.00000000</i>
    <i type="logical" name="LVACPOTAV"> F  </i>
   </separator>
  </separator>
  <separator name="grids" >
   <i type="int" name="NGX">   210</i>
   <i type="int" name="NGY">    60</i>
   <i type="int" name="NGZ">   250</i>
   <i type="int" name="NGXF">   420</i>
   <i type="int" name="NGYF">   120</i>
   <i type="int" name="NGZF">   500</i>
   <i type="logical" name="ADDGRID"> F  </i>
  </separator>
  <separator name="ionic" >
   <i type="int" name="NSW">     0</i>
   <i type="int" name="IBRION">    -1</i>
   <i type="int" name="MDALGO">     0</i>
   <i type="int" name="ISIF">     2</i>
   <i name="PSTRESS">      0.00000000</i>
   <i name="EDIFFG">      0.00001000</i>
   <i type="int" name="NFREE">     0</i>
   <i name="POTIM">      0.50000000</i>
   <i name="SMASS">     -3.00000000</i>
   <i name="SCALEE">      1.00000000</i>
  </separator>
  <separator name="ionic md" >
   <i name="TEBEG">      0.00010000</i>
   <i name="TEEND">      0.00010000</i>
   <i type="int" name="NBLOCK">     1</i>
   <i type="int" name="KBLOCK">     1</i>
   <i type="int" name="NPACO">   256</i>
   <i name="APACO">     10.00000000</i>
  </separator>
  <separator name="symmetry" >
   <i type="int" name="ISYM">     2</i>
   <i name="SYMPREC">      0.00001000</i>
  </separator>
  <separator name="dos" >
   <i type="int" name="LORBIT">     0</i>
   <v name="RWIGS">     -1.00000000</v>
   <i type="int" name="NEDOS">   301</i>
   <i name="EMIN">     10.00000000</i>
   <i name="EMAX">    -10.00000000</i>
   <i name="EFERMI">      0.00000000</i>
  </separator>
  <separator name="writing" >
   <i type="int" name="NWRITE">     2</i>
   <i type="logical" name="LWAVE"> F  </i>
   <i type="logical" name="LDOWNSAMPLE"> F  </i>
   <i type="logical" name="LCHARG"> F  </i>
   <i type="logical" name="LPARD"> F  </i>
   <i type="logical" name="LVTOT"> F  </i>
   <i type="logical" name="LVHAR"> F  </i>
   <i type="logical" name="LELF"> F  </i>
   <i type="logical" name="LOPTICS"> F  </i>
   <v name="STM">      0.00000000      0.00000000      0.00000000      0.00000000      0.00000000      0.00000000      0.00000000</v>
  </separator>
  <separator name="performance" >
   <i type="int" name="NPAR">     2</i>
   <i type="int" name="NSIM">     4</i>
   <i type="int" name="NBLK">    -1</i>
   <i type="logical" name="LPLANE"> T  </i>
   <i type="logical" name="LSCALAPACK"> T  </i>
   <i type="logical" name="LSCAAWARE"> F  </i>
   <i type="logical" name="LSCALU"> F  </i>
   <i type="logical" name="LASYNC"> F  </i>
   <i type="logical" name="LORBITALREAL"> F  </i>
  </separator>
  <separator name="miscellaneous" >
   <i type="int" name="IDIOT">     3</i>
   <i type="int" name="PHON_NSTRUCT">    -1</i>
   <i type="logical" name="LMUSIC"> F  </i>
   <v name="POMASS">     12.01100000</v>
   <v name="DARWINR">      0.00000000</v>
   <v name="DARWINV">      1.00000000</v>
   <i type="logical" name="LCORR"> T  </i>
  </separator>
  <i type="logical" name="GGA_COMPAT"> T  </i>
  <i type="logical" name="LBERRY"> F  </i>
  <i type="int" name="ICORELEVEL">     0</i>
  <i type="logical" name="LDAU"> F  </i>
  <i type="int" name="I_CONSTRAINED_M">     0</i>
  <separator name="electronic exchange-correlation" >
   <i type="string" name="GGA    ">PE</i>
   <i type="string" name="XC_C">1</i>
   <i type="int" name="VOSKOWN">     0</i>
   <i type="logical" name="LHFCALC"> F  </i>
   <i type="string" name="PRECFOCK"></i>
   <i type="logical" name="LSYMGRAD"> F  </i>
   <i type="logical" name="LHFONE"> F  </i>
   <i type="logical" name="LRHFCALC"> F  </i>
   <i type="logical" name="LTHOMAS"> F  </i>
   <i type="logical" name="LMODELHF"> F  </i>
   <i type="logical" name="LFOCKACE"> F  </i>
   <i name="ENCUT4O">     -1.00000000</i>
   <i type="int" name="EXXOEP">     0</i>
   <i type="int" name="FOURORBIT">     0</i>
   <i name="AEXX">      0.00000000</i>
   <i name="HFALPHA">      0.00000000</i>
   <i name="MCALPHA">      0.00000000</i>
   <i name="ALDAX">      1.00000000</i>
   <i name="AGGAX">      1.00000000</i>
   <i name="AMGGAX">      1.00000000</i>
   <i name="ALDAC">      1.00000000</i>
   <i name="AGGAC">      1.00000000</i>
   <i name="AMGGAC">      1.00000000</i>
   <i type="int" name="NKREDX">     1</i>
   <i type="int" name="NKREDY">     1</i>
   <i type="int" name="NKREDZ">     1</i>
   <i type="logical" name="SHIFTRED"> F  </i>
   <i type="logical" name="ODDONLY"> F  </i>
   <i type="logical" name="EVENONLY"> F  </i>
   <i type="int" name="LMAXFOCK">     0</i>
   <i type="int" name="NMAXFOCKAE">     0</i>
   <i type="logical" name="LFOCKAEDFT"> F  </i>
   <i name="HFSCREEN">      0.00000000</i>
   <i name="HFSCREENC">      0.00000000</i>
   <i type="int" name="NBANDSGWLOW">     0</i>
  </separator>
  <separator name="vdW DFT" >
   <i type="logical" name="LUSE_VDW"> F  </i>
   <i type="int" name="IVDW_NL">    -1</i>
   <i type="logical" name="LSPIN_VDW"> F  </i>
   <i name="ZAB_VDW">     -0.84910000</i>
   <i name="GAMMA_VDW">      1.39626340</i>
   <i name="ALPHA_VDW">      0.00000000</i>
   <i name="PARAM1">      0.12340000</i>
   <i name="PARAM2">      1.00000000</i>
   <i name="BPARAM">      6.30000000</i>
   <i name="CPARAM">      0.00930000</i>
  </separator>
  <separator name="model GW" >
   <i type="int" name="MODEL_GW">     0</i>
   <i name="MODEL_EPS0">     49.63935326</i>
   <i name="MODEL_ALPHA">      1.00000000</i>
  </separator>
  <separator name="linear response parameters" >
   <i type="logical" name="LEPSILON"> F  </i>
   <i type="logical" name="LRPA"> F  </i>
   <i type="logical" name="LNABLA"> F  </i>
   <i type="logical" name="LVEL"> F  </i>
   <i name="CSHIFT">      0.10000000</i>
   <i name="OMEGAMAX">     -1.00000000</i>
   <i name="DEG_THRESHOLD">      0.00200000</i>
   <i name="RTIME">     -0.10000000</i>
   <i name="WPLASMAI">      0.00000000</i>
   <v name="DFIELD">      0.00000000      0.00000000      0.00000000</v>
   <v name="WPLASMA">      0.00000000      0.00000000      0.00000000      0.00000000      0.00000000      0.00000000      0.00000000      0.00000000      0.00000000</v>
  </separator>
  <separator name="orbital magnetization" >
   <i type="logical" name="NUCIND"> F  </i>
   <v name="MAGPOS">      0.00000000      0.00000000      0.00000000</v>
   <i type="logical" name="LNICSALL"> T  </i>
   <i type="logical" name="ORBITALMAG"> F  </i>
   <i type="logical" name="LMAGBLOCH"> F  </i>
   <i type="logical" name="LCHIMAG"> F  </i>
   <i type="logical" name="LGAUGE"> T  </i>
   <i type="int" name="MAGATOM">     0</i>
   <v name="MAGDIPOL">      0.00000000      0.00000000      0.00000000</v>
   <v name="AVECCONST">      0.00000000      0.00000000      0.00000000</v>
  </separator>
  <separator name="response functions" >
   <i type="logical" name="LALL_IN_ONE"> F  </i>
   <i type="int" name="IALL_IN_ONE">    -1</i>
   <i type="int" name="NBANDS_WAVE">    -1</i>
   <i type="logical" name="LFINITE_TEMPERATURE"> F  </i>
   <i type="logical" name="LADDER"> F  </i>
   <i type="logical" name="LRPAFORCE"> F  </i>
   <i type="logical" name="LFXC"> F  </i>
   <i type="logical" name="LHARTREE"> T  </i>
   <i type="int" name="IBSE">     2</i>
   <v type="int" name="KPOINT">    -1     0     0     0</v>
   <i type="logical" name="LTCTC"> F  </i>
   <i type="logical" name="LTCTE"> F  </i>
   <i type="logical" name="LTETE"> F  </i>
   <i type="logical" name="LTRIPLET"> F  </i>
   <i type="logical" name="LFXCEPS"> F  </i>
   <i type="logical" name="LFXHEG"> F  </i>
   <i type="int" name="NATURALO">     2</i>
   <i type="logical" name="LHOLEGF"> F  </i>
   <i type="logical" name="L2ORDER"> F  </i>
   <i type="logical" name="LDMP1"> F  </i>
   <i type="logical" name="LMP2LT"> F  </i>
   <i type="logical" name="LSMP2LT"> F  </i>
   <i type="logical" name="LGWLF"> F  </i>
   <i name="ENCUTGW">     -1.60000002</i>
   <i name="ENCUTGWSOFT">     -1.60000002</i>
   <i name="ENCUTLF">     -1.00000000</i>
   <i type="logical" name="ESF_SPLINES"> F  </i>
   <i name="ESF_CONV">      0.01000000</i>
   <i type="int" name="ESF_NINTER">    15</i>
   <i type="int" name="LMAXMP2">    -1</i>
   <i name="SCISSOR">      0.00000000</i>
   <i type="int" name="NOMEGA">     0</i>
   <i type="int" name="NOMEGAR">     0</i>
   <i type="int" name="NBANDSGW">    -1</i>
   <i type="int" name="NBANDSO">    -1</i>
   <i type="int" name="NBANDSV">    -1</i>
   <i type="int" name="NELMGW">     1</i>
   <i type="int" name="NELMHF">     1</i>
   <i type="int" name="DIM">     3</i>
   <i type="int" name="IESPILON">     4</i>
   <i type="int" name="ANTIRES">     0</i>
   <i name="OMEGAMAX">    -30.00000000</i>
   <i name="OMEGAMIN">    -30.00000000</i>
   <i name="OMEGATL">   -200.00000000</i>
   <i type="int" name="OMEGAGRID">     0</i>
   <i name="CSHIFT">     -0.10000000</i>
   <i type="logical" name="LSELFENERGY"> F  </i>
   <i type="logical" name="LSPECTRAL"> F  </i>
   <i type="logical" name="LSPECTRALGW"> F  </i>
   <i type="logical" name="LSINGLES"> F  </i>
   <i type="logical" name="LFERMIGW"> F  </i>
   <i type="logical" name="ODDONLYGW"> F  </i>
   <i type="logical" name="EVENONLYGW"> F  </i>
   <i type="int" name="NKREDLFX">     1</i>
   <i type="int" name="NKREDLFY">     1</i>
   <i type="int" name="NKREDLFZ">     1</i>
   <i type="int" name="MAXMEM">  2800</i>
   <i type="int" name="TELESCOPE">     0</i>
   <i type="int" name="NTAUPAR">    -1</i>
   <i type="int" name="NOMEGAPAR">    -1</i>
   <i name="DAMP_NEWTON">      0.80000001</i>
   <i name="LAMBDA">      1.00000000</i>
  </separator>
  <separator name="External order field" >
   <i name="OFIELD_KAPPA">      0.00000000</i>
   <v name="OFIELD_K">      0.00000000      0.00000000      0.00000000</v>
   <i name="OFIELD_Q6_NEAR">      0.00000000</i>
   <i name="OFIELD_Q6_FAR">      0.00000000</i>
   <i name="OFIELD_A">      0.00000000</i>
  </separator>
  <separator name="optional k-points parameters" >
   <i type="int" name="KPOINTS_OPT_MODE">     1</i>
   <i type="logical" name="LKPOINTS_OPT"> F  </i>
  </separator>
 </parameters>
 <atominfo>
  <atoms>      92 </atoms>
  <types>       1 </types>
  <array name="atoms" >
   <dimension dim="1">ion</dimension>
   <field type="string">element</field>
   <field type="int">atomtype</field>
   <set>
    <rc><c>C </c><c>   1</c></rc>
    <rc><c>C </c><c>   1</c></rc>
    <rc><c>C </c><c>   1</c></rc>
    <rc><c>C </c><c>   1</c></rc>
    <rc><c>C </c><c>   1</c></rc>
    <rc><c>C </c><c>   1</c></rc>
    <rc><c>C </c><c>   1</c></rc>
    <rc><c>C </c><c>   1</c></rc>
    <rc><c>C </c><c>   1</c></rc>
    <rc><c>C </c><c>   1</c></rc>
    <rc><c>C </c><c>   1</c></rc>
    <rc><c>C </c><c>   1</c></rc>
    <rc><c>C </c><c>   1</c></rc>
    <rc><c>C </c><c>   1</c></rc>
    <rc><c>C </c><c>   1</c></rc>
    <rc><c>C </c><c>   1</c></rc>
    <rc><c>C </c><c>   1</c></rc>
    <rc><c>C </c><c>   1</c></rc>
    <rc><c>C </c><c>   1</c></rc>
    <rc><c>C </c><c>   1</c></rc>
    <rc><c>C </c><c>   1</c></rc>
    <rc><c>C </c><c>   1</c></rc>
    <rc><c>C </c><c>   1</c></rc>
    <rc><c>C </c><c>   1</c></rc>
    <rc><c>C </c><c>   1</c></rc>
    <rc><c>C </c><c>   1</c></rc>
    <rc><c>C </c><c>   1</c></rc>
    <rc><c>C </c><c>   1</c></rc>
    <rc><c>C </c><c>   1</c></rc>
    <rc><c>C </c><c>   1</c></rc>
    <rc><c>C </c><c>   1</c></rc>
    <rc><c>C </c><c>   1</c></rc>
    <rc><c>C </c><c>   1</c></rc>
    <rc><c>C </c><c>   1</c></rc>
    <rc><c>C </c><c>   1</c></rc>
    <rc><c>C </c><c>   1</c></rc>
    <rc><c>C </c><c>   1</c></rc>
    <rc><c>C </c><c>   1</c></rc>
    <rc><c>C </c><c>   1</c></rc>
    <rc><c>C </c><c>   1</c></rc>
    <rc><c>C </c><c>   1</c></rc>
    <rc><c>C </c><c>   1</c></rc>
    <rc><c>C </c><c>   1</c></rc>
    <rc><c>C </c><c>   1</c></rc>
    <rc><c>C </c><c>   1</c></rc>
    <rc><c>C </c><c>   1</c></rc>
    <rc><c>C </c><c>   1</c></rc>
    <rc><c>C </c><c>   1</c></rc>
    <rc><c>C </c><c>   1</c></rc>
    <rc><c>C </c><c>   1</c></rc>
    <rc><c>C </c><c>   1</c></rc>
    <rc><c>C </c><c>   1</c></rc>
    <rc><c>C </c><c>   1</c></rc>
    <rc><c>C </c><c>   1</c></rc>
    <rc><c>C </c><c>   1</c></rc>
    <rc><c>C </c><c>   1</c></rc>
    <rc><c>C </c><c>   1</c></rc>
    <rc><c>C </c><c>   1</c></rc>
    <rc><c>C </c><c>   1</c></rc>
    <rc><c>C </c><c>   1</c></rc>
    <rc><c>C </c><c>   1</c></rc>
    <rc><c>C </c><c>   1</c></rc>
    <rc><c>C </c><c>   1</c></rc>
    <rc><c>C </c><c>   1</c></rc>
    <rc><c>C </c><c>   1</c></rc>
    <rc><c>C </c><c>   1</c></rc>
    <rc><c>C </c><c>   1</c></rc>
    <rc><c>C </c><c>   1</c></rc>
    <rc><c>C </c><c>   1</c></rc>
    <rc><c>C </c><c>   1</c></rc>
    <rc><c>C </c><c>   1</c></rc>
    <rc><c>C </c><c>   1</c></rc>
    <rc><c>C </c><c>   1</c></rc>
    <rc><c>C </c><c>   1</c></rc>
    <rc><c>C </c><c>   1</c></rc>
    <rc><c>C </c><c>   1</c></rc>
    <rc><c>C </c><c>   1</c></rc>
    <rc><c>C </c><c>   1</c></rc>
    <rc><c>C </c><c>   1</c></rc>
    <rc><c>C </c><c>   1</c></rc>
    <rc><c>C </c><c>   1</c></rc>
    <rc><c>C </c><c>   1</c></rc>
    <rc><c>C </c><c>   1</c></rc>
    <rc><c>C </c><c>   1</c></rc>
    <rc><c>C </c><c>   1</c></rc>
    <rc><c>C </c><c>   1</c></rc>
    <rc><c>C </c><c>   1</c></rc>
    <rc><c>C </c><c>   1</c></rc>
    <rc><c>C </c><c>   1</c></rc>
    <rc><c>C </c><c>   1</c></rc>
    <rc><c>C </c><c>   1</c></rc>
    <rc><c>C </c><c>   1</c></rc>
   </set>
  </array>
  <array name="atomtypes" >
   <dimension dim="1">type</dimension>
   <field type="int">atomspertype</field>
   <field type="string">element</field>
   <field>mass</field>
   <field>valence</field>
   <field type="string">pseudopotential</field>
   <set>
    <rc><c>  92</c><c>C </c><c>     12.01100000</c><c>      4.00000000</c><c>  PAW_PBE C 08Apr2002                   </c></rc>
   </set>
  </array>
 </atominfo>
 <structure name="initialpos" >
  <crystal>
   <varray name="basis" >
    <v>      28.05000000       0.00000000       0.00000000 </v>
    <v>       0.00000000       8.10000000       0.00000000 </v>
    <v>       0.00000000       0.00000000      33.50000000 </v>
   </varray>
   <i name="volume">   7611.36750000 </i>
   <varray name="rec_basis" >
    <v>       0.03565062       0.00000000       0.00000000 </v>
    <v>       0.00000000       0.12345679       0.00000000 </v>
    <v>       0.00000000       0.00000000       0.02985075 </v>
   </varray>
  </crystal>
  <varray name="positions" >
   <v>       0.00474863       0.09693420       0.45186866 </v>
   <v>       0.00527152       0.27272963       0.45328657 </v>
   <v>       0.04916684       0.01169133       0.44622687 </v>
   <v>       0.04961355       0.34738642       0.45043881 </v>
   <v>       0.09263850       0.10097802       0.43976418 </v>
   <v>       0.09295971       0.27078889       0.44130448 </v>
   <v>       0.13781426       0.01906593       0.44444478 </v>
   <v>       0.13841961       0.35293086       0.44582687 </v>
   <v>       0.18218645       0.10206605       0.44676716 </v>
   <v>       0.18171658       0.27394198       0.45187761 </v>
   <v>       0.22716435       0.02799988       0.45539701 </v>
   <v>       0.22623173       0.35882346       0.46020299 </v>
   <v>       0.27046774       0.10869938       0.46558507 </v>
   <v>       0.27050909       0.28112469       0.46798507 </v>
   <v>       0.31348592       0.02143951       0.47695522 </v>
   <v>       0.31346702       0.35865309       0.48207761 </v>
   <v>       0.35570624       0.10228642       0.48940299 </v>
   <v>       0.35454688       0.27214198       0.49380597 </v>
   <v>       0.39487344       0.02280407       0.50811343 </v>
   <v>       0.39058111       0.36044444       0.51622090 </v>
   <v>       0.43678431       0.10787284       0.51947761 </v>
   <v>       0.43517291       0.27601605       0.52050746 </v>
   <v>       0.47915865       0.03164148       0.53440000 </v>
   <v>       0.47955793       0.35926049       0.52955224 </v>
   <v>       0.52372549       0.10517420       0.53641194 </v>
   <v>       0.52215686       0.27384074       0.53642687 </v>
   <v>       0.56658111       0.02249765       0.54291940 </v>
   <v>       0.56590731       0.35551358       0.54158209 </v>
   <v>       0.61052406       0.10646160       0.54148060 </v>
   <v>       0.60855258       0.27144074       0.53834925 </v>
   <v>       0.65601426       0.01769963       0.54085672 </v>
   <v>       0.65314795       0.35918519       0.53399104 </v>
   <v>       0.69981818       0.10136765       0.53195522 </v>
   <v>       0.69764706       0.27251235       0.52738209 </v>
   <v>       0.74250267       0.01626877       0.52918209 </v>
   <v>       0.74297683       0.35594074       0.52399701 </v>
   <v>       0.78615330       0.10275136       0.51620299 </v>
   <v>       0.78541533       0.27342593       0.51404478 </v>
   <v>       0.83152228       0.01480852       0.51083582 </v>
   <v>       0.83032799       0.35741852       0.50754627 </v>
   <v>       0.87391800       0.09711469       0.49652836 </v>
   <v>       0.87400713       0.27169630       0.49648060 </v>
   <v>       0.91498396       0.01990914       0.48347761 </v>
   <v>       0.91632799       0.34786173       0.48681791 </v>
   <v>       0.95504813       0.10368728       0.46702388 </v>
   <v>       0.95551872       0.27579012       0.46680299 </v>
   <v>       0.00773241       0.59943333       0.46949552 </v>
   <v>       0.00797750       0.77014815       0.46807164 </v>
   <v>       0.04991551       0.52028148       0.45905075 </v>
   <v>       0.04988307       0.84980617       0.45454328 </v>
   <v>       0.09403102       0.60376049       0.45815522 </v>
   <v>       0.09365811       0.77294568       0.45780896 </v>
   <v>       0.13674759       0.52235432       0.45053731 </v>
   <v>       0.13793155       0.85366914       0.45002388 </v>
   <v>       0.18021533       0.60439383       0.45910746 </v>
   <v>       0.18244777       0.77523333       0.45537612 </v>
   <v>       0.22343708       0.52716049       0.46651642 </v>
   <v>       0.22709269       0.85595556       0.45703582 </v>
   <v>       0.26574510       0.60659259       0.47890149 </v>
   <v>       0.26930339       0.77333827       0.47577612 </v>
   <v>       0.30722674       0.52461235       0.49125373 </v>
   <v>       0.31094510       0.85974568       0.48582090 </v>
   <v>       0.34531800       0.60472840       0.51070149 </v>
   <v>       0.34886631       0.77281358       0.50605970 </v>
   <v>       0.38782175       0.52504074       0.52222985 </v>
   <v>       0.39133333       0.85673951       0.51534925 </v>
   <v>       0.43205348       0.60774444       0.53068955 </v>
   <v>       0.43457398       0.77941852       0.52922090 </v>
   <v>       0.47429590       0.52227160       0.53858507 </v>
   <v>       0.47696257       0.86175679       0.53994925 </v>
   <v>       0.52096613       0.60711975       0.54388657 </v>
   <v>       0.51993583       0.77514198       0.54913134 </v>
   <v>       0.56417112       0.52314074       0.54658507 </v>
   <v>       0.56606774       0.85441975       0.54914030 </v>
   <v>       0.60911943       0.60165926       0.54985075 </v>
   <v>       0.60901248       0.77453580       0.55038507 </v>
   <v>       0.65360784       0.51897037       0.54368358 </v>
   <v>       0.65641355       0.85845185       0.54677612 </v>
   <v>       0.69960784       0.60143457       0.54362090 </v>
   <v>       0.70144029       0.76898889       0.54572836 </v>
   <v>       0.74239216       0.51900247       0.53390448 </v>
   <v>       0.74526203       0.84794198       0.53451642 </v>
   <v>       0.78778610       0.60044691       0.52972239 </v>
   <v>       0.79004991       0.76866420       0.53293134 </v>
   <v>       0.83026381       0.52398025       0.51589851 </v>
   <v>       0.83360784       0.85238765       0.52024478 </v>
   <v>       0.87540463       0.60246914       0.50777910 </v>
   <v>       0.87793939       0.77168025       0.51082985 </v>
   <v>       0.91857398       0.51421852       0.49206567 </v>
   <v>       0.91662389       0.85163086       0.49176119 </v>
   <v>       0.95952585       0.59944815       0.48499104 </v>
   <v>       0.95963993       0.77558765       0.48405970 </v>
  </varray>
 </structure>
 <calculation>
  <scstep>
   <time name="dav">   11.16   11.17</time>
   <time name="total">   11.62   11.65</time>
   <energy>
    <i name="alphaZ">     91.34886789 </i>
    <i name="ewald"> 119081.22751720 </i>
    <i name="hartreedc">-128431.82003453 </i>
    <i name="XCdc">   1219.87937726 </i>
    <i name="pawpsdc">   9984.02826696 </i>
    <i name="pawaedc"> -10036.41360137 </i>
    <i name="eentropy">     -0.85718769 </i>
    <i name="bandstr">  -1834.56366544 </i>
    <i name="atom">  13537.65479391 </i>
    <i name="e_fr_energy">   3610.48433419 </i>
    <i name="e_wo_entrp">   3611.34152188 </i>
    <i name="e_0_energy">   3610.91292804 </i>
   </energy>
  </scstep>
  <scstep>
   <time name="dav">   13.14   13.14</time>
   <time name="total">   13.14   13.14</time>
   <energy>
    <i name="e_fr_energy">    163.42538912 </i>
    <i name="e_wo_entrp">    163.64045375 </i>
    <i name="e_0_energy">    163.53292144 </i>
   </energy>
  </scstep>
  <scstep>
   <time name="dav">   11.37   11.37</time>
   <time name="total">   11.37   11.37</time>
   <energy>
    <i name="e_fr_energy">   -833.51728821 </i>
    <i name="e_wo_entrp">   -833.48222390 </i>
    <i name="e_0_energy">   -833.49975606 </i>
   </energy>
  </scstep>
  <scstep>
   <time name="dav">   10.91   10.92</time>
   <time name="total">   10.91   10.92</time>
   <energy>
    <i name="e_fr_energy">   -894.65269849 </i>
    <i name="e_wo_entrp">   -894.58694176 </i>
    <i name="e_0_energy">   -894.61982012 </i>
   </energy>
  </scstep>
  <scstep>
   <time name="dav">   11.42   11.42</time>
   <time name="total">   12.90   12.91</time>
   <energy>
    <i name="e_fr_energy">   -896.18273250 </i>
    <i name="e_wo_entrp">   -896.11662364 </i>
    <i name="e_0_energy">   -896.14967807 </i>
   </energy>
  </scstep>
  <scstep>
   <time name="dav">   10.14   10.15</time>
   <time name="total">   11.94   11.95</time>
   <energy>
    <i name="e_fr_energy">   -847.58041998 </i>
    <i name="e_wo_entrp">   -847.51536371 </i>
    <i name="e_0_energy">   -847.54789185 </i>
   </energy>
  </scstep>
  <scstep>
   <time name="dav">   10.15   10.15</time>
   <time name="total">   11.95   11.95</time>
   <energy>
    <i name="e_fr_energy">   -829.50441017 </i>
    <i name="e_wo_entrp">   -829.43093353 </i>
    <i name="e_0_energy">   -829.46767185 </i>
   </energy>
  </scstep>
  <scstep>
   <time name="dav">   10.43   10.43</time>
   <time name="total">   12.23   12.24</time>
   <energy>
    <i name="e_fr_energy">   -829.22941177 </i>
    <i name="e_wo_entrp">   -829.16075672 </i>
    <i name="e_0_energy">   -829.19508425 </i>
   </energy>
  </scstep>
  <scstep>
   <time name="dav">   10.59   10.60</time>
   <time name="total">   12.40   12.40</time>
   <energy>
    <i name="e_fr_energy">   -829.12526577 </i>
    <i name="e_wo_entrp">   -829.05541880 </i>
    <i name="e_0_energy">   -829.09034229 </i>
   </energy>
  </scstep>
  <scstep>
   <time name="dav">   11.15   11.15</time>
   <time name="total">   12.96   12.97</time>
   <energy>
    <i name="e_fr_energy">   -829.09051600 </i>
    <i name="e_wo_entrp">   -829.02051648 </i>
    <i name="e_0_energy">   -829.05551624 </i>
   </energy>
  </scstep>
  <scstep>
   <time name="dav">   10.21   10.22</time>
   <time name="total">   12.04   12.05</time>
   <energy>
    <i name="e_fr_energy">   -829.06011129 </i>
    <i name="e_wo_entrp">   -828.99018127 </i>
    <i name="e_0_energy">   -829.02514628 </i>
   </energy>
  </scstep>
  <scstep>
   <time name="dav">   10.05   10.05</time>
   <time name="total">   11.87   11.88</time>
   <energy>
    <i name="e_fr_energy">   -829.05641161 </i>
    <i name="e_wo_entrp">   -828.98628981 </i>
    <i name="e_0_energy">   -829.02135071 </i>
   </energy>
  </scstep>
  <scstep>
   <time name="dav">    9.96    9.96</time>
   <time name="total">   11.79   11.80</time>
   <energy>
    <i name="e_fr_energy">   -829.06924059 </i>
    <i name="e_wo_entrp">   -828.99930935 </i>
    <i name="e_0_energy">   -829.03427497 </i>
   </energy>
  </scstep>
  <scstep>
   <time name="dav">   10.34   10.34</time>
   <time name="total">   12.17   12.18</time>
   <energy>
    <i name="e_fr_energy">   -829.08350807 </i>
    <i name="e_wo_entrp">   -829.01351728 </i>
    <i name="e_0_energy">   -829.04851267 </i>
   </energy>
  </scstep>
  <scstep>
   <time name="dav">   10.13   10.13</time>
   <time name="total">   11.98   11.98</time>
   <energy>
    <i name="e_fr_energy">   -829.10348510 </i>
    <i name="e_wo_entrp">   -829.03339832 </i>
    <i name="e_0_energy">   -829.06844171 </i>
   </energy>
  </scstep>
  <scstep>
   <time name="dav">   10.37   10.38</time>
   <time name="total">   12.24   12.25</time>
   <energy>
    <i name="e_fr_energy">   -829.11340083 </i>
    <i name="e_wo_entrp">   -829.04336653 </i>
    <i name="e_0_energy">   -829.07838368 </i>
   </energy>
  </scstep>
  <scstep>
   <time name="dav">   10.40   10.41</time>
   <time name="total">   12.27   12.28</time>
   <energy>
    <i name="e_fr_energy">   -829.11866371 </i>
    <i name="e_wo_entrp">   -829.04861923 </i>
    <i name="e_0_energy">   -829.08364147 </i>
   </energy>
  </scstep>
  <scstep>
   <time name="dav">   10.61   10.62</time>
   <time name="total">   12.49   12.50</time>
   <energy>
    <i name="e_fr_energy">   -829.12058754 </i>
    <i name="e_wo_entrp">   -829.05054678 </i>
    <i name="e_0_energy">   -829.08556716 </i>
   </energy>
  </scstep>
  <scstep>
   <time name="dav">    9.22    9.23</time>
   <time name="total">   11.11   11.12</time>
   <energy>
    <i name="e_fr_energy">   -829.12171441 </i>
    <i name="e_wo_entrp">   -829.05167574 </i>
    <i name="e_0_energy">   -829.08669507 </i>
   </energy>
  </scstep>
  <scstep>
   <time name="dav">    9.07    9.07</time>
   <time name="total">   10.97   10.98</time>
   <energy>
    <i name="e_fr_energy">   -829.12226538 </i>
    <i name="e_wo_entrp">   -829.05222496 </i>
    <i name="e_0_energy">   -829.08724517 </i>
   </energy>
  </scstep>
  <scstep>
   <time name="dav">    8.85    8.85</time>
   <time name="total">   10.77   10.78</time>
   <energy>
    <i name="e_fr_energy">   -829.12248313 </i>
    <i name="e_wo_entrp">   -829.05244199 </i>
    <i name="e_0_energy">   -829.08746256 </i>
   </energy>
  </scstep>
  <scstep>
   <time name="dav">    7.34    7.35</time>
   <time name="total">    9.27    9.28</time>
   <energy>
    <i name="e_fr_energy">   -829.12257853 </i>
    <i name="e_wo_entrp">   -829.05253781 </i>
    <i name="e_0_energy">   -829.08755817 </i>
   </energy>
  </scstep>
  <scstep>
   <time name="dav">    7.38    7.38</time>
   <time name="total">    9.32    9.32</time>
   <energy>
    <i name="e_fr_energy">   -829.12262350 </i>
    <i name="e_wo_entrp">   -829.05258227 </i>
    <i name="e_0_energy">   -829.08760288 </i>
   </energy>
  </scstep>
  <scstep>
   <time name="dav">    7.30    7.31</time>
   <time name="total">    9.26    9.26</time>
   <energy>
    <i name="e_fr_energy">   -829.12264340 </i>
    <i name="e_wo_entrp">   -829.05260215 </i>
    <i name="e_0_energy">   -829.08762278 </i>
   </energy>
  </scstep>
  <scstep>
   <time name="dav">    7.07    7.07</time>
   <time name="total">    9.04    9.05</time>
   <energy>
    <i name="e_fr_energy">   -829.12264896 </i>
    <i name="e_wo_entrp">   -829.05260787 </i>
    <i name="e_0_energy">   -829.08762842 </i>
   </energy>
  </scstep>
  <scstep>
   <time name="dav">    6.86    6.86</time>
   <time name="total">    8.85    8.86</time>
   <energy>
    <i name="e_fr_energy">   -829.12265438 </i>
    <i name="e_wo_entrp">   -829.05261338 </i>
    <i name="e_0_energy">   -829.08763388 </i>
   </energy>
  </scstep>
  <scstep>
   <time name="dav">    7.15    7.15</time>
   <time name="total">    9.15    9.15</time>
   <energy>
    <i name="e_fr_energy">   -829.12265570 </i>
    <i name="e_wo_entrp">   -829.05261469 </i>
    <i name="e_0_energy">   -829.08763520 </i>
   </energy>
  </scstep>
  <scstep>
   <time name="dav">    7.11    7.11</time>
   <time name="total">    9.13    9.14</time>
   <energy>
    <i name="e_fr_energy">   -829.12265759 </i>
    <i name="e_wo_entrp">   -829.05261655 </i>
    <i name="e_0_energy">   -829.08763707 </i>
   </energy>
  </scstep>
  <scstep>
   <time name="dav">    7.14    7.15</time>
   <time name="total">    9.18    9.19</time>
   <energy>
    <i name="e_fr_energy">   -829.12265875 </i>
    <i name="e_wo_entrp">   -829.05261769 </i>
    <i name="e_0_energy">   -829.08763822 </i>
   </energy>
  </scstep>
  <scstep>
   <time name="dav">    7.03    7.03</time>
   <time name="total">    7.39    7.39</time>
   <energy>
    <i name="alphaZ">     91.34886789 </i>
    <i name="ewald"> 119081.22751720 </i>
    <i name="hartreedc">-130170.54930469 </i>
    <i name="XCdc">   1276.64162527 </i>
    <i name="pawpsdc">  40595.16976795 </i>
    <i name="pawaedc"> -40659.04851515 </i>
    <i name="eentropy">     -0.07004107 </i>
    <i name="bandstr">  -4581.49737061 </i>
    <i name="atom">  13537.65479391 </i>
    <i name="e_fr_energy">   -829.12265931 </i>
    <i name="e_wo_entrp">   -829.05261823 </i>
    <i name="e_0_energy">   -829.08763877 </i>
   </energy>
  </scstep>
  <structure>
   <crystal>
    <varray name="basis" >
     <v>      28.05000000       0.00000000       0.00000000 </v>
     <v>       0.00000000       8.10000000       0.00000000 </v>
     <v>       0.00000000       0.00000000      33.50000000 </v>
    </varray>
    <i name="volume">   7611.36750000 </i>
    <varray name="rec_basis" >
     <v>       0.03565062       0.00000000       0.00000000 </v>
     <v>       0.00000000       0.12345679       0.00000000 </v>
     <v>       0.00000000       0.00000000       0.02985075 </v>
    </varray>
   </crystal>
   <varray name="positions" >
    <v>       0.00474863       0.09693420       0.45186866 </v>
    <v>       0.00527152       0.27272963       0.45328657 </v>
    <v>       0.04916684       0.01169133       0.44622687 </v>
    <v>       0.04961355       0.34738642       0.45043881 </v>
    <v>       0.09263850       0.10097802       0.43976418 </v>
    <v>       0.09295971       0.27078889       0.44130448 </v>
    <v>       0.13781426       0.01906593       0.44444478 </v>
    <v>       0.13841961       0.35293086       0.44582687 </v>
    <v>       0.18218645       0.10206605       0.44676716 </v>
    <v>       0.18171658       0.27394198       0.45187761 </v>
    <v>       0.22716435       0.02799988       0.45539701 </v>
    <v>       0.22623173       0.35882346       0.46020299 </v>
    <v>       0.27046774       0.10869938       0.46558507 </v>
    <v>       0.27050909       0.28112469       0.46798507 </v>
    <v>       0.31348592       0.02143951       0.47695522 </v>
    <v>       0.31346702       0.35865309       0.48207761 </v>
    <v>       0.35570624       0.10228642       0.48940299 </v>
    <v>       0.35454688       0.27214198       0.49380597 </v>
    <v>       0.39487344       0.02280407       0.50811343 </v>
    <v>       0.39058111       0.36044444       0.51622090 </v>
    <v>       0.43678431       0.10787284       0.51947761 </v>
    <v>       0.43517291       0.27601605       0.52050746 </v>
    <v>       0.47915865       0.03164148       0.53440000 </v>
    <v>       0.47955793       0.35926049       0.52955224 </v>
    <v>       0.52372549       0.10517420       0.53641194 </v>
    <v>       0.52215686       0.27384074       0.53642687 </v>
    <v>       0.56658111       0.02249765       0.54291940 </v>
    <v>       0.56590731       0.35551358       0.54158209 </v>
    <v>       0.61052406       0.10646160       0.54148060 </v>
    <v>       0.60855258       0.27144074       0.53834925 </v>
    <v>       0.65601426       0.01769963       0.54085672 </v>
    <v>       0.65314795       0.35918519       0.53399104 </v>
    <v>       0.69981818       0.10136765       0.53195522 </v>
    <v>       0.69764706       0.27251235       0.52738209 </v>
    <v>       0.74250267       0.01626877       0.52918209 </v>
    <v>       0.74297683       0.35594074       0.52399701 </v>
    <v>       0.78615330       0.10275136       0.51620299 </v>
    <v>       0.78541533       0.27342593       0.51404478 </v>
    <v>       0.83152228       0.01480852       0.51083582 </v>
    <v>       0.83032799       0.35741852       0.50754627 </v>
    <v>       0.87391800       0.09711469       0.49652836 </v>
    <v>       0.87400713       0.27169630       0.49648060 </v>
    <v>       0.91498396       0.01990914       0.48347761 </v>
    <v>       0.91632799       0.34786173       0.48681791 </v>
    <v>       0.95504813       0.10368728       0.46702388 </v>
    <v>       0.95551872       0.27579012       0.46680299 </v>
    <v>       0.00773241       0.59943333       0.46949552 </v>
    <v>       0.00797750       0.77014815       0.46807164 </v>
    <v>       0.04991551       0.52028148       0.45905075 </v>
    <v>       0.04988307       0.84980617       0.45454328 </v>
    <v>       0.09403102       0.60376049       0.45815522 </v>
    <v>       0.09365811       0.77294568       0.45780896 </v>
    <v>       0.13674759       0.52235432       0.45053731 </v>
    <v>       0.13793155       0.85366914       0.45002388 </v>
    <v>       0.18021533       0.60439383       0.45910746 </v>
    <v>       0.18244777       0.77523333       0.45537612 </v>
    <v>       0.22343708       0.52716049       0.46651642 </v>
    <v>       0.22709269       0.85595556       0.45703582 </v>
    <v>       0.26574510       0.60659259       0.47890149 </v>
    <v>       0.26930339       0.77333827       0.47577612 </v>
    <v>       0.30722674       0.52461235       0.49125373 </v>
    <v>       0.31094510       0.85974568       0.48582090 </v>
    <v>       0.34531800       0.60472840       0.51070149 </v>
    <v>       0.34886631       0.77281358       0.50605970 </v>
    <v>       0.38782175       0.52504074       0.52222985 </v>
    <v>       0.39133333       0.85673951       0.51534925 </v>
    <v>       0.43205348       0.60774444       0.53068955 </v>
    <v>       0.43457398       0.77941852       0.52922090 </v>
    <v>       0.47429590       0.52227160       0.53858507 </v>
    <v>       0.47696257       0.86175679       0.53994925 </v>
    <v>       0.52096613       0.60711975       0.54388657 </v>
    <v>       0.51993583       0.77514198       0.54913134 </v>
    <v>       0.56417112       0.52314074       0.54658507 </v>
    <v>       0.56606774       0.85441975       0.54914030 </v>
    <v>       0.60911943       0.60165926       0.54985075 </v>
    <v>       0.60901248       0.77453580       0.55038507 </v>
    <v>       0.65360784       0.51897037       0.54368358 </v>
    <v>       0.65641355       0.85845185       0.54677612 </v>
    <v>       0.69960784       0.60143457       0.54362090 </v>
    <v>       0.70144029       0.76898889       0.54572836 </v>
    <v>       0.74239216       0.51900247       0.53390448 </v>
    <v>       0.74526203       0.84794198       0.53451642 </v>
    <v>       0.78778610       0.60044691       0.52972239 </v>
    <v>       0.79004991       0.76866420       0.53293134 </v>
    <v>       0.83026381       0.52398025       0.51589851 </v>
    <v>       0.83360784       0.85238765       0.52024478 </v>
    <v>       0.87540463       0.60246914       0.50777910 </v>
    <v>       0.87793939       0.77168025       0.51082985 </v>
    <v>       0.91857398       0.51421852       0.49206567 </v>
    <v>       0.91662389       0.85163086       0.49176119 </v>
    <v>       0.95952585       0.59944815       0.48499104 </v>
    <v>       0.95963993       0.77558765       0.48405970 </v>
   </varray>
  </structure>
  <varray name="forces" >
   <v>       2.08885328       1.32922582      -0.76094952 </v>
   <v>       2.12335467      -2.26925963      -0.79518575 </v>
   <v>      -1.93548429       3.54612849      -0.24497539 </v>
   <v>      -1.15692127       2.95199741       0.15939367 </v>
   <v>       0.47599228      -0.78038450       0.54881421 </v>
   <v>       0.75399362      -0.48356521       0.37638518 </v>
   <v>      -0.22808381       1.38250725      -1.02510177 </v>
   <v>      -1.54893754       0.58707638       0.15779438 </v>
   <v>       0.85095660       1.33339504       0.88780102 </v>
   <v>       1.49205793      -0.71545151      -1.30530482 </v>
   <v>      -0.17152107      -1.34605752      -0.38606032 </v>
   <v>      -0.86425900      -0.37554027       0.64663144 </v>
   <v>       0.63757870       0.28840326      -0.38271252 </v>
   <v>       0.38943632      -1.47335753      -0.47170218 </v>
   <v>      -0.35644459       2.14638065      -0.01592610 </v>
   <v>      -2.06371488       0.01892494       0.24342692 </v>
   <v>       0.25204472       0.82693771       0.64350215 </v>
   <v>      -0.25810331       1.39240949       0.72919182 </v>
   <v>      -0.34175156       0.05450664      -0.48205378 </v>
   <v>       0.94117018      -3.02736707      -1.90420664 </v>
   <v>       0.12923181      -0.48837474       0.23626477 </v>
   <v>       0.93923753       1.50433782       0.35208377 </v>
   <v>      -1.25887541      -1.90571270      -1.04290917 </v>
   <v>      -2.63647906      -1.39703697       0.90965635 </v>
   <v>      -0.85317427       0.55626595       0.53451923 </v>
   <v>       0.97525488       0.81181016      -0.60739490 </v>
   <v>       0.54585151       0.17205218       0.31809734 </v>
   <v>      -1.50045183      -0.17134748      -0.33397378 </v>
   <v>       0.64162536      -2.57138249      -0.48656752 </v>
   <v>       2.39487299       1.82739084      -0.30052259 </v>
   <v>      -0.66995484       4.61103991      -0.59211428 </v>
   <v>       0.42966938      -3.25659966       0.25277641 </v>
   <v>      -1.85143964       0.57122203      -0.01117815 </v>
   <v>       0.49467960       0.10953631       0.29780036 </v>
   <v>       2.76973912       1.34262542      -1.33932147 </v>
   <v>      -1.94574328      -1.12381987      -0.03632195 </v>
   <v>       0.09832928      -1.58076390       0.44866613 </v>
   <v>       1.43409779      -0.28956494      -0.22444343 </v>
   <v>      -1.10929376       2.34494854      -0.07309381 </v>
   <v>      -0.34679840      -1.23209256       0.29704624 </v>
   <v>      -1.72033537       2.08989101      -0.05361578 </v>
   <v>      -2.28380344      -1.64962090       0.28563938 </v>
   <v>       1.29233021      -0.25441313      -0.19228861 </v>
   <v>       1.64371387       0.57465605      -1.70021561 </v>
   <v>      -2.12782733      -0.38165739       0.22105235 </v>
   <v>      -2.16057965      -1.73005814       1.46352922 </v>
   <v>       2.36947260       0.39527296      -0.27096272 </v>
   <v>       1.90018049      -0.02429260      -0.67868337 </v>
   <v>      -0.19872009      -1.84431505       0.22266058 </v>
   <v>      -1.44944913      -1.08700415       1.67955167 </v>
   <v>      -1.14062306      -0.51961988      -0.73502019 </v>
   <v>       1.32616517      -0.32674113      -1.19646407 </v>
   <v>       1.24588218      -0.29573970       1.46304103 </v>
   <v>      -0.06444348      -0.72596212       0.77341143 </v>
   <v>       0.22787214       0.80174969      -0.56340202 </v>
   <v>      -0.39186009      -0.40400782      -0.02528635 </v>
   <v>       0.53005900      -1.18547471      -0.32806712 </v>
   <v>       1.13390321      -0.33786700       2.09025252 </v>
   <v>       0.08783660      -0.14713246       0.20874927 </v>
   <v>      -2.53895241       1.90135648      -1.63881644 </v>
   <v>       0.75585445      -1.00669638       0.57623472 </v>
   <v>       0.07700522      -2.83652433       0.58585287 </v>
   <v>       0.45775212       0.53066937      -0.61582443 </v>
   <v>      -0.64427097       1.61082333      -0.58437788 </v>
   <v>       0.61460010       0.93123042      -0.02273088 </v>
   <v>       1.50276571      -0.40590275       0.43950437 </v>
   <v>      -0.58751633       0.23475242       0.80398352 </v>
   <v>      -1.54392602      -0.71403482       0.53823925 </v>
   <v>       3.24403597       1.44436606      -0.85736092 </v>
   <v>       0.24674513      -0.21558465      -0.29182702 </v>
   <v>      -2.70445868      -0.50281386       1.22996034 </v>
   <v>       0.84437212       0.50236373      -1.02814144 </v>
   <v>       1.39985570       0.28929312      -0.26435208 </v>
   <v>      -1.88539511       0.59364528       0.17488873 </v>
   <v>       0.32694585       1.14682699      -0.20475990 </v>
   <v>       3.26690363      -1.16982793       0.34670967 </v>
   <v>       0.69121970       2.52685216       0.30290405 </v>
   <v>      -1.04461907      -4.71843782       0.81547665 </v>
   <v>      -0.82615938      -1.18252390       0.03358412 </v>
   <v>      -0.66467283       1.35651470      -0.78224570 </v>
   <v>       1.53878598       0.95506860      -0.34049591 </v>
   <v>      -0.70143228       0.52795807       1.76588056 </v>
   <v>       0.22594885      -0.40935535       0.14014538 </v>
   <v>       0.57661982       1.04277575      -1.11395760 </v>
   <v>       1.37094617      -0.62025329      -0.33094327 </v>
   <v>      -0.28876623      -1.21130233       0.30508588 </v>
   <v>       1.01958542      -0.73382304       0.04158140 </v>
   <v>      -1.20619021      -0.50120298      -0.52497748 </v>
   <v>      -1.92335556       2.36018551       1.57481363 </v>
   <v>       1.66961579       0.84626518       0.20904098 </v>
   <v>      -1.24947883       1.50212292       0.38588468 </v>
   <v>      -2.00073341      -2.24389393       0.44932700 </v>
  </varray>
  <varray name="stress" >
   <v>      -6.47029770      -0.94683854       0.67804102 </v>
   <v>      -0.94683854      50.96230881      -0.09558106 </v>
   <v>       0.67804102      -0.09558106      -1.30043559 </v>
  </varray>
  <energy>
   <i name="e_fr_energy">   -829.12265931 </i>
   <i name="e_wo_entrp">   -829.05261823 </i>
   <i name="e_0_energy">   -829.08763877 </i>
  </energy>
  <time name="totalsc">  343.27  343.47</time>
  <eigenvalues>
   <array>
    <dimension dim="1">band</dimension>
    <dimension dim="2">kpoint</dimension>
    <dimension dim="3">spin</dimension>
    <field>eigene</field>
    <field>occ</field>
    <set>
     <set comment="spin 1">
      <set comment="kpoint 1">
       <r>  -23.1364    1.0000 </r>
       <r>  -23.0552    1.0000 </r>
       <r>  -22.9282    1.0000 </r>
       <r>  -22.6099    1.0000 </r>
       <r>  -22.5980    1.0000 </r>
       <r>  -22.2865    1.0000 </r>
       <r>  -21.9922    1.0000 </r>
       <r>  -21.9584    1.0000 </r>
       <r>  -21.5099    1.0000 </r>
       <r>  -21.4414    1.0000 </r>
       <r>  -21.3705    1.0000 </r>
       <r>  -21.2934    1.0000 </r>
       <r>  -21.2481    1.0000 </r>
       <r>  -21.1443    1.0000 </r>
       <r>  -21.1117    1.0000 </r>
       <r>  -21.0497    1.0000 </r>
       <r>  -20.9950    1.0000 </r>
       <r>  -20.9263    1.0000 </r>
       <r>  -20.7666    1.0000 </r>
       <r>  -20.4584    1.0000 </r>
       <r>  -20.3828    1.0000 </r>
       <r>  -20.3567    1.0000 </r>
       <r>  -20.1346    1.0000 </r>
       <r>  -20.0713    1.0000 </r>
       <r>  -19.9073    1.0000 </r>
       <r>  -19.7013    1.0000 </r>
       <r>  -19.5529    1.0000 </r>
       <r>  -19.4238    1.0000 </r>
       <r>  -19.1900    1.0000 </r>
       <r>  -18.9274    1.0000 </r>
       <r>  -18.6982    1.0000 </r>
       <r>  -18.6214    1.0000 </r>
       <r>  -18.5457    1.0000 </r>
       <r>  -18.3380    1.0000 </r>
       <r>  -18.2360    1.0000 </r>
       <r>  -17.5926    1.0000 </r>
       <r>  -17.2975    1.0000 </r>
       <r>  -17.2555    1.0000 </r>
       <r>  -16.9964    1.0000 </r>
       <r>  -16.8877    1.0000 </r>
       <r>  -16.8057    1.0000 </r>
       <r>  -16.7356    1.0000 </r>
       <r>  -16.6436    1.0000 </r>
       <r>  -16.6159    1.0000 </r>
       <r>  -16.5909    1.0000 </r>
       <r>  -16.5475    1.0000 </r>
       <r>  -16.4680    1.0000 </r>
       <r>  -16.4131    1.0000 </r>
       <r>  -16.3440    1.0000 </r>
       <r>  -16.3177    1.0000 </r>
       <r>  -16.3072    1.0000 </r>
       <r>  -16.1938    1.0000 </r>
       <r>  -16.1252    1.0000 </r>
       <r>  -16.0530    1.0000 </r>
       <r>  -15.8414    1.0000 </r>
       <r>  -15.5761    1.0000 </r>
       <r>  -15.3919    1.0000 </r>
       <r>  -15.3048    1.0000 </r>
       <r>  -15.2823    1.0000 </r>
       <r>  -15.2175    1.0000 </r>
       <r>  -15.0666    1.0000 </r>
       <r>  -14.9953    1.0000 </r>
       <r>  -14.2926    1.0000 </r>
       <r>  -14.1487    1.0000 </r>
       <r>  -14.0712    1.0000 </r>
       <r>  -14.0106    1.0000 </r>
       <r>  -13.8793    1.0000 </r>
       <r>  -13.7777    1.0000 </r>
       <r>  -13.6745    1.0000 </r>
       <r>  -13.6378    1.0000 </r>
       <r>  -13.4846    1.0000 </r>
       <r>  -13.4208    1.0000 </r>
       <r>  -13.2455    1.0000 </r>
       <r>  -13.1171    1.0000 </r>
       <r>  -13.0196    1.0000 </r>
       <r>  -12.9021    1.0000 </r>
       <r>  -12.6673    1.0000 </r>
       <r>  -12.4300    1.0000 </r>
       <r>  -12.1637    1.0000 </r>
       <r>  -12.0973    1.0000 </r>
       <r>  -12.0676    1.0000 </r>
       <r>  -12.0110    1.0000 </r>
       <r>  -11.9272    1.0000 </r>
       <r>  -11.8060    1.0000 </r>
       <r>  -11.7325    1.0000 </r>
       <r>  -11.5442    1.0000 </r>
       <r>  -11.3419    1.0000 </r>
       <r>  -11.1866    1.0000 </r>
       <r>  -11.1179    1.0000 </r>
       <r>  -11.0236    1.0000 </r>
       <r>  -10.9193    1.0000 </r>
       <r>  -10.8895    1.0000 </r>
       <r>  -10.8470    1.0000 </r>
       <r>  -10.7829    1.0000 </r>
       <r>  -10.7247    1.0000 </r>
       <r>  -10.6954    1.0000 </r>
       <r>  -10.5420    1.0000 </r>
       <r>  -10.5004    1.0000 </r>
       <r>  -10.4713    1.0000 </r>
       <r>  -10.4325    1.0000 </r>
       <r>  -10.4125    1.0000 </r>
       <r>  -10.2906    1.0000 </r>
       <r>  -10.2557    1.0000 </r>
       <r>  -10.2254    1.0000 </r>
       <r>  -10.0946    1.0000 </r>
       <r>  -10.0430    1.0000 </r>
       <r>   -9.8677    1.0000 </r>
       <r>   -9.8338    1.0000 </r>
       <r>   -9.8065    1.0000 </r>
       <r>   -9.7462    1.0000 </r>
       <r>   -9.6698    1.0000 </r>
       <r>   -9.6292    1.0000 </r>
       <r>   -9.6169    1.0000 </r>
       <r>   -9.5672    1.0000 </r>
       <r>   -9.5330    1.0000 </r>
       <r>   -9.5269    1.0000 </r>
       <r>   -9.4876    1.0000 </r>
       <r>   -9.4329    1.0000 </r>
       <r>   -9.4089    1.0000 </r>
       <r>   -9.3882    1.0000 </r>
       <r>   -9.3727    1.0000 </r>
       <r>   -9.3453    1.0000 </r>
       <r>   -9.3181    1.0000 </r>
       <r>   -9.2625    1.0000 </r>
       <r>   -9.2338    1.0000 </r>
       <r>   -9.1801    1.0000 </r>
       <r>   -9.1620    1.0000 </r>
       <r>   -9.1299    1.0000 </r>
       <r>   -9.1140    1.0000 </r>
       <r>   -9.0808    1.0000 </r>
       <r>   -9.0620    1.0000 </r>
       <r>   -8.9988    1.0000 </r>
       <r>   -8.9770    1.0000 </r>
       <r>   -8.9599    1.0000 </r>
       <r>   -8.9091    1.0000 </r>
       <r>   -8.8564    1.0000 </r>
       <r>   -8.8233    1.0000 </r>
       <r>   -8.8051    1.0000 </r>
       <r>   -8.7072    1.0000 </r>
       <r>   -8.6487    1.0000 </r>
       <r>   -8.6341    1.0000 </r>
       <r>   -8.6106    1.0000 </r>
       <r>   -8.5554    1.0000 </r>
       <r>   -8.5332    1.0000 </r>
       <r>   -8.4247    1.0000 </r>
       <r>   -8.3315    1.0000 </r>
       <r>   -8.0011    1.0000 </r>
       <r>   -7.9749    1.0000 </r>
       <r>   -7.8966    1.0000 </r>
       <r>   -7.8468    1.0000 </r>
       <r>   -7.7116    1.0000 </r>
       <r>   -7.6429    1.0000 </r>
       <r>   -7.5716    1.0000 </r>
       <r>   -7.5188    1.0000 </r>
       <r>   -7.4595    1.0000 </r>
       <r>   -7.3509    1.0000 </r>
       <r>   -7.2717    1.0000 </r>
       <r>   -7.1627    1.0000 </r>
       <r>   -7.1161    1.0000 </r>
       <r>   -6.8830    1.0000 </r>
       <r>   -6.8409    1.0000 </r>
       <r>   -6.7854    1.0000 </r>
       <r>   -6.6621    1.0000 </r>
       <r>   -6.6035    1.0000 </r>
       <r>   -6.4087    1.0000 </r>
       <r>   -6.2747    1.0000 </r>
       <r>   -6.2035    1.0000 </r>
       <r>   -6.1501    1.0000 </r>
       <r>   -6.0597    1.0000 </r>
       <r>   -5.9777    1.0000 </r>
       <r>   -5.9172    1.0000 </r>
       <r>   -5.8390    1.0000 </r>
       <r>   -5.7985    1.0000 </r>
       <r>   -5.0446    1.0000 </r>
       <r>   -4.9147    1.0000 </r>
       <r>   -4.8324    1.0000 </r>
       <r>   -4.6407    1.0000 </r>
       <r>   -4.5225    1.0000 </r>
       <r>   -4.4833    1.0000 </r>
       <r>   -4.4541    1.0000 </r>
       <r>   -4.3817    1.0000 </r>
       <r>   -3.7609    1.0000 </r>
       <r>   -3.5851    0.9970 </r>
       <r>   -3.2373    0.6125 </r>
       <r>   -3.1373    0.3369 </r>
       <r>   -2.6998    0.0002 </r>
       <r>   -2.6290    0.0000 </r>
       <r>   -2.5840    0.0000 </r>
       <r>   -2.3379    0.0000 </r>
       <r>   -2.1641    0.0000 </r>
       <r>   -1.8393    0.0000 </r>
       <r>   -1.7290    0.0000 </r>
       <r>   -1.6173    0.0000 </r>
       <r>   -1.4963    0.0000 </r>
       <r>   -1.3892    0.0000 </r>
       <r>   -1.3685    0.0000 </r>
       <r>   -1.3530    0.0000 </r>
       <r>   -1.0312    0.0000 </r>
       <r>   -0.8220    0.0000 </r>
       <r>   -0.6506    0.0000 </r>
       <r>   -0.5841    0.0000 </r>
       <r>   -0.4800    0.0000 </r>
       <r>   -0.0599    0.0000 </r>
       <r>    0.0339    0.0000 </r>
       <r>    0.1203    0.0000 </r>
       <r>    0.1700    0.0000 </r>
       <r>    0.2658    0.0000 </r>
       <r>    0.6121    0.0000 </r>
       <r>    0.6208    0.0000 </r>
       <r>    0.6679    0.0000 </r>
       <r>    0.7089    0.0000 </r>
       <r>    0.8061    0.0000 </r>
       <r>    0.8989    0.0000 </r>
       <r>    0.9169    0.0000 </r>
       <r>    0.9231    0.0000 </r>
       <r>    0.9783    0.0000 </r>
       <r>    0.9921    0.0000 </r>
       <r>    1.1513    0.0000 </r>
       <r>    1.1604    0.0000 </r>
       <r>    1.2238    0.0000 </r>
       <r>    1.2922    0.0000 </r>
       <r>    1.3063    0.0000 </r>
       <r>    1.3298    0.0000 </r>
       <r>    1.4123    0.0000 </r>
       <r>    1.4677    0.0000 </r>
       <r>    1.5501    0.0000 </r>
       <r>    1.5702    0.0000 </r>
       <r>    1.6624    0.0000 </r>
       <r>    1.7329    0.0000 </r>
       <r>    1.7338    0.0000 </r>
       <r>    1.7440    0.0000 </r>
       <r>    1.7955    0.0000 </r>
      </set>
      <set comment="kpoint 2">
       <r>  -23.0483    1.0000 </r>
       <r>  -22.9612    1.0000 </r>
       <r>  -22.8297    1.0000 </r>
       <r>  -22.5208    1.0000 </r>
       <r>  -22.5065    1.0000 </r>
       <r>  -22.4529    1.0000 </r>
       <r>  -22.1572    1.0000 </r>
       <r>  -22.0338    1.0000 </r>
       <r>  -21.9036    1.0000 </r>
       <r>  -21.8545    1.0000 </r>
       <r>  -21.7606    1.0000 </r>
       <r>  -21.6821    1.0000 </r>
       <r>  -21.2218    1.0000 </r>
       <r>  -21.0893    1.0000 </r>
       <r>  -21.0537    1.0000 </r>
       <r>  -20.9565    1.0000 </r>
       <r>  -20.5984    1.0000 </r>
       <r>  -20.5097    1.0000 </r>
       <r>  -20.4354    1.0000 </r>
       <r>  -20.2487    1.0000 </r>
       <r>  -20.1690    1.0000 </r>
       <r>  -20.1056    1.0000 </r>
       <r>  -20.0548    1.0000 </r>
       <r>  -19.8789    1.0000 </r>
       <r>  -19.7788    1.0000 </r>
       <r>  -19.5164    1.0000 </r>
       <r>  -19.4876    1.0000 </r>
       <r>  -19.0966    1.0000 </r>
       <r>  -19.0354    1.0000 </r>
       <r>  -18.8693    1.0000 </r>
       <r>  -18.6738    1.0000 </r>
       <r>  -18.5599    1.0000 </r>
       <r>  -18.4984    1.0000 </r>
       <r>  -18.2651    1.0000 </r>
       <r>  -18.1489    1.0000 </r>
       <r>  -18.0911    1.0000 </r>
       <r>  -18.0419    1.0000 </r>
       <r>  -17.9639    1.0000 </r>
       <r>  -17.8266    1.0000 </r>
       <r>  -17.6958    1.0000 </r>
       <r>  -17.4599    1.0000 </r>
       <r>  -17.3371    1.0000 </r>
       <r>  -17.2943    1.0000 </r>
       <r>  -17.1971    1.0000 </r>
       <r>  -17.0315    1.0000 </r>
       <r>  -16.5294    1.0000 </r>
       <r>  -16.3716    1.0000 </r>
       <r>  -16.1499    1.0000 </r>
       <r>  -16.0800    1.0000 </r>
       <r>  -15.8172    1.0000 </r>
       <r>  -15.7732    1.0000 </r>
       <r>  -15.6429    1.0000 </r>
       <r>  -15.5632    1.0000 </r>
       <r>  -15.3367    1.0000 </r>
       <r>  -15.2895    1.0000 </r>
       <r>  -15.2077    1.0000 </r>
       <r>  -15.1142    1.0000 </r>
       <r>  -15.0458    1.0000 </r>
       <r>  -15.0031    1.0000 </r>
       <r>  -14.9468    1.0000 </r>
       <r>  -14.8820    1.0000 </r>
       <r>  -14.7582    1.0000 </r>
       <r>  -14.5644    1.0000 </r>
       <r>  -14.4028    1.0000 </r>
       <r>  -14.2735    1.0000 </r>
       <r>  -14.1485    1.0000 </r>
       <r>  -13.9077    1.0000 </r>
       <r>  -13.8529    1.0000 </r>
       <r>  -13.3308    1.0000 </r>
       <r>  -13.2634    1.0000 </r>
       <r>  -13.1742    1.0000 </r>
       <r>  -13.1291    1.0000 </r>
       <r>  -12.9303    1.0000 </r>
       <r>  -12.8112    1.0000 </r>
       <r>  -12.7816    1.0000 </r>
       <r>  -12.7271    1.0000 </r>
       <r>  -12.6542    1.0000 </r>
       <r>  -12.5261    1.0000 </r>
       <r>  -12.3996    1.0000 </r>
       <r>  -12.2723    1.0000 </r>
       <r>  -12.1335    1.0000 </r>
       <r>  -12.1203    1.0000 </r>
       <r>  -12.0427    1.0000 </r>
       <r>  -12.0260    1.0000 </r>
       <r>  -11.7146    1.0000 </r>
       <r>  -11.6137    1.0000 </r>
       <r>  -11.4776    1.0000 </r>
       <r>  -11.3660    1.0000 </r>
       <r>  -11.2550    1.0000 </r>
       <r>  -11.2116    1.0000 </r>
       <r>  -11.0682    1.0000 </r>
       <r>  -11.0077    1.0000 </r>
       <r>  -10.9875    1.0000 </r>
       <r>  -10.9176    1.0000 </r>
       <r>  -10.8926    1.0000 </r>
       <r>  -10.8639    1.0000 </r>
       <r>  -10.8453    1.0000 </r>
       <r>  -10.7828    1.0000 </r>
       <r>  -10.7118    1.0000 </r>
       <r>  -10.6163    1.0000 </r>
       <r>  -10.5270    1.0000 </r>
       <r>  -10.4894    1.0000 </r>
       <r>  -10.4433    1.0000 </r>
       <r>  -10.3996    1.0000 </r>
       <r>  -10.3452    1.0000 </r>
       <r>  -10.3014    1.0000 </r>
       <r>  -10.2381    1.0000 </r>
       <r>  -10.1016    1.0000 </r>
       <r>  -10.0480    1.0000 </r>
       <r>   -9.9956    1.0000 </r>
       <r>   -9.9728    1.0000 </r>
       <r>   -9.9228    1.0000 </r>
       <r>   -9.8579    1.0000 </r>
       <r>   -9.8332    1.0000 </r>
       <r>   -9.7620    1.0000 </r>
       <r>   -9.7215    1.0000 </r>
       <r>   -9.6747    1.0000 </r>
       <r>   -9.6165    1.0000 </r>
       <r>   -9.5985    1.0000 </r>
       <r>   -9.5189    1.0000 </r>
       <r>   -9.4696    1.0000 </r>
       <r>   -9.4124    1.0000 </r>
       <r>   -9.3924    1.0000 </r>
       <r>   -9.3245    1.0000 </r>
       <r>   -9.2855    1.0000 </r>
       <r>   -9.1778    1.0000 </r>
       <r>   -9.0514    1.0000 </r>
       <r>   -8.9661    1.0000 </r>
       <r>   -8.8554    1.0000 </r>
       <r>   -8.7950    1.0000 </r>
       <r>   -8.7755    1.0000 </r>
       <r>   -8.7119    1.0000 </r>
       <r>   -8.6722    1.0000 </r>
       <r>   -8.6304    1.0000 </r>
       <r>   -8.5732    1.0000 </r>
       <r>   -8.5325    1.0000 </r>
       <r>   -8.5093    1.0000 </r>
       <r>   -8.4459    1.0000 </r>
       <r>   -8.3431    1.0000 </r>
       <r>   -8.3004    1.0000 </r>
       <r>   -8.2111    1.0000 </r>
       <r>   -8.1670    1.0000 </r>
       <r>   -8.1175    1.0000 </r>
       <r>   -8.0623    1.0000 </r>
       <r>   -8.0403    1.0000 </r>
       <r>   -7.9850    1.0000 </r>
       <r>   -7.9532    1.0000 </r>
       <r>   -7.8924    1.0000 </r>
       <r>   -7.7139    1.0000 </r>
       <r>   -7.6833    1.0000 </r>
       <r>   -7.6178    1.0000 </r>
       <r>   -7.5414    1.0000 </r>
       <r>   -7.4942    1.0000 </r>
       <r>   -7.3877    1.0000 </r>
       <r>   -7.3309    1.0000 </r>
       <r>   -7.2961    1.0000 </r>
       <r>   -7.1565    1.0000 </r>
       <r>   -7.0759    1.0000 </r>
       <r>   -6.9972    1.0000 </r>
       <r>   -6.9379    1.0000 </r>
       <r>   -6.8169    1.0000 </r>
       <r>   -6.7082    1.0000 </r>
       <r>   -6.6273    1.0000 </r>
       <r>   -6.5271    1.0000 </r>
       <r>   -6.4817    1.0000 </r>
       <r>   -6.3163    1.0000 </r>
       <r>   -6.1789    1.0000 </r>
       <r>   -6.1437    1.0000 </r>
       <r>   -6.0772    1.0000 </r>
       <r>   -6.0080    1.0000 </r>
       <r>   -5.8830    1.0000 </r>
       <r>   -5.7784    1.0000 </r>
       <r>   -5.7162    1.0000 </r>
       <r>   -5.6418    1.0000 </r>
       <r>   -5.5365    1.0000 </r>
       <r>   -5.4616    1.0000 </r>
       <r>   -5.1644    1.0000 </r>
       <r>   -5.0754    1.0000 </r>
       <r>   -4.7620    1.0000 </r>
       <r>   -4.6835    1.0000 </r>
       <r>   -4.5448    1.0000 </r>
       <r>   -4.4583    1.0000 </r>
       <r>   -4.4205    1.0000 </r>
       <r>   -3.5164    0.9881 </r>
       <r>   -2.9459    0.0379 </r>
       <r>   -2.6242    0.0000 </r>
       <r>   -2.1444    0.0000 </r>
       <r>   -2.0568    0.0000 </r>
       <r>   -1.5810    0.0000 </r>
       <r>   -1.5479    0.0000 </r>
       <r>   -1.4733    0.0000 </r>
       <r>   -1.4335    0.0000 </r>
       <r>   -1.3560    0.0000 </r>
       <r>   -1.3108    0.0000 </r>
       <r>   -1.1543    0.0000 </r>
       <r>   -1.0607    0.0000 </r>
       <r>   -0.9871    0.0000 </r>
       <r>   -0.9681    0.0000 </r>
       <r>   -0.8687    0.0000 </r>
       <r>   -0.4796    0.0000 </r>
       <r>   -0.3157    0.0000 </r>
       <r>   -0.1599    0.0000 </r>
       <r>   -0.0565    0.0000 </r>
       <r>    0.0192    0.0000 </r>
       <r>    0.1234    0.0000 </r>
       <r>    0.1751    0.0000 </r>
       <r>    0.1951    0.0000 </r>
       <r>    0.2938    0.0000 </r>
       <r>    0.3649    0.0000 </r>
       <r>    0.7738    0.0000 </r>
       <r>    0.7970    0.0000 </r>
       <r>    0.8469    0.0000 </r>
       <r>    0.9646    0.0000 </r>
       <r>    1.0486    0.0000 </r>
       <r>    1.0606    0.0000 </r>
       <r>    1.0957    0.0000 </r>
       <r>    1.1330    0.0000 </r>
       <r>    1.2121    0.0000 </r>
       <r>    1.2956    0.0000 </r>
       <r>    1.3030    0.0000 </r>
       <r>    1.3607    0.0000 </r>
       <r>    1.3700    0.0000 </r>
       <r>    1.3986    0.0000 </r>
       <r>    1.4276    0.0000 </r>
       <r>    1.4456    0.0000 </r>
       <r>    1.4706    0.0000 </r>
       <r>    1.5236    0.0000 </r>
       <r>    1.5543    0.0000 </r>
       <r>    1.6059    0.0000 </r>
       <r>    1.6260    0.0000 </r>
       <r>    1.6721    0.0000 </r>
       <r>    1.6943    0.0000 </r>
      </set>
      <set comment="kpoint 3">
       <r>  -22.8549    1.0000 </r>
       <r>  -22.7442    1.0000 </r>
       <r>  -22.6976    1.0000 </r>
       <r>  -22.6407    1.0000 </r>
       <r>  -22.5629    1.0000 </r>
       <r>  -22.4819    1.0000 </r>
       <r>  -22.2705    1.0000 </r>
       <r>  -22.2160    1.0000 </r>
       <r>  -22.1957    1.0000 </r>
       <r>  -22.1497    1.0000 </r>
       <r>  -21.6569    1.0000 </r>
       <r>  -21.6122    1.0000 </r>
       <r>  -21.5551    1.0000 </r>
       <r>  -21.5304    1.0000 </r>
       <r>  -20.8727    1.0000 </r>
       <r>  -20.8325    1.0000 </r>
       <r>  -20.6776    1.0000 </r>
       <r>  -20.6321    1.0000 </r>
       <r>  -19.9267    1.0000 </r>
       <r>  -19.8553    1.0000 </r>
       <r>  -19.5932    1.0000 </r>
       <r>  -19.5365    1.0000 </r>
       <r>  -19.5068    1.0000 </r>
       <r>  -19.4869    1.0000 </r>
       <r>  -19.4155    1.0000 </r>
       <r>  -19.3241    1.0000 </r>
       <r>  -19.2474    1.0000 </r>
       <r>  -19.2106    1.0000 </r>
       <r>  -19.0695    1.0000 </r>
       <r>  -19.0249    1.0000 </r>
       <r>  -18.9443    1.0000 </r>
       <r>  -18.8889    1.0000 </r>
       <r>  -18.5698    1.0000 </r>
       <r>  -18.5573    1.0000 </r>
       <r>  -18.4629    1.0000 </r>
       <r>  -18.4320    1.0000 </r>
       <r>  -18.3311    1.0000 </r>
       <r>  -18.2266    1.0000 </r>
       <r>  -18.1293    1.0000 </r>
       <r>  -18.1094    1.0000 </r>
       <r>  -17.7548    1.0000 </r>
       <r>  -17.6979    1.0000 </r>
       <r>  -17.6426    1.0000 </r>
       <r>  -17.6264    1.0000 </r>
       <r>  -16.9318    1.0000 </r>
       <r>  -16.8416    1.0000 </r>
       <r>  -16.2472    1.0000 </r>
       <r>  -16.2001    1.0000 </r>
       <r>  -16.0206    1.0000 </r>
       <r>  -15.9418    1.0000 </r>
       <r>  -15.8580    1.0000 </r>
       <r>  -15.8470    1.0000 </r>
       <r>  -15.2918    1.0000 </r>
       <r>  -15.2670    1.0000 </r>
       <r>  -15.0799    1.0000 </r>
       <r>  -14.9943    1.0000 </r>
       <r>  -14.8713    1.0000 </r>
       <r>  -14.7988    1.0000 </r>
       <r>  -14.7531    1.0000 </r>
       <r>  -14.6342    1.0000 </r>
       <r>  -14.0498    1.0000 </r>
       <r>  -13.9809    1.0000 </r>
       <r>  -13.7928    1.0000 </r>
       <r>  -13.7668    1.0000 </r>
       <r>  -13.7253    1.0000 </r>
       <r>  -13.6917    1.0000 </r>
       <r>  -13.6758    1.0000 </r>
       <r>  -13.5850    1.0000 </r>
       <r>  -13.5766    1.0000 </r>
       <r>  -13.5425    1.0000 </r>
       <r>  -13.4885    1.0000 </r>
       <r>  -13.4584    1.0000 </r>
       <r>  -13.4336    1.0000 </r>
       <r>  -13.3386    1.0000 </r>
       <r>  -13.1343    1.0000 </r>
       <r>  -13.0109    1.0000 </r>
       <r>  -12.3290    1.0000 </r>
       <r>  -12.2529    1.0000 </r>
       <r>  -12.2099    1.0000 </r>
       <r>  -12.1281    1.0000 </r>
       <r>  -12.1119    1.0000 </r>
       <r>  -12.0371    1.0000 </r>
       <r>  -11.9576    1.0000 </r>
       <r>  -11.9381    1.0000 </r>
       <r>  -11.8670    1.0000 </r>
       <r>  -11.8094    1.0000 </r>
       <r>  -11.7441    1.0000 </r>
       <r>  -11.7071    1.0000 </r>
       <r>  -11.6347    1.0000 </r>
       <r>  -11.5801    1.0000 </r>
       <r>  -11.3280    1.0000 </r>
       <r>  -11.2670    1.0000 </r>
       <r>  -11.1419    1.0000 </r>
       <r>  -11.1311    1.0000 </r>
       <r>  -11.0442    1.0000 </r>
       <r>  -10.9888    1.0000 </r>
       <r>  -10.7815    1.0000 </r>
       <r>  -10.7061    1.0000 </r>
       <r>  -10.6559    1.0000 </r>
       <r>  -10.6446    1.0000 </r>
       <r>  -10.5263    1.0000 </r>
       <r>  -10.5072    1.0000 </r>
       <r>  -10.5055    1.0000 </r>
       <r>  -10.4799    1.0000 </r>
       <r>  -10.4314    1.0000 </r>
       <r>  -10.4016    1.0000 </r>
       <r>  -10.3612    1.0000 </r>
[...]
       <r>   -22.6290    14.8436     7.0744 </r>
       <r>   -22.5326    16.5090     8.6666 </r>
       <r>   -22.4361    16.1559    10.2247 </r>
       <r>   -22.3397    14.1429    11.5886 </r>
       <r>   -22.2433    12.9985    12.8422 </r>
       <r>   -22.1468    13.3530    14.1299 </r>
       <r>   -22.0504    13.9192    15.4723 </r>
       <r>   -21.9539    14.1588    16.8378 </r>
       <r>   -21.8575    14.1810    18.2054 </r>
       <r>   -21.7611    13.9954    19.5551 </r>
       <r>   -21.6646    13.6193    20.8685 </r>
       <r>   -21.5682    12.8552    22.1083 </r>
       <r>   -21.4717    11.6532    23.2321 </r>
       <r>   -21.3753    10.8664    24.2801 </r>
       <r>   -21.2789    11.6826    25.4067 </r>
       <r>   -21.1824    14.1533    26.7717 </r>
       <r>   -21.0860    16.7368    28.3858 </r>
       <r>   -20.9895    17.4045    30.0643 </r>
       <r>   -20.8931    15.5366    31.5626 </r>
       <r>   -20.7967    12.7355    32.7908 </r>
       <r>   -20.7002    11.2436    33.8752 </r>
       <r>   -20.6038    11.7580    35.0091 </r>
       <r>   -20.5073    13.0823    36.2707 </r>
       <r>   -20.4109    13.7325    37.5951 </r>
       <r>   -20.3145    13.6862    38.9150 </r>
       <r>   -20.2180    14.1438    40.2790 </r>
       <r>   -20.1216    15.2437    41.7491 </r>
       <r>   -20.0251    15.6584    43.2592 </r>
       <r>   -19.9287    14.9372    44.6998 </r>
       <r>   -19.8323    13.7655    46.0273 </r>
       <r>   -19.7358    12.8714    47.2686 </r>
       <r>   -19.6394    13.4521    48.5659 </r>
       <r>   -19.5429    15.6723    50.0774 </r>
       <r>   -19.4465    16.9032    51.7075 </r>
       <r>   -19.3501    15.3471    53.1876 </r>
       <r>   -19.2536    13.1891    54.4595 </r>
       <r>   -19.1572    13.0237    55.7155 </r>
       <r>   -19.0607    14.3308    57.0976 </r>
       <r>   -18.9643    14.9362    58.5380 </r>
       <r>   -18.8679    13.9722    59.8855 </r>
       <r>   -18.7714    12.9536    61.1347 </r>
       <r>   -18.6750    13.9412    62.4792 </r>
       <r>   -18.5785    16.4349    64.0642 </r>
       <r>   -18.4821    17.7414    65.7752 </r>
       <r>   -18.3857    17.0970    67.4240 </r>
       <r>   -18.2892    16.5903    69.0240 </r>
       <r>   -18.1928    17.3481    70.6970 </r>
       <r>   -18.0963    17.7865    72.4124 </r>
       <r>   -17.9999    16.2584    73.9803 </r>
       <r>   -17.9035    13.6658    75.2982 </r>
       <r>   -17.8070    12.2828    76.4828 </r>
       <r>   -17.7106    12.4660    77.6850 </r>
       <r>   -17.6141    12.4637    78.8870 </r>
       <r>   -17.5177    11.6431    80.0099 </r>
       <r>   -17.4213    11.4716    81.1162 </r>
       <r>   -17.3248    12.4861    82.3203 </r>
       <r>   -17.2284    12.9485    83.5691 </r>
       <r>   -17.1319    11.8536    84.7122 </r>
       <r>   -17.0355    10.5547    85.7301 </r>
       <r>   -16.9391    10.1364    86.7077 </r>
       <r>   -16.8426    10.1156    87.6832 </r>
       <r>   -16.7462    10.2686    88.6735 </r>
       <r>   -16.6497    11.2194    89.7555 </r>
       <r>   -16.5533    12.9952    91.0088 </r>
       <r>   -16.4569    14.7471    92.4310 </r>
       <r>   -16.3604    16.0094    93.9749 </r>
       <r>   -16.2640    16.8745    95.6023 </r>
       <r>   -16.1675    17.2404    97.2650 </r>
       <r>   -16.0711    16.7254    98.8780 </r>
       <r>   -15.9747    15.6026   100.3827 </r>
       <r>   -15.8782    14.9210   101.8217 </r>
       <r>   -15.7818    14.6282   103.2324 </r>
       <r>   -15.6853    13.6970   104.5533 </r>
       <r>   -15.5889    12.3012   105.7396 </r>
       <r>   -15.4925    11.8692   106.8843 </r>
       <r>   -15.3960    13.8709   108.2220 </r>
       <r>   -15.2996    17.8961   109.9479 </r>
       <r>   -15.2031    21.3596   112.0078 </r>
       <r>   -15.1067    22.9447   114.2206 </r>
       <r>   -15.0103    23.1413   116.4524 </r>
       <r>   -14.9138    21.6939   118.5445 </r>
       <r>   -14.8174    18.4150   120.3204 </r>
       <r>   -14.7209    14.4276   121.7118 </r>
       <r>   -14.6245    11.0286   122.7754 </r>
       <r>   -14.5281     8.9211   123.6358 </r>
       <r>   -14.4316     8.3410   124.4402 </r>
       <r>   -14.3352     9.1149   125.3192 </r>
       <r>   -14.2387    10.6207   126.3435 </r>
       <r>   -14.1423    12.2097   127.5210 </r>
       <r>   -14.0459    13.7051   128.8427 </r>
       <r>   -13.9494    15.3152   130.3197 </r>
       <r>   -13.8530    17.0440   131.9634 </r>
       <r>   -13.7565    18.3265   133.7308 </r>
       <r>   -13.6601    18.6656   135.5309 </r>
       <r>   -13.5637    18.3050   137.2962 </r>
       <r>   -13.4672    17.8764   139.0202 </r>
       <r>   -13.3708    17.7594   140.7330 </r>
       <r>   -13.2743    17.9399   142.4631 </r>
       <r>   -13.1779    17.9230   144.1916 </r>
       <r>   -13.0815    17.0590   145.8367 </r>
       <r>   -12.9850    15.7022   147.3511 </r>
       <r>   -12.8886    15.0823   148.8056 </r>
       <r>   -12.7921    15.3742   150.2883 </r>
       <r>   -12.6957    15.2320   151.7573 </r>
       <r>   -12.5993    13.8817   153.0960 </r>
       <r>   -12.5028    12.5044   154.3019 </r>
       <r>   -12.4064    12.7894   155.5353 </r>
       <r>   -12.3099    15.4256   157.0230 </r>
       <r>   -12.2135    20.1495   158.9662 </r>
       <r>   -12.1171    25.0926   161.3861 </r>
       <r>   -12.0206    26.8786   163.9783 </r>
       <r>   -11.9242    24.3796   166.3294 </r>
       <r>   -11.8278    20.6759   168.3234 </r>
       <r>   -11.7313    18.6890   170.1258 </r>
       <r>   -11.6349    17.7937   171.8418 </r>
       <r>   -11.5384    16.5439   173.4373 </r>
       <r>   -11.4420    15.6247   174.9442 </r>
       <r>   -11.3456    16.5195   176.5373 </r>
       <r>   -11.2491    19.2136   178.3902 </r>
       <r>   -11.1527    22.7616   180.5854 </r>
       <r>   -11.0562    26.8235   183.1722 </r>
       <r>   -10.9598    30.9452   186.1566 </r>
       <r>   -10.8634    33.5922   189.3962 </r>
       <r>   -10.7669    33.7612   192.6521 </r>
       <r>   -10.6705    33.0508   195.8395 </r>
       <r>   -10.5740    34.3912   199.1562 </r>
       <r>   -10.4776    37.9001   202.8113 </r>
       <r>   -10.3812    39.9710   206.6661 </r>
       <r>   -10.2847    38.2808   210.3579 </r>
       <r>   -10.1883    35.0426   213.7374 </r>
       <r>   -10.0918    33.6760   216.9851 </r>
       <r>    -9.9954    34.4491   220.3074 </r>
       <r>    -9.8990    35.2146   223.7035 </r>
       <r>    -9.8025    35.2406   227.1020 </r>
       <r>    -9.7061    35.4817   230.5239 </r>
       <r>    -9.6096    36.3442   234.0289 </r>
       <r>    -9.5132    37.8068   237.6750 </r>
       <r>    -9.4168    39.7997   241.5133 </r>
       <r>    -9.3203    40.7513   245.4433 </r>
       <r>    -9.2239    38.7484   249.1802 </r>
       <r>    -9.1274    34.9024   252.5462 </r>
       <r>    -9.0310    32.2642   255.6578 </r>
       <r>    -8.9346    32.1144   258.7549 </r>
       <r>    -8.8381    33.6409   261.9992 </r>
       <r>    -8.7417    35.4469   265.4177 </r>
       <r>    -8.6452    36.1842   268.9073 </r>
       <r>    -8.5488    35.1453   272.2967 </r>
       <r>    -8.4524    32.8527   275.4650 </r>
       <r>    -8.3559    30.5958   278.4156 </r>
       <r>    -8.2595    29.2092   281.2326 </r>
       <r>    -8.1630    28.7170   284.0020 </r>
       <r>    -8.0666    28.6978   286.7697 </r>
       <r>    -7.9702    28.3001   289.4989 </r>
       <r>    -7.8737    27.0418   292.1068 </r>
       <r>    -7.7773    26.2921   294.6424 </r>
       <r>    -7.6808    27.5440   297.2988 </r>
       <r>    -7.5844    29.3193   300.1263 </r>
       <r>    -7.4880    29.4596   302.9674 </r>
       <r>    -7.3915    28.5425   305.7200 </r>
       <r>    -7.2951    27.9650   308.4170 </r>
       <r>    -7.1986    27.5883   311.0776 </r>
       <r>    -7.1022    26.7158   313.6540 </r>
       <r>    -7.0058    25.3663   316.1004 </r>
       <r>    -6.9093    24.4137   318.4548 </r>
       <r>    -6.8129    24.5658   320.8239 </r>
       <r>    -6.7164    25.2735   323.2613 </r>
       <r>    -6.6200    25.2068   325.6923 </r>
       <r>    -6.5236    23.5805   327.9663 </r>
       <r>    -6.4271    21.3272   330.0231 </r>
       <r>    -6.3307    20.3852   331.9891 </r>
       <r>    -6.2342    21.1658   334.0303 </r>
       <r>    -6.1378    22.2550   336.1766 </r>
       <r>    -6.0414    22.7186   338.3675 </r>
       <r>    -5.9449    23.0576   340.5912 </r>
       <r>    -5.8485    23.7165   342.8784 </r>
       <r>    -5.7520    23.7882   345.1726 </r>
       <r>    -5.6556    22.0131   347.2955 </r>
       <r>    -5.5592    18.3438   349.0646 </r>
       <r>    -5.4627    13.9608   350.4110 </r>
       <r>    -5.3663    10.7662   351.4492 </r>
       <r>    -5.2698    10.2868   352.4413 </r>
       <r>    -5.1734    11.5781   353.5579 </r>
       <r>    -5.0770    11.8944   354.7050 </r>
       <r>    -4.9805    10.4160   355.7095 </r>
       <r>    -4.8841     9.0573   356.5830 </r>
       <r>    -4.7876     9.4520   357.4945 </r>
       <r>    -4.6912    11.3275   358.5870 </r>
       <r>    -4.5948    13.7333   359.9114 </r>
       <r>    -4.4983    15.4912   361.4054 </r>
       <r>    -4.4019    14.6985   362.8229 </r>
       <r>    -4.3054    10.8516   363.8694 </r>
       <r>    -4.2090     6.4489   364.4913 </r>
       <r>    -4.1126     3.8791   364.8654 </r>
       <r>    -4.0161     2.9564   365.1506 </r>
       <r>    -3.9197     2.5909   365.4004 </r>
       <r>    -3.8232     2.5193   365.6434 </r>
       <r>    -3.7268     2.9799   365.9308 </r>
       <r>    -3.6304     3.9066   366.3075 </r>
       <r>    -3.5339     4.6320   366.7542 </r>
       <r>    -3.4375     4.4129   367.1798 </r>
       <r>    -3.3410     3.5949   367.5265 </r>
       <r>    -3.2446     3.2292   367.8379 </r>
       <r>    -3.1482     3.5098   368.1764 </r>
       <r>    -3.0517     3.9910   368.5613 </r>
       <r>    -2.9553     4.5755   369.0025 </r>
       <r>    -2.8588     5.5203   369.5349 </r>
       <r>    -2.7624     7.1844   370.2278 </r>
       <r>    -2.6660     9.0455   371.1001 </r>
       <r>    -2.5695     9.2564   371.9928 </r>
       <r>    -2.4731     7.2139   372.6885 </r>
       <r>    -2.3766     5.0372   373.1743 </r>
       <r>    -2.2802     4.7844   373.6357 </r>
       <r>    -2.1838     6.1613   374.2299 </r>
       <r>    -2.0873     7.2601   374.9301 </r>
       <r>    -1.9909     6.8060   375.5864 </r>
       <r>    -1.8945     5.9032   376.1558 </r>
       <r>    -1.7980     6.8847   376.8197 </r>
       <r>    -1.7016    10.8178   377.8630 </r>
       <r>    -1.6051    16.5762   379.4616 </r>
       <r>    -1.5087    21.5872   381.5434 </r>
       <r>    -1.4123    23.6465   383.8239 </r>
       <r>    -1.3158    22.5043   385.9942 </r>
       <r>    -1.2194    20.1312   387.9357 </r>
       <r>    -1.1229    18.9056   389.7589 </r>
       <r>    -1.0265    18.7039   391.5627 </r>
       <r>    -0.9301    17.4370   393.2443 </r>
       <r>    -0.8336    14.6286   394.6551 </r>
       <r>    -0.7372    12.0807   395.8202 </r>
       <r>    -0.6407    11.2715   396.9072 </r>
       <r>    -0.5443    11.8361   398.0487 </r>
       <r>    -0.4479    12.4761   399.2519 </r>
       <r>    -0.3514    12.6660   400.4734 </r>
       <r>    -0.2550    13.1456   401.7411 </r>
       <r>    -0.1585    14.6205   403.1511 </r>
       <r>    -0.0621    16.7584   404.7673 </r>
       <r>     0.0343    19.0445   406.6040 </r>
       <r>     0.1308    21.2660   408.6548 </r>
       <r>     0.2272    22.4397   410.8189 </r>
       <r>     0.3237    21.4547   412.8880 </r>
       <r>     0.4201    19.2663   414.7460 </r>
       <r>     0.5165    18.4795   416.5282 </r>
       <r>     0.6130    20.5382   418.5089 </r>
       <r>     0.7094    24.4255   420.8645 </r>
       <r>     0.8059    28.1655   423.5808 </r>
       <r>     0.9023    30.8780   426.5586 </r>
       <r>     0.9987    33.3957   429.7793 </r>
       <r>     1.0952    36.8101   433.3293 </r>
       <r>     1.1916    41.2572   437.3081 </r>
       <r>     1.2881    46.0852   441.7526 </r>
       <r>     1.3845    49.6719   446.5429 </r>
       <r>     1.4809    49.9894   451.3639 </r>
       <r>     1.5774    45.8030   455.7811 </r>
       <r>     1.6738    37.1388   459.3628 </r>
       <r>     1.7703    25.5882   461.8305 </r>
       <r>     1.8667    14.2021   463.2001 </r>
       <r>     1.9631     5.9987   463.7787 </r>
       <r>     2.0596     1.8373   463.9558 </r>
       <r>     2.1560     0.3940   463.9938 </r>
       <r>     2.2525     0.0578   463.9994 </r>
       <r>     2.3489     0.0057   464.0000 </r>
       <r>     2.4453     0.0004   464.0000 </r>
       <r>     2.5418     0.0000   464.0000 </r>
       <r>     2.6382     0.0000   464.0000 </r>
       <r>     2.7347     0.0000   464.0000 </r>
       <r>     2.8311     0.0000   464.0000 </r>
       <r>     2.9275     0.0000   464.0000 </r>
       <r>     3.0240     0.0000   464.0000 </r>
       <r>     3.1204     0.0000   464.0000 </r>
       <r>     3.2169     0.0000   464.0000 </r>
       <r>     3.3133     0.0000   464.0000 </r>
       <r>     3.4097     0.0000   464.0000 </r>
       <r>     3.5062     0.0000   464.0000 </r>
       <r>     3.6026     0.0000   464.0000 </r>
       <r>     3.6991     0.0000   464.0000 </r>
       <r>     3.7955     0.0000   464.0000 </r>
      </set>
     </set>
    </array>
   </total>
  </dos>
 </calculation>
 <structure name="finalpos" >
  <crystal>
   <varray name="basis" >
    <v>      28.05000000       0.00000000       0.00000000 </v>
    <v>       0.00000000       8.10000000       0.00000000 </v>
    <v>       0.00000000       0.00000000      33.50000000 </v>
   </varray>
   <i name="volume">   7611.36750000 </i>
   <varray name="rec_basis" >
    <v>       0.03565062       0.00000000       0.00000000 </v>
    <v>       0.00000000       0.12345679       0.00000000 </v>
    <v>       0.00000000       0.00000000       0.02985075 </v>
   </varray>
  </crystal>
  <varray name="positions" >
   <v>       0.00474863       0.09693420       0.45186866 </v>
   <v>       0.00527152       0.27272963       0.45328657 </v>
   <v>       0.04916684       0.01169133       0.44622687 </v>
   <v>       0.04961355       0.34738642       0.45043881 </v>
   <v>       0.09263850       0.10097802       0.43976418 </v>
   <v>       0.09295971       0.27078889       0.44130448 </v>
   <v>       0.13781426       0.01906593       0.44444478 </v>
   <v>       0.13841961       0.35293086       0.44582687 </v>
   <v>       0.18218645       0.10206605       0.44676716 </v>
   <v>       0.18171658       0.27394198       0.45187761 </v>
   <v>       0.22716435       0.02799988       0.45539701 </v>
   <v>       0.22623173       0.35882346       0.46020299 </v>
   <v>       0.27046774       0.10869938       0.46558507 </v>
   <v>       0.27050909       0.28112469       0.46798507 </v>
   <v>       0.31348592       0.02143951       0.47695522 </v>
   <v>       0.31346702       0.35865309       0.48207761 </v>
   <v>       0.35570624       0.10228642       0.48940299 </v>
   <v>       0.35454688       0.27214198       0.49380597 </v>
   <v>       0.39487344       0.02280407       0.50811343 </v>
   <v>       0.39058111       0.36044444       0.51622090 </v>
   <v>       0.43678431       0.10787284       0.51947761 </v>
   <v>       0.43517291       0.27601605       0.52050746 </v>
   <v>       0.47915865       0.03164148       0.53440000 </v>
   <v>       0.47955793       0.35926049       0.52955224 </v>
   <v>       0.52372549       0.10517420       0.53641194 </v>
   <v>       0.52215686       0.27384074       0.53642687 </v>
   <v>       0.56658111       0.02249765       0.54291940 </v>
   <v>       0.56590731       0.35551358       0.54158209 </v>
   <v>       0.61052406       0.10646160       0.54148060 </v>
   <v>       0.60855258       0.27144074       0.53834925 </v>
   <v>       0.65601426       0.01769963       0.54085672 </v>
   <v>       0.65314795       0.35918519       0.53399104 </v>
   <v>       0.69981818       0.10136765       0.53195522 </v>
   <v>       0.69764706       0.27251235       0.52738209 </v>
   <v>       0.74250267       0.01626877       0.52918209 </v>
   <v>       0.74297683       0.35594074       0.52399701 </v>
   <v>       0.78615330       0.10275136       0.51620299 </v>
   <v>       0.78541533       0.27342593       0.51404478 </v>
   <v>       0.83152228       0.01480852       0.51083582 </v>
   <v>       0.83032799       0.35741852       0.50754627 </v>
   <v>       0.87391800       0.09711469       0.49652836 </v>
   <v>       0.87400713       0.27169630       0.49648060 </v>
   <v>       0.91498396       0.01990914       0.48347761 </v>
   <v>       0.91632799       0.34786173       0.48681791 </v>
   <v>       0.95504813       0.10368728       0.46702388 </v>
   <v>       0.95551872       0.27579012       0.46680299 </v>
   <v>       0.00773241       0.59943333       0.46949552 </v>
   <v>       0.00797750       0.77014815       0.46807164 </v>
   <v>       0.04991551       0.52028148       0.45905075 </v>
   <v>       0.04988307       0.84980617       0.45454328 </v>
   <v>       0.09403102       0.60376049       0.45815522 </v>
   <v>       0.09365811       0.77294568       0.45780896 </v>
   <v>       0.13674759       0.52235432       0.45053731 </v>
   <v>       0.13793155       0.85366914       0.45002388 </v>
   <v>       0.18021533       0.60439383       0.45910746 </v>
   <v>       0.18244777       0.77523333       0.45537612 </v>
   <v>       0.22343708       0.52716049       0.46651642 </v>
   <v>       0.22709269       0.85595556       0.45703582 </v>
   <v>       0.26574510       0.60659259       0.47890149 </v>
   <v>       0.26930339       0.77333827       0.47577612 </v>
   <v>       0.30722674       0.52461235       0.49125373 </v>
   <v>       0.31094510       0.85974568       0.48582090 </v>
   <v>       0.34531800       0.60472840       0.51070149 </v>
   <v>       0.34886631       0.77281358       0.50605970 </v>
   <v>       0.38782175       0.52504074       0.52222985 </v>
   <v>       0.39133333       0.85673951       0.51534925 </v>
   <v>       0.43205348       0.60774444       0.53068955 </v>
   <v>       0.43457398       0.77941852       0.52922090 </v>
   <v>       0.47429590       0.52227160       0.53858507 </v>
   <v>       0.47696257       0.86175679       0.53994925 </v>
   <v>       0.52096613       0.60711975       0.54388657 </v>
   <v>       0.51993583       0.77514198       0.54913134 </v>
   <v>       0.56417112       0.52314074       0.54658507 </v>
   <v>       0.56606774       0.85441975       0.54914030 </v>
   <v>       0.60911943       0.60165926       0.54985075 </v>
   <v>       0.60901248       0.77453580       0.55038507 </v>
   <v>       0.65360784       0.51897037       0.54368358 </v>
   <v>       0.65641355       0.85845185       0.54677612 </v>
   <v>       0.69960784       0.60143457       0.54362090 </v>
   <v>       0.70144029       0.76898889       0.54572836 </v>
   <v>       0.74239216       0.51900247       0.53390448 </v>
   <v>       0.74526203       0.84794198       0.53451642 </v>
   <v>       0.78778610       0.60044691       0.52972239 </v>
   <v>       0.79004991       0.76866420       0.53293134 </v>
   <v>       0.83026381       0.52398025       0.51589851 </v>
   <v>       0.83360784       0.85238765       0.52024478 </v>
   <v>       0.87540463       0.60246914       0.50777910 </v>
   <v>       0.87793939       0.77168025       0.51082985 </v>
   <v>       0.91857398       0.51421852       0.49206567 </v>
   <v>       0.91662389       0.85163086       0.49176119 </v>
   <v>       0.95952585       0.59944815       0.48499104 </v>
   <v>       0.95963993       0.77558765       0.48405970 </v>
  </varray>
 </structure>
</modeling>
