unknown system                          
            1
    28.050000    0.000000    0.000000
     0.000000    8.100000    0.000000
     0.000000    0.000000   33.500000
   C 
    92
Direct configuration=     1
   0.00474863  0.09693420  0.45186866
   0.00527152  0.27272963  0.45328657
   0.04916684  0.01169133  0.44622687
   0.04961355  0.34738642  0.45043881
   0.09263850  0.10097802  0.43976418
   0.09295971  0.27078889  0.44130448
   0.13781426  0.01906593  0.44444478
   0.13841961  0.35293086  0.44582687
   0.18218645  0.10206605  0.44676716
   0.18171658  0.27394198  0.45187761
   0.22716435  0.02799988  0.45539701
   0.22623173  0.35882346  0.46020299
   0.27046774  0.10869938  0.46558507
   0.27050909  0.28112469  0.46798507
   0.31348592  0.02143951  0.47695522
   0.31346702  0.35865309  0.48207761
   0.35570624  0.10228642  0.48940299
   0.35454688  0.27214198  0.49380597
   0.39487344  0.02280407  0.50811343
   0.39058111  0.36044444  0.51622090
   0.43678431  0.10787284  0.51947761
   0.43517291  0.27601605  0.52050746
   0.47915865  0.03164148  0.53440000
   0.47955793  0.35926049  0.52955224
   0.52372549  0.10517420  0.53641194
   0.52215686  0.27384074  0.53642687
   0.56658111  0.02249765  0.54291940
   0.56590731  0.35551358  0.54158209
   0.61052406  0.10646160  0.54148060
   0.60855258  0.27144074  0.53834925
   0.65601426  0.01769963  0.54085672
   0.65314795  0.35918519  0.53399104
   0.69981818  0.10136765  0.53195522
   0.69764706  0.27251235  0.52738209
   0.74250267  0.01626877  0.52918209
   0.74297683  0.35594074  0.52399701
   0.78615330  0.10275136  0.51620299
   0.78541533  0.27342593  0.51404478
   0.83152228  0.01480852  0.51083582
   0.83032799  0.35741852  0.50754627
   0.87391800  0.09711469  0.49652836
   0.87400713  0.27169630  0.49648060
   0.91498396  0.01990914  0.48347761
   0.91632799  0.34786173  0.48681791
   0.95504813  0.10368728  0.46702388
   0.95551872  0.27579012  0.46680299
   0.00773241  0.59943333  0.46949552
   0.00797750  0.77014815  0.46807164
   0.04991551  0.52028148  0.45905075
   0.04988307  0.84980617  0.45454328
   0.09403102  0.60376049  0.45815522
   0.09365811  0.77294568  0.45780896
   0.13674759  0.52235432  0.45053731
   0.13793155  0.85366914  0.45002388
   0.18021533  0.60439383  0.45910746
   0.18244777  0.77523333  0.45537612
   0.22343708  0.52716049  0.46651642
   0.22709269  0.85595556  0.45703582
   0.26574510  0.60659259  0.47890149
   0.26930339  0.77333827  0.47577612
   0.30722674  0.52461235  0.49125373
   0.31094510  0.85974568  0.48582090
   0.34531800  0.60472840  0.51070149
   0.34886631  0.77281358  0.50605970
   0.38782175  0.52504074  0.52222985
   0.39133333  0.85673951  0.51534925
   0.43205348  0.60774444  0.53068955
   0.43457398  0.77941852  0.52922090
   0.47429590  0.52227160  0.53858507
   0.47696257  0.86175679  0.53994925
   0.52096613  0.60711975  0.54388657
   0.51993583  0.77514198  0.54913134
   0.56417112  0.52314074  0.54658507
   0.56606774  0.85441975  0.54914030
   0.60911943  0.60165926  0.54985075
   0.60901248  0.77453580  0.55038507
   0.65360784  0.51897037  0.54368358
   0.65641355  0.85845185  0.54677612
   0.69960784  0.60143457  0.54362090
   0.70144029  0.76898889  0.54572836
   0.74239216  0.51900247  0.53390448
   0.74526203  0.84794198  0.53451642
   0.78778610  0.60044691  0.52972239
   0.79004991  0.76866420  0.53293134
   0.83026381  0.52398025  0.51589851
   0.83360784  0.85238765  0.52024478
   0.87540463  0.60246914  0.50777910
   0.87793939  0.77168025  0.51082985
   0.91857398  0.51421852  0.49206567
   0.91662389  0.85163086  0.49176119
   0.95952585  0.59944815  0.48499104
   0.95963993  0.77558765  0.48405970
