  92  92   0   0
  0.8273226E+02  0.2805000E-08  0.8100000E-09  0.3350000E-08  0.5000000E-15
   1.0000000000000000E-004
  CAR 
 unknown system                          
      3.82480444    -25.21261727  301     -3.18616636      1.00000000
    -25.213  0.0000E+00  0.0000E+00
    -25.116  0.0000E+00  0.0000E+00
    -25.019  0.0000E+00  0.0000E+00
    -24.922  0.0000E+00  0.0000E+00
    -24.825  0.0000E+00  0.0000E+00
    -24.729  0.0000E+00  0.0000E+00
    -24.632  0.0000E+00  0.0000E+00
    -24.535  0.0000E+00  0.0000E+00
    -24.438  0.0000E+00  0.0000E+00
    -24.341  0.3728E-14  0.3608E-15
    -24.245  0.7691E-12  0.7480E-13
    -24.148  0.9962E-10  0.9718E-11
    -24.051  0.8193E-08  0.8027E-09
    -23.954  0.4292E-06  0.4235E-07
    -23.858  0.1440E-04  0.1436E-05
    -23.761  0.3112E-03  0.3156E-04
    -23.664  0.4372E-02  0.4548E-03
    -23.567  0.4034E-01  0.4360E-02
    -23.470  0.2476E+00  0.2833E-01
    -23.374  0.1028E+01  0.1278E+00
    -23.277  0.2947E+01  0.4130E+00
    -23.180  0.6031E+01  0.9968E+00
    -23.083  0.9240E+01  0.1891E+01
    -22.986  0.1133E+02  0.2987E+01
    -22.890  0.1213E+02  0.4162E+01
    -22.793  0.1271E+02  0.5392E+01
    -22.696  0.1421E+02  0.6767E+01
    -22.599  0.1610E+02  0.8326E+01
    -22.502  0.1636E+02  0.9909E+01
    -22.406  0.1464E+02  0.1133E+02
    -22.309  0.1322E+02  0.1261E+02
    -22.212  0.1328E+02  0.1389E+02
    -22.115  0.1383E+02  0.1523E+02
    -22.019  0.1416E+02  0.1660E+02
    -21.922  0.1435E+02  0.1799E+02
    -21.825  0.1431E+02  0.1937E+02
    -21.728  0.1384E+02  0.2071E+02
    -21.631  0.1291E+02  0.2196E+02
    -21.535  0.1186E+02  0.2311E+02
    -21.438  0.1134E+02  0.2421E+02
    -21.341  0.1180E+02  0.2535E+02
    -21.244  0.1321E+02  0.2663E+02
    -21.147  0.1519E+02  0.2810E+02
    -21.051  0.1667E+02  0.2971E+02
    -20.954  0.1619E+02  0.3128E+02
    -20.857  0.1386E+02  0.3262E+02
    -20.760  0.1191E+02  0.3378E+02
    -20.663  0.1201E+02  0.3494E+02
    -20.567  0.1301E+02  0.3620E+02
    -20.470  0.1322E+02  0.3748E+02
    -20.373  0.1305E+02  0.3874E+02
    -20.276  0.1376E+02  0.4007E+02
    -20.179  0.1530E+02  0.4155E+02
    -20.083  0.1631E+02  0.4313E+02
    -19.986  0.1587E+02  0.4467E+02
    -19.889  0.1419E+02  0.4604E+02
    -19.792  0.1235E+02  0.4724E+02
    -19.696  0.1231E+02  0.4843E+02
    -19.599  0.1452E+02  0.4983E+02
    -19.502  0.1647E+02  0.5143E+02
    -19.405  0.1613E+02  0.5299E+02
    -19.308  0.1432E+02  0.5437E+02
    -19.212  0.1306E+02  0.5564E+02
    -19.115  0.1338E+02  0.5693E+02
    -19.018  0.1424E+02  0.5831E+02
    -18.921  0.1382E+02  0.5965E+02
    -18.824  0.1261E+02  0.6087E+02
    -18.728  0.1328E+02  0.6215E+02
    -18.631  0.1596E+02  0.6370E+02
    -18.534  0.1747E+02  0.6539E+02
    -18.437  0.1657E+02  0.6699E+02
    -18.340  0.1558E+02  0.6850E+02
    -18.244  0.1637E+02  0.7009E+02
    -18.147  0.1784E+02  0.7181E+02
    -18.050  0.1753E+02  0.7351E+02
    -17.953  0.1529E+02  0.7499E+02
    -17.856  0.1338E+02  0.7628E+02
    -17.760  0.1275E+02  0.7752E+02
    -17.663  0.1219E+02  0.7870E+02
    -17.566  0.1105E+02  0.7977E+02
    -17.469  0.1018E+02  0.8075E+02
    -17.373  0.1049E+02  0.8177E+02
    -17.276  0.1178E+02  0.8291E+02
    -17.179  0.1290E+02  0.8416E+02
    -17.082  0.1285E+02  0.8540E+02
    -16.985  0.1158E+02  0.8652E+02
    -16.889  0.1005E+02  0.8749E+02
    -16.792  0.9769E+01  0.8844E+02
    -16.695  0.1139E+02  0.8954E+02
    -16.598  0.1388E+02  0.9089E+02
    -16.501  0.1552E+02  0.9239E+02
    -16.405  0.1561E+02  0.9390E+02
    -16.308  0.1501E+02  0.9535E+02
    -16.211  0.1521E+02  0.9682E+02
    -16.114  0.1649E+02  0.9842E+02
    -16.017  0.1742E+02  0.1001E+03
    -15.921  0.1695E+02  0.1017E+03
    -15.824  0.1553E+02  0.1033E+03
    -15.727  0.1380E+02  0.1046E+03
    -15.630  0.1217E+02  0.1058E+03
    -15.533  0.1160E+02  0.1069E+03
    -15.437  0.1343E+02  0.1082E+03
    -15.340  0.1746E+02  0.1099E+03
    -15.243  0.2126E+02  0.1119E+03
    -15.146  0.2299E+02  0.1142E+03
    -15.050  0.2269E+02  0.1164E+03
    -14.953  0.2039E+02  0.1183E+03
    -14.856  0.1657E+02  0.1199E+03
    -14.759  0.1302E+02  0.1212E+03
    -14.662  0.1094E+02  0.1223E+03
    -14.566  0.1003E+02  0.1232E+03
    -14.469  0.9808E+01  0.1242E+03
    -14.372  0.1010E+02  0.1252E+03
    -14.275  0.1074E+02  0.1262E+03
    -14.178  0.1184E+02  0.1273E+03
    -14.082  0.1357E+02  0.1286E+03
    -13.985  0.1533E+02  0.1301E+03
    -13.888  0.1638E+02  0.1317E+03
    -13.791  0.1696E+02  0.1334E+03
    -13.694  0.1805E+02  0.1351E+03
    -13.598  0.1923E+02  0.1370E+03
    -13.501  0.1900E+02  0.1388E+03
    -13.404  0.1791E+02  0.1405E+03
    -13.307  0.1793E+02  0.1423E+03
    -13.210  0.1856E+02  0.1441E+03
    -13.114  0.1723E+02  0.1457E+03
    -13.017  0.1434E+02  0.1471E+03
    -12.920  0.1323E+02  0.1484E+03
    -12.823  0.1475E+02  0.1498E+03
    -12.727  0.1612E+02  0.1514E+03
    -12.630  0.1523E+02  0.1529E+03
    -12.533  0.1326E+02  0.1542E+03
    -12.436  0.1300E+02  0.1554E+03
    -12.339  0.1557E+02  0.1569E+03
    -12.243  0.1993E+02  0.1588E+03
    -12.146  0.2412E+02  0.1612E+03
    -12.049  0.2599E+02  0.1637E+03
    -11.952  0.2477E+02  0.1661E+03
    -11.855  0.2187E+02  0.1682E+03
    -11.759  0.1884E+02  0.1700E+03
    -11.662  0.1621E+02  0.1716E+03
    -11.565  0.1440E+02  0.1730E+03
    -11.468  0.1447E+02  0.1744E+03
    -11.371  0.1691E+02  0.1760E+03
    -11.275  0.2045E+02  0.1780E+03
    -11.178  0.2357E+02  0.1803E+03
    -11.081  0.2662E+02  0.1829E+03
    -10.984  0.3052E+02  0.1858E+03
    -10.887  0.3409E+02  0.1891E+03
    -10.791  0.3497E+02  0.1925E+03
    -10.694  0.3362E+02  0.1958E+03
    -10.597  0.3335E+02  0.1990E+03
    -10.500  0.3591E+02  0.2025E+03
    -10.404  0.3898E+02  0.2062E+03
    -10.307  0.3927E+02  0.2100E+03
    -10.210  0.3687E+02  0.2136E+03
    -10.113  0.3452E+02  0.2170E+03
    -10.016  0.3342E+02  0.2202E+03
     -9.920  0.3284E+02  0.2234E+03
     -9.823  0.3312E+02  0.2266E+03
     -9.726  0.3568E+02  0.2300E+03
     -9.629  0.3983E+02  0.2339E+03
     -9.532  0.4276E+02  0.2380E+03
     -9.436  0.4309E+02  0.2422E+03
     -9.339  0.4109E+02  0.2462E+03
     -9.242  0.3714E+02  0.2498E+03
     -9.145  0.3245E+02  0.2529E+03
     -9.048  0.2939E+02  0.2558E+03
     -8.952  0.2923E+02  0.2586E+03
     -8.855  0.3132E+02  0.2616E+03
     -8.758  0.3440E+02  0.2649E+03
     -8.661  0.3728E+02  0.2686E+03
     -8.564  0.3845E+02  0.2723E+03
     -8.468  0.3675E+02  0.2758E+03
     -8.371  0.3304E+02  0.2790E+03
     -8.274  0.2946E+02  0.2819E+03
     -8.177  0.2684E+02  0.2845E+03
     -8.081  0.2500E+02  0.2869E+03
     -7.984  0.2439E+02  0.2893E+03
     -7.887  0.2571E+02  0.2917E+03
     -7.790  0.2820E+02  0.2945E+03
     -7.693  0.2986E+02  0.2974E+03
     -7.597  0.2977E+02  0.3002E+03
     -7.500  0.2907E+02  0.3031E+03
     -7.403  0.2898E+02  0.3059E+03
     -7.306  0.2873E+02  0.3086E+03
     -7.209  0.2697E+02  0.3113E+03
     -7.113  0.2441E+02  0.3136E+03
     -7.016  0.2280E+02  0.3158E+03
     -6.919  0.2265E+02  0.3180E+03
     -6.822  0.2364E+02  0.3203E+03
     -6.725  0.2533E+02  0.3228E+03
     -6.629  0.2635E+02  0.3253E+03
     -6.532  0.2523E+02  0.3278E+03
     -6.435  0.2280E+02  0.3300E+03
     -6.338  0.2130E+02  0.3320E+03
     -6.242  0.2160E+02  0.3341E+03
     -6.145  0.2300E+02  0.3363E+03
     -6.048  0.2438E+02  0.3387E+03
     -5.951  0.2493E+02  0.3411E+03
     -5.854  0.2409E+02  0.3434E+03
     -5.758  0.2176E+02  0.3455E+03
     -5.661  0.1881E+02  0.3474E+03
     -5.564  0.1615E+02  0.3489E+03
     -5.467  0.1366E+02  0.3503E+03
     -5.370  0.1149E+02  0.3514E+03
     -5.274  0.1081E+02  0.3524E+03
     -5.177  0.1160E+02  0.3535E+03
     -5.080  0.1172E+02  0.3547E+03
     -4.983  0.1007E+02  0.3556E+03
     -4.886  0.8438E+01  0.3565E+03
     -4.790  0.8586E+01  0.3573E+03
     -4.693  0.1023E+02  0.3583E+03
     -4.596  0.1247E+02  0.3595E+03
     -4.499  0.1458E+02  0.3609E+03
     -4.402  0.1513E+02  0.3624E+03
     -4.306  0.1271E+02  0.3636E+03
     -4.209  0.8215E+01  0.3644E+03
     -4.112  0.4163E+01  0.3648E+03
     -4.015  0.1951E+01  0.3650E+03
     -3.919  0.1588E+01  0.3651E+03
     -3.822  0.2514E+01  0.3654E+03
     -3.725  0.3697E+01  0.3657E+03
     -3.628  0.4170E+01  0.3661E+03
     -3.531  0.4044E+01  0.3665E+03
     -3.435  0.4068E+01  0.3669E+03
     -3.338  0.4261E+01  0.3673E+03
     -3.241  0.4324E+01  0.3678E+03
     -3.144  0.4635E+01  0.3682E+03
     -3.047  0.5361E+01  0.3687E+03
     -2.951  0.5674E+01  0.3693E+03
     -2.854  0.5175E+01  0.3698E+03
     -2.757  0.4736E+01  0.3702E+03
     -2.660  0.5129E+01  0.3707E+03
     -2.563  0.6127E+01  0.3713E+03
     -2.467  0.6954E+01  0.3720E+03
     -2.370  0.7062E+01  0.3727E+03
     -2.273  0.6881E+01  0.3733E+03
     -2.176  0.7158E+01  0.3740E+03
     -2.079  0.7451E+01  0.3748E+03
     -1.983  0.6771E+01  0.3754E+03
     -1.886  0.5756E+01  0.3760E+03
     -1.789  0.6555E+01  0.3766E+03
     -1.692  0.1014E+02  0.3776E+03
     -1.596  0.1490E+02  0.3790E+03
     -1.499  0.1854E+02  0.3808E+03
     -1.402  0.2035E+02  0.3828E+03
     -1.305  0.2078E+02  0.3848E+03
     -1.208  0.2052E+02  0.3868E+03
     -1.112  0.2054E+02  0.3888E+03
     -1.015  0.2075E+02  0.3908E+03
     -0.918  0.1916E+02  0.3926E+03
     -0.821  0.1519E+02  0.3941E+03
     -0.724  0.1154E+02  0.3952E+03
     -0.628  0.1080E+02  0.3963E+03
     -0.531  0.1206E+02  0.3974E+03
     -0.434  0.1259E+02  0.3987E+03
     -0.337  0.1194E+02  0.3998E+03
     -0.240  0.1222E+02  0.4010E+03
     -0.144  0.1428E+02  0.4024E+03
     -0.047  0.1695E+02  0.4040E+03
      0.050  0.1934E+02  0.4059E+03
      0.147  0.2140E+02  0.4080E+03
      0.244  0.2286E+02  0.4102E+03
      0.340  0.2279E+02  0.4124E+03
      0.437  0.2082E+02  0.4144E+03
      0.534  0.1911E+02  0.4162E+03
      0.631  0.2044E+02  0.4182E+03
      0.727  0.2443E+02  0.4206E+03
      0.824  0.2818E+02  0.4233E+03
      0.921  0.3050E+02  0.4263E+03
      1.018  0.3311E+02  0.4295E+03
      1.115  0.3752E+02  0.4331E+03
      1.211  0.4319E+02  0.4373E+03
      1.308  0.4849E+02  0.4420E+03
      1.405  0.5135E+02  0.4469E+03
      1.502  0.5014E+02  0.4518E+03
      1.599  0.4452E+02  0.4561E+03
      1.695  0.3551E+02  0.4595E+03
      1.792  0.2451E+02  0.4619E+03
      1.889  0.1366E+02  0.4632E+03
      1.986  0.5717E+01  0.4638E+03
      2.083  0.1715E+01  0.4640E+03
      2.179  0.3599E+00  0.4640E+03
      2.276  0.5216E-01  0.4640E+03
      2.373  0.5164E-02  0.4640E+03
      2.470  0.3447E-03  0.4640E+03
      2.567  0.1528E-04  0.4640E+03
      2.663  0.4437E-06  0.4640E+03
      2.760  0.8339E-08  0.4640E+03
      2.857  0.1005E-09  0.4640E+03
      2.954  0.7719E-12  0.4640E+03
      3.050  0.3441E-14  0.4640E+03
      3.147  0.0000E+00  0.4640E+03
      3.244  0.0000E+00  0.4640E+03
      3.341  0.0000E+00  0.4640E+03
      3.438  0.0000E+00  0.4640E+03
      3.534  0.0000E+00  0.4640E+03
      3.631  0.0000E+00  0.4640E+03
      3.728  0.0000E+00  0.4640E+03
      3.825  0.0000E+00  0.4640E+03
