  2.3828614e+00   5.0637047e-03
  3.4847338e+00   5.0267237e-03
 -1.1523909e-01   3.8987475e-03
 -1.2135175e+00   1.5053852e-02
  1.4233482e-01   1.0571901e-02
  7.5743343e-03   3.5351261e-03
 -1.3521292e+00   5.8788238e-03
  7.2646809e-01   1.0038126e-02
 -3.6452708e-01   3.9813995e-02
  7.1951199e-01   1.0950187e-02
 -6.5479703e-02   4.3393247e-04
 -1.4453914e+00   1.8713792e-03
 -1.0865154e+00   1.2460223e-03
  1.4121267e-01   2.6770474e-03
  1.8373395e+00   6.9609925e-04
 -6.5601397e-01   2.8956064e-04
 -1.2921906e+00   1.7200416e-03
 -2.3005986e+00   5.7545267e-03
  9.8627394e-01   1.7828819e-03
  1.7343739e+00   1.3684860e-03
 -8.3291602e-01   6.0249548e-03
 -1.0347337e+00   8.0812415e-03
  8.8344508e-01   2.2416271e-03
  1.9847727e+00   7.2154384e-03
 -5.3684384e-01   1.1837354e-03
  1.8600851e-01   6.6562449e-03
 -1.1729275e+00   6.5128079e-06
 -7.9880461e-02   8.9744758e-03
 -5.1463300e-01   3.9900064e-02
  1.2359490e+00   3.7008272e-03
 -5.0670332e-01   1.9310734e-03
 -9.2670578e-01   3.8542341e-02
  1.7556502e-01   2.1868369e-04
 -4.7470516e-01   3.2448638e-02
 -1.9214205e+00   2.5679700e-03
  1.4706932e+00   3.0956301e-04
  1.0766028e+00   3.5326523e-04
  3.0829716e+00   9.3540072e-04
 -1.4661534e+00   2.5049688e-03
  1.0404706e+00   8.5959728e-05
  1.2326581e+00   1.5275659e-03
  2.1006043e+00   1.7973805e-03
 -3.0336754e+00   4.6676907e-04
  1.3815453e+00   4.0157619e-03
 -1.2006644e+00   5.7078683e-04
  2.1745026e+00   1.5222713e-05
  9.4751918e-01   2.6136757e-05
 -9.1090411e-01   5.6795136e-04
  6.2886012e-01   2.4433248e-03
 -8.7461364e-01   4.0075276e-05
  2.0738904e+00   7.0250077e-05
 -2.7894528e+00   1.2141068e-05
 -1.7426574e+00   2.6230884e-04
 -1.9187260e+00   5.8062340e-04
 -3.1854752e-01   3.5793817e-04
  4.2236826e-01   3.2689772e-04
 -2.0516152e+00   8.9477119e-04
  1.6684242e+00   4.3014513e-04
  4.3078035e-01   3.0801375e-03
 -7.1790260e-01   3.4750017e-04
  9.4149065e-01   5.3734274e-04
  3.2799076e-02   2.5064030e-04
  3.2559295e+00   2.3347826e-05
  6.4883180e-02   3.9952781e-02
 -1.3074127e+00   2.6088560e-03
  3.4918225e-01   4.2525222e-04
 -6.9420165e-01   7.0193096e-04
  1.6833968e+00   5.2171963e-04
  1.2466791e-02   9.2439884e-03
 -1.1551889e+00   1.1898072e-02
 -2.7569371e-01   5.5082589e-03
 -1.2670358e+00   2.4415627e-03
  3.5911599e-01   1.2550981e-03
 -1.3138874e+00   2.8594807e-03
  1.4612719e+00   2.7541346e-03
 -1.4434527e+00   2.2517375e-05
  2.6965349e+00   2.6631912e-03
  1.4041011e-01   3.0943886e-03
  6.2857276e-01   3.1530347e-02
  7.1423328e-01   1.3336156e-02
 -4.4847798e-01   6.7657413e-04
  5.7934499e-01   8.5990003e-04
  6.2744266e-01   5.3982623e-03
  1.8524984e+00   1.0109163e-02
  7.3034674e-01   2.7122998e-03
  1.1986307e+00   1.7390494e-03
 -2.4882831e-01   1.1723198e-03
 -1.4476705e+00   1.2836700e-03
  4.8102826e-02   1.1754961e-04
  2.5909886e+00   2.1742741e-03
 -1.7190914e-01   1.8345682e-03
  1.5588224e+00   9.5355008e-03
  7.5314528e-01   5.6151925e-03
 -7.1653479e-01   2.0597868e-02
  8.5644287e-01   1.1634908e-03
 -1.1599436e-01   3.8339724e-04
 -3.4792855e+00   2.8964938e-03
  1.2476847e+00   1.5682906e-02
 -5.3847051e-01   1.9010272e-02
 -8.5021400e-01   7.8654261e-03
 -8.5757494e-01   1.0888031e-02
 -7.8397900e-01   5.7209864e-02
 -2.0415388e-01   3.0645417e-02
 -1.0802195e+00   1.4441321e-02
 -2.1230678e-01   5.0961420e-02
 -2.1290858e+00   8.1903971e-05
 -1.0622488e+00   1.0577030e-04
 -1.6766224e+00   3.3628901e-05
  5.2892691e-01   2.9213729e-03
  3.3979258e-03   4.4785993e-05
 -2.2237549e+00   2.2906407e-04
  2.2766678e-01   1.7901661e-04
  3.0332875e+00   5.1210460e-04
  3.4423479e-01   6.8814715e-04
  6.0997242e-01   5.8218339e-03
 -3.2333627e-01   2.0680761e-04
  2.6016886e+00   9.4261100e-05
  7.9527807e-01   3.3113133e-04
  2.0320623e-01   2.3683221e-03
 -2.2165881e-01   8.2667597e-05
 -2.7569449e-01   1.7254462e-05
  2.2992923e+00   1.8707382e-04
  2.4029689e+00   1.5016054e-04
  6.8457417e-02   1.3597718e-04
 -3.3833522e-01   5.3253665e-04
 -3.9620635e-01   1.7081108e-03
  1.3547046e+00   1.7414410e-03
  1.1156222e+00   2.8109128e-04
 -7.3310655e-01   6.8890662e-03
  3.2083067e-01   1.5541214e-03
  1.3275120e+00   2.9302642e-04
 -1.0597308e+00   4.1635917e-03
 -2.1253288e+00   5.0773807e-03
 -1.4896514e+00   2.4885342e-03
  1.6288949e+00   3.1347689e-03
  1.0195502e+00   2.0259563e-03
  8.2589412e-01   1.0405024e-02
  3.3771759e-01   3.0122453e-02
  1.2423346e+00   3.7007306e-03
  3.7473768e-01   5.9898673e-03
 -4.0826657e-01   5.4397210e-03
  1.1949103e+00   2.5364920e-03
  1.0246899e-01   1.3733095e-03
 -2.4203117e+00   9.6757486e-03
  4.1409418e-01   3.6573529e-03
  2.2770989e-01   9.2788547e-04
  5.8604770e+00   2.4015011e-02
  1.2651129e+00   1.2294970e-02
 -1.6394550e-01   4.2322710e-02
 -2.1675907e-01   2.3895642e-02
 -2.6943401e-01   2.1462506e-03
 -1.5328128e+00   1.5103284e-03
 -2.1127958e+00   8.4293773e-03
 -4.6410866e-02   6.8557584e-03
  1.1734129e+00   8.6904410e-04
 -1.8299527e-01   7.0695515e-04
  6.9634044e-01   2.4123623e-03
  9.3108304e-02   2.2614456e-03
  8.3716089e-01   1.0487123e-02
 -4.4013971e-01   2.5106617e-03
 -1.5853394e+00   3.6857121e-03
  4.1167739e-01   7.5528398e-04
  5.5496985e-01   9.5923385e-03
 -3.1412446e-01   3.1779881e-03
  1.1405271e+00   1.7989466e-02
  9.1145200e-01   1.8091707e-03
  4.2353135e-01   6.0714880e-04
  3.5827357e-01   1.5188047e-02
 -1.1701313e-01   3.2610700e-02
 -1.8633755e-01   1.5577847e-02
  9.6749645e-01   1.8709781e-02
  6.0908026e-01   2.8086673e-02
 -7.7918231e-01   1.5587070e-03
  1.2203763e-01   5.4891489e-02
 -1.1003071e-01   2.6682828e-02
 -1.7567370e+00   9.9298870e-04
 -2.5763400e+00   1.7752490e-03
  7.0462751e-01   1.3743809e-03
  1.4182061e-01   9.8391308e-04
  1.5844181e+00   7.6186615e-03
 -2.6575395e-01   3.1256763e-04
  2.9639217e-01   2.5119209e-03
  2.1537809e+00   1.1511712e-04
 -3.7358022e-01   9.4656146e-04
  3.5371263e+00   5.4276321e-04
 -2.0596139e+00   7.9885402e-05
 -7.5992808e-02   3.3021185e-03
  2.9503613e+00   8.0111763e-03
 -9.7480381e-01   8.9391703e-03
  1.5915685e+00   3.9555295e-04
 -5.8423191e-01   8.5332495e-04
  1.7832623e+00   3.9249462e-06
  2.9458303e+00   1.0460457e-04
  6.3519657e-01   1.2504320e-03
  3.0268185e+00   1.4345545e-03
  4.4772533e-01   1.8577703e-04
 -8.1624877e-01   1.5673031e-03
 -5.7053131e-01   2.2653150e-03
 -7.1365047e-01   3.0120725e-02
  1.6875291e+00   2.1600104e-03
 -3.6752305e+00   2.9904323e-03
  6.4620978e-01   2.2266193e-03
  2.5671101e-01   1.1986759e-02
  2.6080081e-01   5.9331935e-03
  6.5884066e-01   2.3089435e-03
 -2.4953388e-01   7.7247056e-03
 -2.2140822e-01   2.9095498e-04
  9.5362896e-01   8.2565541e-04
  3.8766539e-01   4.4708721e-02
 -1.3345624e+00   1.6808828e-03
 -1.1431805e+00   4.6862666e-03
 -3.9357561e-01   9.5058247e-05
  1.1066010e+00   3.2293573e-03
  1.3933181e+00   1.7264306e-04
  2.5486236e+00   1.7598422e-02
 -3.8390317e+00   4.9523795e-03
  1.5159671e-01   1.3802173e-02
  7.6123476e-01   1.7104002e-03
  7.6735187e-01   3.8876932e-02
  1.5849066e+00   2.1846923e-03
 -3.8234815e-01   4.2308853e-03
 -1.7136666e+00   6.3739531e-04
  1.6041452e+00   2.3359103e-02
  9.4772476e-01   7.4714958e-04
  2.0095437e+00   1.5025043e-02
 -5.1614642e-01   2.6886323e-03
 -1.6484107e+00   3.4528389e-03
 -5.2849180e-01   1.8912567e-02
  2.5945501e+00   1.1760683e-04
 -1.6345938e+00   1.0587499e-03
 -7.0164543e-01   8.9003714e-03
 -2.6590078e+00   1.8514042e-04
 -1.3420750e+00   4.5601297e-03
  1.9990802e+00   4.8683197e-04
  1.1566128e+00   5.3691682e-03
 -1.0402201e+00   3.2392778e-02
  7.3043913e-01   2.7132428e-03
  2.0616776e-01   5.8477181e-03
 -6.4058274e-01   3.0464116e-02
  7.6581639e-01   2.7127901e-02
 -1.8651447e-01   1.5371300e-02
  4.8320413e-01   1.8212532e-03
  2.9511532e-01   1.2813196e-02
  1.5285891e-01   8.9859203e-02
 -1.0882201e+00   2.9218639e-03
 -4.8647828e+00   2.1266199e-04
 -4.8905581e-01   7.9065369e-04
 -4.3691474e-01   1.6291077e-03
 -4.3579388e-01   1.4649468e-02
  2.5132129e+00   2.9192157e-03
 -3.5698540e+00   1.9453521e-03
 -2.7475295e+00   7.4966330e-05
  1.4788917e+00   6.2417765e-03
 -1.2078363e-02   1.4526925e-02
 -2.1967974e-02   4.3132170e-03
  8.4258115e-04   7.3845667e-04
 -1.8462603e+00   2.6437809e-04
  1.2623564e+00   8.6742667e-03
  1.3416831e+00   3.5116911e-02
  1.0738680e+00   5.4257729e-05
  2.4240975e-01   2.0145411e-03
 -2.0946186e+00   4.4144451e-04
 -1.0679996e+00   2.8619345e-04
  2.3586574e+00   3.2016079e-04
  1.0268511e+00   7.0482033e-04
  1.0499077e+00   1.0973153e-04
  6.3717675e-01   3.5876880e-04
 -1.3678142e+00   3.2152087e-04
 -9.0193290e-01   5.7274947e-04
  1.6568607e+00   2.8965581e-04
 -7.4306601e-01   1.9186687e-03
 -1.1359402e+00   5.8935876e-03
 -3.2192335e-01   1.8031791e-02
 -5.0261915e-01   3.6328442e-03
  1.8424865e+00   1.7179554e-02
 -1.2338261e-01   2.0682566e-02
 -4.9451530e-01   2.5476305e-02
  5.4428726e-01   2.1114480e-02
  1.9677712e-01   1.3388784e-02
 -1.6329728e-01   2.0719429e-02
 -1.3583504e-01   6.8058069e-03
  1.4218521e-01   1.1014671e-03
 -8.9960635e-01   4.4845711e-03
  2.5692062e+00   1.9654392e-04
  7.9064891e-02   3.1992933e-03
 -1.8574654e+00   4.4697793e-03
  4.1848063e-01   5.4940595e-03
 -1.9725496e-01   4.1967812e-03
 -5.9838092e-01   9.3675228e-03
 -2.4166228e-01   1.3903995e-02
  5.5710047e-01   2.3670483e-03
  1.6387801e+00   2.4685282e-03
  1.8887157e+00   7.2360267e-03
  7.4786705e-01   1.1626252e-02
 -5.0592172e-01   8.9984257e-03
 -4.3701744e-01   3.5109164e-03
 -7.1283740e-01   3.2706738e-03
 -2.8983143e-01   3.3321104e-03
 -7.9536003e-01   1.3759467e-02
 -1.5549016e+00   2.9434420e-03
  2.0603085e+00   2.6619530e-03
  3.3736613e-01   3.0507557e-03
  1.0194228e+00   3.8638732e-03
 -8.2074709e-02   6.0665778e-05
  3.8574860e+00   1.1438928e-02
  1.6888583e+00   6.4323083e-03
  1.5044948e+00   1.1397346e-03
 -1.3356016e+00   3.8741425e-02
  9.4773072e-01   3.0413312e-03
  1.0670427e+00   1.1450287e-02
 -5.8355004e-01   1.2753294e-02
 -1.3753160e+00   1.5491490e-02
 -1.9862139e-01   2.7504036e-02
 -7.0110315e-01   1.8945407e-02
  3.6480945e-02   1.6084116e-02
  3.5901563e+00   5.0147745e-04
 -2.9798055e-01   2.1820928e-03
 -7.4979097e-01   4.4521759e-03
 -2.6185879e-01   5.9977933e-03
 -1.3917618e+00   8.1128702e-03
 -6.3362950e-01   5.0144363e-03
  7.7670377e-01   1.2009790e-02
 -5.2413273e-01   4.3180507e-02
  1.1234004e+00   2.0046474e-02
 -4.3631196e-01   1.0248618e-02
  7.4143070e-01   2.5958822e-03
 -1.5886304e+00   9.7624079e-04
 -4.1286311e-01   2.0718286e-03
  1.1753018e+00   9.0750732e-04
 -1.5819927e+00   6.8757012e-03
 -1.8316664e+00   5.5047451e-04
 -1.3905592e+00   1.0425154e-03
 -2.6315296e-01   4.9801148e-03
 -2.0970292e+00   6.7360786e-04
  4.3480510e-01   1.0420873e-03
  7.3530811e-01   1.7666471e-03
 -8.9496231e-01   2.1053278e-03
  1.0190509e-01   2.1536194e-02
 -4.0108100e-01   1.1192561e-03
 -2.4875824e+00   1.7872781e-03
  1.1601144e+00   1.6130064e-02
  4.5602605e-01   3.3955692e-04
 -2.2334626e-01   5.7752877e-03
 -8.6208010e-01   4.9053505e-04
 -1.0376991e-01   7.4361209e-03
 -7.0796126e-01   1.4833240e-03
  5.8740556e-01   7.4148481e-04
 -1.1335227e+00   3.0069482e-02
 -2.2231801e-01   2.2925681e-02
 -5.8518028e-01   3.0719489e-02
  1.4577160e+00   1.7555399e-04
  2.0039983e+00   2.2657684e-03
  7.7024096e-01   5.0098385e-04
 -8.1115472e-01   3.9395299e-03
 -1.3009588e-01   3.7378515e-03
  1.6529541e+00   3.2818345e-03
  5.4203057e-01   5.3863837e-03
  3.8702362e+00   1.0424279e-02
  1.3877542e-01   9.2992425e-04
  6.7778808e-01   1.2279038e-02
 -4.2004800e-01   2.2428695e-03
  1.3784450e-01   7.6120911e-04
  5.1307428e-01   7.4890968e-03
  1.1530714e-01   1.7126523e-02
  1.0600936e+00   4.3069624e-04
  8.5270250e-01   8.2112208e-05
  7.9288965e-01   2.0901032e-03
 -3.1370896e-01   1.5756468e-03
 -4.4116735e-01   2.2124683e-03
 -5.9861392e-01   1.1402110e-02
  3.2586162e+00   1.5234603e-03
 -1.7150992e-01   1.0375619e-03
 -1.8861609e-02   7.1464856e-03
 -3.6479023e-03   2.4501733e-03
  5.2409989e-01   3.2057303e-03
  1.3686459e+00   3.3719727e-04
  3.5491267e-01   1.3517273e-03
  1.6898632e-01   7.6130414e-03
  3.0705929e+00   9.4214010e-05
  9.4705814e-01   1.3033201e-02
  5.9640521e-01   2.1151591e-02
 -1.3125380e+00   5.8331265e-04
  3.3560193e-01   2.9506968e-02
  2.1282274e-01   3.5301398e-02
  1.8928660e-01   3.9486174e-02
  1.8425537e+00   1.0198864e-02
 -2.9068014e-01   1.8119017e-03
 -2.0753400e-02   9.2917625e-03
 -6.3039976e-01   1.5069601e-02
  4.0414509e-01   1.7133661e-02
 -7.9273963e-01   9.0976460e-03
  5.5807754e-02   7.8224990e-04
  9.3193567e-01   1.9464686e-03
  9.4259709e-01   2.7501862e-03
  1.6775731e+00   1.1679698e-02
  5.0299400e-01   5.4236536e-04
  2.6590371e-01   2.4339950e-04
 -9.9994493e-01   1.0502193e-02
  4.3873373e-01   4.6419689e-05
  1.1178602e+00   7.6530701e-03
 -1.4214044e+00   1.5459223e-04
 -2.0109940e-02   1.1210366e-03
  1.2169541e-02   5.1666340e-03
  6.2156850e-01   3.2853361e-02
 -1.3228737e+00   4.1619716e-03
 -2.4230385e+00   1.1567399e-02
 -2.4344416e+00   8.0186771e-03
  1.3242944e+00   1.1467888e-03
 -7.2695631e-01   4.4783946e-02
  1.3322206e+00   8.9973649e-03
  6.4960963e-01   3.9034192e-03
  3.1978707e+00   9.5297745e-04
 -2.9194176e-01   1.8097835e-02
  3.7572861e-01   2.7913813e-02
 -6.5673286e-01   3.6093209e-02
  9.3074483e-01   1.2780724e-03
  5.9658367e-02   3.8355891e-02
  5.6688583e-01   1.0816256e-02
 -4.2439556e-01   3.9724335e-02
 -7.4453664e-01   6.3131668e-02
  5.5032188e-01   2.7249705e-03
 -3.6058488e-01   6.2244092e-03
  1.6595754e-01   9.4751855e-03
 -1.8802708e-01   1.1963509e-02
 -7.2814994e-02   3.3255354e-02
 -1.9498312e-01   7.0501672e-04
 -8.5043257e-01   8.1978567e-02
 -1.7144889e+00   1.1043754e-02
 -1.4684737e+00   2.0352348e-03
  1.9099365e-01   1.3819517e-03
 -1.3034863e+00   7.6458864e-03
 -2.5996569e-01   8.3487335e-05
 -6.2720150e-01   5.5433977e-03
 -1.4436463e+00   1.4453690e-02
  4.5163476e-01   6.3235429e-04
 -8.0777413e-01   3.8605670e-03
 -1.5812659e+00   1.1282472e-03
  2.5916989e+00   1.9422634e-02
 -4.9627295e-01   2.1490871e-03
 -1.1930497e+00   2.3870964e-02
  1.1044661e+00   9.6134413e-03
 -1.2692407e+00   1.4879038e-03
 -2.9327798e-01   7.8744569e-04
  7.3862284e-01   7.9230294e-02
 -3.1120014e-01   2.1473303e-02
  8.6674279e-01   1.5629531e-03
 -1.9740702e-01   4.3351371e-02
 -4.4222414e-02   1.0711022e-02
 -8.6848713e-02   1.3951211e-02
  3.1846792e-02   2.0750966e-03
  2.7234888e-01   4.4894847e-03
  3.9003242e-02   7.5909600e-02
  2.6871717e-01   4.3259058e-02
  1.9732705e-01   3.9748557e-02
 -3.1874971e+00   2.7187055e-03
 -2.3678312e-01   3.7586750e-03
 -7.2595954e-01   4.1785240e-03
  8.9944112e-01   5.1401686e-03
  1.6556346e-01   1.8735781e-02
  1.8732784e+00   2.9762229e-03
 -3.0250552e+00   1.0229414e-02
  1.0863273e+00   5.7453886e-03
 -4.1387595e-02   1.5679168e-03
 -5.4898363e-01   3.2002714e-03
  2.7157772e+00   1.4413219e-02
  9.8075759e-01   2.8963113e-04
  9.3901980e-01   7.0159214e-05
 -4.1030884e-01   1.2359312e-02
  7.3929054e-01   8.5224565e-03
 -1.1719248e+00   1.7312476e-03
 -1.0697294e+00   3.1313270e-03
 -1.8916802e+00   2.0338799e-04
 -8.8361673e+00   1.2427319e-02
  2.1894197e+00   2.7143946e-02
 -1.1511532e+00   1.9105551e-03
  6.1462522e-01   2.4331140e-03
  9.5337278e-01   6.8896025e-04
  2.5834870e+00   1.1162957e-02
 -5.6616753e-01   4.0257312e-02
  4.6096686e-01   7.3166896e-04
 -1.9911603e+00   7.4221776e-03
 -2.7615323e+00   2.0474666e-03
  9.4849920e-01   4.5222612e-03
 -9.3055896e-02   2.8470257e-02
  6.3483912e-01   2.0793539e-03
 -6.6689380e-02   4.8865238e-03
 -3.6819506e-01   5.0317083e-02
  9.4006456e-02   6.6561420e-03
 -9.4950002e-01   4.9600601e-03
 -3.2021084e-01   1.9095783e-03
  4.4548482e-01   1.4989609e-02
 -5.3288180e-01   6.5698894e-03
  5.0927494e-02   2.5065517e-02
 -9.8259640e-01   2.2332398e-02
 -7.8299117e-01   6.3802592e-02
 -3.1805933e-01   1.3211318e-02
  5.5045855e-01   3.2867767e-02
 -1.0334991e+00   4.2653529e-04
  6.0649627e-01   1.2460296e-04
 -4.3234298e-01   6.0277362e-04
 -1.1011511e+00   6.6633364e-03
 -1.3053324e+00   3.5806770e-05
 -5.0699770e-01   1.2576669e-03
  6.8063545e-01   1.7473038e-03
  5.6819534e-01   3.5716493e-02
 -1.4256749e+00   2.2472331e-02
  8.0032746e-04   1.0233099e-02
  1.8930225e-02   1.0781991e-02
  1.5694307e+00   1.9116091e-02
  1.2161578e-01   2.1444859e-03
  9.0226609e-01   1.1978082e-02
 -9.4871831e-01   1.2818226e-03
  1.0844189e-01   5.0390987e-03
 -1.0653840e+00   4.7201738e-03
  1.1641060e+00   6.9597684e-02
 -4.9893951e-01   2.2248350e-02
 -9.2597765e-01   3.9853257e-04
 -4.2885892e-02   6.5403670e-02
 -2.7715279e-02   2.2775257e-02
 -1.0880626e+00   4.8954505e-03
  1.4626689e-01   4.6146505e-02
  1.0253377e+00   6.8711229e-03
  2.0344204e-01   5.5170134e-03
  3.8595998e-01   2.8196605e-02
 -1.0818621e+00   1.0654952e-03
  1.0649720e+00   4.7337022e-03
 -1.3661101e-01   5.6166569e-04
 -1.4610190e+00   2.1568008e-03
  5.9745449e-01   1.1004320e-03
  2.4727321e-01   2.1234499e-03
  9.1363832e-02   1.8142628e-03
 -1.1780171e+00   3.0371211e-03
 -1.3371996e+00   6.7594671e-03
  1.1914272e+00   1.2876521e-02
  3.2565752e-01   2.6469285e-04
  2.3234942e+00   2.0596008e-03
  2.9929659e+00   2.9073393e-03
 -3.4078877e+00   2.2597496e-04
  1.0906018e+00   8.6993054e-03
  2.3136916e-02   5.9267571e-03
 -2.6354771e+00   7.9277792e-04
  1.6315956e+00   2.7193206e-05
  2.5668925e-01   2.8320702e-03
  1.7841775e+00   3.4813308e-03
 -5.2050060e-01   9.4146340e-04
 -2.9184082e+00   1.5074789e-03
  1.8095849e+00   8.0484239e-04
 -9.4578987e-01   9.5274695e-04
 -5.6227034e-01   1.3151581e-03
 -7.3825234e-01   1.9416299e-03
  7.8568262e-01   1.6460402e-03
 -2.2233696e+00   1.0818036e-03
  1.4211463e+00   2.2485120e-04
 -3.6787614e-01   7.7393106e-03
 -7.5456268e-01   2.9780981e-03
  7.8141868e-02   1.2451808e-02
 -6.4011329e-01   1.3269991e-02
 -6.4104038e-01   4.7048210e-04
 -5.9290349e-01   1.7087181e-03
 -6.1268643e-02   5.5422685e-03
 -3.7645265e-01   1.2566209e-03
  1.8755682e+00   1.2926721e-04
 -2.5962186e+00   9.4463639e-03
 -1.7598355e+00   3.2455623e-03
  1.5053103e+00   1.5325729e-02
  1.2422305e+00   6.4969309e-02
 -4.8179600e-01   8.5909506e-03
 -1.5144463e+00   5.6695407e-03
  1.0183805e-01   1.9653603e-03
  9.7976428e-01   4.1139321e-03
  1.3580220e+00   7.9234671e-03
  2.3846714e+00   8.2990620e-03
 -7.1199173e-01   2.1515989e-03
  7.9064496e-02   2.2967525e-02
  5.6406498e-01   2.6252190e-02
 -2.9276107e-02   7.1597365e-03
  2.4405074e-01   1.8102614e-03
 -9.1386181e-01   1.2846501e-03
  3.4863642e-01   3.9552193e-02
  8.8334024e-01   7.3395250e-03
  2.1855934e-01   2.2619364e-03
  1.3619754e+00   1.3886078e-03
  7.5376654e-01   2.0572424e-02
 -6.9877344e-01   7.1425438e-02
 -3.0440834e-01   2.0828739e-02
 -6.8037456e-01   1.2766356e-03
  3.7046102e-01   6.0478742e-03
 -6.9713491e-01   5.2001583e-03
  3.0422923e-01   8.6631872e-02
 -1.9604254e-01   7.7488638e-02
 -5.1511103e-01   6.5303962e-03
  2.1330504e-01   2.6785668e-02
 -1.0288895e+00   8.9603086e-04
 -8.2218409e-02   9.3199499e-02
  2.5513065e-01   3.3323925e-02
 -2.9380900e-01   1.0307382e-03
  1.4610610e+00   2.6360296e-03
 -2.2580020e+00   9.3719602e-04
  1.0845959e+00   4.2460926e-04
 -2.2464616e+00   7.8916099e-05
 -2.7928631e+00   2.6953511e-02
  7.4392277e-01   2.4048495e-03
  6.9817424e-01   1.7748513e-03
 -2.1008001e-01   1.7249199e-03
  9.8677081e-01   6.8861702e-03
 -3.6059518e+00   2.1412729e-03
  2.9805655e+00   3.7629281e-05
  1.0383080e+00   7.7726705e-05
 -1.2811639e+00   2.4724282e-02
  2.1343069e+00   3.3114459e-03
 -1.9975399e+00   6.9510512e-04
 -1.7567253e+00   4.2700181e-03
 -1.0360677e+00   8.0853235e-04
 -7.0318311e-02   4.2789513e-03
 -2.4950581e+00   1.0399783e-03
 -2.6273620e+00   2.7097281e-04
 -7.3151249e-01   2.9037599e-03
 -5.2098668e-01   5.1810923e-03
  3.5533659e-02   2.7172612e-02
 -1.6017355e+00   9.9544767e-03
 -1.9048246e+00   1.1405471e-02
  5.2381551e-01   2.7563893e-03
 -4.2039555e-01   2.1496585e-02
  7.6937908e-01   7.6400220e-02
  1.4471759e+00   4.0538242e-04
 -6.9035254e-02   7.1860962e-03
 -4.8859689e-01   2.1808429e-02
 -8.0431014e-01   1.4972832e-02
  5.3136027e-01   2.9252140e-02
  4.4871610e-01   1.0012282e-02
 -1.0157369e+00   3.6244113e-02
  4.6529824e-01   2.6876759e-04
  6.4338678e-01   3.0185627e-03
  2.4605739e-01   1.4660155e-02
 -5.0096458e-01   2.1880953e-02
 -3.2562748e-01   4.6746810e-03
 -9.2383310e-02   2.4796152e-03
  1.4282327e+00   4.7149118e-05
 -1.0741254e+00   2.3870503e-03
 -9.2668396e-01   6.2757329e-04
 -2.0574939e-01   3.1068703e-04
  1.6485289e-02   4.8795342e-03
  2.5326060e-02   3.6273224e-03
 -4.8009196e-01   4.1473426e-02
 -3.0696237e-01   1.9552091e-03
  4.5485997e-01   8.5457286e-05
 -1.1324455e+00   9.0457941e-04
  8.0850136e-01   4.0968349e-03
 -3.8232318e-01   2.7374290e-02
 -4.5269606e-01   7.3590865e-03
 -1.0104193e-03   8.0131926e-03
 -5.8542591e-01   8.9052888e-03
 -1.3506312e+00   4.9457317e-03
 -7.7316517e-01   3.7109270e-03
 -1.3572869e+00   4.6254364e-03
 -1.4572263e-01   5.1572784e-03
 -9.2180982e-02   4.9542775e-03
 -3.3965248e-01   1.0529122e-03
 -2.6324648e-02   6.7594185e-02
  3.9744690e-01   2.7988043e-02
  8.3450836e-01   3.7418138e-02
  5.2457494e-01   2.3544771e-03
  8.0467969e-01   4.5257347e-04
 -9.3411498e-02   2.1704271e-02
  7.0921630e-01   9.8176129e-02
 -1.0437936e+00   7.7577522e-03
  7.3314857e-01   2.4663149e-03
 -4.7987185e-02   1.4170578e-03
 -1.3328784e+00   2.5793298e-03
 -4.0630886e-01   6.4123697e-03
 -4.7654295e-01   5.9878582e-04
  1.8536858e-01   4.6929806e-03
 -3.7419114e-01   2.1039268e-03
 -2.1528302e-01   1.7886875e-02
 -2.2290368e-01   9.1827929e-04
  4.6128306e-01   1.9309300e-03
 -3.1750235e-01   2.6046885e-03
 -1.5599804e+00   8.3109662e-03
  4.2008987e-01   5.9021031e-03
 -8.0782777e-01   4.8780534e-03
 -4.4498038e-01   3.7995265e-03
  5.2845186e-01   5.2590752e-03
  1.0275813e+00   6.7780279e-03
  1.5080812e+00   3.2492865e-02
  1.6849707e+00   6.5197549e-03
 -9.2430866e-01   4.1134474e-03
 -9.6929216e-01   1.1056589e-03
  1.0521076e+00   3.3919681e-03
 -4.5437463e-02   3.1957447e-03
 -2.7985914e+00   1.5725741e-02
 -8.4242851e-01   5.0441688e-03
 -1.9207701e-01   8.6282130e-04
 -2.3775345e-02   1.6497595e-03
  1.5743806e+00   1.5070978e-02
 -2.0660706e+00   1.8516621e-02
 -5.2351642e-01   2.2638782e-03
  1.2939337e-01   1.8191261e-02
  1.1587886e+00   5.3630550e-03
  1.4886515e-01   2.2963351e-02
  3.3652502e-01   1.8943002e-04
 -4.7463477e-02   8.1064723e-02
 -1.2453234e+00   1.6638791e-02
  7.6691771e-01   1.4753774e-03
 -1.6601919e-01   1.1787240e-02
  4.6444672e-01   9.0665504e-02
 -3.8175568e-01   5.3563714e-03
 -8.1465721e-01   2.7847330e-03
  1.2906697e-01   1.7625814e-02
 -1.2671366e-01   9.6029118e-03
 -6.2679684e-01   1.0304418e-03
 -3.8664874e-01   7.0206150e-03
  1.5860445e+00   2.9955807e-04
  1.8930275e+00   8.9166482e-04
  6.7375016e-01   3.2141685e-04
 -1.4530228e+00   1.0126270e-03
  4.3905813e-02   7.1528606e-04
 -5.6337291e-01   1.2352403e-04
  1.7529154e+00   3.8009789e-02
  8.5569865e-01   2.4354900e-05
 -3.8041690e-01   3.7168954e-02
 -4.8345193e-01   2.5322959e-02
  1.7505640e+00   1.9917214e-04
  2.9913408e-03   9.0071531e-03
  5.6808472e-01   2.3043957e-02
 -1.2784454e+00   1.9032981e-03
  1.4509529e-01   8.8867340e-03
 -8.5063100e-01   5.4560269e-06
 -2.2036467e-01   6.8438582e-02
  1.4697821e-01   1.4703048e-02
 -7.8260951e-02   6.1148655e-02
  2.8322479e-01   1.1399182e-02
  2.8379151e-01   2.5271776e-04
  4.9620542e-01   1.1726875e-03
 -1.0960262e+00   6.6334568e-04
 -3.3767134e-01   2.0864359e-03
  3.3006194e+00   5.1225739e-04
  8.6052078e-01   6.6651229e-04
 -8.8066542e-01   4.0768922e-04
 -1.2774303e+00   9.4993191e-04
  2.6651818e-01   7.8979426e-04
 -2.1522889e+00   2.2788786e-03
  2.0156428e-01   1.9982001e-03
  1.5854150e+00   2.7543684e-03
 -1.4781878e+00   5.6183133e-02
  6.7571357e-02   2.9826029e-03
 -2.9570782e+00   4.1287043e-04
 -1.8043700e-01   4.2280077e-04
 -2.8119907e-01   1.7402414e-03
 -5.9746504e-01   1.8877831e-03
 -1.7293347e+00   2.5208318e-04
 -2.5730202e-01   6.9964927e-04
 -9.3964005e-01   5.0296180e-04
 -2.9041409e+00   6.4290922e-05
 -3.5139546e-01   4.7036721e-03
 -5.3787094e-01   3.7277976e-05
  1.2041894e+00   5.3698139e-04
 -5.3925121e-01   3.2832232e-04
 -3.2692227e-01   3.1398972e-03
 -8.0582386e-01   1.0016535e-03
 -2.6910279e+00   2.6948873e-03
 -2.7497241e-01   1.2453484e-03
  8.9057851e-01   1.6873104e-03
  3.1046546e-01   2.3344534e-02
 -3.3097121e-01   5.5820947e-03
 -3.8114477e-02   3.5496741e-03
 -7.8645277e-01   6.1593903e-03
 -5.6952977e-01   8.1423528e-02
 -5.3452653e-01   1.3476733e-02
  2.1593867e-01   8.1893452e-02
 -5.8234829e-01   3.1212576e-02
  1.0667338e+00   1.7455210e-03
  4.8885453e-01   6.0730573e-04
  1.6163392e+00   1.2822031e-03
 -8.5436261e-01   4.3063243e-03
 -1.4151301e+00   1.2304086e-02
  2.0273459e+00   6.8186400e-03
  6.6839755e-02   2.1836496e-04
 -4.9924102e-01   2.1337061e-03
 -3.8059011e-01   3.8255018e-04
  9.6777278e-01   1.1922263e-02
 -2.8281975e-01   1.2429407e-03
  1.1595329e-01   6.5026002e-04
 -1.6465636e-01   3.1387033e-03
 -1.5521413e+00   7.1284156e-03
  1.8149821e-02   7.0084928e-04
  1.3758996e+00   5.7806895e-04
 -1.0080054e+00   9.0403552e-04
  8.7361103e-01   1.2201975e-03
  3.0842522e-01   1.5709754e-02
 -2.7487152e+00   9.6055347e-04
 -4.5808354e-01   1.8880310e-03
 -7.5489920e-01   3.5770147e-03
 -1.2599393e+00   3.3382331e-03
 -9.2394483e-01   2.4814803e-02
  8.9307773e-01   4.2508892e-03
 -2.7394006e-01   1.4895347e-03
 -5.4262795e-02   5.0279661e-03
 -4.3203899e-01   8.0071623e-03
 -7.9522681e-01   3.4629028e-02
  3.5371342e-01   1.8274372e-03
  6.1907347e-02   6.2668468e-03
  1.0012581e+00   4.7930948e-02
 -8.5937566e-01   1.2122627e-02
  3.4456998e-01   1.3645482e-02
  6.9630176e-01   2.7422842e-02
  1.1208524e+00   3.0249305e-04
  2.2502948e-01   2.4370509e-05
 -3.7055471e+00   7.4366928e-04
 -1.8697071e+00   1.0579731e-04
  5.2981740e-03   2.7573283e-03
 -2.8210974e+00   1.4671490e-02
  9.9333256e-01   4.8952387e-04
  3.4542045e-01   1.3380483e-04
 -1.3879238e-01   9.1656932e-04
 -2.1951230e+00   1.1340100e-03
 -2.1840200e+00   7.5953169e-04
  5.8010995e-01   2.2540921e-03
 -9.9360096e-01   1.4503348e-03
 -3.9112729e-01   7.8231467e-05
 -9.0176004e-01   1.2157926e-03
 -1.3440986e+00   5.7939254e-04
 -1.2206189e-01   2.3355708e-03
  5.8144259e-01   2.6117840e-03
 -1.0246990e+00   3.1818768e-03
  3.6218232e-01   1.5841315e-04
 -1.0792462e+00   2.5935546e-03
 -5.1904958e-01   1.1535811e-03
  1.6287661e+00   1.3296960e-03
  2.8703034e+00   4.6532793e-04
 -1.3061801e-01   1.0656387e-03
 -2.6302061e+00   9.8476908e-04
  1.7828065e+00   2.5892293e-04
  3.1177816e-01   3.2840608e-04
 -8.7015815e-03   2.0585198e-02
 -2.9810113e-01   1.9266169e-03
  5.9215778e-01   2.3785964e-02
  1.1084517e+00   1.3488217e-02
  5.1837581e-01   6.8162144e-03
 -3.1559777e-01   3.0839054e-02
 -1.1443436e+00   2.0210836e-02
  1.0509501e-01   2.3843120e-03
 -9.3362105e-01   1.0614957e-03
  1.9975684e+00   1.0391542e-03
  2.1012063e+00   8.2036210e-03
  1.0482016e+00   2.5500939e-03
  2.4404116e+00   9.7167278e-03
 -8.4913340e+00   6.0420884e-03
 -1.4051951e-02   5.0185127e-03
  2.0317246e-01   1.7367500e-03
 -2.4524820e+00   8.6151911e-03
 -2.8895772e-01   1.1877654e-03
  2.7819357e+00   5.4218806e-04
  1.6835470e+00   6.3215503e-03
 -7.1604300e-01   1.0738359e-02
 -2.1935234e+00   4.9861963e-03
  1.6358535e+00   4.4899576e-04
 -1.4004995e+00   3.0408287e-04
  1.4657584e+00   5.7674095e-04
 -9.7324759e-02   7.2965552e-03
  1.1158744e+00   2.6288978e-04
  2.4553685e-01   1.2610194e-03
  6.9686782e-01   3.8227497e-04
 -5.6387079e-01   5.1687942e-03
 -6.8519926e-01   2.5896425e-04
  7.8658774e-02   7.6575304e-04
  2.0017221e+00   2.5432197e-05
 -3.6984050e-01   2.6287802e-03
 -1.1153377e+00   8.0615655e-03
  7.5905371e-01   7.4926513e-04
  4.2926049e+00   9.0169087e-03
  2.6873752e-01   2.6547750e-02
  1.4401225e+00   1.2732418e-03
  1.8092550e-01   2.1037046e-02
  1.4038989e-01   3.3743100e-03
  4.5719436e-01   7.2778221e-03
  2.6212940e+00   1.7774394e-03
 -1.2949915e-01   3.6851273e-04
  3.0097749e+00   5.2504463e-04
  1.0516512e+00   5.7287649e-03
 -3.1349146e+00   3.4845195e-04
 -1.4863412e+00   2.2024411e-04
  1.4559412e+00   3.5247549e-02
 -2.0470142e+00   3.8544368e-03
  4.8910090e-01   3.7866045e-02
  7.4767697e-01   7.6530140e-04
 -2.3634396e+00   1.8770361e-03
 -1.6863458e+00   2.3356981e-03
 -1.5082452e+00   5.0713401e-03
  1.2270465e+00   6.1684260e-03
 -1.7332513e+00   2.9870144e-03
 -2.1785204e-01   8.3241722e-04
  1.1471967e+00   2.1632318e-03
 -6.0408008e-01   1.1066438e-03
 -5.6388634e-01   4.3115416e-03
 -3.4611997e-01   3.2371266e-03
  9.0761071e-01   6.5068749e-04
  9.4831997e-01   1.1761347e-03
 -1.0031406e+00   3.3552318e-03
  1.5881121e-01   2.5897881e-03
 -2.6139657e+00   2.0966604e-03
 -3.6594093e-01   9.0930257e-03
  1.1813420e+00   7.5168405e-03
 -2.1335527e-01   2.1413339e-03
 -1.4278533e-01   7.8503387e-03
 -2.3836291e-01   1.2147760e-03
 -3.4389552e-01   3.4868257e-04
  4.2875099e-01   4.6243151e-03
 -1.5142439e-01   6.7656119e-03
  5.1074751e-02   7.0255669e-03
 -1.7791746e+00   6.7213050e-04
 -2.5048392e+00   1.2867936e-03
  1.6385996e+00   2.0391177e-03
  3.3493793e-01   4.1064834e-03
 -1.9667505e+00   6.3523487e-04
  1.0712479e+00   9.7644480e-04
 -5.8789235e-01   1.1236972e-02
  1.1359189e+00   3.7141217e-04
  1.8981051e+00   2.8313133e-03
 -2.4147818e+00   1.3709652e-03
  1.4404130e-01   7.4142129e-03
 -1.3583694e+00   9.4753754e-04
  1.7359203e+00   4.4360096e-04
  3.2259163e-02   2.9523371e-05
  1.3922166e+00   6.7984551e-04
 -2.2347485e-01   2.2498034e-03
 -8.7515050e-01   1.3687527e-03
  1.6635977e+00   6.1520498e-04
  1.6803386e+00   7.5343921e-04
 -2.9867482e-01   4.5730121e-04
 -1.0021290e+00   1.8485263e-03
  4.0158364e-01   2.9594970e-03
  6.4371598e-01   2.3235758e-03
  2.8278008e-01   4.1228021e-03
 -1.2497099e-01   5.1888981e-04
  1.9065536e+00   7.9301829e-03
 -7.8887093e-01   7.0386264e-04
 -8.0266714e-01   1.6654409e-03