  92  92   0   0
  0.8273226E+02  0.2805000E-08  0.8100000E-09  0.3350000E-08  0.5000000E-15
   1.0000000000000000E-004
  CAR 
 unknown system                          
      3.85406041    -25.24057303  301     -3.12706370      1.00000000
    -25.241  0.0000E+00  0.0000E+00
    -25.144  0.0000E+00  0.0000E+00
    -25.047  0.0000E+00  0.0000E+00
    -24.950  0.0000E+00  0.0000E+00
    -24.853  0.0000E+00  0.0000E+00
    -24.756  0.0000E+00  0.0000E+00
    -24.659  0.0000E+00  0.0000E+00
    -24.562  0.0000E+00  0.0000E+00
    -24.465  0.0000E+00  0.0000E+00
    -24.368  0.4007E-14  0.3886E-15
    -24.271  0.8537E-12  0.8318E-13
    -24.174  0.1107E-09  0.1082E-10
    -24.077  0.9096E-08  0.8929E-09
    -23.980  0.4747E-06  0.4693E-07
    -23.883  0.1581E-04  0.1580E-05
    -23.786  0.3375E-03  0.3431E-04
    -23.689  0.4650E-02  0.4853E-03
    -23.592  0.4171E-01  0.4530E-02
    -23.495  0.2463E+00  0.2842E-01
    -23.398  0.9755E+00  0.1230E+00
    -23.301  0.2671E+01  0.3821E+00
    -23.204  0.5322E+01  0.8982E+00
    -23.107  0.8275E+01  0.1701E+01
    -23.010  0.1067E+02  0.2736E+01
    -22.913  0.1185E+02  0.3885E+01
    -22.816  0.1223E+02  0.5071E+01
    -22.719  0.1362E+02  0.6392E+01
    -22.622  0.1624E+02  0.7967E+01
    -22.525  0.1728E+02  0.9644E+01
    -22.428  0.1511E+02  0.1111E+02
    -22.331  0.1233E+02  0.1230E+02
    -22.234  0.1183E+02  0.1345E+02
    -22.137  0.1317E+02  0.1473E+02
    -22.040  0.1431E+02  0.1612E+02
    -21.943  0.1444E+02  0.1752E+02
    -21.846  0.1396E+02  0.1887E+02
    -21.749  0.1337E+02  0.2017E+02
    -21.652  0.1277E+02  0.2141E+02
    -21.555  0.1207E+02  0.2258E+02
    -21.458  0.1149E+02  0.2369E+02
    -21.361  0.1155E+02  0.2481E+02
    -21.264  0.1271E+02  0.2604E+02
    -21.167  0.1490E+02  0.2749E+02
    -21.070  0.1687E+02  0.2913E+02
    -20.973  0.1672E+02  0.3075E+02
    -20.876  0.1439E+02  0.3214E+02
    -20.779  0.1215E+02  0.3332E+02
    -20.682  0.1182E+02  0.3447E+02
    -20.585  0.1294E+02  0.3572E+02
    -20.488  0.1368E+02  0.3705E+02
    -20.391  0.1326E+02  0.3834E+02
    -20.294  0.1283E+02  0.3958E+02
    -20.198  0.1349E+02  0.4089E+02
    -20.101  0.1484E+02  0.4233E+02
    -20.004  0.1575E+02  0.4386E+02
    -19.907  0.1549E+02  0.4536E+02
    -19.810  0.1402E+02  0.4672E+02
    -19.713  0.1296E+02  0.4798E+02
    -19.616  0.1441E+02  0.4937E+02
    -19.519  0.1692E+02  0.5102E+02
    -19.422  0.1667E+02  0.5263E+02
    -19.325  0.1380E+02  0.5397E+02
    -19.228  0.1216E+02  0.5515E+02
    -19.131  0.1321E+02  0.5643E+02
    -19.034  0.1463E+02  0.5785E+02
    -18.937  0.1423E+02  0.5923E+02
    -18.840  0.1273E+02  0.6047E+02
    -18.743  0.1267E+02  0.6169E+02
    -18.646  0.1507E+02  0.6316E+02
    -18.549  0.1763E+02  0.6487E+02
    -18.452  0.1772E+02  0.6658E+02
    -18.355  0.1634E+02  0.6817E+02
    -18.258  0.1633E+02  0.6975E+02
    -18.161  0.1753E+02  0.7145E+02
    -18.064  0.1752E+02  0.7315E+02
    -17.967  0.1571E+02  0.7467E+02
    -17.870  0.1372E+02  0.7601E+02
    -17.773  0.1274E+02  0.7724E+02
    -17.676  0.1237E+02  0.7844E+02
    -17.579  0.1204E+02  0.7961E+02
    -17.482  0.1185E+02  0.8076E+02
    -17.385  0.1166E+02  0.8189E+02
    -17.288  0.1116E+02  0.8297E+02
    -17.191  0.1111E+02  0.8405E+02
    -17.094  0.1206E+02  0.8522E+02
    -16.997  0.1258E+02  0.8644E+02
    -16.900  0.1149E+02  0.8755E+02
    -16.803  0.1027E+02  0.8855E+02
    -16.706  0.1101E+02  0.8962E+02
    -16.609  0.1323E+02  0.9090E+02
    -16.512  0.1485E+02  0.9234E+02
    -16.415  0.1521E+02  0.9381E+02
    -16.318  0.1521E+02  0.9529E+02
    -16.221  0.1577E+02  0.9682E+02
    -16.124  0.1705E+02  0.9847E+02
    -16.027  0.1811E+02  0.1002E+03
    -15.930  0.1744E+02  0.1019E+03
    -15.833  0.1497E+02  0.1034E+03
    -15.736  0.1245E+02  0.1046E+03
    -15.639  0.1120E+02  0.1057E+03
    -15.542  0.1131E+02  0.1068E+03
    -15.445  0.1331E+02  0.1081E+03
    -15.348  0.1738E+02  0.1097E+03
    -15.251  0.2137E+02  0.1118E+03
    -15.154  0.2308E+02  0.1140E+03
    -15.057  0.2259E+02  0.1162E+03
    -14.960  0.2067E+02  0.1182E+03
    -14.863  0.1777E+02  0.1200E+03
    -14.767  0.1446E+02  0.1214E+03
    -14.670  0.1141E+02  0.1225E+03
    -14.573  0.9551E+01  0.1234E+03
    -14.476  0.9393E+01  0.1243E+03
    -14.379  0.1006E+02  0.1253E+03
    -14.282  0.1065E+02  0.1263E+03
    -14.185  0.1154E+02  0.1274E+03
    -14.088  0.1313E+02  0.1287E+03
    -13.991  0.1469E+02  0.1301E+03
    -13.894  0.1551E+02  0.1316E+03
    -13.797  0.1633E+02  0.1332E+03
    -13.700  0.1796E+02  0.1350E+03
    -13.603  0.1917E+02  0.1368E+03
    -13.506  0.1886E+02  0.1387E+03
    -13.409  0.1843E+02  0.1404E+03
    -13.312  0.1915E+02  0.1423E+03
    -13.215  0.1952E+02  0.1442E+03
    -13.118  0.1750E+02  0.1459E+03
    -13.021  0.1424E+02  0.1473E+03
    -12.924  0.1306E+02  0.1485E+03
    -12.827  0.1439E+02  0.1499E+03
    -12.730  0.1527E+02  0.1514E+03
    -12.633  0.1419E+02  0.1528E+03
    -12.536  0.1301E+02  0.1541E+03
    -12.439  0.1364E+02  0.1554E+03
    -12.342  0.1578E+02  0.1569E+03
    -12.245  0.1897E+02  0.1587E+03
    -12.148  0.2308E+02  0.1610E+03
    -12.051  0.2613E+02  0.1635E+03
    -11.954  0.2614E+02  0.1661E+03
    -11.857  0.2395E+02  0.1684E+03
    -11.760  0.2076E+02  0.1704E+03
    -11.663  0.1671E+02  0.1720E+03
    -11.566  0.1319E+02  0.1733E+03
    -11.469  0.1269E+02  0.1745E+03
    -11.372  0.1587E+02  0.1761E+03
    -11.275  0.2029E+02  0.1780E+03
    -11.178  0.2356E+02  0.1803E+03
    -11.081  0.2632E+02  0.1829E+03
    -10.984  0.3013E+02  0.1858E+03
    -10.887  0.3390E+02  0.1891E+03
    -10.790  0.3516E+02  0.1925E+03
    -10.693  0.3392E+02  0.1958E+03
    -10.596  0.3348E+02  0.1990E+03
    -10.499  0.3625E+02  0.2025E+03
    -10.402  0.3987E+02  0.2064E+03
    -10.305  0.4020E+02  0.2103E+03
    -10.208  0.3742E+02  0.2139E+03
    -10.111  0.3503E+02  0.2173E+03
    -10.014  0.3381E+02  0.2206E+03
     -9.917  0.3225E+02  0.2237E+03
     -9.820  0.3147E+02  0.2268E+03
     -9.723  0.3415E+02  0.2301E+03
     -9.626  0.3960E+02  0.2339E+03
     -9.529  0.4417E+02  0.2382E+03
     -9.432  0.4543E+02  0.2426E+03
     -9.336  0.4286E+02  0.2468E+03
     -9.239  0.3695E+02  0.2504E+03
     -9.142  0.3047E+02  0.2533E+03
     -9.045  0.2760E+02  0.2560E+03
     -8.948  0.2975E+02  0.2589E+03
     -8.851  0.3426E+02  0.2622E+03
     -8.754  0.3751E+02  0.2658E+03
     -8.657  0.3797E+02  0.2695E+03
     -8.560  0.3614E+02  0.2730E+03
     -8.463  0.3314E+02  0.2762E+03
     -8.366  0.3026E+02  0.2792E+03
     -8.269  0.2860E+02  0.2820E+03
     -8.172  0.2806E+02  0.2847E+03
     -8.075  0.2739E+02  0.2873E+03
     -7.978  0.2614E+02  0.2899E+03
     -7.881  0.2593E+02  0.2924E+03
     -7.784  0.2799E+02  0.2951E+03
     -7.687  0.3028E+02  0.2980E+03
     -7.590  0.3048E+02  0.3010E+03
     -7.493  0.2932E+02  0.3038E+03
     -7.396  0.2834E+02  0.3066E+03
     -7.299  0.2726E+02  0.3092E+03
     -7.202  0.2543E+02  0.3117E+03
     -7.105  0.2388E+02  0.3140E+03
     -7.008  0.2374E+02  0.3163E+03
     -6.911  0.2440E+02  0.3187E+03
     -6.814  0.2511E+02  0.3211E+03
     -6.717  0.2602E+02  0.3236E+03
     -6.620  0.2614E+02  0.3262E+03
     -6.523  0.2391E+02  0.3285E+03
     -6.426  0.2062E+02  0.3305E+03
     -6.329  0.1923E+02  0.3324E+03
     -6.232  0.1990E+02  0.3343E+03
     -6.135  0.2113E+02  0.3363E+03
     -6.038  0.2290E+02  0.3386E+03
     -5.941  0.2487E+02  0.3410E+03
     -5.844  0.2539E+02  0.3434E+03
     -5.747  0.2398E+02  0.3458E+03
     -5.650  0.2130E+02  0.3478E+03
     -5.553  0.1738E+02  0.3495E+03
     -5.456  0.1268E+02  0.3507E+03
     -5.359  0.9569E+01  0.3517E+03
     -5.262  0.1012E+02  0.3526E+03
     -5.165  0.1241E+02  0.3539E+03
     -5.068  0.1248E+02  0.3551E+03
     -4.971  0.1004E+02  0.3560E+03
     -4.874  0.8099E+01  0.3568E+03
     -4.777  0.8528E+01  0.3576E+03
     -4.680  0.1087E+02  0.3587E+03
     -4.583  0.1389E+02  0.3600E+03
     -4.486  0.1593E+02  0.3616E+03
     -4.389  0.1489E+02  0.3630E+03
     -4.292  0.1064E+02  0.3641E+03
     -4.195  0.6007E+01  0.3647E+03
     -4.098  0.3250E+01  0.3650E+03
     -4.001  0.2349E+01  0.3652E+03
     -3.905  0.2446E+01  0.3654E+03
     -3.808  0.3037E+01  0.3657E+03
     -3.711  0.3838E+01  0.3661E+03
     -3.614  0.4370E+01  0.3665E+03
     -3.517  0.4220E+01  0.3669E+03
     -3.420  0.3341E+01  0.3673E+03
     -3.323  0.2349E+01  0.3675E+03
     -3.226  0.2209E+01  0.3677E+03
     -3.129  0.3049E+01  0.3680E+03
     -3.032  0.4086E+01  0.3684E+03
     -2.935  0.4807E+01  0.3689E+03
     -2.838  0.5298E+01  0.3694E+03
     -2.741  0.5888E+01  0.3699E+03
     -2.644  0.6908E+01  0.3706E+03
     -2.547  0.7924E+01  0.3714E+03
     -2.450  0.7795E+01  0.3721E+03
     -2.353  0.6526E+01  0.3728E+03
     -2.256  0.5971E+01  0.3733E+03
     -2.159  0.7157E+01  0.3740E+03
     -2.062  0.8188E+01  0.3748E+03
     -1.965  0.7056E+01  0.3755E+03
     -1.868  0.5225E+01  0.3760E+03
     -1.771  0.6016E+01  0.3766E+03
     -1.674  0.1065E+02  0.3776E+03
     -1.577  0.1706E+02  0.3793E+03
     -1.480  0.2189E+02  0.3814E+03
     -1.383  0.2325E+02  0.3837E+03
     -1.286  0.2146E+02  0.3858E+03
     -1.189  0.1885E+02  0.3876E+03
     -1.092  0.1798E+02  0.3893E+03
     -0.995  0.1833E+02  0.3911E+03
     -0.898  0.1733E+02  0.3928E+03
     -0.801  0.1472E+02  0.3942E+03
     -0.704  0.1242E+02  0.3954E+03
     -0.607  0.1169E+02  0.3966E+03
     -0.510  0.1193E+02  0.3977E+03
     -0.413  0.1171E+02  0.3988E+03
     -0.316  0.1123E+02  0.3999E+03
     -0.219  0.1260E+02  0.4012E+03
     -0.122  0.1622E+02  0.4027E+03
     -0.025  0.1956E+02  0.4046E+03
      0.072  0.2096E+02  0.4067E+03
      0.169  0.2140E+02  0.4087E+03
      0.266  0.2176E+02  0.4108E+03
      0.363  0.2099E+02  0.4129E+03
      0.460  0.1888E+02  0.4147E+03
      0.557  0.1817E+02  0.4165E+03
      0.654  0.2113E+02  0.4185E+03
      0.751  0.2618E+02  0.4211E+03
      0.848  0.2988E+02  0.4240E+03
      0.945  0.3164E+02  0.4270E+03
      1.042  0.3449E+02  0.4304E+03
      1.139  0.3978E+02  0.4342E+03
      1.236  0.4539E+02  0.4386E+03
      1.333  0.4927E+02  0.4434E+03
      1.430  0.5058E+02  0.4483E+03
      1.526  0.4835E+02  0.4530E+03
      1.623  0.4206E+02  0.4571E+03
      1.720  0.3253E+02  0.4602E+03
      1.817  0.2142E+02  0.4623E+03
      1.914  0.1126E+02  0.4634E+03
      2.011  0.4467E+01  0.4638E+03
      2.108  0.1304E+01  0.4640E+03
      2.205  0.2765E+00  0.4640E+03
      2.302  0.4193E-01  0.4640E+03
      2.399  0.4426E-02  0.4640E+03
      2.496  0.3155E-03  0.4640E+03
      2.593  0.1480E-04  0.4640E+03
      2.690  0.4489E-06  0.4640E+03
      2.787  0.8700E-08  0.4640E+03
      2.884  0.1070E-09  0.4640E+03
      2.981  0.8317E-12  0.4640E+03
      3.078  0.4007E-14  0.4640E+03
      3.175  0.0000E+00  0.4640E+03
      3.272  0.0000E+00  0.4640E+03
      3.369  0.0000E+00  0.4640E+03
      3.466  0.0000E+00  0.4640E+03
      3.563  0.0000E+00  0.4640E+03
      3.660  0.0000E+00  0.4640E+03
      3.757  0.0000E+00  0.4640E+03
      3.854  0.0000E+00  0.4640E+03
