       N       E                     dE             d eps       ncg     rms          rms(c)
DAV:   1     0.363123260615E+04    0.36312E+04   -0.11986E+05  1728   0.105E+03
DAV:   2     0.166305992248E+03   -0.34649E+04   -0.32026E+04  2136   0.237E+02
DAV:   3    -0.839760028890E+03   -0.10061E+04   -0.98558E+03  1784   0.134E+02
DAV:   4    -0.899140878297E+03   -0.59381E+02   -0.58466E+02  1712   0.423E+01
DAV:   5    -0.900582743915E+03   -0.14419E+01   -0.14228E+01  1792   0.640E+00    0.455E+01
DAV:   6    -0.851017712318E+03    0.49565E+02   -0.47097E+01  1592   0.124E+01    0.267E+01
DAV:   7    -0.832496219429E+03    0.18521E+02   -0.65612E+01  1568   0.143E+01    0.732E+00
DAV:   8    -0.832195933551E+03    0.30029E+00   -0.23401E+00  1600   0.328E+00    0.933E-01
DAV:   9    -0.832091829212E+03    0.10410E+00   -0.27032E-01  1608   0.102E+00    0.564E-01
DAV:  10    -0.832053130657E+03    0.38699E-01   -0.52596E-02  1744   0.455E-01    0.348E-01
DAV:  11    -0.832024930591E+03    0.28200E-01   -0.24760E-02  1536   0.251E-01    0.246E-01
DAV:  12    -0.832022514703E+03    0.24159E-02   -0.22720E-02  1520   0.226E-01    0.148E-01
DAV:  13    -0.832035361592E+03   -0.12847E-01   -0.79702E-03  1544   0.145E-01    0.911E-02
DAV:  14    -0.832053873972E+03   -0.18512E-01   -0.13851E-03  1536   0.725E-02    0.543E-02
DAV:  15    -0.832073730125E+03   -0.19856E-01   -0.17923E-03  1560   0.652E-02    0.321E-02
DAV:  16    -0.832080941289E+03   -0.72112E-02   -0.37796E-04  1600   0.326E-02    0.216E-02
DAV:  17    -0.832085838026E+03   -0.48967E-02   -0.28123E-04  1528   0.231E-02    0.108E-02
DAV:  18    -0.832088081689E+03   -0.22437E-02   -0.10627E-04  1576   0.138E-02    0.571E-03
DAV:  19    -0.832089001709E+03   -0.92002E-03   -0.27840E-05  1376   0.745E-03    0.390E-03
DAV:  20    -0.832089319074E+03   -0.31737E-03   -0.39322E-06  1288   0.331E-03    0.218E-03
DAV:  21    -0.832089531502E+03   -0.21243E-03   -0.31836E-06  1240   0.255E-03    0.112E-03
DAV:  22    -0.832089579840E+03   -0.48339E-04   -0.22503E-07  1016   0.116E-03    0.715E-04
DAV:  23    -0.832089616897E+03   -0.37057E-04   -0.30399E-07   928   0.918E-04    0.524E-04
DAV:  24    -0.832089627848E+03   -0.10950E-04   -0.78071E-08   928   0.627E-04    0.205E-04
DAV:  25    -0.832089633289E+03   -0.54414E-05   -0.49390E-08   888   0.403E-04    0.218E-04
DAV:  26    -0.832089636321E+03   -0.30324E-05   -0.22344E-08   888   0.329E-04    0.917E-05
DAV:  27    -0.832089638113E+03   -0.17920E-05   -0.93046E-09   912   0.160E-04    0.852E-05
DAV:  28    -0.832089639454E+03   -0.13402E-05   -0.60296E-09   936   0.167E-04    0.498E-05
DAV:  29    -0.832089640184E+03   -0.73016E-06   -0.26731E-09   904   0.889E-05
   1 F= -.83208964E+03 E0= -.83205343E+03  d E =-.724186E-01
