 vasp.6.5.0 16Dec24 (build Feb 19 2025 19:45:31) complex                         
 executed on              LinuxNV date 2025.10.25  20:11:17
 running    2 mpi-ranks, on    1 nodes
 distrk:  each k-point on    2 cores,    1 groups
 distr:  one band on NCORE=   1 cores,    2 groups
 Offloading initialized ...    2 GPUs detected


--------------------------------------------------------------------------------------------------------


 INCAR:
   ISTART = 0            (Not Read existing wavefunction
   ISPIN = 1            (Non-Spin polarised DFT, Default\=1)
   ICHARG = 2            (The initial guess charge density is generated by superposition of atomic charge density)
   LREAL = Auto         (Projection operators: automatic)
   ENCUT = 500          (Cut-off energy for plane wave basis set, in eV)
   LWAVE = .FALSE.       (Write WAVECAR or not)
   LCHARG = .FALSE.       (Write CHGCAR or not)
   PREC = Accurate   (Precision level)
   KGAMMA = .TRUE.
   ALGO = Normal
   NSW = 0           (Default: NSW \= 0)
   IBRION = -1           (Ions are not moved)
   ISMEAR = 0
   EDIFF = 1E-06        (SCF energy convergence
   NELM = 150          (Max electronic SCF steps)

 POTCAR:    PAW_PBE C 08Apr2002                   
 POTCAR:    PAW_PBE C 08Apr2002                   
   SHA256 =  253f7b50bb8d59471dbedb8285d89021f4a42ed1a2c5d38a03a736e69125dd95 C/POTCAR              
   COPYR  = (c) Copyright 08Apr2002 Georg Kresse                                                    
   COPYR  = This file is part of the software VASP. Any use, copying, and all other rights are regul
   COPYR  = If you do not have a valid VASP license, you may not use, copy or distribute this file. 
   VRHFIN =C: s2p2                                                                                  
   LEXCH  = PE                                                                                      
   EATOM  =   147.1560 eV,   10.8157 Ry                                                             
                                                                                                    
   TITEL  = PAW_PBE C 08Apr2002                                                                     
   LULTRA =        F    use ultrasoft PP ?                                                          
   IUNSCR =        1    unscreen: 0-lin 1-nonlin 2-no                                               
   RPACOR =    1.200    partial core radius                                                         
   POMASS =   12.011; ZVAL   =    4.000    mass and valenz                                          
   RCORE  =    1.500    outmost cutoff radius                                                       
   RWIGS  =    1.630; RWIGS  =    0.863    wigner-seitz radius (au A)                               
   ENMAX  =  400.000; ENMIN  =  300.000 eV                                                          
   ICORE  =        2    local potential                                                             
   LCOR   =        T    correct aug charges                                                         
   LPAW   =        T    paw PP                                                                      
   EAUG   =  644.873                                                                                
   DEXC   =    0.000                                                                                
   RMAX   =    1.529    core radius for proj-oper                                                   
   RAUG   =    1.300    factor for augmentation sphere                                              
   RDEP   =    1.501    radius for radial grids                                                     
   RDEPT  =    1.300    core radius for aug-charge                                                  
                                                                                                    
   Atomic configuration                                                                             
    4 entries                                                                                       
     n  l   j            E        occ.                                                              
     1  0  0.50      -273.3789   2.0000                                                             
     2  0  0.50       -13.7508   2.0000                                                             
     2  1  0.50        -5.2854   2.0000                                                             
     3  2  1.50        -5.4423   0.0000                                                             
   Description                                                                                      
     l       E           TYP  RCUT    TYP  RCUT                                                     
     0    -13.7508458     23  1.200                                                                 
     0     -8.2022199     23  1.200                                                                 
     1     -5.2854383     23  1.500                                                                 
     1     34.0145650     23  1.500                                                                 
     2     -5.4423304      7  1.500                                                                 
  local pseudopotential read in
  partial core-charges read in
  partial kinetic energy density read in
  atomic valenz-charges read in
  non local Contribution for L=            0  read in
    real space projection operators read in
  non local Contribution for L=            0  read in
    real space projection operators read in
  non local Contribution for L=            1  read in
    real space projection operators read in
  non local Contribution for L=            1  read in
    real space projection operators read in
    PAW grid and wavefunctions read in
 
   number of l-projection  operators is LMAX  =            4
   number of lm-projection operators is LMMAX =            8
 
 Optimization of the real space projectors (new method)

 maximal supplied QI-value         = 25.13
 optimisation between [QCUT,QGAM] = [ 11.31, 22.87] = [ 35.82,146.48] Ry 
 Optimized for a Real-space Cutoff    1.03 Angstroem

   l    n(q)    QCUT    max X(q) W(low)/X(q) W(high)/X(q)  e(spline) 
   0      7    11.310   115.676    0.20E-03    0.90E-03    0.20E-06
   0      7    11.310    87.132    0.20E-03    0.89E-03    0.19E-06
   1      6    11.310     4.429    0.16E-03    0.28E-03    0.12E-06
   1      6    11.310     2.733    0.12E-03    0.21E-03    0.99E-07
  PAW_PBE C 08Apr2002                   :
 energy of atom  1       EATOM= -147.1560
 kinetic energy error for atom=    0.0076 (will be added to EATOM!!)
 
 
 POSCAR:  C
  positions in cartesian coordinates
  No initial velocities read in


 exchange-correlation table for PE
   RHO(1)=    0.500       N(1)  =     2000
   RHO(2)=  100.500       N(2)  =     4000
 


--------------------------------------------------------------------------------------------------------


 ion  position               nearest neighbor table
   1  0.062  0.337  0.630-   3 1.37   2 1.39  45 1.44  46 1.98
   2  0.062  0.508  0.625-   4 1.37   1 1.39  46 1.43  45 2.02
   3  0.104  0.259  0.638-   1 1.37  50 1.38   5 1.42
   4  0.104  0.595  0.628-  49 1.37   2 1.37   6 1.40
   5  0.148  0.343  0.631-   6 1.37   7 1.40   3 1.42
   6  0.148  0.512  0.626-   5 1.37   4 1.40   8 1.41
   7  0.191  0.259  0.627-  54 1.36   5 1.40   9 1.43
   8  0.191  0.597  0.619-  53 1.35  10 1.40   6 1.41
   9  0.234  0.338  0.613-  10 1.38  11 1.40   7 1.43
  10  0.232  0.507  0.610-   9 1.38   8 1.40  12 1.43
  11  0.277  0.259  0.606-  58 1.37   9 1.40  13 1.42
  12  0.276  0.590  0.600-  57 1.37  14 1.41  10 1.43
  13  0.319  0.339  0.593-  14 1.35  15 1.41  11 1.42
  14  0.318  0.505  0.589-  13 1.35  12 1.41  16 1.44
  15  0.363  0.255  0.586-  62 1.38  13 1.41  17 1.42
  16  0.361  0.593  0.579-  61 1.38  18 1.40  14 1.44
  17  0.403  0.338  0.571-  18 1.39  15 1.42  19 1.46
  18  0.403  0.509  0.569-  17 1.39  16 1.40  20 1.42
  19  0.449  0.255  0.563-  66 1.35  21 1.43  17 1.46
  20  0.447  0.589  0.562-  65 1.37  18 1.42  22 1.43
  21  0.492  0.337  0.552-  22 1.40  23 1.42  19 1.43
  22  0.491  0.510  0.554-  24 1.39  21 1.40  20 1.43
  23  0.536  0.254  0.548-  70 1.39  25 1.42  21 1.42
  24  0.536  0.584  0.551-  22 1.39  26 1.41  69 1.42
  25  0.581  0.335  0.543-  26 1.40  27 1.42  23 1.42
  26  0.581  0.508  0.545-  25 1.40  28 1.41  24 1.41
  27  0.625  0.254  0.547-  74 1.37  25 1.42  29 1.46
  28  0.625  0.588  0.546-  73 1.39  26 1.41  30 1.43
  29  0.671  0.339  0.547-  30 1.38  31 1.42  27 1.46
  30  0.671  0.510  0.546-  29 1.38  32 1.42  28 1.43
  31  0.714  0.259  0.559-  78 1.38  33 1.39  29 1.42
  32  0.716  0.589  0.552-  77 1.39  34 1.40  30 1.42
  33  0.758  0.337  0.562-  34 1.38  31 1.39  35 1.42
  34  0.759  0.507  0.559-  33 1.38  32 1.40  36 1.43
  35  0.800  0.257  0.576-  82 1.39  33 1.42  37 1.42
  36  0.802  0.591  0.569-  81 1.38  38 1.42  34 1.43
  37  0.844  0.338  0.585-  38 1.38  35 1.42  39 1.43
  38  0.845  0.505  0.577-  37 1.38  36 1.42  40 1.43
  39  0.884  0.259  0.603-  86 1.39  41 1.41  37 1.43
  40  0.887  0.586  0.593-  85 1.37  42 1.41  38 1.43
  41  0.927  0.340  0.611-  42 1.37  39 1.41  43 1.41
  42  0.930  0.506  0.603-  41 1.37  44 1.38  40 1.41
  43  0.967  0.254  0.625-  90 1.37  45 1.38  41 1.41
  44  0.971  0.589  0.612-  46 1.37  42 1.38  89 1.38
  45  0.011  0.334  0.626-  43 1.38  46 1.39   1 1.44   2 2.02
  46  0.012  0.504  0.620-  44 1.37  45 1.39   2 1.43   1 1.98
  47  0.062  0.836  0.643-  49 1.37  48 1.41  91 1.46  92 2.03
  48  0.061  0.008  0.647-  50 1.39  47 1.41  92 1.52  91 2.05
  49  0.105  0.760  0.637-   4 1.37  47 1.37  51 1.43
  50  0.105  0.090  0.644-   3 1.38  48 1.39  52 1.42
  51  0.150  0.840  0.638-  52 1.38  53 1.41  49 1.43
  52  0.150  0.010  0.643-  51 1.38  54 1.41  50 1.42
  53  0.193  0.761  0.627-   8 1.35  51 1.41  55 1.42
  54  0.193  0.094  0.634-   7 1.36  52 1.41  56 1.46
  55  0.238  0.840  0.622-  56 1.38  57 1.41  53 1.42
  56  0.238  0.009  0.629-  55 1.38  58 1.45  54 1.46
  57  0.279  0.753  0.610-  12 1.37  55 1.41  59 1.41
  58  0.280  0.095  0.616-  11 1.37  60 1.42  56 1.45
  59  0.322  0.837  0.604-  60 1.41  57 1.41  61 1.41
  60  0.323  0.010  0.606-  59 1.41  58 1.42  62 1.42
  61  0.363  0.757  0.589-  16 1.38  63 1.39  59 1.41
  62  0.366  0.089  0.594-  15 1.38  64 1.39  60 1.42
  63  0.406  0.839  0.582-  64 1.37  61 1.39  65 1.45
  64  0.408  0.008  0.584-  63 1.37  62 1.39  66 1.42
  65  0.448  0.756  0.568-  20 1.37  67 1.40  63 1.45
  66  0.449  0.091  0.570-  19 1.35  68 1.41  64 1.42
  67  0.492  0.837  0.565-  68 1.37  65 1.40  69 1.41
  68  0.493  0.007  0.565-  67 1.37  66 1.41  70 1.41
  69  0.536  0.756  0.559-  71 1.40  67 1.41  24 1.42
  70  0.536  0.086  0.557-  23 1.39  72 1.41  68 1.41
  71  0.580  0.836  0.560-  72 1.37  69 1.40  73 1.40
  72  0.580  0.005  0.561-  71 1.37  70 1.41  74 1.42
  73  0.624  0.755  0.556-  28 1.39  71 1.40  75 1.43
  74  0.624  0.091  0.558-  27 1.37  72 1.42  76 1.43
  75  0.668  0.840  0.561-  76 1.36  77 1.42  73 1.43
  76  0.668  0.007  0.564-  75 1.36  78 1.41  74 1.43
  77  0.713  0.757  0.561-  32 1.39  79 1.40  75 1.42
  78  0.711  0.093  0.568-  31 1.38  76 1.41  80 1.41
  79  0.754  0.839  0.574-  80 1.37  77 1.40  81 1.41
  80  0.754  0.008  0.576-  79 1.37  78 1.41  82 1.42
  81  0.797  0.754  0.580-  36 1.38  79 1.41  83 1.42
  82  0.798  0.090  0.584-  35 1.39  84 1.41  80 1.42
  83  0.840  0.831  0.594-  84 1.40  85 1.41  81 1.42
  84  0.839  0.004  0.597-  83 1.40  82 1.41  86 1.43
  85  0.884  0.752  0.600-  40 1.37  83 1.41  87 1.48
  86  0.881  0.089  0.609-  39 1.39  84 1.43  88 1.44
  87  0.926  0.838  0.616-  88 1.36  89 1.40  85 1.48
  88  0.923  0.003  0.623-  87 1.36  90 1.43  86 1.44
  89  0.970  0.756  0.621-  44 1.38  91 1.38  87 1.40
  90  0.967  0.088  0.632-  43 1.37  92 1.37  88 1.43
  91  0.010  0.834  0.635-  92 1.37  89 1.38  47 1.46  48 2.05
  92  0.008  0.003  0.640-  90 1.37  91 1.37  48 1.52  47 2.03
 
  LATTYP: Found a simple orthorhombic cell.
 ALAT       =     8.1000000000
 B/A-ratio  =     3.4629629630
 C/A-ratio  =     4.1358024691
  
  Lattice vectors:
  
 A1 = (   0.0000000000,  -8.1000000000,   0.0000000000)
 A2 = (  28.0500000000,   0.0000000000,   0.0000000000)
 A3 = (   0.0000000000,   0.0000000000,  33.5000000000)


Analysis of symmetry for initial positions (statically):
=====================================================================
 Subroutine PRICEL returns:
 Original cell was already a primitive cell.
 

 Routine SETGRP: Setting up the symmetry group for a 
 simple orthorhombic supercell.


 Subroutine GETGRP returns: Found  1 space group operations
 (whereof  1 operations were pure point group operations)
 out of a pool of  8 trial point group operations.


The static configuration has the point symmetry C_1 .


Analysis of symmetry for dynamics (positions and initial velocities):
=====================================================================
 Subroutine PRICEL returns:
 Original cell was already a primitive cell.
 

 Routine SETGRP: Setting up the symmetry group for a 
 simple orthorhombic supercell.


 Subroutine GETGRP returns: Found  1 space group operations
 (whereof  1 operations were pure point group operations)
 out of a pool of  8 trial point group operations.


The dynamic configuration has the point symmetry C_1 .


 Subroutine INISYM returns: Found  1 space group operations
 (whereof  1 operations are pure point group operations),
 and found     1 'primitive' translations


----------------------------------------------------------------------------------------

                                     Primitive cell                                     

  volume of cell :    7611.3675

  direct lattice vectors                    reciprocal lattice vectors
    28.050000000  0.000000000  0.000000000     0.035650624  0.000000000  0.000000000
     0.000000000  8.100000000  0.000000000     0.000000000  0.123456790  0.000000000
     0.000000000  0.000000000 33.500000000     0.000000000  0.000000000  0.029850746

  length of vectors
    28.050000000  8.100000000 33.500000000     0.035650624  0.123456790  0.029850746

  position of ions in fractional coordinates (direct lattice)
     0.061911230  0.337333333  0.630149254
     0.062487344  0.507990123  0.625373134
     0.104387879  0.258532099  0.637522388
     0.104175045  0.595102469  0.628208955
     0.147933333  0.343274074  0.630537313
     0.147772193  0.511564198  0.625671642
     0.191329768  0.258948148  0.627134328
     0.190896613  0.596930864  0.619134328
     0.233631729  0.337797531  0.613074627
     0.232176114  0.507461728  0.609791045
     0.277238146  0.258550617  0.606089552
     0.275793939  0.589640741  0.599671642
     0.319394652  0.339183951  0.593194030
     0.317708734  0.505183951  0.588776119
     0.362573975  0.255325926  0.585582090
     0.360655971  0.592700000  0.578626866
     0.403372549  0.338007407  0.570626866
     0.402716578  0.509154321  0.569134328
     0.448816399  0.254737037  0.563402985
     0.446912656  0.588988889  0.562358209
     0.492074866  0.337128395  0.552477612
     0.491422460  0.509775309  0.553552239
     0.536399287  0.253524691  0.548268657
     0.535878788  0.583741975  0.550626866
     0.580748663  0.335274074  0.542716418
     0.580748663  0.508119753  0.544895522
     0.625397504  0.254296296  0.546835821
     0.625386809  0.587655556  0.545910448
     0.671155080  0.339493827  0.546835821
     0.671005348  0.510219753  0.546000000
     0.713982175  0.259266667  0.558686567
     0.715600713  0.589328395  0.551970149
     0.757925134  0.336827160  0.561970149
     0.758777184  0.506876543  0.558686567
     0.799885918  0.257467901  0.575880597
     0.801843137  0.591048148  0.568955224
     0.843550802  0.337875309  0.584955224
     0.845112299  0.505387654  0.577014925
     0.883593583  0.258674074  0.603104478
     0.886573975  0.586032099  0.592537313
     0.926873440  0.340464198  0.611373134
     0.929561497  0.505951852  0.602686567
     0.967468806  0.254283951  0.625283582
     0.970827094  0.589259259  0.612089552
     0.010799287  0.333964198  0.625940299
     0.011987201  0.504109877  0.619671642
     0.061765419  0.835686420  0.642626866
     0.061469162  0.008297531  0.646776119
     0.105033868  0.759532099  0.637134328
     0.104917291  0.090309259  0.644477612
     0.150301961  0.840422222  0.637850746
     0.149751515  0.009933556  0.643074627
     0.193114795  0.760502469  0.626985075
     0.192640285  0.093555309  0.634388060
     0.237886631  0.840443210  0.622447761
     0.238017469  0.008605877  0.628746269
     0.278652050  0.752738272  0.610089552
     0.280475579  0.094982469  0.616059701
     0.322162210  0.836616049  0.603731343
     0.322833512  0.010160469  0.605701493
     0.363286988  0.757187654  0.588746269
     0.365543672  0.089014321  0.593611940
     0.405960784  0.839103704  0.581850746
     0.407721925  0.007614309  0.584328358
     0.448456328  0.756086420  0.567731343
     0.449251337  0.090736543  0.570477612
     0.492238859  0.837474074  0.565223881
     0.492645276  0.006785148  0.565283582
     0.536192513  0.756130864  0.558865672
     0.536295900  0.086330617  0.557194030
     0.580278075  0.836034568  0.559522388
     0.580317291  0.004525938  0.561283582
     0.624224599  0.754640741  0.555582090
     0.624007130  0.091201235  0.557880597
     0.668281640  0.839807407  0.560746269
     0.668160428  0.007298358  0.564000000
     0.713016043  0.756819753  0.560746269
     0.711447415  0.093185556  0.567850746
     0.754039216  0.838956790  0.573671642
     0.754071301  0.007607333  0.576388060
     0.797272727  0.754243210  0.579970149
     0.797746881  0.089949506  0.584417910
     0.839557932  0.831175309  0.594179104
     0.838837790  0.003887370  0.596955224
     0.883932264  0.751898765  0.600059701
     0.880976827  0.088850123  0.609283582
     0.926452763  0.837503704  0.616388060
     0.923333333  0.003471099  0.622567164
     0.970160428  0.755530864  0.620805970
     0.966773619  0.087834321  0.632059701
     0.010368770  0.834330864  0.635164179
     0.008128449  0.002854395  0.639671642

  ion indices of the primitive-cell ions
   primitive index   ion index
                 1           1
                 2           2
                 3           3
                 4           4
                 5           5
                 6           6
                 7           7
                 8           8
                 9           9
                10          10
                11          11
                12          12
                13          13
                14          14
                15          15
                16          16
                17          17
                18          18
                19          19
                20          20
                21          21
                22          22
                23          23
                24          24
                25          25
                26          26
                27          27
                28          28
                29          29
                30          30
                31          31
                32          32
                33          33
                34          34
                35          35
                36          36
                37          37
                38          38
                39          39
                40          40
                41          41
                42          42
                43          43
                44          44
                45          45
                46          46
                47          47
                48          48
                49          49
                50          50
                51          51
                52          52
                53          53
                54          54
                55          55
                56          56
                57          57
                58          58
                59          59
                60          60
                61          61
                62          62
                63          63
                64          64
                65          65
                66          66
                67          67
                68          68
                69          69
                70          70
                71          71
                72          72
                73          73
                74          74
                75          75
                76          76
                77          77
                78          78
                79          79
                80          80
                81          81
                82          82
                83          83
                84          84
                85          85
                86          86
                87          87
                88          88
                89          89
                90          90
                91          91
                92          92

----------------------------------------------------------------------------------------

 
 
 KPOINTS: K-Spacing Value to Generate K-Mesh: 0.03

Automatic generation of k-mesh.
 Grid dimensions read from file:
 generate k-points for:    1    4    1

 Generating k-lattice:

  Cartesian coordinates                     Fractional coordinates (reciprocal lattice)
     0.035650624  0.000000000  0.000000000     1.000000000  0.000000000  0.000000000
     0.000000000  0.030864198  0.000000000     0.000000000  0.250000000  0.000000000
     0.000000000  0.000000000  0.029850746     0.000000000  0.000000000  1.000000000

  Length of vectors
     0.035650624  0.030864198  0.029850746

  Shift w.r.t. Gamma in fractional coordinates (k-lattice)
     0.000000000  0.000000000  0.000000000

 
 Subroutine IBZKPT returns following result:
 ===========================================
 
 Found      3 irreducible k-points:
 
 Following reciprocal coordinates:
            Coordinates               Weight
  0.000000  0.000000  0.000000      1.000000
  0.000000  0.250000  0.000000      2.000000
  0.000000  0.500000  0.000000      1.000000
 
 Following cartesian coordinates:
            Coordinates               Weight
  0.000000  0.000000  0.000000      1.000000
  0.000000  0.030864  0.000000      2.000000
  0.000000  0.061728  0.000000      1.000000
 


--------------------------------------------------------------------------------------------------------




 Dimension of arrays:
   k-points           NKPTS =      3   k-points in BZ     NKDIM =      3   number of bands    NBANDS=    232
   number of dos      NEDOS =    301   number of ions     NIONS =     92
   non local maximal  LDIM  =      4   non local SUM 2l+1 LMDIM =      8
   total plane-waves  NPLWV = ******
   max r-space proj   IRMAX =   1967   max aug-charges    IRDMAX=   5083
   dimension x,y,z NGX =   210 NGY =   60 NGZ =  250
   dimension x,y,z NGXF=   420 NGYF=  120 NGZF=  500
   support grid    NGXF=   420 NGYF=  120 NGZF=  500
   ions per type =              92
   NGX,Y,Z   is equivalent  to a cutoff of  12.45, 12.31, 12.41 a.u.
   NGXF,Y,Z  is equivalent  to a cutoff of  24.89, 24.63, 24.81 a.u.

 SYSTEM =  unknown system                          
 POSCAR =   C                                      

 Startparameter for this run:
   NWRITE =      2    write-flag & timer
   PREC   = accura    normal or accurate (medium, high low for compatibility)
   ISTART =      0    job   : 0-new  1-cont  2-samecut
   ICHARG =      2    charge: 1-file 2-atom 10-const
   ISPIN  =      1    spin polarized calculation?
   LNONCOLLINEAR =      F non collinear calculations
   LSORBIT =      F    spin-orbit coupling
   INIWAV =      1    electr: 0-lowe 1-rand  2-diag
   LASPH  =      F    aspherical Exc in radial PAW
 Electronic Relaxation 1
   ENCUT  =  500.0 eV  36.75 Ry    6.06 a.u.  51.14 14.77 61.08*2*pi/ulx,y,z
   ENINI  =  500.0     initial cutoff
   ENAUG  =  644.9 eV  augmentation charge cutoff
   NELM   =    150;   NELMIN=  2; NELMDL= -5     # of ELM steps 
   EDIFF  = 0.1E-05   stopping-criterion for ELM
   LREAL  =      T    real-space projection
   NLSPLINE    = F    spline interpolate recip. space projectors
   LCOMPAT=      F    compatible to vasp.4.4
   GGA_COMPAT  = T    GGA compatible to vasp.4.4-vasp.4.6
   LMAXPAW     = -100 max onsite density
   LMAXMIX     =    2 max onsite mixed and CHGCAR
   VOSKOWN=      0    Vosko Wilk Nusair interpolation
   ROPT   =   -0.00025
 Ionic relaxation
   EDIFFG = 0.1E-04   stopping-criterion for IOM
   NSW    =      0    number of steps for IOM
   NBLOCK =      1;   KBLOCK =      1    inner block; outer block 
   IBRION =     -1    ionic relax: 0-MD 1-quasi-New 2-CG
   NFREE  =      0    steps in history (QN), initial steepest desc. (CG)
   ISIF   =      2    stress and relaxation
   IWAVPR =     10    prediction:  0-non 1-charg 2-wave 3-comb
   ISYM   =      2    0-nonsym 1-usesym 2-fastsym
   LCORR  =      T    Harris-Foulkes like correction to forces

   POTIM  = 0.5000    time-step for ionic-motion
   TEIN   =    0.0    initial temperature
   TEBEG  =    0.0;   TEEND  =   0.0 temperature during run
   SMASS  =  -3.00    Nose mass-parameter (am)
   estimated Nose-frequenzy (Omega)   =  0.10E-29 period in steps = 0.13E+47 mass=  -0.180E-25a.u.
   SCALEE = 1.0000    scale energy and forces
   NPACO  =    256;   APACO  = 10.0  distance and # of slots for P.C.
   PSTRESS=    0.0 pullay stress

  Mass of Ions in am
   POMASS =  12.01
  Ionic Valenz
   ZVAL   =   4.00
  Atomic Wigner-Seitz radii
   RWIGS  =  -1.00
  virtual crystal weights 
   VCA    =   1.00
   NELECT =     368.0000    total number of electrons
   NUPDOWN=      -1.0000    fix difference up-down

 DOS related values:
   EMIN   =  10.00;   EMAX   =-10.00  energy-range for DOS
   EFERMI =   0.00;   METHOD = LEGACY      
   ISMEAR =     0;   SIGMA  =   0.20  broadening in eV -4-tet -1-fermi 0-gaus
   EFERMI_NEDOS =   21; number of points for ismear=-14 and -15

 Electronic relaxation 2 (details)
   IALGO  =     38    algorithm
   LDIAG  =      T    sub-space diagonalisation (order eigenvalues)
   LSUBROT=      F    optimize rotation matrix (better conditioning)
   TURBO    =      0    0=normal 1=particle mesh
   IRESTART =      0    0=no restart 2=restart with 2 vectors
   NREBOOT  =      0    no. of reboots
   NMIN     =      0    reboot dimension
   EREF     =   0.00    reference energy to select bands
   IMIX   =      4    mixing-type and parameters
     AMIX     =   0.40;   BMIX     =  1.00
     AMIX_MAG =   1.60;   BMIX_MAG =  1.00
     AMIN     =   0.10
     WC   =   100.;   INIMIX=   1;  MIXPRE=   1;  MAXMIX= -45

 Intra band minimization:
   WEIMIN = 0.0000     energy-eigenvalue tresh-hold
   EBREAK =  0.11E-08  absolut break condition
   DEPER  =   0.30     relativ break condition  

   TIME   =   0.40     timestep for ELM

  volume/ion in A,a.u.               =      82.73       558.30
  Fermi-wavevector in a.u.,A,eV,Ry     =   0.596398  1.127030  4.839472  0.355691
  Thomas-Fermi vector in A             =   1.646729
 
 Write flags
   LWAVE        =      F    write WAVECAR
   LDOWNSAMPLE  =      F    k-point downsampling of WAVECAR
   LCHARG       =      F    write CHGCAR
   LVTOT        =      F    write LOCPOT, total local potential
   LVHAR        =      F    write LOCPOT, Hartree potential only
   WRT_POTENTIAL= false  ! write potential to hdf5 file
   LELF         =      F    write electronic localiz. function (ELF)
   LORBIT       =      0    0 simple, 1 ext, 2 COOP (PROOUT), +10 PAW based schemes


 Python interface
   PLUGINS active      =      F    recompile with -DPLUGINS to activate
 
 Dipole corrections
   LMONO      =      F    monopole corrections only (constant potential shift)
   LDIPOL     =      F    correct potential (dipole corrections)
   IDIPOL     =      0    1-x, 2-y, 3-z, 4-all directions 
   EPSILON    =  1.0000000 bulk dielectric constant
   LVACPOTAV  =      F  vacuum potentials using an averaging scheme for the charge density
   VACPOTFLAT =  0.1000000 required flatness to determine vacuum potential
 
Coulomb truncation method
  LTRUNCATE          =      F  Coulomb kernel truncation to be used
  IDIMENSIONALITY    =      3  Dimensionality of cutoff (0 molecules / 2 surfaces)
  ISURFACE           =     -1  Direction of surface normal
  LCOARSEN           =      F  Coarsen the charge grid before padding, preferred

 
 Exchange correlation treatment:
   GGA     = PE    functional components
   XC_C    = 1    coefficients multiplying the functional components
   LIBXC   =     F    Libxc                    
   VOSKOWN =     0    Vosko Wilk Nusair interpolation
   LHFCALC =     F    Hartree Fock is set to
   LHFONE  =     F    Hartree Fock one center treatment
   AEXX    =    0.0000 exact exchange contribution

 Parameters of functionals:
   PE:
     No parameter
 
 Van der Waals corrections
   IVDW    =     0    specifies the selected vdW correction

 Linear response parameters
   LEPSILON=     F    determine dielectric tensor
   LRPA    =     F    only Hartree local field effects (RPA)
   LNABLA  =     F    use nabla operator in PAW spheres
   LVEL    =     F    velocity operator in full k-point grid
   CSHIFT  =0.1000    complex shift for real part using Kramers Kronig
   OMEGAMAX=  -1.0    maximum frequency
   DEG_THRESHOLD= 0.2000000E-02 threshold for treating states as degnerate
   RTIME   =   -0.100 relaxation time in fs
  (WPLASMAI=    0.000 imaginary part of plasma frequency in eV, 0.658/RTIME)
   DFIELD  = 0.0000000 0.0000000 0.0000000 field for delta impulse in time
 
  Optional k-point grid parameters
   LKPOINTS_OPT  =     F    use optional k-point grid
   KPOINTS_OPT_MODE=     1    mode for optional k-point grid
 
 Orbital magnetization related:
   ORBITALMAG=     F  switch on orbital magnetization
   LCHIMAG   =     F  perturbation theory with respect to B field
   DQ        =  0.001000  dq finite difference perturbation B field
   LLRAUG    =     F  two centre corrections for induced B field
   LBONE     =     F  B-component reconstruction in AE one-centre
   LVGVCALC  =     T  calculate vGv susceptibility
   LVGVAPPL  =     F  apply vGv susceptibility instead of pGv for G=0

 Random number generation:
   RANDOM_GENERATOR = DEFAULT
   PCG_SEED         = not used


--------------------------------------------------------------------------------------------------------


 Static calculation
 charge density and potential will be updated during run
 non-spin polarized calculation
 Variant of blocked Davidson
 Davidson routine will perform the subspace rotation
 perform sub-space diagonalisation
    after iterative eigenvector-optimisation
 modified Broyden-mixing scheme, WC =      100.0
 initial mixing is a Kerker type mixing with AMIX =  0.4000 and BMIX =      1.0000
 Hartree-type preconditioning will be used
 using additional bands            48
 real space projection scheme for non local part
 use partial core corrections
 calculate Harris-corrections to forces 
   (improved forces if not selfconsistent)
 use gradient corrections 
 use of overlap-Matrix (Vanderbilt PP)
 Gauss-broadening in eV      SIGMA  =   0.20


--------------------------------------------------------------------------------------------------------


  energy-cutoff  :      500.00
  volume of cell :     7611.37
      direct lattice vectors                 reciprocal lattice vectors
    28.050000000  0.000000000  0.000000000     0.035650624  0.000000000  0.000000000
     0.000000000  8.100000000  0.000000000     0.000000000  0.123456790  0.000000000
     0.000000000  0.000000000 33.500000000     0.000000000  0.000000000  0.029850746

  length of vectors
    28.050000000  8.100000000 33.500000000     0.035650624  0.123456790  0.029850746


 
 k-points in units of 2pi/SCALE and weight: K-Spacing Value to Generate K-Mesh: 0.03
   0.00000000  0.00000000  0.00000000       0.250
   0.00000000  0.03086420  0.00000000       0.500
   0.00000000  0.06172840  0.00000000       0.250
 
 k-points in reciprocal lattice and weights: K-Spacing Value to Generate K-Mesh: 0.03
   0.00000000  0.00000000  0.00000000       0.250
   0.00000000  0.25000000  0.00000000       0.500
   0.00000000  0.50000000  0.00000000       0.250
 
 position of ions in fractional coordinates (direct lattice) 
   0.06191123  0.33733333  0.63014925
   0.06248734  0.50799012  0.62537313
   0.10438788  0.25853210  0.63752239
   0.10417504  0.59510247  0.62820896
   0.14793333  0.34327407  0.63053731
   0.14777219  0.51156420  0.62567164
   0.19132977  0.25894815  0.62713433
   0.19089661  0.59693086  0.61913433
   0.23363173  0.33779753  0.61307463
   0.23217611  0.50746173  0.60979104
   0.27723815  0.25855062  0.60608955
   0.27579394  0.58964074  0.59967164
   0.31939465  0.33918395  0.59319403
   0.31770873  0.50518395  0.58877612
   0.36257398  0.25532593  0.58558209
   0.36065597  0.59270000  0.57862687
   0.40337255  0.33800741  0.57062687
   0.40271658  0.50915432  0.56913433
   0.44881640  0.25473704  0.56340299
   0.44691266  0.58898889  0.56235821
   0.49207487  0.33712840  0.55247761
   0.49142246  0.50977531  0.55355224
   0.53639929  0.25352469  0.54826866
   0.53587879  0.58374198  0.55062687
   0.58074866  0.33527407  0.54271642
   0.58074866  0.50811975  0.54489552
   0.62539750  0.25429630  0.54683582
   0.62538681  0.58765556  0.54591045
   0.67115508  0.33949383  0.54683582
   0.67100535  0.51021975  0.54600000
   0.71398217  0.25926667  0.55868657
   0.71560071  0.58932840  0.55197015
   0.75792513  0.33682716  0.56197015
   0.75877718  0.50687654  0.55868657
   0.79988592  0.25746790  0.57588060
   0.80184314  0.59104815  0.56895522
   0.84355080  0.33787531  0.58495522
   0.84511230  0.50538765  0.57701493
   0.88359358  0.25867407  0.60310448
   0.88657398  0.58603210  0.59253731
   0.92687344  0.34046420  0.61137313
   0.92956150  0.50595185  0.60268657
   0.96746881  0.25428395  0.62528358
   0.97082709  0.58925926  0.61208955
   0.01079929  0.33396420  0.62594030
   0.01198720  0.50410988  0.61967164
   0.06176542  0.83568642  0.64262687
   0.06146916  0.00829753  0.64677612
   0.10503387  0.75953210  0.63713433
   0.10491729  0.09030926  0.64447761
   0.15030196  0.84042222  0.63785075
   0.14975152  0.00993356  0.64307463
   0.19311480  0.76050247  0.62698507
   0.19264029  0.09355531  0.63438806
   0.23788663  0.84044321  0.62244776
   0.23801747  0.00860588  0.62874627
   0.27865205  0.75273827  0.61008955
   0.28047558  0.09498247  0.61605970
   0.32216221  0.83661605  0.60373134
   0.32283351  0.01016047  0.60570149
   0.36328699  0.75718765  0.58874627
   0.36554367  0.08901432  0.59361194
   0.40596078  0.83910370  0.58185075
   0.40772193  0.00761431  0.58432836
   0.44845633  0.75608642  0.56773134
   0.44925134  0.09073654  0.57047761
   0.49223886  0.83747407  0.56522388
   0.49264528  0.00678515  0.56528358
   0.53619251  0.75613086  0.55886567
   0.53629590  0.08633062  0.55719403
   0.58027807  0.83603457  0.55952239
   0.58031729  0.00452594  0.56128358
   0.62422460  0.75464074  0.55558209
   0.62400713  0.09120123  0.55788060
   0.66828164  0.83980741  0.56074627
   0.66816043  0.00729836  0.56400000
   0.71301604  0.75681975  0.56074627
   0.71144742  0.09318556  0.56785075
   0.75403922  0.83895679  0.57367164
   0.75407130  0.00760733  0.57638806
   0.79727273  0.75424321  0.57997015
   0.79774688  0.08994951  0.58441791
   0.83955793  0.83117531  0.59417910
   0.83883779  0.00388737  0.59695522
   0.88393226  0.75189877  0.60005970
   0.88097683  0.08885012  0.60928358
   0.92645276  0.83750370  0.61638806
   0.92333333  0.00347110  0.62256716
   0.97016043  0.75553086  0.62080597
   0.96677362  0.08783432  0.63205970
   0.01036877  0.83433086  0.63516418
   0.00812845  0.00285440  0.63967164
 
 position of ions in cartesian coordinates  (Angst):
   1.73661000  2.73240000 21.11000000
   1.75277000  4.11472000 20.95000000
   2.92808000  2.09411000 21.35700000
   2.92211000  4.82033000 21.04500000
   4.14953000  2.78052000 21.12300000
   4.14501000  4.14367000 20.96000000
   5.36680000  2.09748000 21.00900000
   5.35465000  4.83514000 20.74100000
   6.55337000  2.73616000 20.53800000
   6.51254000  4.11044000 20.42800000
   7.77653000  2.09426000 20.30400000
   7.73602000  4.77609000 20.08900000
   8.95902000  2.74739000 19.87200000
   8.91173000  4.09199000 19.72400000
  10.17020000  2.06814000 19.61700000
  10.11640000  4.80087000 19.38400000
  11.31460000  2.73786000 19.11600000
  11.29620000  4.12415000 19.06600000
  12.58930000  2.06337000 18.87400000
  12.53590000  4.77081000 18.83900000
  13.80270000  2.73074000 18.50800000
  13.78440000  4.12918000 18.54400000
  15.04600000  2.05355000 18.36700000
  15.03140000  4.72831000 18.44600000
  16.29000000  2.71572000 18.18100000
  16.29000000  4.11577000 18.25400000
  17.54240000  2.05980000 18.31900000
  17.54210000  4.76001000 18.28800000
  18.82590000  2.74990000 18.31900000
  18.82170000  4.13278000 18.29100000
  20.02720000  2.10006000 18.71600000
  20.07260000  4.77356000 18.49100000
  21.25980000  2.72830000 18.82600000
  21.28370000  4.10570000 18.71600000
  22.43680000  2.08549000 19.29200000
  22.49170000  4.78749000 19.06000000
  23.66160000  2.73679000 19.59600000
  23.70540000  4.09364000 19.33000000
  24.78480000  2.09526000 20.20400000
  24.86840000  4.74686000 19.85000000
  25.99880000  2.75776000 20.48100000
  26.07420000  4.09821000 20.19000000
  27.13750000  2.05970000 20.94700000
  27.23170000  4.77300000 20.50500000
   0.30292000  2.70511000 20.96900000
   0.33624100  4.08329000 20.75900000
   1.73252000  6.76906000 21.52800000
   1.72421000  0.06721000 21.66700000
   2.94620000  6.15221000 21.34400000
   2.94293000  0.73150500 21.59000000
   4.21597000  6.80742000 21.36800000
   4.20053000  0.08046180 21.54300000
   5.41687000  6.16007000 21.00400000
   5.40356000  0.75779800 21.25200000
   6.67272000  6.80759000 20.85200000
   6.67639000  0.06970760 21.06300000
   7.81619000  6.09718000 20.43800000
   7.86734000  0.76935800 20.63800000
   9.03665000  6.77659000 20.22500000
   9.05548000  0.08229980 20.29100000
  10.19020000  6.13322000 19.72300000
  10.25350000  0.72101600 19.88600000
  11.38720000  6.79674000 19.49200000
  11.43660000  0.06167590 19.57500000
  12.57920000  6.12430000 19.01900000
  12.60150000  0.73496600 19.11100000
  13.80730000  6.78354000 18.93500000
  13.81870000  0.05495970 18.93700000
  15.04020000  6.12466000 18.72200000
  15.04310000  0.69927800 18.66600000
  16.27680000  6.77188000 18.74400000
  16.27790000  0.03666010 18.80300000
  17.50950000  6.11259000 18.61200000
  17.50340000  0.73873000 18.68900000
  18.74530000  6.80244000 18.78500000
  18.74190000  0.05911670 18.89400000
  20.00010000  6.13024000 18.78500000
  19.95610000  0.75480300 19.02300000
  21.15080000  6.79555000 19.21800000
  21.15170000  0.06161940 19.30900000
  22.36350000  6.10937000 19.42900000
  22.37680000  0.72859100 19.57800000
  23.54960000  6.73252000 19.90500000
  23.52940000  0.03148770 19.99800000
  24.79430000  6.09038000 20.10200000
  24.71140000  0.71968600 20.41100000
  25.98700000  6.78378000 20.64900000
  25.89950000  0.02811590 20.85600000
  27.21300000  6.11980000 20.79700000
  27.11800000  0.71145800 21.17400000
   0.29084400  6.75808000 21.27800000
   0.22800300  0.02312060 21.42900000
 


--------------------------------------------------------------------------------------------------------


 k-point     1 :   0.0000 0.0000 0.0000  plane waves:  193173
 k-point     2 :   0.0000 0.2500 0.0000  plane waves:  193166
 k-point     3 :   0.0000 0.5000 0.0000  plane waves:  193226

 maximum and minimum number of plane-waves per node :    193226   193166

 maximum number of plane-waves:    193226
 maximum index in each direction: 
   IXMAX=   51   IYMAX=   14   IZMAX=   61
   IXMIN=  -51   IYMIN=  -15   IZMIN=  -61


 serial   3D FFT for wavefunctions
 parallel 3D FFT for charge:
    minimum data exchange during FFTs selected (reduces bandwidth)


 total amount of memory used by VASP MPI-rank0  2294499. kBytes
=======================================================================

   base                                    :      30000. kBytes
   nonlr-proj                              :      15065. kBytes
   fftplans                                :     436558. kBytes
   grid                                    :     732614. kBytes
   one-center                              :        282. kBytes
   wavefun                                 :    1079980. kBytes
 
     INWAV:  cpu time      0.0000: real time      0.0000
 Broyden mixing: mesh for mixing (old mesh)
   NGX =103   NGY = 29   NGZ =123
  (NGX  =420   NGY  =120   NGZ  =500)
  gives a total of 367401 points

 initial charge density was supplied:
 charge density of overlapping atoms calculated
 number of electron     368.0000000 magnetization 
 keeping initial charge density in first step


--------------------------------------------------------------------------------------------------------


 Maximum index for non-local projection operator          1872
 Maximum index for augmentation-charges          2388 (set IRDMAX)


--------------------------------------------------------------------------------------------------------


 First call to EWALD:  gamma=   0.090
 Maximum number of real-space cells   2x   6x   2
 Maximum number of reciprocal cells   4x   1x   4

    FEWALD:  cpu time      0.1593: real time      0.1593


--------------------------------------- Ionic step        1  -------------------------------------------




--------------------------------------- Iteration      1(   1)  ---------------------------------------


    POTLOK:  cpu time      0.4199: real time      0.4379
    SETDIJ:  cpu time      0.0416: real time      0.0416
     EDDAV:  cpu time     11.1498: real time     11.1549
       DOS:  cpu time      0.0008: real time      0.0008
    --------------------------------------------
      LOOP:  cpu time     11.6121: real time     11.6353

 eigenvalue-minimisations  :  1728
 total energy-change (2. order) : 0.3631233E+04  (-0.1198600E+05)
 number of electron     368.0000000 magnetization 
 augmentation part      368.0000000 magnetization 

 Free energy of the ion-electron system (eV)
  ---------------------------------------------------
  alpha Z        PSCENC =        91.34886789
  Ewald energy   TEWEN  =    120198.66810759
  -Hartree energ DENC   =   -129518.81406404
  -exchange      EXHF   =         0.00000000
  -V(xc)+E(xc)   XCENC  =      1221.89599690
  PAW double counting   =      9984.02826696   -10036.41360137
  entropy T*S    EENTRO =        -0.84310650
  eigenvalues    EBANDS =     -1846.29265519
  atomic energy  EATOM  =     13537.65479391
  Solvation  Ediel_sol  =         0.00000000
  ---------------------------------------------------
  free energy    TOTEN  =      3631.23260615 eV

  energy without entropy =     3632.07571265  energy(sigma->0) =     3631.65415940


--------------------------------------------------------------------------------------------------------




--------------------------------------- Iteration      1(   2)  ---------------------------------------


     EDDAV:  cpu time     13.0827: real time     13.0872
       DOS:  cpu time      0.0007: real time      0.0007
    --------------------------------------------
      LOOP:  cpu time     13.0834: real time     13.0880

 eigenvalue-minimisations  :  2136
 total energy-change (2. order) :-0.3464927E+04  (-0.3202620E+04)
 number of electron     368.0000000 magnetization 
 augmentation part      368.0000000 magnetization 

 Free energy of the ion-electron system (eV)
  ---------------------------------------------------
  alpha Z        PSCENC =        91.34886789
  Ewald energy   TEWEN  =    120198.66810759
  -Hartree energ DENC   =   -129518.81406404
  -exchange      EXHF   =         0.00000000
  -V(xc)+E(xc)   XCENC  =      1221.89599690
  PAW double counting   =      9984.02826696   -10036.41360137
  entropy T*S    EENTRO =        -0.15863622
  eigenvalues    EBANDS =     -5311.90373937
  atomic energy  EATOM  =     13537.65479391
  Solvation  Ediel_sol  =         0.00000000
  ---------------------------------------------------
  free energy    TOTEN  =       166.30599225 eV

  energy without entropy =      166.46462847  energy(sigma->0) =      166.38531036


--------------------------------------------------------------------------------------------------------




--------------------------------------- Iteration      1(   3)  ---------------------------------------


     EDDAV:  cpu time     11.2582: real time     11.2621
       DOS:  cpu time      0.0006: real time      0.0006
    --------------------------------------------
      LOOP:  cpu time     11.2589: real time     11.2628

 eigenvalue-minimisations  :  1784
 total energy-change (2. order) :-0.1006066E+04  (-0.9855772E+03)
 number of electron     368.0000000 magnetization 
 augmentation part      368.0000000 magnetization 

 Free energy of the ion-electron system (eV)
  ---------------------------------------------------
  alpha Z        PSCENC =        91.34886789
  Ewald energy   TEWEN  =    120198.66810759
  -Hartree energ DENC   =   -129518.81406404
  -exchange      EXHF   =         0.00000000
  -V(xc)+E(xc)   XCENC  =      1221.89599690
  PAW double counting   =      9984.02826696   -10036.41360137
  entropy T*S    EENTRO =        -0.03246281
  eigenvalues    EBANDS =     -6318.09593392
  atomic energy  EATOM  =     13537.65479391
  Solvation  Ediel_sol  =         0.00000000
  ---------------------------------------------------
  free energy    TOTEN  =      -839.76002889 eV

  energy without entropy =     -839.72756608  energy(sigma->0) =     -839.74379749


--------------------------------------------------------------------------------------------------------




--------------------------------------- Iteration      1(   4)  ---------------------------------------


     EDDAV:  cpu time     10.8858: real time     10.8923
       DOS:  cpu time      0.0007: real time      0.0007
    --------------------------------------------
      LOOP:  cpu time     10.8865: real time     10.8930

 eigenvalue-minimisations  :  1712
 total energy-change (2. order) :-0.5938085E+02  (-0.5846569E+02)
 number of electron     368.0000000 magnetization 
 augmentation part      368.0000000 magnetization 

 Free energy of the ion-electron system (eV)
  ---------------------------------------------------
  alpha Z        PSCENC =        91.34886789
  Ewald energy   TEWEN  =    120198.66810759
  -Hartree energ DENC   =   -129518.81406404
  -exchange      EXHF   =         0.00000000
  -V(xc)+E(xc)   XCENC  =      1221.89599690
  PAW double counting   =      9984.02826696   -10036.41360137
  entropy T*S    EENTRO =        -0.06094085
  eigenvalues    EBANDS =     -6377.44830529
  atomic energy  EATOM  =     13537.65479391
  Solvation  Ediel_sol  =         0.00000000
  ---------------------------------------------------
  free energy    TOTEN  =      -899.14087830 eV

  energy without entropy =     -899.07993745  energy(sigma->0) =     -899.11040787


--------------------------------------------------------------------------------------------------------




--------------------------------------- Iteration      1(   5)  ---------------------------------------


     EDDAV:  cpu time     11.2680: real time     11.2718
       DOS:  cpu time      0.0007: real time      0.0007
    CHARGE:  cpu time      1.2073: real time      1.2095
    MIXING:  cpu time      0.2717: real time      0.2738
    --------------------------------------------
      LOOP:  cpu time     12.7477: real time     12.7559

 eigenvalue-minimisations  :  1792
 total energy-change (2. order) :-0.1441866E+01  (-0.1422835E+01)
 number of electron     367.9999998 magnetization 
 augmentation part       10.1809355 magnetization 

 Broyden mixing:
  rms(total) = 0.45528E+01    rms(broyden)= 0.45522E+01
  rms(prec ) = 0.46700E+01
  weight for this iteration     100.00

 Free energy of the ion-electron system (eV)
  ---------------------------------------------------
  alpha Z        PSCENC =        91.34886789
  Ewald energy   TEWEN  =    120198.66810759
  -Hartree energ DENC   =   -129518.81406404
  -exchange      EXHF   =         0.00000000
  -V(xc)+E(xc)   XCENC  =      1221.89599690
  PAW double counting   =      9984.02826696   -10036.41360137
  entropy T*S    EENTRO =        -0.06146774
  eigenvalues    EBANDS =     -6378.88964401
  atomic energy  EATOM  =     13537.65479391
  Solvation  Ediel_sol  =         0.00000000
  ---------------------------------------------------
  free energy    TOTEN  =      -900.58274392 eV

  energy without entropy =     -900.52127617  energy(sigma->0) =     -900.55201004


--------------------------------------------------------------------------------------------------------




--------------------------------------- Iteration      1(   6)  ---------------------------------------


    POTLOK:  cpu time      0.3222: real time      0.3222
    SETDIJ:  cpu time      0.0404: real time      0.0404
     EDDAV:  cpu time     10.2963: real time     10.3001
       DOS:  cpu time      0.0007: real time      0.0007
    CHARGE:  cpu time      1.1602: real time      1.1618
    MIXING:  cpu time      0.2770: real time      0.2779
    --------------------------------------------
      LOOP:  cpu time     12.0967: real time     12.1030

 eigenvalue-minimisations  :  1592
 total energy-change (2. order) : 0.4956503E+02  (-0.4709744E+01)
 number of electron     367.9999998 magnetization 
 augmentation part        9.7536099 magnetization 

 Broyden mixing:
  rms(total) = 0.26746E+01    rms(broyden)= 0.26746E+01
  rms(prec ) = 0.27329E+01
  weight for this iteration     100.00

 eigenvalues of (default mixing * dielectric matrix)
  average eigenvalue GAMMA=   2.1872
  2.1872

 Free energy of the ion-electron system (eV)
  ---------------------------------------------------
  alpha Z        PSCENC =        91.34886789
  Ewald energy   TEWEN  =    120198.66810759
  -Hartree energ DENC   =   -130090.69820440
  -exchange      EXHF   =         0.00000000
  -V(xc)+E(xc)   XCENC  =      1245.27581213
  PAW double counting   =     18972.55919887   -19032.58632101
  entropy T*S    EENTRO =        -0.06570322
  eigenvalues    EBANDS =     -5773.17426408
  atomic energy  EATOM  =     13537.65479391
  Solvation  Ediel_sol  =         0.00000000
  ---------------------------------------------------
  free energy    TOTEN  =      -851.01771232 eV

  energy without entropy =     -850.95200910  energy(sigma->0) =     -850.98486071


--------------------------------------------------------------------------------------------------------




--------------------------------------- Iteration      1(   7)  ---------------------------------------


    POTLOK:  cpu time      0.3219: real time      0.3220
    SETDIJ:  cpu time      0.0402: real time      0.0402
     EDDAV:  cpu time     10.1650: real time     10.1702
       DOS:  cpu time      0.0008: real time      0.0008
    CHARGE:  cpu time      1.1549: real time      1.1550
    MIXING:  cpu time      0.2787: real time      0.2804
    --------------------------------------------
      LOOP:  cpu time     11.9614: real time     11.9685

 eigenvalue-minimisations  :  1568
 total energy-change (2. order) : 0.1852149E+02  (-0.6561181E+01)
 number of electron     367.9999998 magnetization 
 augmentation part        9.1945335 magnetization 

 Broyden mixing:
  rms(total) = 0.73174E+00    rms(broyden)= 0.73147E+00
  rms(prec ) = 0.74149E+00
  weight for this iteration     100.00

 eigenvalues of (default mixing * dielectric matrix)
  average eigenvalue GAMMA=   2.2288
  2.2288  2.2288

 Free energy of the ion-electron system (eV)
  ---------------------------------------------------
  alpha Z        PSCENC =        91.34886789
  Ewald energy   TEWEN  =    120198.66810759
  -Hartree energ DENC   =   -130859.66459704
  -exchange      EXHF   =         0.00000000
  -V(xc)+E(xc)   XCENC  =      1276.54012396
  PAW double counting   =     36717.23583604   -36784.20543622
  entropy T*S    EENTRO =        -0.07382787
  eigenvalues    EBANDS =     -5010.00008768
  atomic energy  EATOM  =     13537.65479391
  Solvation  Ediel_sol  =         0.00000000
  ---------------------------------------------------
  free energy    TOTEN  =      -832.49621943 eV

  energy without entropy =     -832.42239156  energy(sigma->0) =     -832.45930549


--------------------------------------------------------------------------------------------------------




--------------------------------------- Iteration      1(   8)  ---------------------------------------


    POTLOK:  cpu time      0.3216: real time      0.3215
    SETDIJ:  cpu time      0.0401: real time      0.0401
     EDDAV:  cpu time     10.3304: real time     10.3340
       DOS:  cpu time      0.0008: real time      0.0008
    CHARGE:  cpu time      1.1528: real time      1.1555
    MIXING:  cpu time      0.2830: real time      0.2831
    --------------------------------------------
      LOOP:  cpu time     12.1287: real time     12.1350

 eigenvalue-minimisations  :  1600
 total energy-change (2. order) : 0.3002859E+00  (-0.2340108E+00)
 number of electron     367.9999998 magnetization 
 augmentation part        9.1842090 magnetization 

 Broyden mixing:
  rms(total) = 0.93258E-01    rms(broyden)= 0.93224E-01
  rms(prec ) = 0.11658E+00
  weight for this iteration     100.00

 eigenvalues of (default mixing * dielectric matrix)
  average eigenvalue GAMMA=   1.8658
  1.2359  2.4452  1.9164

 Free energy of the ion-electron system (eV)
  ---------------------------------------------------
  alpha Z        PSCENC =        91.34886789
  Ewald energy   TEWEN  =    120198.66810759
  -Hartree energ DENC   =   -130953.99799143
  -exchange      EXHF   =         0.00000000
  -V(xc)+E(xc)   XCENC  =      1276.21312768
  PAW double counting   =     41054.60496878   -41118.77991406
  entropy T*S    EENTRO =        -0.07325469
  eigenvalues    EBANDS =     -4917.83463922
  atomic energy  EATOM  =     13537.65479391
  Solvation  Ediel_sol  =         0.00000000
  ---------------------------------------------------
  free energy    TOTEN  =      -832.19593355 eV

  energy without entropy =     -832.12267887  energy(sigma->0) =     -832.15930621


--------------------------------------------------------------------------------------------------------




--------------------------------------- Iteration      1(   9)  ---------------------------------------


    POTLOK:  cpu time      0.3218: real time      0.3217
    SETDIJ:  cpu time      0.0402: real time      0.0402
     EDDAV:  cpu time     10.3659: real time     10.3696
       DOS:  cpu time      0.0008: real time      0.0008
    CHARGE:  cpu time      1.1539: real time      1.1559
    MIXING:  cpu time      0.2871: real time      0.2870
    --------------------------------------------
      LOOP:  cpu time     12.1696: real time     12.1751

 eigenvalue-minimisations  :  1608
 total energy-change (2. order) : 0.1041043E+00  (-0.2703218E-01)
 number of electron     367.9999998 magnetization 
 augmentation part        9.1589695 magnetization 

 Broyden mixing:
  rms(total) = 0.56372E-01    rms(broyden)= 0.56362E-01
  rms(prec ) = 0.77969E-01
  weight for this iteration     100.00

 eigenvalues of (default mixing * dielectric matrix)
  average eigenvalue GAMMA=   1.7108
  2.2255  2.2255  1.1962  1.1962

 Free energy of the ion-electron system (eV)
  ---------------------------------------------------
  alpha Z        PSCENC =        91.34886789
  Ewald energy   TEWEN  =    120198.66810759
  -Hartree energ DENC   =   -131022.61043449
  -exchange      EXHF   =         0.00000000
  -V(xc)+E(xc)   XCENC  =      1277.68561937
  PAW double counting   =     41497.29684589   -41561.63989097
  entropy T*S    EENTRO =        -0.07235623
  eigenvalues    EBANDS =     -4850.42338217
  atomic energy  EATOM  =     13537.65479391
  Solvation  Ediel_sol  =         0.00000000
  ---------------------------------------------------
  free energy    TOTEN  =      -832.09182921 eV

  energy without entropy =     -832.01947298  energy(sigma->0) =     -832.05565110


--------------------------------------------------------------------------------------------------------




--------------------------------------- Iteration      1(  10)  ---------------------------------------


    POTLOK:  cpu time      0.3214: real time      0.3215
    SETDIJ:  cpu time      0.0402: real time      0.0402
     EDDAV:  cpu time     11.0301: real time     11.0339
       DOS:  cpu time      0.0008: real time      0.0008
    CHARGE:  cpu time      1.1566: real time      1.1569
    MIXING:  cpu time      0.2909: real time      0.2910
    --------------------------------------------
      LOOP:  cpu time     12.8400: real time     12.8443

 eigenvalue-minimisations  :  1744
 total energy-change (2. order) : 0.3869856E-01  (-0.5259582E-02)
 number of electron     367.9999998 magnetization 
 augmentation part        9.1491550 magnetization 

 Broyden mixing:
  rms(total) = 0.34792E-01    rms(broyden)= 0.34789E-01
  rms(prec ) = 0.54072E-01
  weight for this iteration     100.00

 eigenvalues of (default mixing * dielectric matrix)
  average eigenvalue GAMMA=   1.7612
  2.5306  2.5306  1.6533  1.2540  0.8377

 Free energy of the ion-electron system (eV)
  ---------------------------------------------------
  alpha Z        PSCENC =        91.34886789
  Ewald energy   TEWEN  =    120198.66810759
  -Hartree energ DENC   =   -131075.36576266
  -exchange      EXHF   =         0.00000000
  -V(xc)+E(xc)   XCENC  =      1278.00243503
  PAW double counting   =     41228.61231799   -41292.80146025
  entropy T*S    EENTRO =        -0.07201022
  eigenvalues    EBANDS =     -4798.10041994
  atomic energy  EATOM  =     13537.65479391
  Solvation  Ediel_sol  =         0.00000000
  ---------------------------------------------------
  free energy    TOTEN  =      -832.05313066 eV

  energy without entropy =     -831.98112044  energy(sigma->0) =     -832.01712555


--------------------------------------------------------------------------------------------------------




--------------------------------------- Iteration      1(  11)  ---------------------------------------


    POTLOK:  cpu time      0.3217: real time      0.3217
    SETDIJ:  cpu time      0.0401: real time      0.0401
     EDDAV:  cpu time      9.9796: real time      9.9863
       DOS:  cpu time      0.0007: real time      0.0007
    CHARGE:  cpu time      1.1651: real time      1.1674
    MIXING:  cpu time      0.2965: real time      0.2981
    --------------------------------------------
      LOOP:  cpu time     11.8038: real time     11.8142

 eigenvalue-minimisations  :  1536
 total energy-change (2. order) : 0.2820007E-01  (-0.2475974E-02)
 number of electron     367.9999998 magnetization 
 augmentation part        9.1433996 magnetization 

 Broyden mixing:
  rms(total) = 0.24601E-01    rms(broyden)= 0.24598E-01
  rms(prec ) = 0.37172E-01
  weight for this iteration     100.00

 eigenvalues of (default mixing * dielectric matrix)
  average eigenvalue GAMMA=   1.8153
  3.1568  2.4605  1.9705  0.9287  1.1877  1.1877

 Free energy of the ion-electron system (eV)
  ---------------------------------------------------
  alpha Z        PSCENC =        91.34886789
  Ewald energy   TEWEN  =    120198.66810759
  -Hartree energ DENC   =   -131142.41609097
  -exchange      EXHF   =         0.00000000
  -V(xc)+E(xc)   XCENC  =      1278.62576337
  PAW double counting   =     41173.78054753   -41237.87839596
  entropy T*S    EENTRO =        -0.07231097
  eigenvalues    EBANDS =     -4731.73621298
  atomic energy  EATOM  =     13537.65479391
  Solvation  Ediel_sol  =         0.00000000
  ---------------------------------------------------
  free energy    TOTEN  =      -832.02493059 eV

  energy without entropy =     -831.95261962  energy(sigma->0) =     -831.98877511


--------------------------------------------------------------------------------------------------------




--------------------------------------- Iteration      1(  12)  ---------------------------------------


    POTLOK:  cpu time      0.3216: real time      0.3216
    SETDIJ:  cpu time      0.0402: real time      0.0402
     EDDAV:  cpu time      9.8939: real time      9.9018
       DOS:  cpu time      0.0008: real time      0.0008
    CHARGE:  cpu time      1.1538: real time      1.1555
    MIXING:  cpu time      0.3058: real time      0.3062
    --------------------------------------------
      LOOP:  cpu time     11.7161: real time     11.7262

 eigenvalue-minimisations  :  1520
 total energy-change (2. order) : 0.2415888E-02  (-0.2271955E-02)
 number of electron     367.9999998 magnetization 
 augmentation part        9.1359511 magnetization 

 Broyden mixing:
  rms(total) = 0.14814E-01    rms(broyden)= 0.14810E-01
  rms(prec ) = 0.22411E-01
  weight for this iteration     100.00

 eigenvalues of (default mixing * dielectric matrix)
  average eigenvalue GAMMA=   2.1030
  5.0301  2.4555  2.0280  2.0280  0.9610  1.1092  1.1092

 Free energy of the ion-electron system (eV)
  ---------------------------------------------------
  alpha Z        PSCENC =        91.34886789
  Ewald energy   TEWEN  =    120198.66810759
  -Hartree energ DENC   =   -131204.74706974
  -exchange      EXHF   =         0.00000000
  -V(xc)+E(xc)   XCENC  =      1279.23181364
  PAW double counting   =     41247.95380172   -41312.04830651
  entropy T*S    EENTRO =        -0.07247163
  eigenvalues    EBANDS =     -4670.01205157
  atomic energy  EATOM  =     13537.65479391
  Solvation  Ediel_sol  =         0.00000000
  ---------------------------------------------------
  free energy    TOTEN  =      -832.02251470 eV

  energy without entropy =     -831.95004308  energy(sigma->0) =     -831.98627889


--------------------------------------------------------------------------------------------------------




--------------------------------------- Iteration      1(  13)  ---------------------------------------


    POTLOK:  cpu time      0.3203: real time      0.3200
    SETDIJ:  cpu time      0.0404: real time      0.0404
     EDDAV:  cpu time     10.0296: real time     10.0330
       DOS:  cpu time      0.0008: real time      0.0008
    CHARGE:  cpu time      1.1567: real time      1.1582
    MIXING:  cpu time      0.3129: real time      0.3141
    --------------------------------------------
      LOOP:  cpu time     11.8608: real time     11.8666

 eigenvalue-minimisations  :  1544
 total energy-change (2. order) :-0.1284689E-01  (-0.7970248E-03)
 number of electron     367.9999998 magnetization 
 augmentation part        9.1338852 magnetization 

 Broyden mixing:
  rms(total) = 0.91083E-02    rms(broyden)= 0.91065E-02
  rms(prec ) = 0.12292E-01
  weight for this iteration     100.00

 eigenvalues of (default mixing * dielectric matrix)
  average eigenvalue GAMMA=   2.1023
  5.4279  2.5036  2.5036  1.8591  1.2687  1.2687  0.8854  1.1015

 Free energy of the ion-electron system (eV)
  ---------------------------------------------------
  alpha Z        PSCENC =        91.34886789
  Ewald energy   TEWEN  =    120198.66810759
  -Hartree energ DENC   =   -131252.92653199
  -exchange      EXHF   =         0.00000000
  -V(xc)+E(xc)   XCENC  =      1279.38307063
  PAW double counting   =     41194.32423041   -41258.40931579
  entropy T*S    EENTRO =        -0.07241751
  eigenvalues    EBANDS =     -4622.00616674
  atomic energy  EATOM  =     13537.65479391
  Solvation  Ediel_sol  =         0.00000000
  ---------------------------------------------------
  free energy    TOTEN  =      -832.03536159 eV

  energy without entropy =     -831.96294408  energy(sigma->0) =     -831.99915284


--------------------------------------------------------------------------------------------------------




--------------------------------------- Iteration      1(  14)  ---------------------------------------


    POTLOK:  cpu time      0.3228: real time      0.3227
    SETDIJ:  cpu time      0.0401: real time      0.0401
     EDDAV:  cpu time     10.0148: real time     10.0184
       DOS:  cpu time      0.0007: real time      0.0007
    CHARGE:  cpu time      1.1560: real time      1.1578
    MIXING:  cpu time      0.3228: real time      0.3228
    --------------------------------------------
      LOOP:  cpu time     11.8572: real time     11.8627

 eigenvalue-minimisations  :  1536
 total energy-change (2. order) :-0.1851238E-01  (-0.1385099E-03)
 number of electron     367.9999998 magnetization 
 augmentation part        9.1328939 magnetization 

 Broyden mixing:
  rms(total) = 0.54323E-02    rms(broyden)= 0.54318E-02
  rms(prec ) = 0.75637E-02
  weight for this iteration     100.00

 eigenvalues of (default mixing * dielectric matrix)
  average eigenvalue GAMMA=   2.2405
  6.5502  3.0838  2.5420  1.9095  1.6124  1.2735  1.2735  0.9600  0.9600

 Free energy of the ion-electron system (eV)
  ---------------------------------------------------
  alpha Z        PSCENC =        91.34886789
  Ewald energy   TEWEN  =    120198.66810759
  -Hartree energ DENC   =   -131266.98349593
  -exchange      EXHF   =         0.00000000
  -V(xc)+E(xc)   XCENC  =      1279.40567450
  PAW double counting   =     41205.90656941   -41270.00517486
  entropy T*S    EENTRO =        -0.07242171
  eigenvalues    EBANDS =     -4607.97679477
  atomic energy  EATOM  =     13537.65479391
  Solvation  Ediel_sol  =         0.00000000
  ---------------------------------------------------
  free energy    TOTEN  =      -832.05387397 eV

  energy without entropy =     -831.98145226  energy(sigma->0) =     -832.01766311


--------------------------------------------------------------------------------------------------------




--------------------------------------- Iteration      1(  15)  ---------------------------------------


    POTLOK:  cpu time      0.3216: real time      0.3216
    SETDIJ:  cpu time      0.0402: real time      0.0402
     EDDAV:  cpu time     10.1283: real time     10.1320
       DOS:  cpu time      0.0007: real time      0.0007
    CHARGE:  cpu time      1.1578: real time      1.1587
    MIXING:  cpu time      0.3297: real time      0.3318
    --------------------------------------------
      LOOP:  cpu time     11.9782: real time     11.9850

 eigenvalue-minimisations  :  1560
 total energy-change (2. order) :-0.1985615E-01  (-0.1792304E-03)
 number of electron     367.9999998 magnetization 
 augmentation part        9.1327396 magnetization 

 Broyden mixing:
  rms(total) = 0.32121E-02    rms(broyden)= 0.32117E-02
  rms(prec ) = 0.41557E-02
  weight for this iteration     100.00

 eigenvalues of (default mixing * dielectric matrix)
  average eigenvalue GAMMA=   2.2450
  7.0062  3.5317  2.2602  2.2602  1.6964  1.3291  1.3291  0.9629  0.9629  1.1117

 Free energy of the ion-electron system (eV)
  ---------------------------------------------------
  alpha Z        PSCENC =        91.34886789
  Ewald energy   TEWEN  =    120198.66810759
  -Hartree energ DENC   =   -131277.30777036
  -exchange      EXHF   =         0.00000000
  -V(xc)+E(xc)   XCENC  =      1279.37399810
  PAW double counting   =     41203.18892771   -41267.28697673
  entropy T*S    EENTRO =        -0.07242243
  eigenvalues    EBANDS =     -4597.64125579
  atomic energy  EATOM  =     13537.65479391
  Solvation  Ediel_sol  =         0.00000000
  ---------------------------------------------------
  free energy    TOTEN  =      -832.07373013 eV

  energy without entropy =     -832.00130769  energy(sigma->0) =     -832.03751891


--------------------------------------------------------------------------------------------------------




--------------------------------------- Iteration      1(  16)  ---------------------------------------


    POTLOK:  cpu time      0.3200: real time      0.3200
    SETDIJ:  cpu time      0.0406: real time      0.0406
     EDDAV:  cpu time     10.3469: real time     10.3506
       DOS:  cpu time      0.0008: real time      0.0008
    CHARGE:  cpu time      1.1696: real time      1.1696
    MIXING:  cpu time      0.3401: real time      0.3402
    --------------------------------------------
      LOOP:  cpu time     12.2180: real time     12.2217

 eigenvalue-minimisations  :  1600
 total energy-change (2. order) :-0.7211163E-02  (-0.3779609E-04)
 number of electron     367.9999998 magnetization 
 augmentation part        9.1326291 magnetization 

 Broyden mixing:
  rms(total) = 0.21586E-02    rms(broyden)= 0.21586E-02
  rms(prec ) = 0.27119E-02
  weight for this iteration     100.00

 eigenvalues of (default mixing * dielectric matrix)
  average eigenvalue GAMMA=   2.3461
  7.9458  4.0544  2.3812  2.3812  1.9166  1.5212  1.5212  0.9491  0.9491  1.0936
  1.0936

 Free energy of the ion-electron system (eV)
  ---------------------------------------------------
  alpha Z        PSCENC =        91.34886789
  Ewald energy   TEWEN  =    120198.66810759
  -Hartree energ DENC   =   -131280.34241135
  -exchange      EXHF   =         0.00000000
  -V(xc)+E(xc)   XCENC  =      1279.36119069
  PAW double counting   =     41199.78776166   -41263.88340383
  entropy T*S    EENTRO =        -0.07239184
  eigenvalues    EBANDS =     -4594.60345600
  atomic energy  EATOM  =     13537.65479391
  Solvation  Ediel_sol  =         0.00000000
  ---------------------------------------------------
  free energy    TOTEN  =      -832.08094129 eV

  energy without entropy =     -832.00854945  energy(sigma->0) =     -832.04474537


--------------------------------------------------------------------------------------------------------




--------------------------------------- Iteration      1(  17)  ---------------------------------------


    POTLOK:  cpu time      0.3203: real time      0.3203
    SETDIJ:  cpu time      0.0402: real time      0.0402
     EDDAV:  cpu time      9.9658: real time      9.9731
       DOS:  cpu time      0.0008: real time      0.0008
    CHARGE:  cpu time      1.1563: real time      1.1580
    MIXING:  cpu time      0.3493: real time      0.3517
    --------------------------------------------
      LOOP:  cpu time     11.8326: real time     11.8440

 eigenvalue-minimisations  :  1528
 total energy-change (2. order) :-0.4896737E-02  (-0.2812296E-04)
 number of electron     367.9999998 magnetization 
 augmentation part        9.1325287 magnetization 

 Broyden mixing:
  rms(total) = 0.10767E-02    rms(broyden)= 0.10766E-02
  rms(prec ) = 0.13927E-02
  weight for this iteration     100.00

 eigenvalues of (default mixing * dielectric matrix)
  average eigenvalue GAMMA=   2.3986
  8.3776  4.7367  2.5490  2.5490  1.9689  1.4157  1.4157  1.3817  1.3817  0.9710
  0.9710  1.0654

 Free energy of the ion-electron system (eV)
  ---------------------------------------------------
  alpha Z        PSCENC =        91.34886789
  Ewald energy   TEWEN  =    120198.66810759
  -Hartree energ DENC   =   -131282.71721779
  -exchange      EXHF   =         0.00000000
  -V(xc)+E(xc)   XCENC  =      1279.36172055
  PAW double counting   =     41203.21090785   -41267.30484006
  entropy T*S    EENTRO =        -0.07241102
  eigenvalues    EBANDS =     -4592.23576694
  atomic energy  EATOM  =     13537.65479391
  Solvation  Ediel_sol  =         0.00000000
  ---------------------------------------------------
  free energy    TOTEN  =      -832.08583803 eV

  energy without entropy =     -832.01342700  energy(sigma->0) =     -832.04963251


--------------------------------------------------------------------------------------------------------




--------------------------------------- Iteration      1(  18)  ---------------------------------------


    POTLOK:  cpu time      0.3200: real time      0.3200
    SETDIJ:  cpu time      0.0401: real time      0.0401
     EDDAV:  cpu time     10.2199: real time     10.2234
       DOS:  cpu time      0.0007: real time      0.0007
    CHARGE:  cpu time      1.1588: real time      1.1594
    MIXING:  cpu time      0.3600: real time      0.3618
    --------------------------------------------
      LOOP:  cpu time     12.0996: real time     12.1056

 eigenvalue-minimisations  :  1576
 total energy-change (2. order) :-0.2243664E-02  (-0.1062714E-04)
 number of electron     367.9999998 magnetization 
 augmentation part        9.1324905 magnetization 

 Broyden mixing:
  rms(total) = 0.57083E-03    rms(broyden)= 0.57077E-03
  rms(prec ) = 0.73909E-03
  weight for this iteration     100.00

 eigenvalues of (default mixing * dielectric matrix)
  average eigenvalue GAMMA=   2.4314
  8.8709  5.1071  2.9344  2.5129  1.9342  1.9342  1.5382  1.5382  1.1659  1.1659
  0.9446  0.9446  1.0170

 Free energy of the ion-electron system (eV)
  ---------------------------------------------------
  alpha Z        PSCENC =        91.34886789
  Ewald energy   TEWEN  =    120198.66810759
  -Hartree energ DENC   =   -131283.49858097
  -exchange      EXHF   =         0.00000000
  -V(xc)+E(xc)   XCENC  =      1279.35988321
  PAW double counting   =     41202.38641319   -41266.47939244
  entropy T*S    EENTRO =        -0.07242556
  eigenvalues    EBANDS =     -4591.45574850
  atomic energy  EATOM  =     13537.65479391
  Solvation  Ediel_sol  =         0.00000000
  ---------------------------------------------------
  free energy    TOTEN  =      -832.08808169 eV

  energy without entropy =     -832.01565613  energy(sigma->0) =     -832.05186891


--------------------------------------------------------------------------------------------------------




--------------------------------------- Iteration      1(  19)  ---------------------------------------


    POTLOK:  cpu time      0.3215: real time      0.3215
    SETDIJ:  cpu time      0.0403: real time      0.0404
     EDDAV:  cpu time      9.2458: real time      9.2492
       DOS:  cpu time      0.0007: real time      0.0007
    CHARGE:  cpu time      1.1582: real time      1.1581
    MIXING:  cpu time      0.3729: real time      0.3730
    --------------------------------------------
      LOOP:  cpu time     11.1395: real time     11.1430

 eigenvalue-minimisations  :  1376
 total energy-change (2. order) :-0.9200197E-03  (-0.2783967E-05)
 number of electron     367.9999998 magnetization 
 augmentation part        9.1324918 magnetization 

 Broyden mixing:
  rms(total) = 0.39014E-03    rms(broyden)= 0.39012E-03
  rms(prec ) = 0.46390E-03
  weight for this iteration     100.00

 eigenvalues of (default mixing * dielectric matrix)
  average eigenvalue GAMMA=   2.4169
  8.9458  5.4774  3.1052  2.4070  2.4070  1.8332  1.4512  1.4512  1.3485  1.3485
  0.9575  1.0025  1.0025  1.0986

 Free energy of the ion-electron system (eV)
  ---------------------------------------------------
  alpha Z        PSCENC =        91.34886789
  Ewald energy   TEWEN  =    120198.66810759
  -Hartree energ DENC   =   -131283.85273748
  -exchange      EXHF   =         0.00000000
  -V(xc)+E(xc)   XCENC  =      1279.35879879
  PAW double counting   =     41201.90786641   -41265.99988222
  entropy T*S    EENTRO =        -0.07241992
  eigenvalues    EBANDS =     -4591.10239667
  atomic energy  EATOM  =     13537.65479391
  Solvation  Ediel_sol  =         0.00000000
  ---------------------------------------------------
  free energy    TOTEN  =      -832.08900171 eV

  energy without entropy =     -832.01658179  energy(sigma->0) =     -832.05279175


--------------------------------------------------------------------------------------------------------




--------------------------------------- Iteration      1(  20)  ---------------------------------------


    POTLOK:  cpu time      0.3199: real time      0.3199
    SETDIJ:  cpu time      0.0404: real time      0.0405
     EDDAV:  cpu time      8.8187: real time      8.8219
       DOS:  cpu time      0.0008: real time      0.0008
    CHARGE:  cpu time      1.1558: real time      1.1588
    MIXING:  cpu time      0.3850: real time      0.3850
    --------------------------------------------
      LOOP:  cpu time     10.7206: real time     10.7267

 eigenvalue-minimisations  :  1288
 total energy-change (2. order) :-0.3173652E-03  (-0.3932231E-06)
 number of electron     367.9999998 magnetization 
 augmentation part        9.1324722 magnetization 

 Broyden mixing:
  rms(total) = 0.21753E-03    rms(broyden)= 0.21752E-03
  rms(prec ) = 0.26516E-03
  weight for this iteration     100.00

 eigenvalues of (default mixing * dielectric matrix)
  average eigenvalue GAMMA=   2.4684
  9.2202  5.9476  3.7492  2.5687  2.4307  1.9931  1.5924  1.5924  1.4329  1.3566
  1.1102  1.1102  0.9815  0.9699  0.9699

 Free energy of the ion-electron system (eV)
  ---------------------------------------------------
  alpha Z        PSCENC =        91.34886789
  Ewald energy   TEWEN  =    120198.66810759
  -Hartree energ DENC   =   -131283.97469283
  -exchange      EXHF   =         0.00000000
  -V(xc)+E(xc)   XCENC  =      1279.35872509
  PAW double counting   =     41201.93946148   -41266.03211324
  entropy T*S    EENTRO =        -0.07241862
  eigenvalues    EBANDS =     -4590.98005034
  atomic energy  EATOM  =     13537.65479391
  Solvation  Ediel_sol  =         0.00000000
  ---------------------------------------------------
  free energy    TOTEN  =      -832.08931907 eV

  energy without entropy =     -832.01690046  energy(sigma->0) =     -832.05310977


--------------------------------------------------------------------------------------------------------




--------------------------------------- Iteration      1(  21)  ---------------------------------------


    POTLOK:  cpu time      0.3212: real time      0.3213
    SETDIJ:  cpu time      0.0403: real time      0.0404
     EDDAV:  cpu time      8.5695: real time      8.5724
       DOS:  cpu time      0.0008: real time      0.0008
    CHARGE:  cpu time      1.1689: real time      1.1695
    MIXING:  cpu time      0.3962: real time      0.3976
    --------------------------------------------
      LOOP:  cpu time     10.4970: real time     10.5020

 eigenvalue-minimisations  :  1240
 total energy-change (2. order) :-0.2124273E-03  (-0.3183599E-06)
 number of electron     367.9999998 magnetization 
 augmentation part        9.1324814 magnetization 

 Broyden mixing:
  rms(total) = 0.11159E-03    rms(broyden)= 0.11158E-03
  rms(prec ) = 0.13378E-03
  weight for this iteration     100.00

 eigenvalues of (default mixing * dielectric matrix)
  average eigenvalue GAMMA=   2.4279
  9.2131  6.1808  3.8609  2.5991  2.5991  1.9850  1.6659  1.4867  1.4867  1.3157
  1.3157  1.1833  1.0659  0.9952  0.9466  0.9466

 Free energy of the ion-electron system (eV)
  ---------------------------------------------------
  alpha Z        PSCENC =        91.34886789
  Ewald energy   TEWEN  =    120198.66810759
  -Hartree energ DENC   =   -131284.04917453
  -exchange      EXHF   =         0.00000000
  -V(xc)+E(xc)   XCENC  =      1279.35752037
  PAW double counting   =     41201.26881040   -41265.36148730
  entropy T*S    EENTRO =        -0.07241772
  eigenvalues    EBANDS =     -4590.90455212
  atomic energy  EATOM  =     13537.65479391
  Solvation  Ediel_sol  =         0.00000000
  ---------------------------------------------------
  free energy    TOTEN  =      -832.08953150 eV

  energy without entropy =     -832.01711378  energy(sigma->0) =     -832.05332264


[...]
   0.171E+02 -.452E+01 0.117E+03   -.170E+02 0.408E+01 -.118E+03   0.545E+00 -.335E+00 -.534E+00   -.341E-06 -.347E-05 -.894E-06
   0.191E+02 -.207E+02 0.106E+03   -.195E+02 0.224E+02 -.106E+03   -.747E+00 0.316E+00 -.271E-01   -.264E-05 0.739E-05 -.108E-05
   0.144E+02 0.164E+02 0.116E+03   -.143E+02 -.168E+02 -.116E+03   0.589E+00 0.312E+00 -.275E+00   -.262E-05 -.550E-05 -.553E-06
   0.222E+02 0.901E+01 0.159E+03   -.225E+02 -.865E+01 -.160E+03   -.477E+00 -.210E+00 0.492E+00   -.468E-05 0.398E-05 0.146E-06
   0.253E+02 -.891E+01 0.141E+03   -.263E+02 0.808E+01 -.142E+03   0.534E-01 -.118E+01 -.725E-01   -.512E-05 -.321E-05 0.338E-06
   0.121E+02 -.594E+01 0.172E+03   -.120E+02 0.613E+01 -.172E+03   -.319E+00 -.385E-01 0.252E+00   -.755E-06 0.634E-05 -.477E-06
   0.500E+01 0.276E+01 0.137E+03   -.456E+01 -.114E+01 -.137E+03   0.108E+00 0.150E+01 0.484E+00   -.609E-06 -.518E-05 -.259E-06
   0.385E+01 0.103E+02 0.210E+03   -.378E+01 -.990E+01 -.210E+03   -.499E-01 0.116E+00 0.907E+00   0.599E-05 0.338E-05 0.508E-06
   0.412E+01 -.104E+02 0.170E+03   -.410E+01 0.949E+01 -.170E+03   -.290E+00 -.748E+00 -.542E+00   0.626E-05 -.239E-05 0.410E-06
   -.125E+02 -.859E+01 0.169E+03   0.130E+02 0.939E+01 -.169E+03   -.612E-01 -.299E-01 0.259E+00   0.824E-05 0.450E-05 0.981E-06
   -.742E+01 0.588E+01 0.175E+03   0.772E+01 -.532E+01 -.175E+03   -.849E-01 0.690E+00 0.928E+00   0.956E-05 -.455E-05 0.119E-05
   -.997E+01 0.185E+02 0.191E+03   0.959E+01 -.188E+02 -.192E+03   -.565E+00 -.357E+00 0.111E+01   0.458E-05 0.661E-05 0.150E-05
   -.110E+02 -.144E+02 0.188E+03   0.111E+02 0.142E+02 -.188E+03   -.329E+00 -.758E+00 -.470E+00   0.577E-05 -.387E-05 0.178E-05
   -.649E+01 -.530E+01 0.100E+03   0.563E+01 0.535E+01 -.100E+03   -.262E+00 -.648E+00 -.480E+00   0.137E-05 0.593E-05 -.483E-06
   -.217E+02 0.891E+00 0.182E+03   0.216E+02 -.571E+00 -.183E+03   -.903E+00 0.570E+00 0.765E+00   0.922E-06 -.506E-05 0.115E-05
   -.308E+02 0.140E+02 0.132E+03   0.316E+02 -.139E+02 -.132E+03   0.215E+00 0.466E+00 0.622E+00   0.656E-05 0.332E-05 0.236E-05
   -.338E+02 -.903E+01 0.161E+03   0.346E+02 0.907E+01 -.161E+03   -.716E-01 0.300E-01 -.327E+00   0.564E-05 -.191E-06 0.226E-05
   -.176E+02 -.567E+01 0.683E+02   0.180E+02 0.559E+01 -.681E+02   0.139E-01 -.603E+00 0.540E+00   0.430E-05 0.171E-05 0.193E-05
   -.350E+02 0.282E+01 0.144E+03   0.349E+02 -.303E+01 -.144E+03   -.477E+00 -.567E+00 0.493E+00   0.348E-05 0.779E-07 0.258E-05
   -.171E+02 0.163E+02 0.480E+02   0.170E+02 -.167E+02 -.481E+02   -.251E+00 0.117E+00 -.724E+00   -.319E-05 0.265E-06 0.258E-07
   -.396E+02 -.865E+01 0.157E+03   0.401E+02 0.892E+01 -.158E+03   0.727E-03 0.337E+00 0.205E+01   -.448E-05 0.119E-05 0.214E-05
   0.127E+02 -.628E+01 -.478E+02   -.130E+02 0.618E+01 0.480E+02   -.458E+00 -.340E+00 -.425E+00   -.167E-04 -.890E-05 -.350E-05
   -.146E+02 0.577E+01 0.638E+02   0.138E+02 -.618E+01 -.641E+02   0.315E+00 0.641E+00 -.689E+00   -.204E-04 0.105E-04 -.418E-05
   0.884E+01 0.125E+02 -.581E+02   -.886E+01 -.127E+02 0.581E+02   -.144E+00 -.538E+00 -.574E+00   -.259E-04 -.959E-05 -.539E-05
   -.121E+02 -.477E+01 0.572E+02   0.116E+02 0.438E+01 -.581E+02   -.765E+00 -.301E+00 0.947E+00   -.262E-04 0.476E-05 -.855E-05
   0.119E+02 -.939E+00 -.126E+03   -.122E+02 0.126E+01 0.126E+03   0.118E+01 0.660E+00 -.492E+00   -.667E-05 -.137E-04 0.138E-05
   -.213E+02 -.135E+02 0.275E+02   0.218E+02 0.142E+02 -.278E+02   0.814E+00 -.222E+00 0.499E+00   0.229E-05 0.117E-04 0.252E-06
   -.211E+01 0.663E+02 -.822E+02   -.976E+00 -.676E+02 0.813E+02   0.136E+01 0.234E+01 0.348E+00   0.137E-04 0.375E-05 -.100E-06
   -.853E+01 -.560E+02 -.680E+01   0.539E+01 0.571E+02 0.612E+01   0.117E+01 -.157E+01 0.405E+00   0.190E-04 0.152E-05 0.158E-05
   0.218E+02 0.624E+02 -.197E+03   -.194E+02 -.628E+02 0.199E+03   -.980E+00 0.197E+01 -.104E+01   0.991E-05 0.650E-05 -.265E-05
   0.293E+02 -.639E+02 -.240E+03   -.277E+02 0.643E+02 0.241E+03   -.105E+01 -.168E+01 -.131E+01   0.143E-04 -.120E-04 -.450E-05
   0.716E+01 -.487E+01 -.135E+03   -.651E+01 0.554E+01 0.135E+03   -.448E+00 -.324E+00 0.228E+00   0.708E-05 0.227E-04 0.172E-05
   0.122E+02 -.219E+01 -.204E+03   -.122E+02 0.225E+01 0.204E+03   -.558E+00 0.773E-01 0.589E+00   0.130E-04 -.222E-04 -.120E-05
   -.778E+01 0.124E+02 -.163E+03   0.760E+01 -.122E+02 0.163E+03   -.603E+00 0.768E-01 0.603E-02   -.441E-05 0.123E-04 0.195E-06
   -.124E+02 -.885E+01 -.222E+03   0.125E+02 0.850E+01 0.223E+03   -.907E-01 -.230E+00 -.108E+01   -.364E-05 -.980E-05 -.381E-05
   -.989E+01 -.163E+02 -.953E+02   0.105E+02 0.176E+02 0.954E+02   -.444E+00 -.203E+00 -.159E+00   -.614E-07 0.909E-05 0.112E-05
   -.260E+02 0.114E+02 -.162E+03   0.268E+02 -.124E+02 0.162E+03   0.718E+00 -.376E+00 0.628E+00   -.717E-06 -.621E-05 -.891E-06
   -.178E+02 0.651E+01 -.104E+03   0.176E+02 -.666E+01 0.104E+03   -.830E+00 -.275E+00 0.876E+00   -.944E-06 0.763E-05 0.174E-05
   -.294E+02 -.140E+02 -.187E+03   0.294E+02 0.150E+02 0.188E+03   -.626E-01 0.328E+00 -.153E+01   -.303E-06 -.482E-05 -.171E-05
   -.121E+02 -.664E+01 -.680E+02   0.125E+02 0.707E+01 0.681E+02   0.358E-01 0.965E+00 -.764E+00   -.912E-05 0.234E-05 0.314E-05
   -.214E+02 0.792E+01 -.129E+03   0.208E+02 -.850E+01 0.130E+03   -.140E+00 -.706E+00 -.697E+00   -.101E-04 0.802E-06 0.250E-05
   -.162E+02 0.682E+01 -.820E+02   0.161E+02 -.630E+01 0.825E+02   0.158E+00 0.396E+00 -.538E+00   -.956E-05 0.123E-05 0.400E-05
   -.163E+02 -.531E+01 -.903E+02   0.162E+02 0.470E+01 0.904E+02   0.410E+00 -.697E+00 0.518E+00   -.117E-04 -.183E-06 0.442E-05
   0.155E+01 -.445E+01 -.108E+02   -.219E+01 0.459E+01 0.111E+02   -.101E+00 -.667E-01 -.409E+00   -.685E-05 -.381E-06 0.258E-05
   -.120E+02 0.310E+01 -.634E+02   0.116E+02 -.318E+01 0.638E+02   -.657E+00 0.507E+00 -.356E+00   -.709E-05 -.222E-06 0.309E-05
   -.118E+02 0.140E+02 -.129E+02   0.130E+02 -.146E+02 0.128E+02   0.660E+00 0.233E-01 -.640E+00   -.606E-06 -.356E-05 0.246E-06
   -.191E+02 -.117E+02 -.465E+02   0.197E+02 0.120E+02 0.468E+02   -.291E+00 -.638E-02 -.653E+00   -.159E-05 0.191E-05 0.137E-05
   0.167E+02 -.111E+02 0.714E+02   -.178E+02 0.115E+02 -.715E+02   -.797E-01 0.144E+00 0.118E+01   -.497E-05 -.464E-05 -.748E-06
   0.910E+01 0.797E+01 0.350E+02   -.933E+01 -.879E+01 -.351E+02   0.349E+00 -.489E+00 0.531E+00   -.441E-05 0.419E-05 -.375E-07
   0.259E+00 0.134E+02 0.268E+02   0.229E+00 -.138E+02 -.264E+02   0.334E+00 0.907E-01 -.600E+00   -.382E-05 -.591E-05 0.806E-06
   0.123E+01 -.119E+02 0.279E+02   -.120E+01 0.124E+02 -.275E+02   0.141E+00 -.223E+00 -.465E+00   -.315E-05 0.415E-05 0.853E-06
   0.538E+01 0.393E+01 0.518E+02   -.575E+01 -.521E+01 -.522E+02   0.464E-01 -.403E+00 -.807E-01   -.231E-05 -.605E-05 -.800E-07
   0.531E+01 0.278E+01 0.791E+02   -.525E+01 -.277E+01 -.795E+02   -.433E-01 0.351E+00 0.731E+00   -.606E-06 0.466E-05 -.570E-06
   -.241E+01 0.144E+02 0.264E+02   0.249E+01 -.152E+02 -.262E+02   0.538E-01 0.285E+00 0.234E+00   0.662E-05 -.652E-05 0.289E-06
   -.327E+01 -.143E+02 -.685E+01   0.342E+01 0.152E+02 0.744E+01   0.117E-02 0.512E+00 -.144E+01   0.684E-05 0.714E-05 0.159E-05
   -.509E+01 -.198E+01 0.665E+02   0.559E+01 0.165E+01 -.666E+02   0.306E+00 0.311E+00 -.177E+00   0.107E-04 -.662E-05 -.537E-06
   -.976E+00 0.167E+01 0.405E+02   0.115E+01 -.215E+01 -.405E+02   0.376E+00 -.416E+00 0.129E+00   0.910E-05 0.532E-05 0.100E-06
   -.121E+01 0.166E+02 0.425E+02   0.107E+01 -.179E+02 -.424E+02   0.117E+00 -.306E+00 -.152E+00   0.427E-05 -.389E-05 -.230E-06
   0.408E+01 -.130E+02 0.853E+00   -.449E+01 0.140E+02 -.522E+00   -.177E+00 0.243E+00 -.352E+00   0.350E-05 0.274E-05 0.321E-06
   -.604E+01 -.524E+01 0.907E+02   0.565E+01 0.514E+01 -.911E+02   -.127E+00 0.210E+00 0.518E+00   0.273E-05 -.654E-05 -.705E-06
   0.273E+01 -.116E+01 0.249E+00   -.264E+01 0.105E+01 -.195E+00   0.274E+00 -.460E+00 -.348E+00   0.206E-05 0.431E-05 -.335E-06
   -.286E+01 0.105E+02 0.357E+01   0.264E+01 -.109E+02 -.318E+01   0.644E+00 -.245E+00 -.337E+00   0.604E-05 -.557E-05 0.579E-06
   -.306E+00 -.110E+02 -.177E+02   0.443E+00 0.119E+02 0.180E+02   -.397E-03 -.748E-01 0.182E+00   0.585E-05 0.308E-05 0.130E-05
   -.230E+01 -.676E+01 0.292E+01   0.259E+01 0.695E+01 -.282E+01   0.116E+01 -.129E+00 -.530E+00   0.112E-04 -.678E-05 0.998E-06
   0.151E+01 0.361E+01 -.252E+02   -.165E+01 -.346E+01 0.253E+02   -.348E+00 -.327E+00 -.437E+00   0.103E-04 0.520E-05 0.178E-05
   0.728E+01 0.902E+01 -.497E+02   -.747E+01 -.893E+01 0.502E+02   0.209E+00 0.105E+01 -.470E+00   0.306E-05 0.266E-06 -.641E-07
   0.806E+01 -.465E+01 -.646E+02   -.756E+01 0.448E+01 0.648E+02   0.146E+00 0.375E+00 0.405E+00   0.316E-05 -.281E-05 0.501E-06
   -.883E+01 -.210E+02 -.155E+02   0.981E+01 0.220E+02 0.155E+02   -.150E+00 0.309E+00 0.788E+00   -.967E-05 0.128E-05 -.176E-05
   0.211E+02 0.799E+01 -.107E+03   -.213E+02 -.832E+01 0.107E+03   0.274E+00 -.892E-01 0.337E-01   -.515E-05 -.116E-05 -.208E-05
   0.269E+02 0.168E+02 -.875E+02   -.281E+02 -.175E+02 0.873E+02   -.845E+00 -.432E+00 -.600E+00   -.863E-05 0.879E-05 -.637E-06
   0.388E+02 -.128E+02 -.162E+03   -.392E+02 0.136E+02 0.163E+03   0.245E+00 0.210E+00 -.757E+00   -.682E-05 -.579E-05 -.272E-05
   -.661E+01 -.231E+01 -.610E+02   0.671E+01 0.231E+01 0.604E+02   0.446E-01 0.113E+00 0.490E+00   -.695E-05 0.235E-04 0.287E-05
   0.207E+02 -.311E+01 -.184E+03   -.217E+02 0.270E+01 0.184E+03   -.148E+00 -.410E+00 -.267E+00   -.127E-04 -.209E-04 -.796E-06
   0.554E+01 0.672E+02 -.152E+03   -.803E+01 -.689E+02 0.152E+03   0.119E+01 0.175E+01 -.510E+00   0.683E-05 0.576E-05 0.495E-06
   0.654E+01 -.615E+02 -.201E+03   -.829E+01 0.625E+02 0.201E+03   0.181E+01 -.581E+00 0.119E+00   0.210E-05 -.108E-04 -.216E-05
 -----------------------------------------------------------------------------------------------
   -.190E+00 0.501E-01 0.135E+00   -.185E-12 0.199E-12 0.341E-12   0.213E+00 0.949E-01 -.134E+00   0.955E-06 0.547E-06 0.115E-04
 
 
 POSITION                                       TOTAL-FORCE (eV/Angst)
 -----------------------------------------------------------------------------------
      1.73661      2.73240     21.11000         2.344601      0.339218      0.443727
      1.75277      4.11472     20.95000         1.431268     -0.494706      0.046176
      2.92808      2.09411     21.35700        -0.122367      0.178204     -0.300929
      2.92211      4.82033     21.04500        -0.102919     -0.822585     -0.186758
      4.14953      2.78052     21.12300        -0.193420     -0.193751     -0.170476
      4.14501      4.14367     20.96000        -0.028367     -0.134617     -0.282129
      5.36680      2.09748     21.00900         1.043316      0.549073     -0.322646
      5.35465      4.83514     20.74100        -0.114626     -2.016656      0.237084
      6.55337      2.73616     20.53800        -0.865502      0.378072      0.164302
      6.51254      4.11044     20.42800         1.239123      0.559906     -0.826406
      7.77653      2.09426     20.30400         0.357825      0.090597      0.732131
      7.73602      4.77609     20.08900        -0.857138     -0.791927      0.902758
      8.95902      2.74739     19.87200        -0.406302     -1.084517     -0.509926
      8.91173      4.09199     19.72400         0.666215      1.799661     -0.665452
     10.17020      2.06814     19.61700         0.505792      0.681790     -0.096398
     10.11640      4.80087     19.38400        -0.799095     -0.816037      1.073123
     11.31460      2.73786     19.11600         1.097712     -0.319062     -0.000350
     11.29620      4.12415     19.06600         0.687389     -0.775223     -0.707141
     12.58930      2.06337     18.87400        -1.161877      2.019095     -0.002845
     12.53590      4.77081     18.83900         0.682605     -0.118154     -0.273917
     13.80270      2.73074     18.50800        -0.687598      0.150590      0.043872
     13.78440      4.12918     18.54400        -0.951935     -2.007756     -0.281448
     15.04600      2.05355     18.36700        -0.259933      0.147960      0.355611
     15.03140      4.72831     18.44600         0.552062      3.114198      0.534100
     16.29000      2.71572     18.18100         0.015497      0.521501      0.345015
     16.29000      4.11577     18.25400        -0.273631     -1.648845     -0.681972
     17.54240      2.05980     18.31900         0.506239      0.769641      0.178141
     17.54210      4.76001     18.28800         0.215579      1.244977      0.651619
     18.82590      2.74990     18.31900        -0.946565     -0.665963      0.435549
     18.82170      4.13278     18.29100        -0.220010     -0.874408     -0.627115
     20.02720      2.10006     18.71600        -1.119585     -0.604487     -0.400326
     20.07260      4.77356     18.49100        -1.061528      0.888486      0.484248
     21.25980      2.72830     18.82600         0.982986      0.583875      0.141390
     21.28370      4.10570     18.71600         0.734159      0.069918     -0.376852
     22.43680      2.08549     19.29200         0.369419     -0.682479      0.742770
     22.49170      4.78749     19.06000        -0.605788     -0.776632      0.117462
     23.66160      2.73679     19.59600        -0.280861     -0.264459     -0.786686
     23.70540      4.09364     19.33000         0.562167      0.602648      1.357568
     24.78480      2.09526     20.20400        -0.765246     -0.443039     -0.198995
     24.86840      4.74686     19.85000        -0.425917      0.224613     -0.905170
     25.99880      2.75776     20.48100        -0.171320     -0.761046     -0.552577
     26.07420      4.09821     20.19000        -1.252064     -0.694194      0.106891
     27.13750      2.05970     20.94700         0.832358      0.978858      0.026604
     27.23170      4.77300     20.50500         1.359474      0.435037      0.238604
      0.30292      2.70511     20.96900        -1.728923      1.024186     -0.502826
      0.33624      4.08329     20.75900        -1.966840     -0.551817     -0.282290
      1.73252      6.76906     21.52800         1.430368      1.610942      0.334374
      1.72421      0.06721     21.66700         0.496559     -1.254368      0.006513
      2.94620      6.15221     21.34400         0.200819      0.340592     -0.202974
      2.94293      0.73150     21.59000        -0.517905      0.133977      0.461212
      4.21597      6.80742     21.36800        -0.789997      0.295683      0.380431
      4.20053      0.08046     21.54300        -0.010212     -0.583112     -0.346477
      5.41687      6.16007     21.00400         0.174803      1.138110     -0.088716
      5.40356      0.75780     21.25200         1.534772     -1.331032      0.449594
      6.67272      6.80759     20.85200        -1.076328     -0.433377      0.924516
      6.67639      0.06971     21.06300        -0.015908      1.319216     -0.856475
      7.81619      6.09718     20.43800         0.422897      1.398304     -0.635574
      7.86734      0.76936     20.63800        -0.688896     -1.286869     -0.024959
      9.03665      6.77659     20.22500         0.058227      0.915524     -0.018813
      9.05548      0.08230     20.29100         0.329308     -1.307210      0.624131
     10.19020      6.13322     19.72300        -0.736929      0.070761     -0.184709
     10.25350      0.72102     19.88600        -1.055438      0.416288      0.006970
     11.38720      6.79674     19.49200         1.853578     -0.593012     -0.677789
     11.43660      0.06168     19.57500         0.368350      0.280473     -0.363227
     12.57920      6.12430     19.01900        -1.214155      0.577075      1.046963
     12.60150      0.73497     19.11100         0.116554     -1.312754      0.452258
     13.80730      6.78354     18.93500         0.821937     -0.297383     -0.137356
     13.81870      0.05496     18.93700         0.174906      0.248378     -0.080350
     15.04020      6.12466     18.72200        -0.316739     -1.680400     -0.466504
     15.04310      0.69928     18.66600         0.017158      0.355727      0.362976
     16.27680      6.77188     18.74400         0.128437     -0.486052      0.406856
     16.27790      0.03666     18.80300         0.149466      1.445534     -0.850909
     17.50950      6.11259     18.61200         0.803588     -0.027132     -0.313817
     17.50340      0.73873     18.68900         0.545771     -0.895064      0.141047
     18.74530      6.80244     18.78500        -0.018080     -1.574326     -0.058703
     18.74190      0.05912     18.89400        -0.581394      1.286992     -0.021717
     20.00010      6.13024     18.78500        -0.517113      0.114588      0.095997
     19.95610      0.75480     19.02300         0.367942     -0.571898     -0.293960
     21.15080      6.79555     19.21800         0.425655     -0.623567      0.053917
     21.15170      0.06162     19.30900         0.136693      0.819780      0.431550
     22.36350      6.10937     19.42900         1.453336      0.050124     -0.427785
     22.37680      0.72859     19.57800        -0.492384     -0.175667     -0.274240
     23.54960      6.73252     19.90500         0.015345      1.145211     -0.017048
     23.52940      0.03149     19.99800         0.647304      0.199724      0.614833
     24.79430      6.09038     20.10200         0.832560      1.218090      0.720911
     24.71140      0.71969     20.41100         0.118678     -0.425359      0.109488
     25.98700      6.78378     20.64900        -2.056970     -1.141475     -0.834388
     25.89950      0.02812     20.85600        -0.147652      1.021786     -0.248076
     27.21300      6.11980     20.79700         0.142342      0.121038     -0.120832
     27.11800      0.71146     21.17400        -1.105448     -0.820636      0.055252
      0.29084      6.75808     21.27800        -1.304029      0.062198     -0.091839
      0.22800      0.02312     21.42900         0.061790      0.424833      0.540330
 -----------------------------------------------------------------------------------
    total drift:                                0.022949      0.145003      0.000865


--------------------------------------------------------------------------------------------------------



  FREE ENERGIE OF THE ION-ELECTRON SYSTEM (eV)
  ---------------------------------------------------
  free  energy   TOTEN  =      -832.08964018 eV

  energy  without entropy=     -832.01722161  energy(sigma->0) =     -832.05343090
 


--------------------------------------------------------------------------------------------------------


    POTLOK:  cpu time      0.4541: real time      0.4542


--------------------------------------------------------------------------------------------------------


     LOOP+:  cpu time    330.4254: real time    330.6223
    4ORBIT:  cpu time      0.0000: real time      0.0000

 total amount of memory used by VASP MPI-rank0  2294499. kBytes
=======================================================================

   base                                    :      30000. kBytes
   nonlr-proj                              :      15065. kBytes
   fftplans                                :     436558. kBytes
   grid                                    :     732614. kBytes
   one-center                              :        282. kBytes
   wavefun                                 :    1079980. kBytes
 
  
  
 General timing and accounting informations for this job:
 ========================================================
  
                  Total CPU time used (sec):      363.755
                            User time (sec):      355.347
                          System time (sec):        8.409
                         Elapsed time (sec):      364.051
  
                   Maximum memory used (kb):     3731000.
                   Average memory used (kb):          N/A
  
                          Minor page faults:      3179074
                          Major page faults:         6742
                 Voluntary context switches:        10057
