unknown system                          
            1
    28.050000    0.000000    0.000000
     0.000000    8.100000    0.000000
     0.000000    0.000000   33.500000
   C 
    92
Direct configuration=     1
   0.06191123  0.33733333  0.63014925
   0.06248734  0.50799012  0.62537313
   0.10438788  0.25853210  0.63752239
   0.10417504  0.59510247  0.62820896
   0.14793333  0.34327407  0.63053731
   0.14777219  0.51156420  0.62567164
   0.19132977  0.25894815  0.62713433
   0.19089661  0.59693086  0.61913433
   0.23363173  0.33779753  0.61307463
   0.23217611  0.50746173  0.60979104
   0.27723815  0.25855062  0.60608955
   0.27579394  0.58964074  0.59967164
   0.31939465  0.33918395  0.59319403
   0.31770873  0.50518395  0.58877612
   0.36257398  0.25532593  0.58558209
   0.36065597  0.59270000  0.57862687
   0.40337255  0.33800741  0.57062687
   0.40271658  0.50915432  0.56913433
   0.44881640  0.25473704  0.56340299
   0.44691266  0.58898889  0.56235821
   0.49207487  0.33712840  0.55247761
   0.49142246  0.50977531  0.55355224
   0.53639929  0.25352469  0.54826866
   0.53587879  0.58374198  0.55062687
   0.58074866  0.33527407  0.54271642
   0.58074866  0.50811975  0.54489552
   0.62539750  0.25429630  0.54683582
   0.62538681  0.58765556  0.54591045
   0.67115508  0.33949383  0.54683582
   0.67100535  0.51021975  0.54600000
   0.71398217  0.25926667  0.55868657
   0.71560071  0.58932840  0.55197015
   0.75792513  0.33682716  0.56197015
   0.75877718  0.50687654  0.55868657
   0.79988592  0.25746790  0.57588060
   0.80184314  0.59104815  0.56895522
   0.84355080  0.33787531  0.58495522
   0.84511230  0.50538765  0.57701493
   0.88359358  0.25867407  0.60310448
   0.88657398  0.58603210  0.59253731
   0.92687344  0.34046420  0.61137313
   0.92956150  0.50595185  0.60268657
   0.96746881  0.25428395  0.62528358
   0.97082709  0.58925926  0.61208955
   0.01079929  0.33396420  0.62594030
   0.01198720  0.50410988  0.61967164
   0.06176542  0.83568642  0.64262687
   0.06146916  0.00829753  0.64677612
   0.10503387  0.75953210  0.63713433
   0.10491729  0.09030926  0.64447761
   0.15030196  0.84042222  0.63785075
   0.14975152  0.00993356  0.64307463
   0.19311480  0.76050247  0.62698507
   0.19264029  0.09355531  0.63438806
   0.23788663  0.84044321  0.62244776
   0.23801747  0.00860588  0.62874627
   0.27865205  0.75273827  0.61008955
   0.28047558  0.09498247  0.61605970
   0.32216221  0.83661605  0.60373134
   0.32283351  0.01016047  0.60570149
   0.36328699  0.75718765  0.58874627
   0.36554367  0.08901432  0.59361194
   0.40596078  0.83910370  0.58185075
   0.40772193  0.00761431  0.58432836
   0.44845633  0.75608642  0.56773134
   0.44925134  0.09073654  0.57047761
   0.49223886  0.83747407  0.56522388
   0.49264528  0.00678515  0.56528358
   0.53619251  0.75613086  0.55886567
   0.53629590  0.08633062  0.55719403
   0.58027807  0.83603457  0.55952239
   0.58031729  0.00452594  0.56128358
   0.62422460  0.75464074  0.55558209
   0.62400713  0.09120123  0.55788060
   0.66828164  0.83980741  0.56074627
   0.66816043  0.00729836  0.56400000
   0.71301604  0.75681975  0.56074627
   0.71144742  0.09318556  0.56785075
   0.75403922  0.83895679  0.57367164
   0.75407130  0.00760733  0.57638806
   0.79727273  0.75424321  0.57997015
   0.79774688  0.08994951  0.58441791
   0.83955793  0.83117531  0.59417910
   0.83883779  0.00388737  0.59695522
   0.88393226  0.75189877  0.60005970
   0.88097683  0.08885012  0.60928358
   0.92645276  0.83750370  0.61638806
   0.92333333  0.00347110  0.62256716
   0.97016043  0.75553086  0.62080597
   0.96677362  0.08783432  0.63205970
   0.01036877  0.83433086  0.63516418
   0.00812845  0.00285440  0.63967164
