  92  92   0   0
  0.8273226E+02  0.2805000E-08  0.8100000E-09  0.3350000E-08  0.5000000E-15
   1.0000000000000000E-004
  CAR 
 unknown system                          
      3.75349899    -25.15139424  301     -3.13942967      1.00000000
    -25.151  0.0000E+00  0.0000E+00
    -25.055  0.0000E+00  0.0000E+00
    -24.959  0.0000E+00  0.0000E+00
    -24.862  0.0000E+00  0.0000E+00
    -24.766  0.0000E+00  0.0000E+00
    -24.670  0.0000E+00  0.0000E+00
    -24.573  0.0000E+00  0.0000E+00
    -24.477  0.0000E+00  0.0000E+00
    -24.381  0.0000E+00  0.0000E+00
    -24.284  0.2881E-14  0.2776E-15
    -24.188  0.6073E-12  0.5879E-13
    -24.092  0.7834E-10  0.7607E-11
    -23.995  0.6439E-08  0.6280E-09
    -23.899  0.3380E-06  0.3320E-07
    -23.802  0.1140E-04  0.1131E-05
    -23.706  0.2484E-03  0.2507E-04
    -23.610  0.3536E-02  0.3658E-03
    -23.513  0.3329E-01  0.3573E-02
    -23.417  0.2106E+00  0.2387E-01
    -23.321  0.9137E+00  0.1119E+00
    -23.224  0.2778E+01  0.3795E+00
    -23.128  0.6070E+01  0.9644E+00
    -23.032  0.9842E+01  0.1913E+01
    -22.935  0.1241E+02  0.3108E+01
    -22.839  0.1321E+02  0.4381E+01
    -22.743  0.1356E+02  0.5688E+01
    -22.646  0.1472E+02  0.7106E+01
    -22.550  0.1578E+02  0.8626E+01
    -22.454  0.1519E+02  0.1009E+02
    -22.357  0.1370E+02  0.1141E+02
    -22.261  0.1334E+02  0.1270E+02
    -22.165  0.1417E+02  0.1406E+02
    -22.068  0.1477E+02  0.1548E+02
    -21.972  0.1469E+02  0.1690E+02
    -21.876  0.1434E+02  0.1828E+02
    -21.779  0.1392E+02  0.1962E+02
    -21.683  0.1355E+02  0.2093E+02
    -21.586  0.1298E+02  0.2218E+02
    -21.490  0.1187E+02  0.2332E+02
    -21.394  0.1084E+02  0.2437E+02
    -21.297  0.1127E+02  0.2545E+02
    -21.201  0.1352E+02  0.2675E+02
    -21.105  0.1613E+02  0.2831E+02
    -21.008  0.1698E+02  0.2994E+02
    -20.912  0.1546E+02  0.3143E+02
    -20.816  0.1317E+02  0.3270E+02
    -20.719  0.1217E+02  0.3388E+02
    -20.623  0.1286E+02  0.3511E+02
    -20.527  0.1373E+02  0.3644E+02
    -20.430  0.1352E+02  0.3774E+02
    -20.334  0.1272E+02  0.3897E+02
    -20.238  0.1267E+02  0.4019E+02
    -20.141  0.1402E+02  0.4154E+02
    -20.045  0.1580E+02  0.4306E+02
    -19.949  0.1640E+02  0.4464E+02
    -19.852  0.1521E+02  0.4611E+02
    -19.756  0.1328E+02  0.4739E+02
    -19.659  0.1299E+02  0.4864E+02
    -19.563  0.1509E+02  0.5009E+02
    -19.467  0.1673E+02  0.5170E+02
    -19.370  0.1560E+02  0.5321E+02
    -19.274  0.1333E+02  0.5449E+02
    -19.178  0.1255E+02  0.5570E+02
    -19.081  0.1325E+02  0.5698E+02
    -18.985  0.1383E+02  0.5831E+02
    -18.889  0.1358E+02  0.5962E+02
    -18.792  0.1330E+02  0.6090E+02
    -18.696  0.1435E+02  0.6228E+02
    -18.600  0.1656E+02  0.6388E+02
    -18.503  0.1787E+02  0.6560E+02
    -18.407  0.1716E+02  0.6725E+02
    -18.311  0.1599E+02  0.6879E+02
    -18.214  0.1615E+02  0.7035E+02
    -18.118  0.1704E+02  0.7199E+02
    -18.022  0.1690E+02  0.7362E+02
    -17.925  0.1530E+02  0.7509E+02
    -17.829  0.1354E+02  0.7640E+02
    -17.732  0.1240E+02  0.7759E+02
    -17.636  0.1143E+02  0.7869E+02
    -17.540  0.1083E+02  0.7974E+02
    -17.443  0.1122E+02  0.8082E+02
    -17.347  0.1222E+02  0.8200E+02
    -17.251  0.1287E+02  0.8324E+02
    -17.154  0.1268E+02  0.8446E+02
    -17.058  0.1193E+02  0.8561E+02
    -16.962  0.1106E+02  0.8667E+02
    -16.865  0.1046E+02  0.8768E+02
    -16.769  0.1064E+02  0.8871E+02
    -16.673  0.1180E+02  0.8984E+02
    -16.576  0.1307E+02  0.9110E+02
    -16.480  0.1367E+02  0.9242E+02
    -16.384  0.1416E+02  0.9378E+02
    -16.287  0.1530E+02  0.9526E+02
    -16.191  0.1701E+02  0.9690E+02
    -16.095  0.1868E+02  0.9870E+02
    -15.998  0.1924E+02  0.1006E+03
    -15.902  0.1788E+02  0.1023E+03
    -15.805  0.1506E+02  0.1037E+03
    -15.709  0.1232E+02  0.1049E+03
    -15.613  0.1083E+02  0.1060E+03
    -15.516  0.1085E+02  0.1070E+03
    -15.420  0.1305E+02  0.1083E+03
    -15.324  0.1746E+02  0.1099E+03
    -15.227  0.2164E+02  0.1120E+03
    -15.131  0.2327E+02  0.1143E+03
    -15.035  0.2270E+02  0.1165E+03
    -14.938  0.2089E+02  0.1185E+03
    -14.842  0.1792E+02  0.1202E+03
    -14.746  0.1420E+02  0.1216E+03
    -14.649  0.1085E+02  0.1226E+03
    -14.553  0.8962E+01  0.1235E+03
    -14.457  0.8859E+01  0.1243E+03
    -14.360  0.9851E+01  0.1253E+03
    -14.264  0.1101E+02  0.1263E+03
    -14.168  0.1210E+02  0.1275E+03
    -14.071  0.1343E+02  0.1288E+03
    -13.975  0.1512E+02  0.1303E+03
    -13.878  0.1669E+02  0.1319E+03
    -13.782  0.1765E+02  0.1336E+03
    -13.686  0.1798E+02  0.1353E+03
    -13.589  0.1776E+02  0.1370E+03
    -13.493  0.1737E+02  0.1387E+03
    -13.397  0.1741E+02  0.1404E+03
    -13.300  0.1805E+02  0.1421E+03
    -13.204  0.1855E+02  0.1439E+03
    -13.108  0.1776E+02  0.1456E+03
    -13.011  0.1593E+02  0.1471E+03
    -12.915  0.1503E+02  0.1486E+03
    -12.819  0.1564E+02  0.1501E+03
    -12.722  0.1597E+02  0.1516E+03
    -12.626  0.1462E+02  0.1530E+03
    -12.530  0.1265E+02  0.1542E+03
    -12.433  0.1237E+02  0.1554E+03
    -12.337  0.1490E+02  0.1569E+03
    -12.241  0.1956E+02  0.1588E+03
    -12.144  0.2443E+02  0.1611E+03
    -12.048  0.2654E+02  0.1637E+03
    -11.951  0.2466E+02  0.1660E+03
    -11.855  0.2108E+02  0.1681E+03
    -11.759  0.1840E+02  0.1699E+03
    -11.662  0.1685E+02  0.1715E+03
    -11.566  0.1563E+02  0.1730E+03
    -11.470  0.1502E+02  0.1744E+03
    -11.373  0.1633E+02  0.1760E+03
    -11.277  0.1964E+02  0.1779E+03
    -11.181  0.2356E+02  0.1802E+03
    -11.084  0.2726E+02  0.1828E+03
    -10.988  0.3041E+02  0.1857E+03
    -10.892  0.3236E+02  0.1888E+03
    -10.795  0.3294E+02  0.1920E+03
    -10.699  0.3302E+02  0.1952E+03
    -10.603  0.3435E+02  0.1985E+03
    -10.506  0.3782E+02  0.2021E+03
    -10.410  0.4072E+02  0.2061E+03
    -10.314  0.3921E+02  0.2098E+03
    -10.217  0.3473E+02  0.2132E+03
    -10.121  0.3262E+02  0.2163E+03
    -10.025  0.3384E+02  0.2196E+03
     -9.928  0.3466E+02  0.2229E+03
     -9.832  0.3405E+02  0.2262E+03
     -9.735  0.3494E+02  0.2296E+03
     -9.639  0.3846E+02  0.2333E+03
     -9.543  0.4213E+02  0.2374E+03
     -9.446  0.4352E+02  0.2415E+03
     -9.350  0.4210E+02  0.2456E+03
     -9.254  0.3832E+02  0.2493E+03
     -9.157  0.3359E+02  0.2525E+03
     -9.061  0.3037E+02  0.2555E+03
     -8.965  0.3018E+02  0.2584E+03
     -8.868  0.3196E+02  0.2614E+03
     -8.772  0.3373E+02  0.2647E+03
     -8.676  0.3489E+02  0.2681E+03
     -8.579  0.3538E+02  0.2715E+03
     -8.483  0.3426E+02  0.2748E+03
     -8.387  0.3159E+02  0.2778E+03
     -8.290  0.2920E+02  0.2806E+03
     -8.194  0.2825E+02  0.2833E+03
     -8.098  0.2806E+02  0.2860E+03
     -8.001  0.2757E+02  0.2887E+03
     -7.905  0.2688E+02  0.2913E+03
     -7.808  0.2669E+02  0.2939E+03
     -7.712  0.2699E+02  0.2965E+03
     -7.616  0.2752E+02  0.2991E+03
     -7.519  0.2819E+02  0.3018E+03
     -7.423  0.2840E+02  0.3046E+03
     -7.327  0.2740E+02  0.3072E+03
     -7.230  0.2565E+02  0.3097E+03
     -7.134  0.2465E+02  0.3121E+03
     -7.038  0.2526E+02  0.3145E+03
     -6.941  0.2644E+02  0.3170E+03
     -6.845  0.2657E+02  0.3196E+03
     -6.749  0.2567E+02  0.3221E+03
     -6.652  0.2500E+02  0.3245E+03
     -6.556  0.2447E+02  0.3268E+03
     -6.460  0.2266E+02  0.3290E+03
     -6.363  0.1973E+02  0.3309E+03
     -6.267  0.1786E+02  0.3326E+03
     -6.171  0.1856E+02  0.3344E+03
     -6.074  0.2143E+02  0.3365E+03
     -5.978  0.2490E+02  0.3389E+03
     -5.881  0.2716E+02  0.3415E+03
     -5.785  0.2716E+02  0.3441E+03
     -5.689  0.2501E+02  0.3465E+03
     -5.592  0.2118E+02  0.3486E+03
     -5.496  0.1622E+02  0.3501E+03
     -5.400  0.1173E+02  0.3513E+03
     -5.303  0.1023E+02  0.3523E+03
     -5.207  0.1179E+02  0.3534E+03
     -5.111  0.1295E+02  0.3546E+03
     -5.014  0.1128E+02  0.3557E+03
     -4.918  0.8425E+01  0.3565E+03
     -4.822  0.7138E+01  0.3572E+03
     -4.725  0.8368E+01  0.3580E+03
     -4.629  0.1144E+02  0.3591E+03
     -4.533  0.1469E+02  0.3605E+03
     -4.436  0.1574E+02  0.3621E+03
     -4.340  0.1308E+02  0.3633E+03
     -4.244  0.8264E+01  0.3641E+03
     -4.147  0.4538E+01  0.3646E+03
     -4.051  0.3290E+01  0.3649E+03
     -3.954  0.3469E+01  0.3652E+03
     -3.858  0.3780E+01  0.3656E+03
     -3.762  0.3800E+01  0.3659E+03
     -3.665  0.3546E+01  0.3663E+03
     -3.569  0.3327E+01  0.3666E+03
     -3.473  0.3352E+01  0.3669E+03
     -3.376  0.3223E+01  0.3672E+03
     -3.280  0.2899E+01  0.3675E+03
     -3.184  0.3207E+01  0.3678E+03
     -3.087  0.4410E+01  0.3682E+03
     -2.991  0.5745E+01  0.3688E+03
     -2.895  0.6918E+01  0.3695E+03
     -2.798  0.8491E+01  0.3703E+03
     -2.702  0.9880E+01  0.3712E+03
     -2.606  0.9081E+01  0.3721E+03
     -2.509  0.5994E+01  0.3727E+03
     -2.413  0.3264E+01  0.3730E+03
     -2.317  0.3104E+01  0.3733E+03
     -2.220  0.5299E+01  0.3738E+03
     -2.124  0.7576E+01  0.3745E+03
     -2.027  0.7665E+01  0.3753E+03
     -1.931  0.6157E+01  0.3759E+03
     -1.835  0.6187E+01  0.3765E+03
     -1.738  0.9701E+01  0.3774E+03
     -1.642  0.1538E+02  0.3789E+03
     -1.546  0.2044E+02  0.3809E+03
     -1.449  0.2305E+02  0.3831E+03
     -1.353  0.2261E+02  0.3853E+03
     -1.257  0.2005E+02  0.3872E+03
     -1.160  0.1787E+02  0.3889E+03
     -1.064  0.1728E+02  0.3906E+03
     -0.968  0.1699E+02  0.3922E+03
     -0.871  0.1580E+02  0.3937E+03
     -0.775  0.1390E+02  0.3951E+03
     -0.679  0.1234E+02  0.3963E+03
     -0.582  0.1170E+02  0.3974E+03
     -0.486  0.1145E+02  0.3985E+03
     -0.390  0.1145E+02  0.3996E+03
     -0.293  0.1262E+02  0.4008E+03
     -0.197  0.1540E+02  0.4023E+03
     -0.100  0.1863E+02  0.4041E+03
     -0.004  0.2079E+02  0.4061E+03
      0.092  0.2162E+02  0.4082E+03
      0.189  0.2165E+02  0.4103E+03
      0.285  0.2084E+02  0.4123E+03
      0.381  0.1907E+02  0.4141E+03
      0.478  0.1757E+02  0.4158E+03
      0.574  0.1816E+02  0.4176E+03
      0.670  0.2135E+02  0.4196E+03
      0.767  0.2566E+02  0.4221E+03
      0.863  0.2913E+02  0.4249E+03
      0.959  0.3182E+02  0.4280E+03
      1.056  0.3535E+02  0.4314E+03
      1.152  0.4013E+02  0.4352E+03
      1.248  0.4542E+02  0.4396E+03
      1.345  0.4987E+02  0.4444E+03
      1.441  0.5158E+02  0.4494E+03
      1.537  0.4911E+02  0.4541E+03
      1.634  0.4189E+02  0.4581E+03
      1.730  0.3070E+02  0.4611E+03
      1.827  0.1829E+02  0.4629E+03
      1.923  0.8320E+01  0.4637E+03
      2.019  0.2731E+01  0.4639E+03
      2.116  0.6201E+00  0.4640E+03
      2.212  0.9470E-01  0.4640E+03
      2.308  0.9555E-02  0.4640E+03
      2.405  0.6300E-03  0.4640E+03
      2.501  0.2695E-04  0.4640E+03
      2.597  0.7438E-06  0.4640E+03
      2.694  0.1320E-07  0.4640E+03
      2.790  0.1501E-09  0.4640E+03
      2.886  0.1090E-11  0.4640E+03
      2.983  0.5185E-14  0.4640E+03
      3.079  0.0000E+00  0.4640E+03
      3.175  0.0000E+00  0.4640E+03
      3.272  0.0000E+00  0.4640E+03
      3.368  0.0000E+00  0.4640E+03
      3.464  0.0000E+00  0.4640E+03
      3.561  0.0000E+00  0.4640E+03
      3.657  0.0000E+00  0.4640E+03
      3.753  0.0000E+00  0.4640E+03
