       N       E                     dE             d eps       ncg     rms          rms(c)
DAV:   1     0.362845884060E+04    0.36285E+04   -0.11966E+05  1728   0.105E+03
DAV:   2     0.174304566163E+03   -0.34542E+04   -0.31927E+04  2120   0.237E+02
DAV:   3    -0.833024750753E+03   -0.10073E+04   -0.98497E+03  1792   0.134E+02
DAV:   4    -0.895774456426E+03   -0.62750E+02   -0.61615E+02  1736   0.429E+01
DAV:   5    -0.897319704917E+03   -0.15452E+01   -0.15202E+01  1728   0.652E+00    0.453E+01
DAV:   6    -0.848300015367E+03    0.49020E+02   -0.46613E+01  1584   0.125E+01    0.266E+01
DAV:   7    -0.829993128891E+03    0.18307E+02   -0.64334E+01  1560   0.143E+01    0.727E+00
DAV:   8    -0.829712077751E+03    0.28105E+00   -0.23158E+00  1624   0.326E+00    0.106E+00
DAV:   9    -0.829606848123E+03    0.10523E+00   -0.23354E-01  1664   0.936E-01    0.563E-01
DAV:  10    -0.829570941140E+03    0.35907E-01   -0.42010E-02  1768   0.406E-01    0.383E-01
DAV:  11    -0.829538660930E+03    0.32280E-01   -0.21279E-02  1560   0.243E-01    0.240E-01
DAV:  12    -0.829532260501E+03    0.64004E-02   -0.26683E-02  1560   0.232E-01    0.152E-01
DAV:  13    -0.829545167711E+03   -0.12907E-01   -0.90714E-03  1528   0.145E-01    0.801E-02
DAV:  14    -0.829561602884E+03   -0.16435E-01   -0.11075E-03  1616   0.658E-02    0.560E-02
DAV:  15    -0.829583799875E+03   -0.22197E-01   -0.21928E-03  1544   0.683E-02    0.310E-02
DAV:  16    -0.829590581367E+03   -0.67815E-02   -0.32654E-04  1688   0.329E-02    0.218E-02
DAV:  17    -0.829596481536E+03   -0.59002E-02   -0.43985E-04  1544   0.269E-02    0.102E-02
DAV:  18    -0.829597899812E+03   -0.14183E-02   -0.53656E-05  1720   0.103E-02    0.663E-03
DAV:  19    -0.829599008792E+03   -0.11090E-02   -0.37994E-05  1376   0.838E-03    0.369E-03
DAV:  20    -0.829599407924E+03   -0.39913E-03   -0.94351E-06  1368   0.415E-03    0.234E-03
DAV:  21    -0.829599622819E+03   -0.21489E-03   -0.22429E-06  1224   0.269E-03    0.102E-03
DAV:  22    -0.829599686380E+03   -0.63561E-04   -0.46509E-07  1024   0.125E-03    0.815E-04
DAV:  23    -0.829599718400E+03   -0.32021E-04   -0.26189E-07   968   0.106E-03    0.445E-04
DAV:  24    -0.829599733226E+03   -0.14826E-04   -0.12225E-07   936   0.641E-04    0.430E-04
DAV:  25    -0.829599738810E+03   -0.55832E-05   -0.47198E-08   912   0.628E-04    0.199E-04
DAV:  26    -0.829599742437E+03   -0.36270E-05   -0.33613E-08   920   0.313E-04    0.230E-04
DAV:  27    -0.829599743893E+03   -0.14569E-05   -0.91452E-09   912   0.270E-04    0.795E-05
DAV:  28    -0.829599745827E+03   -0.19338E-05   -0.87171E-09   928   0.173E-04    0.117E-04
DAV:  29    -0.829599746355E+03   -0.52812E-06   -0.27159E-09   944   0.114E-04
   1 F= -.82959975E+03 E0= -.82955627E+03  d E =-.869606E-01
