unknown system                          
            1
    28.050000    0.000000    0.000000
     0.000000    8.100000    0.000000
     0.000000    0.000000   33.500000
   C 
    92
Direct configuration=     1
   0.00904396  0.09778111  0.55580896
   0.01055323  0.27057037  0.55642687
   0.05259251  0.01962333  0.54897910
   0.05335544  0.35004568  0.55214030
   0.09795579  0.10505741  0.54345672
   0.09742816  0.27090494  0.54567164
   0.13970624  0.02154111  0.53049851
   0.14076471  0.35324321  0.53506567
   0.18128449  0.10544000  0.51965373
   0.18271872  0.27226543  0.52394925
   0.22382424  0.02459642  0.50556716
   0.22727914  0.36032222  0.51124776
   0.26408913  0.10881086  0.49127164
   0.26577469  0.27898889  0.49241194
   0.30602602  0.02547235  0.47767164
   0.30776720  0.35754815  0.47967761
   0.34758004  0.10709358  0.46558507
   0.34905597  0.27953457  0.46710149
   0.39167914  0.02264790  0.46043582
   0.39300535  0.35523580  0.45797015
   0.43694474  0.09916642  0.45667761
   0.43728342  0.27233333  0.45565373
   0.48020321  0.02004864  0.46048060
   0.48058111  0.34961481  0.45289552
   0.52663102  0.10508012  0.45965075
   0.52706239  0.27194198  0.45614925
   0.57091266  0.02105123  0.46077910
   0.57215330  0.35260617  0.45261194
   0.61211408  0.10381951  0.47190149
   0.61416043  0.27059012  0.46534328
   0.65444920  0.02471568  0.48177313
   0.65719786  0.35203457  0.47382090
   0.69851337  0.10723728  0.49265373
   0.69895187  0.27483333  0.49135821
   0.73879501  0.02626407  0.50709552
   0.74135116  0.35860247  0.50101493
   0.78308734  0.10727037  0.51485373
   0.78383601  0.27241481  0.51106567
   0.82700891  0.02361432  0.52180597
   0.82576114  0.35367037  0.52533134
   0.87017112  0.10719765  0.53252239
   0.86855971  0.26843457  0.53528060
   0.91362567  0.01622321  0.54500597
   0.91426025  0.35205432  0.54542985
   0.95724064  0.09939951  0.55171045
   0.95776114  0.27833827  0.55190746
   0.01001216  0.59918765  0.54337910
   0.00862335  0.77094321  0.54234925
   0.05240998  0.51802222  0.54582985
   0.05192371  0.85125062  0.53883582
   0.09469055  0.60369383  0.53605970
   0.09426560  0.76826420  0.53180597
   0.13916578  0.52333086  0.52924478
   0.13821141  0.85184198  0.52596418
   0.18185098  0.60751605  0.51950746
   0.18209055  0.77186790  0.51779403
   0.22525561  0.52525679  0.51131045
   0.22424706  0.85445185  0.50438507
   0.26698396  0.60242222  0.49606866
   0.26628841  0.77177778  0.49387164
   0.30797005  0.52653086  0.48165970
   0.30766845  0.85398148  0.47874925
   0.34827273  0.60331975  0.46511045
   0.35082531  0.76845556  0.46919104
   0.39153654  0.52257531  0.45811343
   0.39120499  0.85650988  0.45829851
   0.43601783  0.60066667  0.44900896
   0.43427451  0.77293827  0.45133134
   0.48064884  0.52067284  0.44479403
   0.47944385  0.85398519  0.45244478
   0.52445276  0.60151975  0.44655821
   0.52428164  0.77123333  0.45148358
   0.57056684  0.51709877  0.45053731
   0.56918717  0.85458765  0.45659104
   0.61203565  0.60325432  0.46314328
   0.61252763  0.77425926  0.46625373
   0.65559002  0.52262222  0.47075821
   0.65498752  0.85670741  0.48120896
   0.69717291  0.60526296  0.48551343
   0.69879144  0.77969753  0.48999701
   0.74121925  0.52979259  0.49777612
   0.74216043  0.85593210  0.50310746
   0.78321925  0.60772099  0.50885970
   0.78494474  0.77531235  0.51071940
   0.82663102  0.52387037  0.52146269
   0.82786453  0.85209877  0.52262090
   0.87052050  0.59921111  0.53083881
   0.87158645  0.76803210  0.53350746
   0.91525134  0.51869753  0.54163284
   0.91452050  0.85337407  0.54029851
   0.95778966  0.60033333  0.54387463
   0.95838146  0.77563210  0.54277910
