       N       E                     dE             d eps       ncg     rms          rms(c)
DAV:   1     0.362222525802E+04    0.36222E+04   -0.11979E+05  1728   0.105E+03
DAV:   2     0.170766889974E+03   -0.34515E+04   -0.31925E+04  2144   0.237E+02
DAV:   3    -0.834949243847E+03   -0.10057E+04   -0.97936E+03  1792   0.133E+02
DAV:   4    -0.896452884275E+03   -0.61504E+02   -0.60474E+02  1704   0.425E+01
DAV:   5    -0.897983342844E+03   -0.15305E+01   -0.15090E+01  1800   0.648E+00    0.454E+01
DAV:   6    -0.848570004686E+03    0.49413E+02   -0.47297E+01  1576   0.125E+01    0.267E+01
DAV:   7    -0.830120850557E+03    0.18449E+02   -0.65185E+01  1552   0.143E+01    0.729E+00
DAV:   8    -0.829825158396E+03    0.29569E+00   -0.23782E+00  1600   0.327E+00    0.955E-01
DAV:   9    -0.829719981387E+03    0.10518E+00   -0.25926E-01  1648   0.967E-01    0.565E-01
DAV:  10    -0.829679255240E+03    0.40726E-01   -0.47735E-02  1736   0.428E-01    0.352E-01
DAV:  11    -0.829651054392E+03    0.28201E-01   -0.22796E-02  1552   0.240E-01    0.240E-01
DAV:  12    -0.829648287209E+03    0.27672E-02   -0.22056E-02  1552   0.224E-01    0.147E-01
DAV:  13    -0.829660152567E+03   -0.11865E-01   -0.81015E-03  1544   0.137E-01    0.864E-02
DAV:  14    -0.829678497738E+03   -0.18345E-01   -0.12646E-03  1592   0.632E-02    0.543E-02
DAV:  15    -0.829698659576E+03   -0.20162E-01   -0.16546E-03  1584   0.604E-02    0.305E-02
DAV:  16    -0.829707675806E+03   -0.90162E-02   -0.56601E-04  1592   0.371E-02    0.192E-02
DAV:  17    -0.829711848923E+03   -0.41731E-02   -0.22307E-04  1560   0.203E-02    0.107E-02
DAV:  18    -0.829714037675E+03   -0.21888E-02   -0.97077E-05  1568   0.133E-02    0.544E-03
DAV:  19    -0.829714942689E+03   -0.90501E-03   -0.26051E-05  1416   0.700E-03    0.383E-03
DAV:  20    -0.829715333085E+03   -0.39040E-03   -0.63097E-06  1312   0.372E-03    0.189E-03
DAV:  21    -0.829715507463E+03   -0.17438E-03   -0.20254E-06  1240   0.229E-03    0.108E-03
DAV:  22    -0.829715550091E+03   -0.42627E-04   -0.16914E-07  1048   0.110E-03    0.575E-04
DAV:  23    -0.829715584087E+03   -0.33996E-04   -0.28374E-07   936   0.842E-04    0.430E-04
DAV:  24    -0.829715594099E+03   -0.10013E-04   -0.58924E-08   968   0.562E-04    0.185E-04
DAV:  25    -0.829715601045E+03   -0.69459E-05   -0.55722E-08   912   0.359E-04    0.182E-04
DAV:  26    -0.829715604292E+03   -0.32463E-05   -0.15735E-08   928   0.292E-04    0.912E-05
DAV:  27    -0.829715606250E+03   -0.19588E-05   -0.91329E-09   936   0.151E-04    0.712E-05
DAV:  28    -0.829715607639E+03   -0.13881E-05   -0.38930E-09   944   0.132E-04    0.485E-05
DAV:  29    -0.829715608294E+03   -0.65501E-06   -0.23258E-09   928   0.794E-05
   1 F= -.82971561E+03 E0= -.82968181E+03  d E =-.675870E-01
