unknown system                          
            1
    28.050000    0.000000    0.000000
     0.000000    8.100000    0.000000
     0.000000    0.000000   33.500000
   C 
    92
Direct configuration=     1
   0.01315854  0.11084346  0.52840299
   0.01262068  0.28141111  0.52149851
   0.05622353  0.03031840  0.51797910
   0.05261961  0.35901358  0.50350746
   0.09706595  0.10359370  0.50118209
   0.09329519  0.27000000  0.49333731
   0.13946096  0.02450025  0.48993134
   0.13481355  0.34802593  0.47701493
   0.18196506  0.10658716  0.47854328
   0.18035472  0.27122099  0.47069851
   0.22627986  0.02613506  0.47169552
   0.22290624  0.35347037  0.46046567
   0.26924135  0.11293481  0.46069851
   0.26736185  0.27707160  0.45205075
   0.31163209  0.02693506  0.45656418
   0.31189234  0.35512963  0.44314328
   0.35525561  0.10453494  0.44740299
   0.35564706  0.27399877  0.44017313
   0.40011052  0.02852235  0.45100597
   0.39938324  0.35897160  0.44362687
   0.44549733  0.10971914  0.44878209
   0.44518004  0.27503086  0.44618209
   0.48626381  0.02702975  0.45948358
   0.48983601  0.36039506  0.45585672
   0.53117291  0.11324062  0.46658806
   0.53154724  0.28225802  0.46759104
   0.57240642  0.03042580  0.48069254
   0.57409982  0.36011235  0.48015821
   0.61741176  0.10855926  0.48743881
   0.61641711  0.27806914  0.49137612
   0.65915508  0.02474086  0.50252836
   0.65898396  0.35445679  0.50484179
   0.70057754  0.11056605  0.51552239
   0.70221747  0.27584938  0.51206269
   0.74315865  0.02431272  0.52889851
   0.74422103  0.36062099  0.52531940
   0.78482709  0.10851309  0.53985970
   0.78657041  0.27864815  0.53587761
   0.83094118  0.02833407  0.54810448
   0.83178610  0.35755185  0.54141791
   0.87507665  0.11043642  0.54933134
   0.87587522  0.27820370  0.54664776
   0.91918004  0.02914790  0.54731045
   0.91863102  0.36399630  0.53941194
   0.96269875  0.11014136  0.53858507
   0.96279144  0.28286173  0.53348060
   0.01158898  0.61389630  0.51503881
   0.01429465  0.77973827  0.52347761
   0.05109091  0.52847160  0.50149254
   0.05668414  0.85668395  0.51513433
   0.09471622  0.60920247  0.49292836
   0.09873619  0.77705309  0.49914030
   0.13576898  0.52101111  0.47977612
   0.14077897  0.85381111  0.48770746
   0.17874011  0.60017284  0.46658507
   0.17997005  0.76827531  0.47298507
   0.22167451  0.52072840  0.45820597
   0.22445276  0.85514074  0.47100299
   0.26437825  0.60458395  0.45335821
   0.26691658  0.77045802  0.46406269
   0.30896898  0.52453457  0.44627463
   0.31046845  0.85639753  0.45964478
   0.35339857  0.60415185  0.44807761
   0.35317469  0.77496049  0.45116716
   0.40100178  0.52472346  0.44563284
   0.39842068  0.85921235  0.45284776
   0.44398574  0.60842469  0.45302985
   0.44167914  0.77790123  0.45736119
   0.48763993  0.52593333  0.46185672
   0.48655258  0.85915432  0.46439701
   0.52713369  0.60653951  0.47704776
   0.52796078  0.78129259  0.47628060
   0.57109447  0.52550370  0.48576119
   0.57074866  0.85863827  0.48494627
   0.61385027  0.60625802  0.49749552
   0.61306595  0.77534198  0.49843284
   0.65732620  0.52443951  0.50717910
   0.65508378  0.85833580  0.51014627
   0.69993226  0.60741358  0.52229552
   0.69981462  0.77861728  0.52382687
   0.74092692  0.52015926  0.53221194
   0.74247059  0.85548889  0.53459701
   0.78521212  0.60536667  0.54252836
   0.78659893  0.77665062  0.54624478
   0.83084135  0.52396543  0.54213433
   0.83133333  0.85779012  0.55003582
   0.87574332  0.61353210  0.54228060
   0.87692692  0.78062840  0.54959403
   0.91986809  0.53641235  0.53591045
   0.92130838  0.85754938  0.54475522
   0.96257398  0.61858272  0.53044776
   0.96412834  0.78737284  0.53821194
