 vasp.6.5.0 16Dec24 (build Feb 19 2025 19:45:31) complex                         
 executed on              LinuxNV date 2025.10.25  18:07:52
 running    2 mpi-ranks, on    1 nodes
 distrk:  each k-point on    2 cores,    1 groups
 distr:  one band on NCORE=   1 cores,    2 groups
 Offloading initialized ...    2 GPUs detected


--------------------------------------------------------------------------------------------------------


 INCAR:
   ISTART = 0            (Not Read existing wavefunction
   ISPIN = 1            (Non-Spin polarised DFT, Default\=1)
   ICHARG = 2            (The initial guess charge density is generated by superposition of atomic charge density)
   LREAL = Auto         (Projection operators: automatic)
   ENCUT = 500          (Cut-off energy for plane wave basis set, in eV)
   LWAVE = .FALSE.       (Write WAVECAR or not)
   LCHARG = .FALSE.       (Write CHGCAR or not)
   PREC = Accurate   (Precision level)
   KGAMMA = .TRUE.
   ALGO = Normal
   NSW = 0           (Default: NSW \= 0)
   IBRION = -1           (Ions are not moved)
   ISMEAR = 0
   EDIFF = 1E-06        (SCF energy convergence
   NELM = 150          (Max electronic SCF steps)

 POTCAR:    PAW_PBE C 08Apr2002                   
 POTCAR:    PAW_PBE C 08Apr2002                   
   SHA256 =  253f7b50bb8d59471dbedb8285d89021f4a42ed1a2c5d38a03a736e69125dd95 C/POTCAR              
   COPYR  = (c) Copyright 08Apr2002 Georg Kresse                                                    
   COPYR  = This file is part of the software VASP. Any use, copying, and all other rights are regul
   COPYR  = If you do not have a valid VASP license, you may not use, copy or distribute this file. 
   VRHFIN =C: s2p2                                                                                  
   LEXCH  = PE                                                                                      
   EATOM  =   147.1560 eV,   10.8157 Ry                                                             
                                                                                                    
   TITEL  = PAW_PBE C 08Apr2002                                                                     
   LULTRA =        F    use ultrasoft PP ?                                                          
   IUNSCR =        1    unscreen: 0-lin 1-nonlin 2-no                                               
   RPACOR =    1.200    partial core radius                                                         
   POMASS =   12.011; ZVAL   =    4.000    mass and valenz                                          
   RCORE  =    1.500    outmost cutoff radius                                                       
   RWIGS  =    1.630; RWIGS  =    0.863    wigner-seitz radius (au A)                               
   ENMAX  =  400.000; ENMIN  =  300.000 eV                                                          
   ICORE  =        2    local potential                                                             
   LCOR   =        T    correct aug charges                                                         
   LPAW   =        T    paw PP                                                                      
   EAUG   =  644.873                                                                                
   DEXC   =    0.000                                                                                
   RMAX   =    1.529    core radius for proj-oper                                                   
   RAUG   =    1.300    factor for augmentation sphere                                              
   RDEP   =    1.501    radius for radial grids                                                     
   RDEPT  =    1.300    core radius for aug-charge                                                  
                                                                                                    
   Atomic configuration                                                                             
    4 entries                                                                                       
     n  l   j            E        occ.                                                              
     1  0  0.50      -273.3789   2.0000                                                             
     2  0  0.50       -13.7508   2.0000                                                             
     2  1  0.50        -5.2854   2.0000                                                             
     3  2  1.50        -5.4423   0.0000                                                             
   Description                                                                                      
     l       E           TYP  RCUT    TYP  RCUT                                                     
     0    -13.7508458     23  1.200                                                                 
     0     -8.2022199     23  1.200                                                                 
     1     -5.2854383     23  1.500                                                                 
     1     34.0145650     23  1.500                                                                 
     2     -5.4423304      7  1.500                                                                 
  local pseudopotential read in
  partial core-charges read in
  partial kinetic energy density read in
  atomic valenz-charges read in
  non local Contribution for L=            0  read in
    real space projection operators read in
  non local Contribution for L=            0  read in
    real space projection operators read in
  non local Contribution for L=            1  read in
    real space projection operators read in
  non local Contribution for L=            1  read in
    real space projection operators read in
    PAW grid and wavefunctions read in
 
   number of l-projection  operators is LMAX  =            4
   number of lm-projection operators is LMMAX =            8
 
 Optimization of the real space projectors (new method)

 maximal supplied QI-value         = 25.13
 optimisation between [QCUT,QGAM] = [ 11.31, 22.87] = [ 35.82,146.48] Ry 
 Optimized for a Real-space Cutoff    1.03 Angstroem

   l    n(q)    QCUT    max X(q) W(low)/X(q) W(high)/X(q)  e(spline) 
   0      7    11.310   115.676    0.20E-03    0.90E-03    0.20E-06
   0      7    11.310    87.132    0.20E-03    0.89E-03    0.19E-06
   1      6    11.310     4.429    0.16E-03    0.28E-03    0.12E-06
   1      6    11.310     2.733    0.12E-03    0.21E-03    0.99E-07
  PAW_PBE C 08Apr2002                   :
 energy of atom  1       EATOM= -147.1560
 kinetic energy error for atom=    0.0076 (will be added to EATOM!!)
 
 
 POSCAR:  C
  positions in cartesian coordinates
  No initial velocities read in


 exchange-correlation table for PE
   RHO(1)=    0.500       N(1)  =     2000
   RHO(2)=  100.500       N(2)  =     4000
 


--------------------------------------------------------------------------------------------------------


 ion  position               nearest neighbor table
   1  0.038  0.146  0.462-   3 1.34   2 1.43  45 1.45  46 2.06
   2  0.037  0.322  0.458-   4 1.38   1 1.43  46 1.43  45 1.99
   3  0.079  0.066  0.466-   1 1.34  50 1.40   5 1.40
   4  0.082  0.392  0.457-  49 1.36   2 1.38   6 1.48
   5  0.122  0.144  0.475-   6 1.36   3 1.40   7 1.43
   6  0.125  0.312  0.475-   5 1.36   8 1.40   4 1.48
   7  0.167  0.067  0.483-  54 1.39   9 1.42   5 1.43
   8  0.168  0.394  0.479-   6 1.40  53 1.42  10 1.44
   9  0.211  0.150  0.489-  10 1.34   7 1.42  11 1.43
  10  0.213  0.315  0.486-   9 1.34  12 1.41   8 1.44
  11  0.257  0.073  0.491-  58 1.40  13 1.43   9 1.43
  12  0.257  0.398  0.481-  57 1.41  14 1.41  10 1.41
  13  0.302  0.148  0.487-  14 1.40  15 1.41  11 1.43
  14  0.302  0.317  0.478-  13 1.40  12 1.41  16 1.43
  15  0.347  0.065  0.486-  62 1.36  13 1.41  17 1.49
  16  0.344  0.406  0.470-  61 1.38  18 1.42  14 1.43
  17  0.392  0.152  0.475-  18 1.42  19 1.44  15 1.49
  18  0.389  0.324  0.467-  16 1.42  17 1.42  20 1.47
  19  0.437  0.074  0.468-  66 1.40  17 1.44  21 1.44
  20  0.432  0.402  0.451-  65 1.38  22 1.39  18 1.47
  21  0.479  0.156  0.452-  22 1.40  23 1.42  19 1.44
  22  0.476  0.326  0.445-  24 1.39  20 1.39  21 1.40
  23  0.521  0.071  0.442-  70 1.35  21 1.42  25 1.43
  24  0.516  0.408  0.431-  69 1.36  22 1.39  26 1.40
  25  0.564  0.158  0.432-  27 1.40  26 1.41  23 1.43
  26  0.561  0.330  0.426-  28 1.40  24 1.40  25 1.41
  27  0.605  0.073  0.422-  74 1.38  25 1.40  29 1.46
  28  0.600  0.408  0.409-  73 1.37  26 1.40  30 1.45
  29  0.646  0.155  0.404-  30 1.34  31 1.40  27 1.46
  30  0.644  0.320  0.403-  29 1.34  32 1.42  28 1.45
  31  0.690  0.071  0.401-  78 1.39  29 1.40  33 1.40
  32  0.688  0.400  0.394-  77 1.38  30 1.42  34 1.43
  33  0.734  0.152  0.402-  34 1.35  35 1.37  31 1.40
  34  0.733  0.317  0.396-  33 1.35  36 1.41  32 1.43
  35  0.777  0.072  0.404-  33 1.37  82 1.38  37 1.39
  36  0.777  0.400  0.394-  81 1.34  34 1.41  38 1.47
  37  0.821  0.147  0.410-  39 1.36  38 1.39  35 1.39
  38  0.821  0.317  0.406-  40 1.38  37 1.39  36 1.47
  39  0.862  0.069  0.419-  37 1.36  41 1.40  86 1.40
  40  0.865  0.393  0.407-  38 1.38  85 1.39  42 1.45
  41  0.903  0.153  0.431-  42 1.37  39 1.40  43 1.43
  42  0.907  0.319  0.424-  41 1.37  44 1.43  40 1.45
  43  0.947  0.067  0.438-  45 1.38  90 1.40  41 1.43
  44  0.952  0.402  0.429-  46 1.34  89 1.39  42 1.43
  45  0.988  0.149  0.450-  43 1.38  46 1.42   1 1.45   2 1.99
  46  0.988  0.324  0.447-  44 1.34  45 1.42   2 1.43   1 2.06
  47  0.048  0.648  0.431-  49 1.41  48 1.41  91 1.50  92 2.02
  48  0.047  0.821  0.435-  50 1.34  47 1.41  92 1.46  91 2.06
  49  0.085  0.555  0.448-   4 1.36  47 1.41  51 1.43
  50  0.082  0.901  0.455-  48 1.34   3 1.40  52 1.48
  51  0.127  0.644  0.459-  52 1.38  53 1.40  49 1.43
  52  0.128  0.814  0.463-  51 1.38  54 1.41  50 1.48
  53  0.169  0.567  0.471-  55 1.39  51 1.40   8 1.42
  54  0.168  0.896  0.477-   7 1.39  52 1.41  56 1.45
  55  0.213  0.647  0.473-  56 1.39  53 1.39  57 1.42
  56  0.214  0.817  0.479-  55 1.39  58 1.41  54 1.45
  57  0.258  0.571  0.479-  59 1.39  12 1.41  55 1.42
  58  0.258  0.901  0.486-  11 1.40  56 1.41  60 1.42
  59  0.302  0.654  0.477-  60 1.38  57 1.39  61 1.39
  60  0.303  0.822  0.483-  59 1.38  58 1.42  62 1.43
  61  0.345  0.576  0.468-  16 1.38  59 1.39  63 1.41
  62  0.349  0.898  0.481-  15 1.36  64 1.42  60 1.43
  63  0.388  0.660  0.459-  64 1.35  61 1.41  65 1.45
  64  0.392  0.818  0.472-  63 1.35  66 1.40  62 1.42
  65  0.431  0.572  0.449-  20 1.38  67 1.43  63 1.45
  66  0.435  0.903  0.465-  19 1.40  64 1.40  68 1.42
  67  0.474  0.659  0.441-  68 1.35  65 1.43  69 1.45
  68  0.476  0.823  0.449-  67 1.35  66 1.42  70 1.43
  69  0.518  0.575  0.430-  24 1.36  71 1.38  67 1.45
  70  0.519  0.905  0.440-  23 1.35  72 1.38  68 1.43
  71  0.559  0.658  0.420-  69 1.38  72 1.39  73 1.40
  72  0.560  0.828  0.425-  70 1.38  71 1.39  74 1.41
  73  0.599  0.576  0.405-  28 1.37  71 1.40  75 1.45
  74  0.604  0.904  0.417-  27 1.38  72 1.41  76 1.43
  75  0.644  0.653  0.395-  76 1.37  77 1.44  73 1.45
  76  0.645  0.820  0.402-  75 1.37  78 1.41  74 1.43
  77  0.689  0.569  0.390-  32 1.38  79 1.41  75 1.44
  78  0.689  0.900  0.399-  80 1.37  31 1.39  76 1.41
  79  0.733  0.650  0.388-  80 1.39  77 1.41  81 1.42
  80  0.732  0.821  0.393-  78 1.37  79 1.39  82 1.43
  81  0.777  0.566  0.390-  36 1.34  79 1.42  83 1.44
  82  0.776  0.903  0.399-  35 1.38  84 1.42  80 1.43
  83  0.822  0.650  0.395-  84 1.37  81 1.44  85 1.44
  84  0.821  0.820  0.398-  83 1.37  82 1.42  86 1.44
  85  0.865  0.564  0.403-  40 1.39  87 1.39  83 1.44
  86  0.865  0.901  0.409-  88 1.40  39 1.40  84 1.44
  87  0.909  0.645  0.409-  85 1.39  89 1.42  88 1.45
  88  0.909  0.823  0.411-  86 1.40  90 1.40  87 1.45
  89  0.953  0.568  0.419-  91 1.37  44 1.39  87 1.42
  90  0.950  0.901  0.426-  43 1.40  88 1.40  92 1.45
  91  0.996  0.647  0.422-  89 1.37  92 1.41  47 1.50  48 2.06
  92  0.996  0.820  0.426-  91 1.41  90 1.45  48 1.46  47 2.02
 
  LATTYP: Found a simple orthorhombic cell.
 ALAT       =     8.1000000000
 B/A-ratio  =     3.4629629630
 C/A-ratio  =     4.1358024691
  
  Lattice vectors:
  
 A1 = (   0.0000000000,  -8.1000000000,   0.0000000000)
 A2 = (  28.0500000000,   0.0000000000,   0.0000000000)
 A3 = (   0.0000000000,   0.0000000000,  33.5000000000)


Analysis of symmetry for initial positions (statically):
=====================================================================
 Subroutine PRICEL returns:
 Original cell was already a primitive cell.
 

 Routine SETGRP: Setting up the symmetry group for a 
 simple orthorhombic supercell.


 Subroutine GETGRP returns: Found  1 space group operations
 (whereof  1 operations were pure point group operations)
 out of a pool of  8 trial point group operations.


The static configuration has the point symmetry C_1 .


Analysis of symmetry for dynamics (positions and initial velocities):
=====================================================================
 Subroutine PRICEL returns:
 Original cell was already a primitive cell.
 

 Routine SETGRP: Setting up the symmetry group for a 
 simple orthorhombic supercell.


 Subroutine GETGRP returns: Found  1 space group operations
 (whereof  1 operations were pure point group operations)
 out of a pool of  8 trial point group operations.


The dynamic configuration has the point symmetry C_1 .


 Subroutine INISYM returns: Found  1 space group operations
 (whereof  1 operations are pure point group operations),
 and found     1 'primitive' translations


----------------------------------------------------------------------------------------

                                     Primitive cell                                     

  volume of cell :    7611.3675

  direct lattice vectors                    reciprocal lattice vectors
    28.050000000  0.000000000  0.000000000     0.035650624  0.000000000  0.000000000
     0.000000000  8.100000000  0.000000000     0.000000000  0.123456790  0.000000000
     0.000000000  0.000000000 33.500000000     0.000000000  0.000000000  0.029850746

  length of vectors
    28.050000000  8.100000000 33.500000000     0.035650624  0.123456790  0.029850746

  position of ions in fractional coordinates (direct lattice)
     0.037550089  0.145654321  0.461632836
     0.037227451  0.321565432  0.458420896
     0.079074510  0.066418148  0.465731343
     0.081917647  0.392339506  0.457191045
     0.122227094  0.144058025  0.475343284
     0.124511586  0.311975309  0.474647761
     0.167183957  0.066929136  0.482779104
     0.167907665  0.394308642  0.479238806
     0.211115508  0.150003704  0.488653731
     0.213390018  0.314969136  0.485710448
     0.256742246  0.072717531  0.490671642
     0.257261319  0.398028395  0.480600000
     0.302442068  0.148223457  0.486853731
     0.301672727  0.317062963  0.478495522
     0.346837790  0.065486914  0.485549254
     0.344296257  0.406440741  0.469617910
     0.391975045  0.152327160  0.475408955
     0.388998217  0.324443210  0.467292537
     0.437279857  0.074437037  0.468137313
     0.432235294  0.402106173  0.450874627
     0.478666667  0.156003704  0.451997015
     0.476367201  0.326274074  0.445232836
     0.521443850  0.070990741  0.442286567
     0.516352941  0.407562963  0.430710448
     0.563982175  0.158462963  0.432429851
     0.560598930  0.329795062  0.426397015
     0.605301248  0.072559383  0.421791045
     0.600067736  0.407670370  0.409373134
     0.646106952  0.154640741  0.403602985
     0.644442068  0.319635802  0.402534328
     0.689664884  0.070779753  0.400835821
     0.688131907  0.399837037  0.394137313
     0.733811052  0.152346914  0.402152239
     0.732983957  0.317414815  0.396340299
     0.776905526  0.072007778  0.404050746
     0.776973262  0.400487654  0.393782090
     0.820691622  0.147170370  0.410262687
     0.821340463  0.317223457  0.405791045
     0.862171123  0.068501111  0.419149254
     0.865258467  0.393258025  0.406650746
     0.903204991  0.152598765  0.431250746
     0.907251337  0.319053086  0.424465672
     0.947251337  0.066665802  0.437755224
     0.951818182  0.402206173  0.429089552
     0.987614973  0.149070370  0.450170149
     0.987989305  0.323946914  0.447041791
     0.047905526  0.647554321  0.431316418
     0.047013904  0.820895062  0.435095522
     0.085365419  0.554980247  0.447964179
     0.082030660  0.900654321  0.454588060
     0.127170766  0.644417284  0.458844776
     0.127500891  0.813774074  0.462671642
     0.169440642  0.566520988  0.471000000
     0.168235651  0.896481481  0.477405970
     0.213284848  0.647051852  0.472976119
     0.214328342  0.816916049  0.479286567
     0.258491622  0.571345679  0.478805970
     0.257677005  0.901200000  0.486241791
     0.301766132  0.653934568  0.477008955
     0.302822103  0.822418519  0.482850746
     0.344599643  0.576314815  0.467510448
     0.348746168  0.898425926  0.481241791
     0.387647059  0.660197531  0.459107463
     0.392156863  0.817623457  0.471856716
     0.430966132  0.572245679  0.448916418
     0.434891266  0.902590123  0.464680597
     0.474221034  0.659486420  0.440886567
     0.475593583  0.823380247  0.448671642
     0.517664884  0.575283951  0.429573134
     0.519433155  0.905234568  0.439555224
     0.559098039  0.658496296  0.420402985
     0.559768271  0.828290123  0.425486567
     0.598570410  0.575633333  0.404811940
     0.603978610  0.903748148  0.417047761
     0.643878788  0.652918519  0.395444776
     0.645187166  0.820207407  0.402179104
     0.688709447  0.568900000  0.390277612
     0.689486631  0.899881481  0.398617910
     0.733140820  0.650245679  0.387611940
     0.731889483  0.820744444  0.392758209
     0.777304813  0.565587654  0.389558209
     0.776342246  0.902511111  0.398808955
     0.821778966  0.650450617  0.394976119
     0.821133690  0.819765432  0.397614925
     0.865475936  0.563934568  0.402997015
     0.864659537  0.900927160  0.408817910
     0.908720143  0.644834568  0.409292537
     0.909037433  0.823267901  0.411250746
     0.952666667  0.568164198  0.419128358
     0.950178253  0.900562963  0.426131343
     0.995800357  0.646939506  0.421713433
     0.996335116  0.820296296  0.425686567

  ion indices of the primitive-cell ions
   primitive index   ion index
                 1           1
                 2           2
                 3           3
                 4           4
                 5           5
                 6           6
                 7           7
                 8           8
                 9           9
                10          10
                11          11
                12          12
                13          13
                14          14
                15          15
                16          16
                17          17
                18          18
                19          19
                20          20
                21          21
                22          22
                23          23
                24          24
                25          25
                26          26
                27          27
                28          28
                29          29
                30          30
                31          31
                32          32
                33          33
                34          34
                35          35
                36          36
                37          37
                38          38
                39          39
                40          40
                41          41
                42          42
                43          43
                44          44
                45          45
                46          46
                47          47
                48          48
                49          49
                50          50
                51          51
                52          52
                53          53
                54          54
                55          55
                56          56
                57          57
                58          58
                59          59
                60          60
                61          61
                62          62
                63          63
                64          64
                65          65
                66          66
                67          67
                68          68
                69          69
                70          70
                71          71
                72          72
                73          73
                74          74
                75          75
                76          76
                77          77
                78          78
                79          79
                80          80
                81          81
                82          82
                83          83
                84          84
                85          85
                86          86
                87          87
                88          88
                89          89
                90          90
                91          91
                92          92

----------------------------------------------------------------------------------------

 
 
 KPOINTS: K-Spacing Value to Generate K-Mesh: 0.03

Automatic generation of k-mesh.
 Grid dimensions read from file:
 generate k-points for:    1    4    1

 Generating k-lattice:

  Cartesian coordinates                     Fractional coordinates (reciprocal lattice)
     0.035650624  0.000000000  0.000000000     1.000000000  0.000000000  0.000000000
     0.000000000  0.030864198  0.000000000     0.000000000  0.250000000  0.000000000
     0.000000000  0.000000000  0.029850746     0.000000000  0.000000000  1.000000000

  Length of vectors
     0.035650624  0.030864198  0.029850746

  Shift w.r.t. Gamma in fractional coordinates (k-lattice)
     0.000000000  0.000000000  0.000000000

 
 Subroutine IBZKPT returns following result:
 ===========================================
 
 Found      3 irreducible k-points:
 
 Following reciprocal coordinates:
            Coordinates               Weight
  0.000000  0.000000  0.000000      1.000000
  0.000000  0.250000  0.000000      2.000000
  0.000000  0.500000  0.000000      1.000000
 
 Following cartesian coordinates:
            Coordinates               Weight
  0.000000  0.000000  0.000000      1.000000
  0.000000  0.030864  0.000000      2.000000
  0.000000  0.061728  0.000000      1.000000
 


--------------------------------------------------------------------------------------------------------




 Dimension of arrays:
   k-points           NKPTS =      3   k-points in BZ     NKDIM =      3   number of bands    NBANDS=    232
   number of dos      NEDOS =    301   number of ions     NIONS =     92
   non local maximal  LDIM  =      4   non local SUM 2l+1 LMDIM =      8
   total plane-waves  NPLWV = ******
   max r-space proj   IRMAX =   1967   max aug-charges    IRDMAX=   5083
   dimension x,y,z NGX =   210 NGY =   60 NGZ =  250
   dimension x,y,z NGXF=   420 NGYF=  120 NGZF=  500
   support grid    NGXF=   420 NGYF=  120 NGZF=  500
   ions per type =              92
   NGX,Y,Z   is equivalent  to a cutoff of  12.45, 12.31, 12.41 a.u.
   NGXF,Y,Z  is equivalent  to a cutoff of  24.89, 24.63, 24.81 a.u.

 SYSTEM =  unknown system                          
 POSCAR =   C                                      

 Startparameter for this run:
   NWRITE =      2    write-flag & timer
   PREC   = accura    normal or accurate (medium, high low for compatibility)
   ISTART =      0    job   : 0-new  1-cont  2-samecut
   ICHARG =      2    charge: 1-file 2-atom 10-const
   ISPIN  =      1    spin polarized calculation?
   LNONCOLLINEAR =      F non collinear calculations
   LSORBIT =      F    spin-orbit coupling
   INIWAV =      1    electr: 0-lowe 1-rand  2-diag
   LASPH  =      F    aspherical Exc in radial PAW
 Electronic Relaxation 1
   ENCUT  =  500.0 eV  36.75 Ry    6.06 a.u.  51.14 14.77 61.08*2*pi/ulx,y,z
   ENINI  =  500.0     initial cutoff
   ENAUG  =  644.9 eV  augmentation charge cutoff
   NELM   =    150;   NELMIN=  2; NELMDL= -5     # of ELM steps 
   EDIFF  = 0.1E-05   stopping-criterion for ELM
   LREAL  =      T    real-space projection
   NLSPLINE    = F    spline interpolate recip. space projectors
   LCOMPAT=      F    compatible to vasp.4.4
   GGA_COMPAT  = T    GGA compatible to vasp.4.4-vasp.4.6
   LMAXPAW     = -100 max onsite density
   LMAXMIX     =    2 max onsite mixed and CHGCAR
   VOSKOWN=      0    Vosko Wilk Nusair interpolation
   ROPT   =   -0.00025
 Ionic relaxation
   EDIFFG = 0.1E-04   stopping-criterion for IOM
   NSW    =      0    number of steps for IOM
   NBLOCK =      1;   KBLOCK =      1    inner block; outer block 
   IBRION =     -1    ionic relax: 0-MD 1-quasi-New 2-CG
   NFREE  =      0    steps in history (QN), initial steepest desc. (CG)
   ISIF   =      2    stress and relaxation
   IWAVPR =     10    prediction:  0-non 1-charg 2-wave 3-comb
   ISYM   =      2    0-nonsym 1-usesym 2-fastsym
   LCORR  =      T    Harris-Foulkes like correction to forces

   POTIM  = 0.5000    time-step for ionic-motion
   TEIN   =    0.0    initial temperature
   TEBEG  =    0.0;   TEEND  =   0.0 temperature during run
   SMASS  =  -3.00    Nose mass-parameter (am)
   estimated Nose-frequenzy (Omega)   =  0.10E-29 period in steps = 0.13E+47 mass=  -0.180E-25a.u.
   SCALEE = 1.0000    scale energy and forces
   NPACO  =    256;   APACO  = 10.0  distance and # of slots for P.C.
   PSTRESS=    0.0 pullay stress

  Mass of Ions in am
   POMASS =  12.01
  Ionic Valenz
   ZVAL   =   4.00
  Atomic Wigner-Seitz radii
   RWIGS  =  -1.00
  virtual crystal weights 
   VCA    =   1.00
   NELECT =     368.0000    total number of electrons
   NUPDOWN=      -1.0000    fix difference up-down

 DOS related values:
   EMIN   =  10.00;   EMAX   =-10.00  energy-range for DOS
   EFERMI =   0.00;   METHOD = LEGACY      
   ISMEAR =     0;   SIGMA  =   0.20  broadening in eV -4-tet -1-fermi 0-gaus
   EFERMI_NEDOS =   21; number of points for ismear=-14 and -15

 Electronic relaxation 2 (details)
   IALGO  =     38    algorithm
   LDIAG  =      T    sub-space diagonalisation (order eigenvalues)
   LSUBROT=      F    optimize rotation matrix (better conditioning)
   TURBO    =      0    0=normal 1=particle mesh
   IRESTART =      0    0=no restart 2=restart with 2 vectors
   NREBOOT  =      0    no. of reboots
   NMIN     =      0    reboot dimension
   EREF     =   0.00    reference energy to select bands
   IMIX   =      4    mixing-type and parameters
     AMIX     =   0.40;   BMIX     =  1.00
     AMIX_MAG =   1.60;   BMIX_MAG =  1.00
     AMIN     =   0.10
     WC   =   100.;   INIMIX=   1;  MIXPRE=   1;  MAXMIX= -45

 Intra band minimization:
   WEIMIN = 0.0000     energy-eigenvalue tresh-hold
   EBREAK =  0.11E-08  absolut break condition
   DEPER  =   0.30     relativ break condition  

   TIME   =   0.40     timestep for ELM

  volume/ion in A,a.u.               =      82.73       558.30
  Fermi-wavevector in a.u.,A,eV,Ry     =   0.596398  1.127030  4.839472  0.355691
  Thomas-Fermi vector in A             =   1.646729
 
 Write flags
   LWAVE        =      F    write WAVECAR
   LDOWNSAMPLE  =      F    k-point downsampling of WAVECAR
   LCHARG       =      F    write CHGCAR
   LVTOT        =      F    write LOCPOT, total local potential
   LVHAR        =      F    write LOCPOT, Hartree potential only
   WRT_POTENTIAL= false  ! write potential to hdf5 file
   LELF         =      F    write electronic localiz. function (ELF)
   LORBIT       =      0    0 simple, 1 ext, 2 COOP (PROOUT), +10 PAW based schemes


 Python interface
   PLUGINS active      =      F    recompile with -DPLUGINS to activate
 
 Dipole corrections
   LMONO      =      F    monopole corrections only (constant potential shift)
   LDIPOL     =      F    correct potential (dipole corrections)
   IDIPOL     =      0    1-x, 2-y, 3-z, 4-all directions 
   EPSILON    =  1.0000000 bulk dielectric constant
   LVACPOTAV  =      F  vacuum potentials using an averaging scheme for the charge density
   VACPOTFLAT =  0.1000000 required flatness to determine vacuum potential
 
Coulomb truncation method
  LTRUNCATE          =      F  Coulomb kernel truncation to be used
  IDIMENSIONALITY    =      3  Dimensionality of cutoff (0 molecules / 2 surfaces)
  ISURFACE           =     -1  Direction of surface normal
  LCOARSEN           =      F  Coarsen the charge grid before padding, preferred

 
 Exchange correlation treatment:
   GGA     = PE    functional components
   XC_C    = 1    coefficients multiplying the functional components
   LIBXC   =     F    Libxc                    
   VOSKOWN =     0    Vosko Wilk Nusair interpolation
   LHFCALC =     F    Hartree Fock is set to
   LHFONE  =     F    Hartree Fock one center treatment
   AEXX    =    0.0000 exact exchange contribution

 Parameters of functionals:
   PE:
     No parameter
 
 Van der Waals corrections
   IVDW    =     0    specifies the selected vdW correction

 Linear response parameters
   LEPSILON=     F    determine dielectric tensor
   LRPA    =     F    only Hartree local field effects (RPA)
   LNABLA  =     F    use nabla operator in PAW spheres
   LVEL    =     F    velocity operator in full k-point grid
   CSHIFT  =0.1000    complex shift for real part using Kramers Kronig
   OMEGAMAX=  -1.0    maximum frequency
   DEG_THRESHOLD= 0.2000000E-02 threshold for treating states as degnerate
   RTIME   =   -0.100 relaxation time in fs
  (WPLASMAI=    0.000 imaginary part of plasma frequency in eV, 0.658/RTIME)
   DFIELD  = 0.0000000 0.0000000 0.0000000 field for delta impulse in time
 
  Optional k-point grid parameters
   LKPOINTS_OPT  =     F    use optional k-point grid
   KPOINTS_OPT_MODE=     1    mode for optional k-point grid
 
 Orbital magnetization related:
   ORBITALMAG=     F  switch on orbital magnetization
   LCHIMAG   =     F  perturbation theory with respect to B field
   DQ        =  0.001000  dq finite difference perturbation B field
   LLRAUG    =     F  two centre corrections for induced B field
   LBONE     =     F  B-component reconstruction in AE one-centre
   LVGVCALC  =     T  calculate vGv susceptibility
   LVGVAPPL  =     F  apply vGv susceptibility instead of pGv for G=0

 Random number generation:
   RANDOM_GENERATOR = DEFAULT
   PCG_SEED         = not used


--------------------------------------------------------------------------------------------------------


 Static calculation
 charge density and potential will be updated during run
 non-spin polarized calculation
 Variant of blocked Davidson
 Davidson routine will perform the subspace rotation
 perform sub-space diagonalisation
    after iterative eigenvector-optimisation
 modified Broyden-mixing scheme, WC =      100.0
 initial mixing is a Kerker type mixing with AMIX =  0.4000 and BMIX =      1.0000
 Hartree-type preconditioning will be used
 using additional bands            48
 real space projection scheme for non local part
 use partial core corrections
 calculate Harris-corrections to forces 
   (improved forces if not selfconsistent)
 use gradient corrections 
 use of overlap-Matrix (Vanderbilt PP)
 Gauss-broadening in eV      SIGMA  =   0.20


--------------------------------------------------------------------------------------------------------


  energy-cutoff  :      500.00
  volume of cell :     7611.37
      direct lattice vectors                 reciprocal lattice vectors
    28.050000000  0.000000000  0.000000000     0.035650624  0.000000000  0.000000000
     0.000000000  8.100000000  0.000000000     0.000000000  0.123456790  0.000000000
     0.000000000  0.000000000 33.500000000     0.000000000  0.000000000  0.029850746

  length of vectors
    28.050000000  8.100000000 33.500000000     0.035650624  0.123456790  0.029850746


 
 k-points in units of 2pi/SCALE and weight: K-Spacing Value to Generate K-Mesh: 0.03
   0.00000000  0.00000000  0.00000000       0.250
   0.00000000  0.03086420  0.00000000       0.500
   0.00000000  0.06172840  0.00000000       0.250
 
 k-points in reciprocal lattice and weights: K-Spacing Value to Generate K-Mesh: 0.03
   0.00000000  0.00000000  0.00000000       0.250
   0.00000000  0.25000000  0.00000000       0.500
   0.00000000  0.50000000  0.00000000       0.250
 
 position of ions in fractional coordinates (direct lattice) 
   0.03755009  0.14565432  0.46163284
   0.03722745  0.32156543  0.45842090
   0.07907451  0.06641815  0.46573134
   0.08191765  0.39233951  0.45719104
   0.12222709  0.14405802  0.47534328
   0.12451159  0.31197531  0.47464776
   0.16718396  0.06692914  0.48277910
   0.16790766  0.39430864  0.47923881
   0.21111551  0.15000370  0.48865373
   0.21339002  0.31496914  0.48571045
   0.25674225  0.07271753  0.49067164
   0.25726132  0.39802840  0.48060000
   0.30244207  0.14822346  0.48685373
   0.30167273  0.31706296  0.47849552
   0.34683779  0.06548691  0.48554925
   0.34429626  0.40644074  0.46961791
   0.39197504  0.15232716  0.47540896
   0.38899822  0.32444321  0.46729254
   0.43727986  0.07443704  0.46813731
   0.43223529  0.40210617  0.45087463
   0.47866667  0.15600370  0.45199701
   0.47636720  0.32627407  0.44523284
   0.52144385  0.07099074  0.44228657
   0.51635294  0.40756296  0.43071045
   0.56398217  0.15846296  0.43242985
   0.56059893  0.32979506  0.42639701
   0.60530125  0.07255938  0.42179104
   0.60006774  0.40767037  0.40937313
   0.64610695  0.15464074  0.40360299
   0.64444207  0.31963580  0.40253433
   0.68966488  0.07077975  0.40083582
   0.68813191  0.39983704  0.39413731
   0.73381105  0.15234691  0.40215224
   0.73298396  0.31741481  0.39634030
   0.77690553  0.07200778  0.40405075
   0.77697326  0.40048765  0.39378209
   0.82069162  0.14717037  0.41026269
   0.82134046  0.31722346  0.40579104
   0.86217112  0.06850111  0.41914925
   0.86525847  0.39325802  0.40665075
   0.90320499  0.15259877  0.43125075
   0.90725134  0.31905309  0.42446567
   0.94725134  0.06666580  0.43775522
   0.95181818  0.40220617  0.42908955
   0.98761497  0.14907037  0.45017015
   0.98798930  0.32394691  0.44704179
   0.04790553  0.64755432  0.43131642
   0.04701390  0.82089506  0.43509552
   0.08536542  0.55498025  0.44796418
   0.08203066  0.90065432  0.45458806
   0.12717077  0.64441728  0.45884478
   0.12750089  0.81377407  0.46267164
   0.16944064  0.56652099  0.47100000
   0.16823565  0.89648148  0.47740597
   0.21328485  0.64705185  0.47297612
   0.21432834  0.81691605  0.47928657
   0.25849162  0.57134568  0.47880597
   0.25767701  0.90120000  0.48624179
   0.30176613  0.65393457  0.47700896
   0.30282210  0.82241852  0.48285075
   0.34459964  0.57631481  0.46751045
   0.34874617  0.89842593  0.48124179
   0.38764706  0.66019753  0.45910746
   0.39215686  0.81762346  0.47185672
   0.43096613  0.57224568  0.44891642
   0.43489127  0.90259012  0.46468060
   0.47422103  0.65948642  0.44088657
   0.47559358  0.82338025  0.44867164
   0.51766488  0.57528395  0.42957313
   0.51943316  0.90523457  0.43955522
   0.55909804  0.65849630  0.42040299
   0.55976827  0.82829012  0.42548657
   0.59857041  0.57563333  0.40481194
   0.60397861  0.90374815  0.41704776
   0.64387879  0.65291852  0.39544478
   0.64518717  0.82020741  0.40217910
   0.68870945  0.56890000  0.39027761
   0.68948663  0.89988148  0.39861791
   0.73314082  0.65024568  0.38761194
   0.73188948  0.82074444  0.39275821
   0.77730481  0.56558765  0.38955821
   0.77634225  0.90251111  0.39880896
   0.82177897  0.65045062  0.39497612
   0.82113369  0.81976543  0.39761493
   0.86547594  0.56393457  0.40299701
   0.86465954  0.90092716  0.40881791
   0.90872014  0.64483457  0.40929254
   0.90903743  0.82326790  0.41125075
   0.95266667  0.56816420  0.41912836
   0.95017825  0.90056296  0.42613134
   0.99580036  0.64693951  0.42171343
   0.99633512  0.82029630  0.42568657
 
 position of ions in cartesian coordinates  (Angst):
   1.05328000  1.17980000 15.46470000
   1.04423000  2.60468000 15.35710000
   2.21804000  0.53798700 15.60200000
   2.29779000  3.17795000 15.31590000
   3.42847000  1.16687000 15.92400000
   3.49255000  2.52700000 15.90070000
   4.68951000  0.54212600 16.17310000
   4.70981000  3.19390000 16.05450000
   5.92179000  1.21503000 16.36990000
   5.98559000  2.55125000 16.27130000
   7.20162000  0.58901200 16.43750000
   7.21618000  3.22403000 16.10010000
   8.48350000  1.20061000 16.30960000
   8.46192000  2.56821000 16.02960000
   9.72880000  0.53044400 16.26590000
   9.65751000  3.29217000 15.73220000
  10.99490000  1.23385000 15.92620000
  10.91140000  2.62799000 15.65430000
  12.26570000  0.60294000 15.68260000
  12.12420000  3.25706000 15.10430000
  13.42660000  1.26363000 15.14190000
  13.36210000  2.64282000 14.91530000
  14.62650000  0.57502500 14.81660000
  14.48370000  3.30126000 14.42880000
  15.81970000  1.28355000 14.48640000
  15.72480000  2.67134000 14.28430000
  16.97870000  0.58773100 14.13000000
  16.83190000  3.30213000 13.71400000
  18.12330000  1.25259000 13.52070000
  18.07660000  2.58905000 13.48490000
  19.34510000  0.57331600 13.42800000
  19.30210000  3.23868000 13.20360000
  20.58340000  1.23401000 13.47210000
  20.56020000  2.57106000 13.27740000
  21.79220000  0.58326300 13.53570000
  21.79410000  3.24395000 13.19170000
  23.02040000  1.19208000 13.74380000
  23.03860000  2.56951000 13.59400000
  24.18390000  0.55485900 14.04150000
  24.27050000  3.18539000 13.62280000
  25.33490000  1.23605000 14.44690000
  25.44840000  2.58433000 14.21960000
  26.57040000  0.53999300 14.66480000
  26.69850000  3.25787000 14.37450000
  27.70260000  1.20747000 15.08070000
  27.71310000  2.62397000 14.97590000
   1.34375000  5.24519000 14.44910000
   1.31874000  6.64925000 14.57570000
   2.39450000  4.49534000 15.00680000
   2.30096000  7.29530000 15.22870000
   3.56714000  5.21978000 15.37130000
   3.57640000  6.59157000 15.49950000
   4.75281000  4.58882000 15.77850000
   4.71901000  7.26150000 15.99310000
   5.98264000  5.24112000 15.84470000
   6.01191000  6.61702000 16.05610000
   7.25069000  4.62790000 16.04000000
   7.22784000  7.29972000 16.28910000
   8.46454000  5.29687000 15.97980000
   8.49416000  6.66159000 16.17550000
   9.66602000  4.66815000 15.66160000
   9.78233000  7.27725000 16.12160000
  10.87350000  5.34760000 15.38010000
  11.00000000  6.62275000 15.80720000
  12.08860000  4.63519000 15.03870000
  12.19870000  7.31098000 15.56680000
  13.30190000  5.34184000 14.76970000
  13.34040000  6.66938000 15.03050000
  14.52050000  4.65980000 14.39070000
  14.57010000  7.33240000 14.72510000
  15.68270000  5.33382000 14.08350000
  15.70150000  6.70915000 14.25380000
  16.78990000  4.66263000 13.56120000
  16.94160000  7.32036000 13.97110000
  18.06080000  5.28864000 13.24740000
  18.09750000  6.64368000 13.47300000
  19.31830000  4.60809000 13.07430000
  19.34010000  7.28904000 13.35370000
  20.56460000  5.26699000 12.98500000
  20.52950000  6.64803000 13.15740000
  21.80340000  4.58126000 13.05020000
  21.77640000  7.31034000 13.36010000
  23.05090000  5.26865000 13.23170000
  23.03280000  6.64010000 13.32010000
  24.27660000  4.56787000 13.50040000
  24.25370000  7.29751000 13.69540000
  25.48960000  5.22316000 13.71130000
  25.49850000  6.66847000 13.77690000
  26.72230000  4.60213000 14.04080000
  26.65250000  7.29456000 14.27540000
  27.93220000  5.24021000 14.12740000
  27.94720000  6.64440000 14.26050000
 


--------------------------------------------------------------------------------------------------------


 k-point     1 :   0.0000 0.0000 0.0000  plane waves:  193173
 k-point     2 :   0.0000 0.2500 0.0000  plane waves:  193166
 k-point     3 :   0.0000 0.5000 0.0000  plane waves:  193226

 maximum and minimum number of plane-waves per node :    193226   193166

 maximum number of plane-waves:    193226
 maximum index in each direction: 
   IXMAX=   51   IYMAX=   14   IZMAX=   61
   IXMIN=  -51   IYMIN=  -15   IZMIN=  -61


 serial   3D FFT for wavefunctions
 parallel 3D FFT for charge:
    minimum data exchange during FFTs selected (reduces bandwidth)


 total amount of memory used by VASP MPI-rank0  2294512. kBytes
=======================================================================

   base                                    :      30000. kBytes
   nonlr-proj                              :      15078. kBytes
   fftplans                                :     436558. kBytes
   grid                                    :     732614. kBytes
   one-center                              :        282. kBytes
   wavefun                                 :    1079980. kBytes
 
     INWAV:  cpu time      0.0000: real time      0.0000
 Broyden mixing: mesh for mixing (old mesh)
   NGX =103   NGY = 29   NGZ =123
  (NGX  =420   NGY  =120   NGZ  =500)
  gives a total of 367401 points

 initial charge density was supplied:
 charge density of overlapping atoms calculated
 number of electron     368.0000000 magnetization 
 keeping initial charge density in first step


--------------------------------------------------------------------------------------------------------


 Maximum index for non-local projection operator          1875
 Maximum index for augmentation-charges          2388 (set IRDMAX)


--------------------------------------------------------------------------------------------------------


 First call to EWALD:  gamma=   0.090
 Maximum number of real-space cells   2x   6x   2
 Maximum number of reciprocal cells   4x   1x   4

    FEWALD:  cpu time      0.1590: real time      0.1591


--------------------------------------- Ionic step        1  -------------------------------------------




--------------------------------------- Iteration      1(   1)  ---------------------------------------


    POTLOK:  cpu time      0.4155: real time      0.4320
    SETDIJ:  cpu time      0.0414: real time      0.0414
     EDDAV:  cpu time     11.1691: real time     11.1743
       DOS:  cpu time      0.0008: real time      0.0008
    --------------------------------------------
      LOOP:  cpu time     11.6268: real time     11.6485

 eigenvalue-minimisations  :  1728
 total energy-change (2. order) : 0.3622549E+04  (-0.1197730E+05)
 number of electron     368.0000000 magnetization 
 augmentation part      368.0000000 magnetization 

 Free energy of the ion-electron system (eV)
  ---------------------------------------------------
  alpha Z        PSCENC =        91.34886789
  Ewald energy   TEWEN  =    119979.44016704
  -Hartree energ DENC   =   -129312.30642098
  -exchange      EXHF   =         0.00000000
  -V(xc)+E(xc)   XCENC  =      1221.04354755
  PAW double counting   =      9984.02826696   -10036.41360137
  entropy T*S    EENTRO =        -0.82063930
  eigenvalues    EBANDS =     -1841.42601772
  atomic energy  EATOM  =     13537.65479391
  Solvation  Ediel_sol  =         0.00000000
  ---------------------------------------------------
  free energy    TOTEN  =      3622.54896398 eV

  energy without entropy =     3623.36960328  energy(sigma->0) =     3622.95928363


--------------------------------------------------------------------------------------------------------




--------------------------------------- Iteration      1(   2)  ---------------------------------------


     EDDAV:  cpu time     13.1311: real time     13.1365
       DOS:  cpu time      0.0007: real time      0.0007
    --------------------------------------------
      LOOP:  cpu time     13.1318: real time     13.1372

 eigenvalue-minimisations  :  2144
 total energy-change (2. order) :-0.3454306E+04  (-0.3192326E+04)
 number of electron     368.0000000 magnetization 
 augmentation part      368.0000000 magnetization 

 Free energy of the ion-electron system (eV)
  ---------------------------------------------------
  alpha Z        PSCENC =        91.34886789
  Ewald energy   TEWEN  =    119979.44016704
  -Hartree energ DENC   =   -129312.30642098
  -exchange      EXHF   =         0.00000000
  -V(xc)+E(xc)   XCENC  =      1221.04354755
  PAW double counting   =      9984.02826696   -10036.41360137
  entropy T*S    EENTRO =        -0.19134080
  eigenvalues    EBANDS =     -5296.36165702
  atomic energy  EATOM  =     13537.65479391
  Solvation  Ediel_sol  =         0.00000000
  ---------------------------------------------------
  free energy    TOTEN  =       168.24262319 eV

  energy without entropy =      168.43396399  energy(sigma->0) =      168.33829359


--------------------------------------------------------------------------------------------------------




--------------------------------------- Iteration      1(   3)  ---------------------------------------


     EDDAV:  cpu time     11.2964: real time     11.3026
       DOS:  cpu time      0.0007: real time      0.0007
    --------------------------------------------
      LOOP:  cpu time     11.2971: real time     11.3032

 eigenvalue-minimisations  :  1792
 total energy-change (2. order) :-0.1002699E+04  (-0.9807605E+03)
 number of electron     368.0000000 magnetization 
 augmentation part      368.0000000 magnetization 

 Free energy of the ion-electron system (eV)
  ---------------------------------------------------
  alpha Z        PSCENC =        91.34886789
  Ewald energy   TEWEN  =    119979.44016704
  -Hartree energ DENC   =   -129312.30642098
  -exchange      EXHF   =         0.00000000
  -V(xc)+E(xc)   XCENC  =      1221.04354755
  PAW double counting   =      9984.02826696   -10036.41360137
  entropy T*S    EENTRO =        -0.08387095
  eigenvalues    EBANDS =     -6299.16821206
  atomic energy  EATOM  =     13537.65479391
  Solvation  Ediel_sol  =         0.00000000
  ---------------------------------------------------
  free energy    TOTEN  =      -834.45646200 eV

  energy without entropy =     -834.37259105  energy(sigma->0) =     -834.41452653


--------------------------------------------------------------------------------------------------------




--------------------------------------- Iteration      1(   4)  ---------------------------------------


     EDDAV:  cpu time     10.8740: real time     10.8792
       DOS:  cpu time      0.0007: real time      0.0007
    --------------------------------------------
      LOOP:  cpu time     10.8747: real time     10.8799

 eigenvalue-minimisations  :  1704
 total energy-change (2. order) :-0.6198259E+02  (-0.6089682E+02)
 number of electron     368.0000000 magnetization 
 augmentation part      368.0000000 magnetization 

 Free energy of the ion-electron system (eV)
  ---------------------------------------------------
  alpha Z        PSCENC =        91.34886789
  Ewald energy   TEWEN  =    119979.44016704
  -Hartree energ DENC   =   -129312.30642098
  -exchange      EXHF   =         0.00000000
  -V(xc)+E(xc)   XCENC  =      1221.04354755
  PAW double counting   =      9984.02826696   -10036.41360137
  entropy T*S    EENTRO =        -0.06080029
  eigenvalues    EBANDS =     -6361.17387118
  atomic energy  EATOM  =     13537.65479391
  Solvation  Ediel_sol  =         0.00000000
  ---------------------------------------------------
  free energy    TOTEN  =      -896.43905047 eV

  energy without entropy =     -896.37825018  energy(sigma->0) =     -896.40865032


--------------------------------------------------------------------------------------------------------




--------------------------------------- Iteration      1(   5)  ---------------------------------------


     EDDAV:  cpu time     11.3346: real time     11.3389
       DOS:  cpu time      0.0007: real time      0.0007
    CHARGE:  cpu time      1.2065: real time      1.2102
    MIXING:  cpu time      0.2736: real time      0.2741
    --------------------------------------------
      LOOP:  cpu time     12.8154: real time     12.8239

 eigenvalue-minimisations  :  1800
 total energy-change (2. order) :-0.1586863E+01  (-0.1562963E+01)
 number of electron     367.9999998 magnetization 
 augmentation part       10.1377349 magnetization 

 Broyden mixing:
  rms(total) = 0.45341E+01    rms(broyden)= 0.45335E+01
  rms(prec ) = 0.46509E+01
  weight for this iteration     100.00

 Free energy of the ion-electron system (eV)
  ---------------------------------------------------
  alpha Z        PSCENC =        91.34886789
  Ewald energy   TEWEN  =    119979.44016704
  -Hartree energ DENC   =   -129312.30642098
  -exchange      EXHF   =         0.00000000
  -V(xc)+E(xc)   XCENC  =      1221.04354755
  PAW double counting   =      9984.02826696   -10036.41360137
  entropy T*S    EENTRO =        -0.06099502
  eigenvalues    EBANDS =     -6362.76053911
  atomic energy  EATOM  =     13537.65479391
  Solvation  Ediel_sol  =         0.00000000
  ---------------------------------------------------
  free energy    TOTEN  =      -898.02591312 eV

  energy without entropy =     -897.96491810  energy(sigma->0) =     -897.99541561


--------------------------------------------------------------------------------------------------------




--------------------------------------- Iteration      1(   6)  ---------------------------------------


    POTLOK:  cpu time      0.3209: real time      0.3211
    SETDIJ:  cpu time      0.0403: real time      0.0403
     EDDAV:  cpu time     10.2293: real time     10.2330
       DOS:  cpu time      0.0007: real time      0.0007
    CHARGE:  cpu time      1.1586: real time      1.1599
    MIXING:  cpu time      0.2770: real time      0.2784
    --------------------------------------------
      LOOP:  cpu time     12.0269: real time     12.0334

 eigenvalue-minimisations  :  1576
 total energy-change (2. order) : 0.4913853E+02  (-0.4695282E+01)
 number of electron     367.9999998 magnetization 
 augmentation part        9.7116828 magnetization 

 Broyden mixing:
  rms(total) = 0.26623E+01    rms(broyden)= 0.26623E+01
  rms(prec ) = 0.27203E+01
  weight for this iteration     100.00

 eigenvalues of (default mixing * dielectric matrix)
  average eigenvalue GAMMA=   2.1824
  2.1824

 Free energy of the ion-electron system (eV)
  ---------------------------------------------------
  alpha Z        PSCENC =        91.34886789
  Ewald energy   TEWEN  =    119979.44016704
  -Hartree energ DENC   =   -129881.10274683
  -exchange      EXHF   =         0.00000000
  -V(xc)+E(xc)   XCENC  =      1244.30844882
  PAW double counting   =     18913.50606769   -18973.47927703
  entropy T*S    EENTRO =        -0.07600692
  eigenvalues    EBANDS =     -5760.48770122
  atomic energy  EATOM  =     13537.65479391
  Solvation  Ediel_sol  =         0.00000000
  ---------------------------------------------------
  free energy    TOTEN  =      -848.88738666 eV

  energy without entropy =     -848.81137975  energy(sigma->0) =     -848.84938320


--------------------------------------------------------------------------------------------------------




--------------------------------------- Iteration      1(   7)  ---------------------------------------


    POTLOK:  cpu time      0.3206: real time      0.3206
    SETDIJ:  cpu time      0.0405: real time      0.0405
     EDDAV:  cpu time     10.1415: real time     10.1475
       DOS:  cpu time      0.0007: real time      0.0007
    CHARGE:  cpu time      1.1543: real time      1.1558
    MIXING:  cpu time      0.2814: real time      0.2831
    --------------------------------------------
      LOOP:  cpu time     11.9390: real time     11.9481

 eigenvalue-minimisations  :  1560
 total energy-change (2. order) : 0.1830265E+02  (-0.6479811E+01)
 number of electron     367.9999999 magnetization 
 augmentation part        9.1572669 magnetization 

 Broyden mixing:
  rms(total) = 0.72964E+00    rms(broyden)= 0.72937E+00
  rms(prec ) = 0.73931E+00
  weight for this iteration     100.00

 eigenvalues of (default mixing * dielectric matrix)
  average eigenvalue GAMMA=   2.1759
  2.1759  2.1759

 Free energy of the ion-electron system (eV)
  ---------------------------------------------------
  alpha Z        PSCENC =        91.34886789
  Ewald energy   TEWEN  =    119979.44016704
  -Hartree energ DENC   =   -130642.85298117
  -exchange      EXHF   =         0.00000000
  -V(xc)+E(xc)   XCENC  =      1275.30418164
  PAW double counting   =     36453.35050760   -36520.19300376
  entropy T*S    EENTRO =        -0.08444942
  eigenvalues    EBANDS =     -5004.55282517
  atomic energy  EATOM  =     13537.65479391
  Solvation  Ediel_sol  =         0.00000000
  ---------------------------------------------------
  free energy    TOTEN  =      -830.58474145 eV

  energy without entropy =     -830.50029203  energy(sigma->0) =     -830.54251674


--------------------------------------------------------------------------------------------------------




--------------------------------------- Iteration      1(   8)  ---------------------------------------


    POTLOK:  cpu time      0.3203: real time      0.3203
    SETDIJ:  cpu time      0.0402: real time      0.0402
     EDDAV:  cpu time     10.3014: real time     10.3051
       DOS:  cpu time      0.0008: real time      0.0008
    CHARGE:  cpu time      1.1515: real time      1.1544
    MIXING:  cpu time      0.2811: real time      0.2832
    --------------------------------------------
      LOOP:  cpu time     12.0953: real time     12.1041

 eigenvalue-minimisations  :  1592
 total energy-change (2. order) : 0.2804943E+00  (-0.2300354E+00)
 number of electron     367.9999999 magnetization 
 augmentation part        9.1427367 magnetization 

 Broyden mixing:
  rms(total) = 0.10409E+00    rms(broyden)= 0.10406E+00
  rms(prec ) = 0.12560E+00
  weight for this iteration     100.00

 eigenvalues of (default mixing * dielectric matrix)
  average eigenvalue GAMMA=   1.8463
  1.1496  1.9660  2.4232

 Free energy of the ion-electron system (eV)
  ---------------------------------------------------
  alpha Z        PSCENC =        91.34886789
  Ewald energy   TEWEN  =    119979.44016704
  -Hartree energ DENC   =   -130734.72311772
  -exchange      EXHF   =         0.00000000
  -V(xc)+E(xc)   XCENC  =      1275.13424811
  PAW double counting   =     40612.90911885   -40677.15496849
  entropy T*S    EENTRO =        -0.08101234
  eigenvalues    EBANDS =     -4914.83234444
  atomic energy  EATOM  =     13537.65479391
  Solvation  Ediel_sol  =         0.00000000
  ---------------------------------------------------
  free energy    TOTEN  =      -830.30424719 eV

  energy without entropy =     -830.22323486  energy(sigma->0) =     -830.26374103


--------------------------------------------------------------------------------------------------------




--------------------------------------- Iteration      1(   9)  ---------------------------------------


    POTLOK:  cpu time      0.3203: real time      0.3201
    SETDIJ:  cpu time      0.0403: real time      0.0403
     EDDAV:  cpu time     10.7167: real time     10.7223
       DOS:  cpu time      0.0007: real time      0.0007
    CHARGE:  cpu time      1.1545: real time      1.1566
    MIXING:  cpu time      0.2859: real time      0.2869
    --------------------------------------------
      LOOP:  cpu time     12.5184: real time     12.5269

 eigenvalue-minimisations  :  1672
 total energy-change (2. order) : 0.1031439E+00  (-0.2615066E-01)
 number of electron     367.9999999 magnetization 
 augmentation part        9.1214945 magnetization 

 Broyden mixing:
  rms(total) = 0.56654E-01    rms(broyden)= 0.56646E-01
  rms(prec ) = 0.78354E-01
  weight for this iteration     100.00

 eigenvalues of (default mixing * dielectric matrix)
  average eigenvalue GAMMA=   1.6489
  2.1979  2.1979  1.0169  1.1829

 Free energy of the ion-electron system (eV)
  ---------------------------------------------------
  alpha Z        PSCENC =        91.34886789
  Ewald energy   TEWEN  =    119979.44016704
  -Hartree energ DENC   =   -130802.73557013
  -exchange      EXHF   =         0.00000000
  -V(xc)+E(xc)   XCENC  =      1276.43903351
  PAW double counting   =     41225.88290329   -41290.11303701
  entropy T*S    EENTRO =        -0.08134660
  eigenvalues    EBANDS =     -4848.03691523
  atomic energy  EATOM  =     13537.65479391
  Solvation  Ediel_sol  =         0.00000000
  ---------------------------------------------------
  free energy    TOTEN  =      -830.20110334 eV

  energy without entropy =     -830.11975674  energy(sigma->0) =     -830.16043004


--------------------------------------------------------------------------------------------------------




--------------------------------------- Iteration      1(  10)  ---------------------------------------


    POTLOK:  cpu time      0.3199: real time      0.3198
    SETDIJ:  cpu time      0.0401: real time      0.0401
     EDDAV:  cpu time     11.3987: real time     11.4028
       DOS:  cpu time      0.0007: real time      0.0007
    CHARGE:  cpu time      1.1555: real time      1.1562
    MIXING:  cpu time      0.2951: real time      0.2952
    --------------------------------------------
      LOOP:  cpu time     13.2100: real time     13.2149

 eigenvalue-minimisations  :  1808
 total energy-change (2. order) : 0.3337584E-01  (-0.4407118E-02)
 number of electron     367.9999999 magnetization 
 augmentation part        9.1110920 magnetization 

 Broyden mixing:
  rms(total) = 0.38422E-01    rms(broyden)= 0.38419E-01
  rms(prec ) = 0.58393E-01
  weight for this iteration     100.00

 eigenvalues of (default mixing * dielectric matrix)
  average eigenvalue GAMMA=   1.6792
  2.3831  2.3831  1.5393  1.2127  0.8777

 Free energy of the ion-electron system (eV)
  ---------------------------------------------------
  alpha Z        PSCENC =        91.34886789
  Ewald energy   TEWEN  =    119979.44016704
  -Hartree energ DENC   =   -130845.18747375
  -exchange      EXHF   =         0.00000000
  -V(xc)+E(xc)   XCENC  =      1276.76932463
  PAW double counting   =     41049.11838959   -41113.26053906
  entropy T*S    EENTRO =        -0.08165793
  eigenvalues    EBANDS =     -4805.96959981
  atomic energy  EATOM  =     13537.65479391
  Solvation  Ediel_sol  =         0.00000000
  ---------------------------------------------------
  free energy    TOTEN  =      -830.16772751 eV

  energy without entropy =     -830.08606957  energy(sigma->0) =     -830.12689854


--------------------------------------------------------------------------------------------------------




--------------------------------------- Iteration      1(  11)  ---------------------------------------


    POTLOK:  cpu time      0.3201: real time      0.3201
    SETDIJ:  cpu time      0.0402: real time      0.0402
     EDDAV:  cpu time     10.0859: real time     10.0896
       DOS:  cpu time      0.0008: real time      0.0008
    CHARGE:  cpu time      1.1626: real time      1.1666
    MIXING:  cpu time      0.2999: real time      0.2999
    --------------------------------------------
      LOOP:  cpu time     11.9094: real time     11.9171

 eigenvalue-minimisations  :  1552
 total energy-change (2. order) : 0.3183466E-01  (-0.2170780E-02)
 number of electron     367.9999999 magnetization 
 augmentation part        9.1066427 magnetization 

 Broyden mixing:
  rms(total) = 0.24517E-01    rms(broyden)= 0.24515E-01
  rms(prec ) = 0.39215E-01
  weight for this iteration     100.00

 eigenvalues of (default mixing * dielectric matrix)
  average eigenvalue GAMMA=   1.7735
  3.0405  2.5330  1.9290  0.9686  1.0851  1.0851

 Free energy of the ion-electron system (eV)
  ---------------------------------------------------
  alpha Z        PSCENC =        91.34886789
  Ewald energy   TEWEN  =    119979.44016704
  -Hartree energ DENC   =   -130909.19326676
  -exchange      EXHF   =         0.00000000
  -V(xc)+E(xc)   XCENC  =      1277.31033337
  PAW double counting   =     40948.91432457   -41012.94392671
  entropy T*S    EENTRO =        -0.08169924
  eigenvalues    EBANDS =     -4742.58548692
  atomic energy  EATOM  =     13537.65479391
  Solvation  Ediel_sol  =         0.00000000
  ---------------------------------------------------
  free energy    TOTEN  =      -830.13589285 eV

  energy without entropy =     -830.05419361  energy(sigma->0) =     -830.09504323


--------------------------------------------------------------------------------------------------------




--------------------------------------- Iteration      1(  12)  ---------------------------------------


    POTLOK:  cpu time      0.3202: real time      0.3201
    SETDIJ:  cpu time      0.0403: real time      0.0403
     EDDAV:  cpu time     10.1292: real time     10.1330
       DOS:  cpu time      0.0008: real time      0.0008
    CHARGE:  cpu time      1.1551: real time      1.1570
    MIXING:  cpu time      0.3049: real time      0.3048
    --------------------------------------------
      LOOP:  cpu time     11.9504: real time     11.9559

 eigenvalue-minimisations  :  1560
 total energy-change (2. order) : 0.6656472E-02  (-0.2689283E-02)
 number of electron     367.9999999 magnetization 
 augmentation part        9.0992784 magnetization 

 Broyden mixing:
  rms(total) = 0.15615E-01    rms(broyden)= 0.15611E-01
  rms(prec ) = 0.23620E-01
  weight for this iteration     100.00

 eigenvalues of (default mixing * dielectric matrix)
  average eigenvalue GAMMA=   2.0299
  4.6369  2.2334  2.2334  2.0194  0.9948  1.0456  1.0456

 Free energy of the ion-electron system (eV)
  ---------------------------------------------------
  alpha Z        PSCENC =        91.34886789
  Ewald energy   TEWEN  =    119979.44016704
  -Hartree energ DENC   =   -130979.92947292
  -exchange      EXHF   =         0.00000000
  -V(xc)+E(xc)   XCENC  =      1277.98742278
  PAW double counting   =     40980.65703557   -41044.65437315
  entropy T*S    EENTRO =        -0.08170112
  eigenvalues    EBANDS =     -4672.55197638
  atomic energy  EATOM  =     13537.65479391
  Solvation  Ediel_sol  =         0.00000000
  ---------------------------------------------------
  free energy    TOTEN  =      -830.12923638 eV

  energy without entropy =     -830.04753526  energy(sigma->0) =     -830.08838582


--------------------------------------------------------------------------------------------------------




--------------------------------------- Iteration      1(  13)  ---------------------------------------


    POTLOK:  cpu time      0.3193: real time      0.3193
    SETDIJ:  cpu time      0.0401: real time      0.0401
     EDDAV:  cpu time     10.0418: real time     10.0454
       DOS:  cpu time      0.0008: real time      0.0008
    CHARGE:  cpu time      1.1540: real time      1.1562
    MIXING:  cpu time      0.3138: real time      0.3155
    --------------------------------------------
      LOOP:  cpu time     11.8697: real time     11.8773

 eigenvalue-minimisations  :  1544
 total energy-change (2. order) :-0.1349006E-01  (-0.8643558E-03)
 number of electron     367.9999999 magnetization 
 augmentation part        9.0962811 magnetization 

 Broyden mixing:
  rms(total) = 0.81719E-02    rms(broyden)= 0.81693E-02
  rms(prec ) = 0.11954E-01
  weight for this iteration     100.00

 eigenvalues of (default mixing * dielectric matrix)
  average eigenvalue GAMMA=   2.0543
  5.4672  2.4794  2.2766  2.0262  1.1362  1.1362  0.9563  0.9563

 Free energy of the ion-electron system (eV)
  ---------------------------------------------------
  alpha Z        PSCENC =        91.34886789
  Ewald energy   TEWEN  =    119979.44016704
  -Hartree energ DENC   =   -131030.92443461
  -exchange      EXHF   =         0.00000000
  -V(xc)+E(xc)   XCENC  =      1278.20277066
  PAW double counting   =     40960.60213853   -41024.59773219
  entropy T*S    EENTRO =        -0.08165602
  eigenvalues    EBANDS =     -4621.78764164
  atomic energy  EATOM  =     13537.65479391
  Solvation  Ediel_sol  =         0.00000000
  ---------------------------------------------------
  free energy    TOTEN  =      -830.14272644 eV

  energy without entropy =     -830.06107042  energy(sigma->0) =     -830.10189843


--------------------------------------------------------------------------------------------------------




--------------------------------------- Iteration      1(  14)  ---------------------------------------


    POTLOK:  cpu time      0.3197: real time      0.3196
    SETDIJ:  cpu time      0.0403: real time      0.0403
     EDDAV:  cpu time     10.3394: real time     10.3436
       DOS:  cpu time      0.0008: real time      0.0008
    CHARGE:  cpu time      1.1548: real time      1.1565
    MIXING:  cpu time      0.3251: real time      0.3263
    --------------------------------------------
      LOOP:  cpu time     12.1801: real time     12.1870

 eigenvalue-minimisations  :  1600
 total energy-change (2. order) :-0.1381841E-01  (-0.1151276E-03)
 number of electron     367.9999999 magnetization 
 augmentation part        9.0956943 magnetization 

 Broyden mixing:
  rms(total) = 0.63385E-02    rms(broyden)= 0.63381E-02
  rms(prec ) = 0.86066E-02
  weight for this iteration     100.00

 eigenvalues of (default mixing * dielectric matrix)
  average eigenvalue GAMMA=   2.1649
  6.1274  2.6878  2.6878  1.8254  1.8254  1.3367  1.0841  0.9547  0.9547

 Free energy of the ion-electron system (eV)
  ---------------------------------------------------
  alpha Z        PSCENC =        91.34886789
  Ewald energy   TEWEN  =    119979.44016704
  -Hartree energ DENC   =   -131045.14224201
  -exchange      EXHF   =         0.00000000
  -V(xc)+E(xc)   XCENC  =      1278.20679249
  PAW double counting   =     40937.05602133   -41001.05815714
  entropy T*S    EENTRO =        -0.08167450
  eigenvalues    EBANDS =     -4607.58111386
  atomic energy  EATOM  =     13537.65479391
  Solvation  Ediel_sol  =         0.00000000
  ---------------------------------------------------
  free energy    TOTEN  =      -830.15654485 eV

  energy without entropy =     -830.07487035  energy(sigma->0) =     -830.11570760


--------------------------------------------------------------------------------------------------------




--------------------------------------- Iteration      1(  15)  ---------------------------------------


    POTLOK:  cpu time      0.3206: real time      0.3206
    SETDIJ:  cpu time      0.0402: real time      0.0401
     EDDAV:  cpu time     10.0846: real time     10.0901
       DOS:  cpu time      0.0007: real time      0.0007
    CHARGE:  cpu time      1.1544: real time      1.1559
    MIXING:  cpu time      0.3305: real time      0.3305
    --------------------------------------------
      LOOP:  cpu time     11.9310: real time     11.9380

 eigenvalue-minimisations  :  1552
 total energy-change (2. order) :-0.2155885E-01  (-0.2017567E-03)
 number of electron     367.9999999 magnetization 
 augmentation part        9.0951156 magnetization 

 Broyden mixing:
  rms(total) = 0.31064E-02    rms(broyden)= 0.31059E-02
  rms(prec ) = 0.43291E-02
  weight for this iteration     100.00

 eigenvalues of (default mixing * dielectric matrix)
  average eigenvalue GAMMA=   2.2219
  7.0982  3.4483  2.1815  2.1815  1.7583  1.2964  1.2964  0.9617  0.9617  1.0345

 Free energy of the ion-electron system (eV)
  ---------------------------------------------------
  alpha Z        PSCENC =        91.34886789
  Ewald energy   TEWEN  =    119979.44016704
  -Hartree energ DENC   =   -131056.83107495
  -exchange      EXHF   =         0.00000000
  -V(xc)+E(xc)   XCENC  =      1278.20426451
  PAW double counting   =     40959.26917886   -41023.27231254
  entropy T*S    EENTRO =        -0.08169692
  eigenvalues    EBANDS =     -4595.91029149
  atomic energy  EATOM  =     13537.65479391
  Solvation  Ediel_sol  =         0.00000000
  ---------------------------------------------------
  free energy    TOTEN  =      -830.17810370 eV

  energy without entropy =     -830.09640678  energy(sigma->0) =     -830.13725524


--------------------------------------------------------------------------------------------------------




--------------------------------------- Iteration      1(  16)  ---------------------------------------


    POTLOK:  cpu time      0.3195: real time      0.3195
    SETDIJ:  cpu time      0.0403: real time      0.0403
     EDDAV:  cpu time     10.4603: real time     10.4655
       DOS:  cpu time      0.0008: real time      0.0008
    CHARGE:  cpu time      1.1651: real time      1.1654
    MIXING:  cpu time      0.3389: real time      0.3399
    --------------------------------------------
      LOOP:  cpu time     12.3249: real time     12.3314

 eigenvalue-minimisations  :  1624
 total energy-change (2. order) :-0.8160637E-02  (-0.4253928E-04)
 number of electron     367.9999999 magnetization 
 augmentation part        9.0950484 magnetization 

 Broyden mixing:
  rms(total) = 0.25613E-02    rms(broyden)= 0.25612E-02
  rms(prec ) = 0.31359E-02
  weight for this iteration     100.00

 eigenvalues of (default mixing * dielectric matrix)
  average eigenvalue GAMMA=   2.3352
  7.6596  3.9940  2.4609  2.4609  1.8974  1.5918  1.5918  1.0075  1.0075  1.0081
  1.0081

 Free energy of the ion-electron system (eV)
  ---------------------------------------------------
  alpha Z        PSCENC =        91.34886789
  Ewald energy   TEWEN  =    119979.44016704
  -Hartree energ DENC   =   -131060.92585189
  -exchange      EXHF   =         0.00000000
  -V(xc)+E(xc)   XCENC  =      1278.17813426
  PAW double counting   =     40940.26689632   -41004.27206589
  entropy T*S    EENTRO =        -0.08170899
  eigenvalues    EBANDS =     -4591.79549698
  atomic energy  EATOM  =     13537.65479391
  Solvation  Ediel_sol  =         0.00000000
  ---------------------------------------------------
  free energy    TOTEN  =      -830.18626434 eV

  energy without entropy =     -830.10455535  energy(sigma->0) =     -830.14540985


--------------------------------------------------------------------------------------------------------




--------------------------------------- Iteration      1(  17)  ---------------------------------------


    POTLOK:  cpu time      0.3205: real time      0.3206
    SETDIJ:  cpu time      0.0404: real time      0.0405
     EDDAV:  cpu time     10.3634: real time     10.3673
       DOS:  cpu time      0.0008: real time      0.0008
    CHARGE:  cpu time      1.1550: real time      1.1559
    MIXING:  cpu time      0.3525: real time      0.3524
    --------------------------------------------
      LOOP:  cpu time     12.2326: real time     12.2374

 eigenvalue-minimisations  :  1608
 total energy-change (2. order) :-0.6489189E-02  (-0.5109952E-04)
 number of electron     367.9999999 magnetization 
 augmentation part        9.0949575 magnetization 

 Broyden mixing:
  rms(total) = 0.12366E-02    rms(broyden)= 0.12365E-02
  rms(prec ) = 0.15131E-02
  weight for this iteration     100.00

 eigenvalues of (default mixing * dielectric matrix)
  average eigenvalue GAMMA=   2.3311
  8.3384  4.4743  2.4979  2.1774  2.1774  1.5180  1.5180  1.1926  1.1926  0.9629
  0.9629  0.9604

 Free energy of the ion-electron system (eV)
  ---------------------------------------------------
  alpha Z        PSCENC =        91.34886789
  Ewald energy   TEWEN  =    119979.44016704
  -Hartree energ DENC   =   -131063.53903043
  -exchange      EXHF   =         0.00000000
  -V(xc)+E(xc)   XCENC  =      1278.17718047
  PAW double counting   =     40950.71370602   -41014.71312758
  entropy T*S    EENTRO =        -0.08170276
  eigenvalues    EBANDS =     -4589.19360809
  atomic energy  EATOM  =     13537.65479391
  Solvation  Ediel_sol  =         0.00000000
  ---------------------------------------------------
  free energy    TOTEN  =      -830.19275353 eV

  energy without entropy =     -830.11105077  energy(sigma->0) =     -830.15190215


--------------------------------------------------------------------------------------------------------




--------------------------------------- Iteration      1(  18)  ---------------------------------------


    POTLOK:  cpu time      0.3206: real time      0.3206
    SETDIJ:  cpu time      0.0401: real time      0.0401
     EDDAV:  cpu time     11.0156: real time     11.0197
       DOS:  cpu time      0.0007: real time      0.0007
    CHARGE:  cpu time      1.1535: real time      1.1571
    MIXING:  cpu time      0.3616: real time      0.3618
    --------------------------------------------
      LOOP:  cpu time     12.8921: real time     12.9001

 eigenvalue-minimisations  :  1736
 total energy-change (2. order) :-0.1452098E-02  (-0.5620609E-05)
 number of electron     367.9999999 magnetization 
 augmentation part        9.0948248 magnetization 

 Broyden mixing:
  rms(total) = 0.85429E-03    rms(broyden)= 0.85420E-03
  rms(prec ) = 0.10352E-02
  weight for this iteration     100.00

 eigenvalues of (default mixing * dielectric matrix)
  average eigenvalue GAMMA=   2.3559
  8.7277  4.7439  2.6723  2.6723  1.5512  1.5512  1.7647  1.5956  1.3055  0.9703
  0.9703  0.9804  1.1207

 Free energy of the ion-electron system (eV)
  ---------------------------------------------------
  alpha Z        PSCENC =        91.34886789
  Ewald energy   TEWEN  =    119979.44016704
  -Hartree energ DENC   =   -131064.31614573
  -exchange      EXHF   =         0.00000000
  -V(xc)+E(xc)   XCENC  =      1278.17787984
  PAW double counting   =     40949.26834748   -41013.26957607
  entropy T*S    EENTRO =        -0.08169999
  eigenvalues    EBANDS =     -4588.41683997
  atomic energy  EATOM  =     13537.65479391
  Solvation  Ediel_sol  =         0.00000000
  ---------------------------------------------------
  free energy    TOTEN  =      -830.19420563 eV

  energy without entropy =     -830.11250563  energy(sigma->0) =     -830.15335563


--------------------------------------------------------------------------------------------------------




--------------------------------------- Iteration      1(  19)  ---------------------------------------


    POTLOK:  cpu time      0.3206: real time      0.3207
    SETDIJ:  cpu time      0.0402: real time      0.0402
     EDDAV:  cpu time     10.0869: real time     10.0909
       DOS:  cpu time      0.0007: real time      0.0007
    CHARGE:  cpu time      1.1550: real time      1.1559
    MIXING:  cpu time      0.3742: real time      0.3742
    --------------------------------------------
      LOOP:  cpu time     11.9777: real time     11.9826

 eigenvalue-minimisations  :  1552
 total energy-change (2. order) :-0.1210711E-02  (-0.4508943E-05)
 number of electron     367.9999999 magnetization 
 augmentation part        9.0949238 magnetization 

 Broyden mixing:
  rms(total) = 0.44482E-03    rms(broyden)= 0.44478E-03
  rms(prec ) = 0.54863E-03
  weight for this iteration     100.00

 eigenvalues of (default mixing * dielectric matrix)
  average eigenvalue GAMMA=   2.3734
  8.9193  5.4060  3.0530  2.3947  2.0212  2.0212  1.6022  1.6022  1.1925  1.1925
  0.9529  0.9529  0.9995  0.9171

 Free energy of the ion-electron system (eV)
  ---------------------------------------------------
  alpha Z        PSCENC =        91.34886789
  Ewald energy   TEWEN  =    119979.44016704
  -Hartree energ DENC   =   -131064.50972323
  -exchange      EXHF   =         0.00000000
  -V(xc)+E(xc)   XCENC  =      1278.17133436
  PAW double counting   =     40945.07991150   -41009.07852919
  entropy T*S    EENTRO =        -0.08170015
  eigenvalues    EBANDS =     -4588.22053846
  atomic energy  EATOM  =     13537.65479391
  Solvation  Ediel_sol  =         0.00000000
  ---------------------------------------------------
  free energy    TOTEN  =      -830.19541634 eV

  energy without entropy =     -830.11371619  energy(sigma->0) =     -830.15456626


--------------------------------------------------------------------------------------------------------




--------------------------------------- Iteration      1(  20)  ---------------------------------------


    POTLOK:  cpu time      0.3205: real time      0.3206
    SETDIJ:  cpu time      0.0402: real time      0.0401
     EDDAV:  cpu time      9.3157: real time      9.3193
       DOS:  cpu time      0.0007: real time      0.0007
    CHARGE:  cpu time      1.1553: real time      1.1558
    MIXING:  cpu time      0.3858: real time      0.3858
    --------------------------------------------
      LOOP:  cpu time     11.2182: real time     11.2224

 eigenvalue-minimisations  :  1392
 total energy-change (2. order) :-0.4915225E-03  (-0.1342368E-05)
 number of electron     367.9999999 magnetization 
 augmentation part        9.0948852 magnetization 

 Broyden mixing:
  rms(total) = 0.34978E-03    rms(broyden)= 0.34976E-03
  rms(prec ) = 0.39790E-03
  weight for this iteration     100.00

 eigenvalues of (default mixing * dielectric matrix)
  average eigenvalue GAMMA=   2.3803
  9.1424  5.6313  3.4092  2.5234  2.0740  2.0740  1.5520  1.5520  1.3436  1.3436
  1.0051  0.9758  0.9758  1.0508  1.0508

 Free energy of the ion-electron system (eV)
  ---------------------------------------------------
  alpha Z        PSCENC =        91.34886789
  Ewald energy   TEWEN  =    119979.44016704
  -Hartree energ DENC   =   -131064.79205516
  -exchange      EXHF   =         0.00000000
  -V(xc)+E(xc)   XCENC  =      1278.17300384
  PAW double counting   =     40946.08140377   -41010.08086123
  entropy T*S    EENTRO =        -0.08169940
  eigenvalues    EBANDS =     -4587.93952851
  atomic energy  EATOM  =     13537.65479391
  Solvation  Ediel_sol  =         0.00000000
  ---------------------------------------------------
  free energy    TOTEN  =      -830.19590786 eV

  energy without entropy =     -830.11420846  energy(sigma->0) =     -830.15505816


--------------------------------------------------------------------------------------------------------




--------------------------------------- Iteration      1(  21)  ---------------------------------------


    POTLOK:  cpu time      0.3210: real time      0.3211
    SETDIJ:  cpu time      0.0402: real time      0.0402
     EDDAV:  cpu time      8.9660: real time      8.9694
       DOS:  cpu time      0.0007: real time      0.0007
    CHARGE:  cpu time      1.1663: real time      1.1673
    MIXING:  cpu time      0.3981: real time      0.3988
    --------------------------------------------
      LOOP:  cpu time     10.8924: real time     10.8976

 eigenvalue-minimisations  :  1320
 total energy-change (2. order) :-0.2300362E-03  (-0.3131536E-06)
 number of electron     367.9999999 magnetization 
 augmentation part        9.0948716 magnetization 

 Broyden mixing:
  rms(total) = 0.18568E-03    rms(broyden)= 0.18567E-03
  rms(prec ) = 0.21366E-03
  weight for this iteration     100.00

 eigenvalues of (default mixing * dielectric matrix)
  average eigenvalue GAMMA=   2.3886
  9.1532  6.0690  3.6975  2.5580  2.3931  2.0407  1.6271  1.6271  1.6605  1.2969
  1.1193  1.1193  0.9762  0.9762  0.9514  0.9514

 Free energy of the ion-electron system (eV)
  ---------------------------------------------------
  alpha Z        PSCENC =        91.34886789
  Ewald energy   TEWEN  =    119979.44016704
  -Hartree energ DENC   =   -131064.89241504
  -exchange      EXHF   =         0.00000000
  -V(xc)+E(xc)   XCENC  =      1278.17292322
  PAW double counting   =     40945.30713120   -41009.30721156
  entropy T*S    EENTRO =        -0.08169938
  eigenvalues    EBANDS =     -4587.83869516
  atomic energy  EATOM  =     13537.65479391
  Solvation  Ediel_sol  =         0.00000000
  ---------------------------------------------------
  free energy    TOTEN  =      -830.19613790 eV

  energy without entropy =     -830.11443851  energy(sigma->0) =     -830.15528821


[...]
   -.149E+02 -.468E+01 -.779E+02   0.156E+02 0.395E+01 0.783E+02   0.655E+00 -.780E+00 -.144E+01   0.267E-07 0.766E-06 -.924E-06
   -.320E+02 -.193E+02 -.168E+03   0.322E+02 0.197E+02 0.169E+03   -.116E+01 -.460E+00 -.133E+01   0.463E-05 0.226E-05 -.161E-05
   0.274E+02 0.233E+02 0.282E+02   -.290E+02 -.240E+02 -.284E+02   -.379E+00 0.997E+00 0.158E+01   0.613E-05 -.808E-05 -.666E-06
   -.306E+01 0.482E+01 -.697E+02   0.289E+01 -.475E+01 0.694E+02   -.378E+00 0.181E+00 0.111E+01   -.104E-05 0.834E-05 -.402E-06
   0.788E+01 0.140E+01 -.114E+02   -.796E+01 -.233E+01 0.124E+02   -.815E+00 -.936E+00 -.884E+00   -.117E-05 -.492E-05 0.936E-06
   -.102E+02 -.176E+02 -.607E+02   0.105E+02 0.191E+02 0.611E+02   -.590E+00 0.993E+00 0.302E+00   -.665E-05 -.607E-06 0.290E-05
   0.257E+02 0.172E+02 0.722E+02   -.258E+02 -.177E+02 -.733E+02   0.103E+01 0.127E+00 0.171E+01   -.984E-05 -.389E-05 0.291E-05
   -.133E+02 -.311E+01 -.650E+02   0.129E+02 0.344E+01 0.649E+02   -.438E+00 -.379E+00 -.360E-01   -.363E-05 -.103E-06 0.264E-05
   -.158E+01 -.505E+00 -.528E+01   0.189E+01 0.121E-01 0.592E+01   -.230E-01 -.142E+01 -.144E+01   -.477E-05 -.112E-06 0.141E-05
   -.186E+02 -.112E+02 -.391E+02   0.198E+02 0.118E+02 0.392E+02   -.195E+00 0.180E+00 -.199E+01   0.213E-05 -.155E-05 0.512E-06
   0.111E+02 0.159E+02 0.117E+03   -.106E+02 -.165E+02 -.118E+03   0.555E+00 -.396E+00 0.732E+00   0.115E-05 0.585E-06 -.940E-06
   0.302E+02 0.187E+02 0.134E+03   -.316E+02 -.203E+02 -.135E+03   0.155E+00 -.214E+00 0.293E+01   0.547E-06 -.190E-05 -.251E-06
   0.248E+02 -.211E+02 0.110E+03   -.253E+02 0.228E+02 -.109E+03   0.951E-01 0.716E+00 -.137E+01   0.186E-05 0.164E-05 -.362E-06
   0.815E+01 -.430E+01 0.957E+02   -.772E+01 0.402E+01 -.956E+02   0.368E-01 -.164E+00 0.665E-01   -.242E-05 -.183E-05 0.119E-05
   0.117E+02 0.886E+01 0.157E+03   -.117E+02 -.919E+01 -.158E+03   0.433E+00 0.262E+00 0.542E+00   0.113E-05 0.388E-05 0.224E-06
   0.157E+01 0.738E+01 0.436E+02   -.241E+01 -.793E+01 -.432E+02   -.481E+00 0.886E-01 -.100E+01   0.208E-05 0.719E-07 0.160E-05
   0.144E+01 -.171E+02 0.116E+03   -.185E+01 0.184E+02 -.116E+03   -.586E-01 0.415E+00 -.420E+00   0.901E-06 0.449E-05 0.744E-06
   -.768E+01 -.722E+00 0.462E+02   0.810E+01 -.298E+00 -.463E+02   -.141E+00 -.118E+01 0.242E+00   0.662E-05 0.330E-05 0.221E-05
   -.231E+02 0.181E+02 0.160E+03   0.240E+02 -.197E+02 -.160E+03   0.319E+00 -.453E+00 0.152E+01   0.209E-05 0.391E-05 0.452E-06
   -.160E+01 0.271E+01 0.181E+02   0.108E+01 -.178E+01 -.182E+02   -.954E+00 0.116E+01 0.327E+00   0.111E-05 -.204E-05 0.777E-06
   0.499E+01 -.188E+02 0.524E+02   -.651E+01 0.192E+02 -.516E+02   -.102E+00 -.410E+00 -.206E+01   -.898E-06 -.816E-06 -.865E-07
   -.652E+01 0.110E+02 -.399E+02   0.737E+01 -.124E+02 0.402E+02   0.928E-01 -.364E+00 -.557E+00   -.340E-05 0.373E-06 -.350E-06
   -.380E+02 0.103E+02 0.126E+03   0.394E+02 -.106E+02 -.127E+03   -.279E+00 0.136E+01 0.259E+01   -.141E-05 0.349E-05 -.200E-05
   0.114E+02 0.112E+02 -.109E+03   -.108E+02 -.114E+02 0.110E+03   0.107E+01 -.418E+00 -.108E+01   -.617E-06 -.446E-05 0.113E-05
   -.347E+01 -.234E+02 -.151E+02   0.323E+01 0.244E+02 0.153E+02   -.962E+00 -.570E+00 -.111E+01   0.536E-05 0.500E-05 0.386E-07
   0.179E+01 0.184E+02 -.819E+02   -.210E+01 -.192E+02 0.818E+02   0.291E+00 -.164E+00 0.287E+00   0.224E-05 -.293E-05 0.533E-06
   -.167E+02 -.661E+01 0.253E+02   0.159E+02 0.737E+01 -.270E+02   -.151E+01 -.416E+00 0.148E+01   0.674E-05 0.956E-05 -.451E-06
   0.162E+02 0.645E+02 -.124E+03   -.191E+02 -.654E+02 0.124E+03   0.106E+01 0.168E+01 -.160E+00   0.958E-06 0.342E-05 0.866E-06
   0.913E+01 -.633E+02 -.102E+03   -.112E+02 0.636E+02 0.104E+03   0.222E+01 -.237E+01 -.717E+00   -.259E-05 0.306E-05 -.117E-05
   -.291E+02 0.606E+02 0.163E+03   0.319E+02 -.622E+02 -.164E+03   -.196E+01 0.818E+00 0.109E+01   -.467E-05 0.387E-05 -.786E-06
   -.168E+02 -.627E+02 0.125E+03   0.189E+02 0.636E+02 -.126E+03   -.211E+01 -.217E+01 0.947E+00   -.113E-05 0.278E-05 0.795E-06
   0.692E+00 0.440E+01 0.621E+02   -.147E+01 -.339E+01 -.623E+02   0.359E+00 0.199E+01 -.107E+01   0.117E-05 0.138E-05 0.492E-06
   0.511E+01 -.197E+01 -.206E+02   -.361E+01 0.203E+01 0.222E+02   0.121E+01 -.381E+00 -.888E+00   -.478E-05 -.450E-06 -.133E-05
   0.606E+01 0.896E+01 0.180E+02   -.643E+01 -.911E+01 -.185E+02   0.815E+00 0.278E+00 0.616E+00   -.373E-05 0.911E-06 -.162E-05
   0.122E+02 -.179E+02 -.192E+02   -.134E+02 0.188E+02 0.185E+02   -.744E+00 0.234E+00 0.420E+00   -.621E-05 -.142E-05 -.193E-05
   0.102E+02 0.186E+01 -.595E+02   -.108E+02 -.328E+01 0.599E+02   0.466E+00 -.875E+00 -.744E+00   -.215E-05 0.566E-05 -.250E-05
   0.182E+02 0.121E+02 -.126E+03   -.173E+02 -.122E+02 0.127E+03   0.652E+00 0.116E+00 -.107E+01   -.747E-06 -.111E-05 -.523E-06
   0.160E+01 0.798E+01 -.128E+02   -.832E+00 -.766E+01 0.122E+02   0.685E+00 0.798E+00 0.225E+01   0.154E-05 0.986E-06 -.132E-05
   0.915E+01 -.127E+02 -.967E+02   -.101E+02 0.129E+02 0.964E+02   -.786E+00 0.574E-01 -.405E-01   0.275E-05 0.526E-06 -.818E-06
   0.579E+01 -.276E+01 -.980E+02   -.693E+01 0.185E+01 0.985E+02   -.698E+00 -.123E+01 -.135E+01   0.429E-05 0.117E-05 -.162E-05
   0.422E+01 0.904E+01 -.157E+03   -.406E+01 -.834E+01 0.157E+03   0.239E+00 -.277E+00 -.265E+00   0.319E-05 0.321E-05 -.788E-06
   -.145E+01 0.708E+01 -.846E+02   0.170E+01 -.633E+01 0.845E+02   -.799E-01 -.398E-01 -.120E+00   0.452E-05 -.948E-06 -.189E-05
   -.561E+01 -.147E+02 -.139E+03   0.570E+01 0.151E+02 0.139E+03   -.130E-01 -.815E+00 -.215E+00   0.389E-05 0.129E-05 -.179E-05
   -.380E+01 -.305E+01 -.107E+02   0.411E+01 0.312E+01 0.105E+02   -.280E+00 -.718E+00 -.180E+00   -.585E-06 -.195E-05 -.466E-06
   -.190E+02 0.130E+02 -.152E+03   0.187E+02 -.134E+02 0.152E+03   -.113E+01 0.312E+00 0.978E+00   0.116E-05 0.388E-05 -.273E-06
   0.899E+01 0.113E+02 0.419E+02   -.836E+01 -.126E+02 -.432E+02   0.728E+00 -.131E+01 0.189E+01   -.397E-05 -.229E-06 0.807E-06
   -.235E+02 -.823E+01 -.143E+03   0.238E+02 0.886E+01 0.144E+03   -.111E+01 0.967E+00 -.172E+01   -.228E-05 0.347E-05 0.342E-06
   0.202E+02 -.699E+01 0.438E+02   -.205E+02 0.751E+01 -.436E+02   -.147E+00 0.613E+00 -.631E+00   -.460E-06 -.223E-05 -.547E-06
   -.205E+02 0.367E+01 -.120E+03   0.209E+02 -.310E+01 0.120E+03   0.765E+00 -.782E-01 0.156E+00   0.140E-06 0.309E-06 0.329E-06
   0.160E+02 0.126E+02 0.475E+02   -.160E+02 -.140E+02 -.480E+02   -.826E-01 -.635E+00 0.464E+00   0.399E-06 0.117E-05 -.273E-06
   -.262E+01 -.153E+02 -.376E+02   0.243E+01 0.162E+02 0.376E+02   0.624E+00 0.422E-01 -.162E+00   -.360E-06 0.286E-05 0.648E-06
   0.273E+02 -.121E+02 0.581E+02   -.286E+02 0.130E+02 -.580E+02   -.129E+01 0.192E+00 0.258E-01   -.316E-05 -.375E-05 -.100E-06
   0.619E+01 0.133E+02 -.334E+02   -.726E+01 -.141E+02 0.341E+02   0.129E+00 0.308E+00 -.167E+00   -.269E-05 0.326E-05 0.181E-05
   0.847E+01 -.484E+00 0.641E+02   -.792E+01 0.128E+01 -.638E+02   -.466E+00 -.276E+00 -.120E+01   -.591E-06 0.129E-05 -.638E-06
   0.237E+01 -.726E+01 0.290E+02   -.154E+01 0.687E+01 -.296E+02   0.827E+00 -.134E+01 0.136E+00   -.102E-05 0.135E-05 0.573E-06
   0.262E+02 -.135E+02 0.177E+03   -.253E+02 0.141E+02 -.178E+03   0.137E+01 -.453E+00 0.915E+00   0.141E-05 0.208E-05 -.169E-05
   -.255E+01 0.142E+02 0.276E+02   0.264E+01 -.145E+02 -.276E+02   -.413E+00 0.382E+00 0.628E-01   0.262E-05 -.315E-05 -.813E-06
   0.282E+02 0.150E+02 0.197E+03   -.286E+02 -.155E+02 -.197E+03   -.274E+00 0.412E+00 0.797E+00   0.129E-05 0.233E-05 0.120E-06
   0.231E+02 -.103E+02 0.117E+03   -.234E+02 0.101E+02 -.117E+03   -.127E+00 0.231E+00 0.382E+00   0.504E-06 0.239E-06 0.323E-06
   0.184E+02 -.106E+02 0.191E+03   -.185E+02 0.108E+02 -.191E+03   -.796E+00 0.892E-01 -.279E+00   0.103E-05 -.143E-05 0.737E-06
   0.123E+02 0.682E+01 0.105E+03   -.133E+02 -.624E+01 -.105E+03   -.471E+00 0.698E+00 -.494E+00   -.403E-05 -.254E-05 0.129E-05
   -.434E+01 0.493E+01 0.210E+03   0.442E+01 -.482E+01 -.210E+03   -.566E+00 0.149E+00 0.506E+00   0.103E-05 -.138E-05 0.109E-05
   -.103E+02 -.333E+01 0.158E+03   0.117E+02 0.284E+01 -.159E+03   0.915E+00 -.371E+00 0.699E+00   -.208E-05 -.436E-05 0.583E-06
   -.184E+02 -.158E+02 0.194E+03   0.190E+02 0.172E+02 -.194E+03   0.444E-01 0.610E+00 -.908E-02   0.307E-05 -.804E-06 0.108E-05
   -.938E+01 0.166E+02 0.925E+02   0.924E+01 -.168E+02 -.921E+02   0.372E+00 -.742E-01 -.107E+01   0.503E-05 -.128E-05 0.944E-06
   -.238E+02 0.102E+02 0.162E+03   0.240E+02 -.109E+02 -.162E+03   0.684E-01 -.350E+00 -.184E+00   0.157E-05 0.182E-05 0.165E-07
   -.230E+02 -.123E+02 0.152E+03   0.232E+02 0.130E+02 -.153E+03   0.240E+00 -.557E-01 0.138E+01   0.401E-05 -.536E-05 -.530E-06
   -.182E+02 -.897E+01 0.128E+03   0.172E+02 0.907E+01 -.128E+03   0.392E+00 0.429E+00 -.883E+00   0.619E-06 0.364E-05 -.113E-05
   -.155E+02 0.102E+02 0.836E+02   0.148E+02 -.103E+02 -.832E+02   -.106E+00 0.618E+00 -.176E+00   0.158E-05 -.288E-05 -.705E-06
   -.306E+02 -.105E+01 0.127E+03   0.308E+02 0.257E+01 -.127E+03   0.855E+00 0.120E+01 0.745E-01   0.870E-05 0.407E-06 0.841E-06
   -.349E+02 -.432E+01 0.130E+03   0.351E+02 0.265E+01 -.131E+03   -.454E+00 -.105E+01 0.136E+01   0.433E-05 -.381E-05 -.349E-06
   -.298E+02 0.415E+00 0.981E+02   0.290E+02 -.651E+00 -.983E+02   0.731E+00 -.665E+00 -.446E+00   0.298E-05 0.453E-06 -.455E-06
   -.315E+02 0.389E+01 0.203E+02   0.326E+02 -.380E+01 -.193E+02   0.124E+01 0.258E+00 -.111E+01   -.239E-06 -.493E-05 -.169E-05
   -.460E+02 0.588E+02 0.150E+03   0.450E+02 -.588E+02 -.152E+03   0.109E+01 0.227E+01 0.130E+01   -.122E-04 -.126E-05 -.244E-05
   -.216E+02 -.745E+02 0.108E+03   0.182E+02 0.759E+02 -.110E+03   -.125E+00 -.167E+01 0.114E+01   -.263E-05 -.466E-05 -.142E-05
 -----------------------------------------------------------------------------------------------
   -.832E+00 0.539E+00 -.431E+00   0.316E-12 0.142E-12 -.114E-11   0.862E+00 -.524E+00 0.388E+00   0.495E-05 0.181E-05 -.146E-04
 
 
 POSITION                                       TOTAL-FORCE (eV/Angst)
 -----------------------------------------------------------------------------------
      1.05328      1.17980     15.46470        -0.715979      2.541126      0.384859
      1.04423      2.60468     15.35710         2.933942     -1.484938      0.424324
      2.21804      0.53799     15.60200         0.670739     -2.149471     -0.055597
      2.29779      3.17795     15.31590         0.385690     -0.426730      1.825665
      3.42847      1.16687     15.92400         1.652009      0.377837      1.223936
      3.49255      2.52700     15.90070        -1.862691      1.132065     -1.345567
      4.68951      0.54213     16.17310        -0.719985     -1.095242     -0.107122
      4.70981      3.19390     16.05450         1.462153      1.707989     -0.488760
      5.92179      1.21503     16.36990         1.034924     -1.548739      0.218714
      5.98559      2.55125     16.27130        -1.925488      2.543399     -0.600221
      7.20162      0.58901     16.43750         0.184073     -1.774294     -0.385601
      7.21618      3.22403     16.10010         0.673008      0.755021      0.200213
      8.48350      1.20061     16.30960        -0.335714      1.056338      0.067002
      8.46192      2.56821     16.02960         0.319209      0.333261      0.631814
      9.72880      0.53044     16.26590         2.304403      1.746592     -0.979378
      9.65751      3.29217     15.73220         0.627683     -1.368001      0.135793
     10.99490      1.23385     15.92620        -0.819742      1.479940      0.262563
     10.91140      2.62799     15.65430         1.327336     -1.510002     -1.005524
     12.26570      0.60294     15.68260        -0.989692      0.011048     -0.731638
     12.12420      3.25706     15.10430        -1.998958      0.288842      1.368108
     13.42660      1.26363     15.14190        -0.551330      0.251920      0.839701
     13.36210      2.64282     14.91530        -0.894541     -1.858163      0.078827
     14.62650      0.57502     14.81660        -0.295597      2.437224      0.681108
     14.48370      3.30126     14.42880         0.966682     -0.343018      0.555652
     15.81970      1.28355     14.48640        -0.846601     -0.048523     -0.076192
     15.72480      2.67134     14.28430         0.286030     -1.908768     -0.789299
     16.97870      0.58773     14.13000         1.025769      0.741305     -1.930759
     16.83190      3.30213     13.71400         1.057094     -1.043094      0.145290
     18.12330      1.25259     13.52070        -1.254807     -1.821186      2.632104
     18.07660      2.58905     13.48490        -0.318450      2.398446     -0.689282
     19.34510      0.57332     13.42800         0.463183     -0.450329      0.193884
     19.30210      3.23868     13.20360         0.458193     -0.073190      0.003699
     20.58340      1.23401     13.47210        -1.325543     -0.460840     -0.602503
     20.56020      2.57106     13.27740        -0.476602      1.780779     -0.241561
     21.79220      0.58326     13.53570         0.282095     -2.201593      0.137141
     21.79410      3.24395     13.19170         1.272998     -2.126411      1.245706
     23.02040      1.19208     13.74380        -1.477809      2.090021      0.198574
     23.03860      2.56951     13.59400        -1.625231     -0.045338     -1.291349
     24.18390      0.55486     14.04150         0.942963     -1.687786     -0.307075
     24.27050      3.18539     13.62280         1.096816      1.102573      1.780507
     25.33490      1.23605     14.44690         1.706540     -0.585693     -0.267029
     25.44840      2.58433     14.21960        -1.202481      0.446429     -0.878237
     26.57040      0.53999     14.66480        -0.024665     -0.960018      0.208917
     26.69850      3.25787     14.37450        -2.350334      0.342296     -0.228453
     27.70260      1.20747     15.08070        -1.883569      0.742228     -0.112555
     27.71310      2.62397     14.97590         0.098722     -2.093690      0.352955
      1.34375      5.24519     14.44910         0.895061     -0.791064      0.651353
      1.31874      6.64925     14.57570         0.055017     -1.225702     -0.029018
      2.39450      4.49534     15.00680        -0.415446      3.009827     -1.204159
      2.30096      7.29530     15.22870         2.711157     -0.322613      0.666001
      3.56714      5.21978     15.37130         0.446078      0.132500      0.120758
      3.57640      6.59157     15.49950        -1.965667      1.128310     -0.317552
      4.75281      4.58882     15.77850        -0.140895     -2.296517     -0.260830
      4.71901      7.26150     15.99310         1.541825     -0.024746     -0.312215
      5.98264      5.24112     15.84470         1.450259      1.123033      1.631851
      6.01191      6.61702     16.05610        -1.712335      0.280603     -0.364902
      7.25069      4.62790     16.04000        -1.843474     -2.138201     -0.930302
      7.22784      7.29972     16.28910         0.396264      0.418370      0.189314
      8.46454      5.29687     15.97980         0.168078      0.714578     -0.211695
      8.49416      6.66159     16.17550         0.070357     -0.422820     -0.361305
      9.66602      4.66815     15.66160         0.025241     -0.654276     -0.319680
      9.78233      7.27725     16.12160        -1.416320     -0.131312      1.032628
     10.87350      5.34760     15.38010         1.355639     -2.628066      0.585546
     11.00000      6.62275     15.80720        -0.813179      1.595793     -0.700445
     12.08860      4.63519     15.03870        -0.384342      1.128028     -0.485924
     12.19870      7.31098     15.56680         1.205659      0.489827      0.180872
     13.30190      5.34184     14.76970        -0.055302     -1.971731     -0.033465
     13.34040      6.66938     15.03050         0.434817      0.948437     -0.074463
     14.52050      4.65980     14.39070        -2.538874      1.044294      0.161082
     14.57010      7.33240     14.72510        -0.935636     -0.432585      0.577608
     15.68270      5.33382     14.08350         0.089246      0.518540     -0.874572
     15.70150      6.70915     14.25380         1.649826     -1.725461     -0.461613
     16.78990      4.66263     13.56120         2.327445      0.154941      0.005142
     16.94160      7.32036     13.97110        -0.319911      0.097032      0.112409
     18.06080      5.28864     13.24740        -0.612657     -0.104622      0.467185
     18.09750      6.64368     13.47300        -0.449283      0.064407      0.035742
     19.31830      4.60809     13.07430        -0.903201      0.287779     -0.370541
     19.34010      7.28904     13.35370        -1.465631      1.279704      0.147503
     20.56460      5.26699     12.98500        -0.480747      0.254665      0.254802
     20.52950      6.64803     13.15740         2.385913     -0.865183      0.112218
     21.80340      4.58126     13.05020         0.632123      2.048939     -0.123221
     21.77640      7.31034     13.36010         0.224318     -0.308952     -0.621439
     23.05090      5.26865     13.23170         0.210272     -1.062322     -0.364851
     23.03280      6.64010     13.32010         0.425866      0.601100      0.785578
     24.27660      4.56787     13.50040        -0.521547      0.529753     -0.874664
     24.25370      7.29751     13.69540        -0.741186      0.535783      0.198186
     25.48960      5.22316     13.71130         1.119302      2.717925     -0.136197
     25.49850      6.66847     13.77690        -0.225878     -2.716970      0.458795
     26.72230      4.60213     14.04080        -0.071690     -0.900749     -0.585322
     26.65250      7.29456     14.27540         2.290328      0.352363     -0.100373
     27.93220      5.24021     14.12740         0.090214      2.285542     -0.280929
     27.94720      6.64440     14.26050        -3.523552     -0.259804     -0.658248
 -----------------------------------------------------------------------------------
    total drift:                                0.029808      0.015135     -0.042591


--------------------------------------------------------------------------------------------------------



  FREE ENERGIE OF THE ION-ELECTRON SYSTEM (eV)
  ---------------------------------------------------
  free  energy   TOTEN  =      -830.19632525 eV

  energy  without entropy=     -830.11462482  energy(sigma->0) =     -830.15547504
 


--------------------------------------------------------------------------------------------------------


    POTLOK:  cpu time      0.4527: real time      0.4526


--------------------------------------------------------------------------------------------------------


     LOOP+:  cpu time    345.5137: real time    345.7110
    4ORBIT:  cpu time      0.0000: real time      0.0000

 total amount of memory used by VASP MPI-rank0  2294512. kBytes
=======================================================================

   base                                    :      30000. kBytes
   nonlr-proj                              :      15078. kBytes
   fftplans                                :     436558. kBytes
   grid                                    :     732614. kBytes
   one-center                              :        282. kBytes
   wavefun                                 :    1079980. kBytes
 
  
  
 General timing and accounting informations for this job:
 ========================================================
  
                  Total CPU time used (sec):      378.936
                            User time (sec):      370.428
                          System time (sec):        8.508
                         Elapsed time (sec):      379.172
  
                   Maximum memory used (kb):     3732052.
                   Average memory used (kb):          N/A
  
                          Minor page faults:      3265534
                          Major page faults:         6858
                 Voluntary context switches:         9873
