<?xml version="1.0" encoding="ISO-8859-1"?>
<modeling>
 <generator>
  <i name="program" type="string">vasp </i>
  <i name="version" type="string">6.5.0  </i>
  <i name="subversion" type="string">16Dec24 (build Feb 19 2025 19:45:31) complex                          parallel </i>
  <i name="platform" type="string">LinuxNV </i>
  <i name="date" type="string">2025 10 25 </i>
  <i name="time" type="string">18:07:52 </i>
 </generator>
 <incar>
  <i type="int" name="ISTART">     0</i>
  <i type="string" name="PREC">Accurate   (Precision level)</i>
  <i type="string" name="ALGO">Normal</i>
  <i type="int" name="ISPIN">     1</i>
  <i type="int" name="ICHARG">     2</i>
  <i type="int" name="NELM">   150</i>
  <i type="int" name="IBRION">    -1</i>
  <i name="EDIFF">      0.00000100</i>
  <i type="int" name="NSW">     0</i>
  <i name="ENCUT">    500.00000000</i>
  <i type="string" name="LREAL">Auto         (Projection operators: automatic)</i>
  <i type="int" name="ISMEAR">     0</i>
  <i type="logical" name="KGAMMA"> T  </i>
  <i type="logical" name="LWAVE"> F  </i>
  <i type="logical" name="LCHARG"> F  </i>
 </incar>
 <primitive_cell>
  <structure name="primitive_cell" >
   <crystal>
    <varray name="basis" >
     <v>      28.05000000       0.00000000       0.00000000 </v>
     <v>       0.00000000       8.10000000       0.00000000 </v>
     <v>       0.00000000       0.00000000      33.50000000 </v>
    </varray>
    <i name="volume">   7611.36750000 </i>
    <varray name="rec_basis" >
     <v>       0.03565062       0.00000000       0.00000000 </v>
     <v>       0.00000000       0.12345679       0.00000000 </v>
     <v>       0.00000000       0.00000000       0.02985075 </v>
    </varray>
   </crystal>
   <varray name="positions" >
    <v>       0.03755009       0.14565432       0.46163284 </v>
    <v>       0.03722745       0.32156543       0.45842090 </v>
    <v>       0.07907451       0.06641815       0.46573134 </v>
    <v>       0.08191765       0.39233951       0.45719104 </v>
    <v>       0.12222709       0.14405802       0.47534328 </v>
    <v>       0.12451159       0.31197531       0.47464776 </v>
    <v>       0.16718396       0.06692914       0.48277910 </v>
    <v>       0.16790766       0.39430864       0.47923881 </v>
    <v>       0.21111551       0.15000370       0.48865373 </v>
    <v>       0.21339002       0.31496914       0.48571045 </v>
    <v>       0.25674225       0.07271753       0.49067164 </v>
    <v>       0.25726132       0.39802840       0.48060000 </v>
    <v>       0.30244207       0.14822346       0.48685373 </v>
    <v>       0.30167273       0.31706296       0.47849552 </v>
    <v>       0.34683779       0.06548691       0.48554925 </v>
    <v>       0.34429626       0.40644074       0.46961791 </v>
    <v>       0.39197504       0.15232716       0.47540896 </v>
    <v>       0.38899822       0.32444321       0.46729254 </v>
    <v>       0.43727986       0.07443704       0.46813731 </v>
    <v>       0.43223529       0.40210617       0.45087463 </v>
    <v>       0.47866667       0.15600370       0.45199701 </v>
    <v>       0.47636720       0.32627407       0.44523284 </v>
    <v>       0.52144385       0.07099074       0.44228657 </v>
    <v>       0.51635294       0.40756296       0.43071045 </v>
    <v>       0.56398217       0.15846296       0.43242985 </v>
    <v>       0.56059893       0.32979506       0.42639701 </v>
    <v>       0.60530125       0.07255938       0.42179104 </v>
    <v>       0.60006774       0.40767037       0.40937313 </v>
    <v>       0.64610695       0.15464074       0.40360299 </v>
    <v>       0.64444207       0.31963580       0.40253433 </v>
    <v>       0.68966488       0.07077975       0.40083582 </v>
    <v>       0.68813191       0.39983704       0.39413731 </v>
    <v>       0.73381105       0.15234691       0.40215224 </v>
    <v>       0.73298396       0.31741481       0.39634030 </v>
    <v>       0.77690553       0.07200778       0.40405075 </v>
    <v>       0.77697326       0.40048765       0.39378209 </v>
    <v>       0.82069162       0.14717037       0.41026269 </v>
    <v>       0.82134046       0.31722346       0.40579104 </v>
    <v>       0.86217112       0.06850111       0.41914925 </v>
    <v>       0.86525847       0.39325802       0.40665075 </v>
    <v>       0.90320499       0.15259877       0.43125075 </v>
    <v>       0.90725134       0.31905309       0.42446567 </v>
    <v>       0.94725134       0.06666580       0.43775522 </v>
    <v>       0.95181818       0.40220617       0.42908955 </v>
    <v>       0.98761497       0.14907037       0.45017015 </v>
    <v>       0.98798930       0.32394691       0.44704179 </v>
    <v>       0.04790553       0.64755432       0.43131642 </v>
    <v>       0.04701390       0.82089506       0.43509552 </v>
    <v>       0.08536542       0.55498025       0.44796418 </v>
    <v>       0.08203066       0.90065432       0.45458806 </v>
    <v>       0.12717077       0.64441728       0.45884478 </v>
    <v>       0.12750089       0.81377407       0.46267164 </v>
    <v>       0.16944064       0.56652099       0.47100000 </v>
    <v>       0.16823565       0.89648148       0.47740597 </v>
    <v>       0.21328485       0.64705185       0.47297612 </v>
    <v>       0.21432834       0.81691605       0.47928657 </v>
    <v>       0.25849162       0.57134568       0.47880597 </v>
    <v>       0.25767701       0.90120000       0.48624179 </v>
    <v>       0.30176613       0.65393457       0.47700896 </v>
    <v>       0.30282210       0.82241852       0.48285075 </v>
    <v>       0.34459964       0.57631481       0.46751045 </v>
    <v>       0.34874617       0.89842593       0.48124179 </v>
    <v>       0.38764706       0.66019753       0.45910746 </v>
    <v>       0.39215686       0.81762346       0.47185672 </v>
    <v>       0.43096613       0.57224568       0.44891642 </v>
    <v>       0.43489127       0.90259012       0.46468060 </v>
    <v>       0.47422103       0.65948642       0.44088657 </v>
    <v>       0.47559358       0.82338025       0.44867164 </v>
    <v>       0.51766488       0.57528395       0.42957313 </v>
    <v>       0.51943316       0.90523457       0.43955522 </v>
    <v>       0.55909804       0.65849630       0.42040299 </v>
    <v>       0.55976827       0.82829012       0.42548657 </v>
    <v>       0.59857041       0.57563333       0.40481194 </v>
    <v>       0.60397861       0.90374815       0.41704776 </v>
    <v>       0.64387879       0.65291852       0.39544478 </v>
    <v>       0.64518717       0.82020741       0.40217910 </v>
    <v>       0.68870945       0.56890000       0.39027761 </v>
    <v>       0.68948663       0.89988148       0.39861791 </v>
    <v>       0.73314082       0.65024568       0.38761194 </v>
    <v>       0.73188948       0.82074444       0.39275821 </v>
    <v>       0.77730481       0.56558765       0.38955821 </v>
    <v>       0.77634225       0.90251111       0.39880896 </v>
    <v>       0.82177897       0.65045062       0.39497612 </v>
    <v>       0.82113369       0.81976543       0.39761493 </v>
    <v>       0.86547594       0.56393457       0.40299701 </v>
    <v>       0.86465954       0.90092716       0.40881791 </v>
    <v>       0.90872014       0.64483457       0.40929254 </v>
    <v>       0.90903743       0.82326790       0.41125075 </v>
    <v>       0.95266667       0.56816420       0.41912836 </v>
    <v>       0.95017825       0.90056296       0.42613134 </v>
    <v>       0.99580036       0.64693951       0.42171343 </v>
    <v>       0.99633512       0.82029630       0.42568657 </v>
   </varray>
  </structure>
  <varray name="primitive_index" >
   <v type="int" >        1 </v>
   <v type="int" >        2 </v>
   <v type="int" >        3 </v>
   <v type="int" >        4 </v>
   <v type="int" >        5 </v>
   <v type="int" >        6 </v>
   <v type="int" >        7 </v>
   <v type="int" >        8 </v>
   <v type="int" >        9 </v>
   <v type="int" >       10 </v>
   <v type="int" >       11 </v>
   <v type="int" >       12 </v>
   <v type="int" >       13 </v>
   <v type="int" >       14 </v>
   <v type="int" >       15 </v>
   <v type="int" >       16 </v>
   <v type="int" >       17 </v>
   <v type="int" >       18 </v>
   <v type="int" >       19 </v>
   <v type="int" >       20 </v>
   <v type="int" >       21 </v>
   <v type="int" >       22 </v>
   <v type="int" >       23 </v>
   <v type="int" >       24 </v>
   <v type="int" >       25 </v>
   <v type="int" >       26 </v>
   <v type="int" >       27 </v>
   <v type="int" >       28 </v>
   <v type="int" >       29 </v>
   <v type="int" >       30 </v>
   <v type="int" >       31 </v>
   <v type="int" >       32 </v>
   <v type="int" >       33 </v>
   <v type="int" >       34 </v>
   <v type="int" >       35 </v>
   <v type="int" >       36 </v>
   <v type="int" >       37 </v>
   <v type="int" >       38 </v>
   <v type="int" >       39 </v>
   <v type="int" >       40 </v>
   <v type="int" >       41 </v>
   <v type="int" >       42 </v>
   <v type="int" >       43 </v>
   <v type="int" >       44 </v>
   <v type="int" >       45 </v>
   <v type="int" >       46 </v>
   <v type="int" >       47 </v>
   <v type="int" >       48 </v>
   <v type="int" >       49 </v>
   <v type="int" >       50 </v>
   <v type="int" >       51 </v>
   <v type="int" >       52 </v>
   <v type="int" >       53 </v>
   <v type="int" >       54 </v>
   <v type="int" >       55 </v>
   <v type="int" >       56 </v>
   <v type="int" >       57 </v>
   <v type="int" >       58 </v>
   <v type="int" >       59 </v>
   <v type="int" >       60 </v>
   <v type="int" >       61 </v>
   <v type="int" >       62 </v>
   <v type="int" >       63 </v>
   <v type="int" >       64 </v>
   <v type="int" >       65 </v>
   <v type="int" >       66 </v>
   <v type="int" >       67 </v>
   <v type="int" >       68 </v>
   <v type="int" >       69 </v>
   <v type="int" >       70 </v>
   <v type="int" >       71 </v>
   <v type="int" >       72 </v>
   <v type="int" >       73 </v>
   <v type="int" >       74 </v>
   <v type="int" >       75 </v>
   <v type="int" >       76 </v>
   <v type="int" >       77 </v>
   <v type="int" >       78 </v>
   <v type="int" >       79 </v>
   <v type="int" >       80 </v>
   <v type="int" >       81 </v>
   <v type="int" >       82 </v>
   <v type="int" >       83 </v>
   <v type="int" >       84 </v>
   <v type="int" >       85 </v>
   <v type="int" >       86 </v>
   <v type="int" >       87 </v>
   <v type="int" >       88 </v>
   <v type="int" >       89 </v>
   <v type="int" >       90 </v>
   <v type="int" >       91 </v>
   <v type="int" >       92 </v>
  </varray>
 </primitive_cell>
 <kpoints>
  <generation param="Gamma">
   <v type="int" name="divisions">       1        4        1 </v>
   <v name="usershift">      0.00000000       0.00000000       0.00000000 </v>
   <v name="genvec1">      1.00000000       0.00000000       0.00000000 </v>
   <v name="genvec2">      0.00000000       0.25000000       0.00000000 </v>
   <v name="genvec3">      0.00000000       0.00000000       1.00000000 </v>
   <v name="shift">      0.00000000       0.00000000       0.00000000 </v>
  </generation>
  <varray name="kpointlist" >
   <v>       0.00000000       0.00000000       0.00000000 </v>
   <v>       0.00000000       0.25000000       0.00000000 </v>
   <v>       0.00000000       0.50000000       0.00000000 </v>
  </varray>
  <varray name="weights" >
   <v>       0.25000000 </v>
   <v>       0.50000000 </v>
   <v>       0.25000000 </v>
  </varray>
 </kpoints>
 <parameters>
  <separator name="general" >
   <i type="string" name="SYSTEM">unknown system</i>
   <i type="logical" name="LCOMPAT"> F  </i>
  </separator>
  <separator name="electronic" >
   <i type="string" name="PREC">accura</i>
   <i name="ENMAX">    500.00000000</i>
   <i name="ENAUG">    644.87300000</i>
   <i name="EDIFF">      0.00000100</i>
   <i type="int" name="IALGO">    38</i>
   <i type="int" name="IWAVPR">    10</i>
   <i type="int" name="NBANDS">   232</i>
   <i type="int" name="NBANDSLOW">    -1</i>
   <i type="int" name="NBANDSHIGH">    -1</i>
   <i name="NELECT">    368.00000000</i>
   <i type="int" name="TURBO">     0</i>
   <i type="int" name="IRESTART">     0</i>
   <i type="int" name="NREBOOT">     0</i>
   <i type="int" name="NMIN">     0</i>
   <i name="EREF">      0.00000000</i>
   <separator name="electronic smearing" >
    <i type="int" name="ISMEAR">     0</i>
    <i name="SIGMA">      0.20000000</i>
    <i name="KSPACING">      0.50000000</i>
    <i type="logical" name="KGAMMA"> T  </i>
    <i type="logical" name="KBLOWUP"> T  </i>
   </separator>
   <separator name="electronic projectors" >
    <i type="logical" name="LREAL"> T  </i>
    <v name="ROPT">     -0.00025000</v>
    <i type="int" name="LMAXPAW">  -100</i>
    <i type="int" name="LMAXMIX">     2</i>
    <i type="logical" name="NLSPLINE"> F  </i>
   </separator>
   <separator name="electronic startup" >
    <i type="int" name="ISTART">     0</i>
    <i type="int" name="ICHARG">     2</i>
    <i type="int" name="INIWAV">     1</i>
   </separator>
   <separator name="electronic spin" >
    <i type="int" name="ISPIN">     1</i>
    <i type="logical" name="LNONCOLLINEAR"> F  </i>
    <v name="MAGMOM">      1.00000000      1.00000000      1.00000000      1.00000000      1.00000000      1.00000000      1.00000000      1.00000000      1.00000000      1.00000000      1.00000000      1.00000000      1.00000000      1.00000000      1.00000000      1.00000000      1.00000000      1.00000000      1.00000000      1.00000000
      1.00000000      1.00000000      1.00000000      1.00000000      1.00000000      1.00000000      1.00000000      1.00000000      1.00000000      1.00000000      1.00000000      1.00000000      1.00000000      1.00000000      1.00000000      1.00000000      1.00000000      1.00000000      1.00000000      1.00000000
      1.00000000      1.00000000      1.00000000      1.00000000      1.00000000      1.00000000      1.00000000      1.00000000      1.00000000      1.00000000      1.00000000      1.00000000      1.00000000      1.00000000      1.00000000      1.00000000      1.00000000      1.00000000      1.00000000      1.00000000
      1.00000000      1.00000000      1.00000000      1.00000000      1.00000000      1.00000000      1.00000000      1.00000000      1.00000000      1.00000000      1.00000000      1.00000000      1.00000000      1.00000000      1.00000000      1.00000000      1.00000000      1.00000000      1.00000000      1.00000000
      1.00000000      1.00000000      1.00000000      1.00000000      1.00000000      1.00000000      1.00000000      1.00000000      1.00000000      1.00000000      1.00000000      1.00000000</v>
    <i name="NUPDOWN">     -1.00000000</i>
    <i type="logical" name="LSORBIT"> F  </i>
    <v name="SAXIS">      0.00000000      0.00000000      1.00000000</v>
    <i type="logical" name="LSPIRAL"> F  </i>
    <v name="QSPIRAL">      0.00000000      0.00000000      0.00000000</v>
    <i type="logical" name="LZEROZ"> F  </i>
   </separator>
   <separator name="electronic exchange-correlation" >
    <i type="logical" name="LASPH"> F  </i>
   </separator>
   <separator name="electronic convergence" >
    <i type="int" name="NELM">   150</i>
    <i type="int" name="NELMDL">    -5</i>
    <i type="int" name="NELMIN">     2</i>
    <i name="ENINI">    500.00000000</i>
    <separator name="electronic convergence detail" >
     <i type="logical" name="LDIAG"> T  </i>
     <i type="logical" name="LSUBROT"> F  </i>
     <i name="WEIMIN">      0.00000000</i>
     <i name="EBREAK">      0.00000000</i>
     <i name="DEPER">      0.30000000</i>
     <i type="int" name="NRMM">     4</i>
     <i name="TIME">      0.40000000</i>
    </separator>
   </separator>
   <separator name="electronic mixer" >
    <i name="AMIX">      0.40000000</i>
    <i name="BMIX">      1.00000000</i>
    <i name="AMIN">      0.10000000</i>
    <i name="AMIX_MAG">      1.60000000</i>
    <i name="BMIX_MAG">      1.00000000</i>
    <separator name="electronic mixer details" >
     <i type="int" name="IMIX">     4</i>
     <i type="logical" name="MIXFIRST"> F  </i>
     <i type="int" name="MAXMIX">   -45</i>
     <i name="WC">    100.00000000</i>
     <i type="int" name="INIMIX">     1</i>
     <i type="int" name="MIXPRE">     1</i>
     <i type="int" name="MREMOVE">     5</i>
    </separator>
   </separator>
   <separator name="electronic dipolcorrection" >
    <i type="logical" name="LDIPOL"> F  </i>
    <i type="logical" name="LMONO"> F  </i>
    <i type="int" name="IDIPOL">     0</i>
    <i name="EPSILON">      1.00000000</i>
    <v name="DIPOL">   -100.00000000   -100.00000000   -100.00000000</v>
    <i name="EFIELD">      0.00000000</i>
    <i type="logical" name="LVACPOTAV"> F  </i>
   </separator>
  </separator>
  <separator name="grids" >
   <i type="int" name="NGX">   210</i>
   <i type="int" name="NGY">    60</i>
   <i type="int" name="NGZ">   250</i>
   <i type="int" name="NGXF">   420</i>
   <i type="int" name="NGYF">   120</i>
   <i type="int" name="NGZF">   500</i>
   <i type="logical" name="ADDGRID"> F  </i>
  </separator>
  <separator name="ionic" >
   <i type="int" name="NSW">     0</i>
   <i type="int" name="IBRION">    -1</i>
   <i type="int" name="MDALGO">     0</i>
   <i type="int" name="ISIF">     2</i>
   <i name="PSTRESS">      0.00000000</i>
   <i name="EDIFFG">      0.00001000</i>
   <i type="int" name="NFREE">     0</i>
   <i name="POTIM">      0.50000000</i>
   <i name="SMASS">     -3.00000000</i>
   <i name="SCALEE">      1.00000000</i>
  </separator>
  <separator name="ionic md" >
   <i name="TEBEG">      0.00010000</i>
   <i name="TEEND">      0.00010000</i>
   <i type="int" name="NBLOCK">     1</i>
   <i type="int" name="KBLOCK">     1</i>
   <i type="int" name="NPACO">   256</i>
   <i name="APACO">     10.00000000</i>
  </separator>
  <separator name="symmetry" >
   <i type="int" name="ISYM">     2</i>
   <i name="SYMPREC">      0.00001000</i>
  </separator>
  <separator name="dos" >
   <i type="int" name="LORBIT">     0</i>
   <v name="RWIGS">     -1.00000000</v>
   <i type="int" name="NEDOS">   301</i>
   <i name="EMIN">     10.00000000</i>
   <i name="EMAX">    -10.00000000</i>
   <i name="EFERMI">      0.00000000</i>
  </separator>
  <separator name="writing" >
   <i type="int" name="NWRITE">     2</i>
   <i type="logical" name="LWAVE"> F  </i>
   <i type="logical" name="LDOWNSAMPLE"> F  </i>
   <i type="logical" name="LCHARG"> F  </i>
   <i type="logical" name="LPARD"> F  </i>
   <i type="logical" name="LVTOT"> F  </i>
   <i type="logical" name="LVHAR"> F  </i>
   <i type="logical" name="LELF"> F  </i>
   <i type="logical" name="LOPTICS"> F  </i>
   <v name="STM">      0.00000000      0.00000000      0.00000000      0.00000000      0.00000000      0.00000000      0.00000000</v>
  </separator>
  <separator name="performance" >
   <i type="int" name="NPAR">     2</i>
   <i type="int" name="NSIM">     4</i>
   <i type="int" name="NBLK">    -1</i>
   <i type="logical" name="LPLANE"> T  </i>
   <i type="logical" name="LSCALAPACK"> T  </i>
   <i type="logical" name="LSCAAWARE"> F  </i>
   <i type="logical" name="LSCALU"> F  </i>
   <i type="logical" name="LASYNC"> F  </i>
   <i type="logical" name="LORBITALREAL"> F  </i>
  </separator>
  <separator name="miscellaneous" >
   <i type="int" name="IDIOT">     3</i>
   <i type="int" name="PHON_NSTRUCT">    -1</i>
   <i type="logical" name="LMUSIC"> F  </i>
   <v name="POMASS">     12.01100000</v>
   <v name="DARWINR">      0.00000000</v>
   <v name="DARWINV">      1.00000000</v>
   <i type="logical" name="LCORR"> T  </i>
  </separator>
  <i type="logical" name="GGA_COMPAT"> T  </i>
  <i type="logical" name="LBERRY"> F  </i>
  <i type="int" name="ICORELEVEL">     0</i>
  <i type="logical" name="LDAU"> F  </i>
  <i type="int" name="I_CONSTRAINED_M">     0</i>
  <separator name="electronic exchange-correlation" >
   <i type="string" name="GGA    ">PE</i>
   <i type="string" name="XC_C">1</i>
   <i type="int" name="VOSKOWN">     0</i>
   <i type="logical" name="LHFCALC"> F  </i>
   <i type="string" name="PRECFOCK"></i>
   <i type="logical" name="LSYMGRAD"> F  </i>
   <i type="logical" name="LHFONE"> F  </i>
   <i type="logical" name="LRHFCALC"> F  </i>
   <i type="logical" name="LTHOMAS"> F  </i>
   <i type="logical" name="LMODELHF"> F  </i>
   <i type="logical" name="LFOCKACE"> F  </i>
   <i name="ENCUT4O">     -1.00000000</i>
   <i type="int" name="EXXOEP">     0</i>
   <i type="int" name="FOURORBIT">     0</i>
   <i name="AEXX">      0.00000000</i>
   <i name="HFALPHA">      0.00000000</i>
   <i name="MCALPHA">      0.00000000</i>
   <i name="ALDAX">      1.00000000</i>
   <i name="AGGAX">      1.00000000</i>
   <i name="AMGGAX">      1.00000000</i>
   <i name="ALDAC">      1.00000000</i>
   <i name="AGGAC">      1.00000000</i>
   <i name="AMGGAC">      1.00000000</i>
   <i type="int" name="NKREDX">     1</i>
   <i type="int" name="NKREDY">     1</i>
   <i type="int" name="NKREDZ">     1</i>
   <i type="logical" name="SHIFTRED"> F  </i>
   <i type="logical" name="ODDONLY"> F  </i>
   <i type="logical" name="EVENONLY"> F  </i>
   <i type="int" name="LMAXFOCK">     0</i>
   <i type="int" name="NMAXFOCKAE">     0</i>
   <i type="logical" name="LFOCKAEDFT"> F  </i>
   <i name="HFSCREEN">      0.00000000</i>
   <i name="HFSCREENC">      0.00000000</i>
   <i type="int" name="NBANDSGWLOW">     0</i>
  </separator>
  <separator name="vdW DFT" >
   <i type="logical" name="LUSE_VDW"> F  </i>
   <i type="int" name="IVDW_NL">    -1</i>
   <i type="logical" name="LSPIN_VDW"> F  </i>
   <i name="ZAB_VDW">     -0.84910000</i>
   <i name="GAMMA_VDW">      1.39626340</i>
   <i name="ALPHA_VDW">      0.00000000</i>
   <i name="PARAM1">      0.12340000</i>
   <i name="PARAM2">      1.00000000</i>
   <i name="BPARAM">      6.30000000</i>
   <i name="CPARAM">      0.00930000</i>
  </separator>
  <separator name="model GW" >
   <i type="int" name="MODEL_GW">     0</i>
   <i name="MODEL_EPS0">     49.63935326</i>
   <i name="MODEL_ALPHA">      1.00000000</i>
  </separator>
  <separator name="linear response parameters" >
   <i type="logical" name="LEPSILON"> F  </i>
   <i type="logical" name="LRPA"> F  </i>
   <i type="logical" name="LNABLA"> F  </i>
   <i type="logical" name="LVEL"> F  </i>
   <i name="CSHIFT">      0.10000000</i>
   <i name="OMEGAMAX">     -1.00000000</i>
   <i name="DEG_THRESHOLD">      0.00200000</i>
   <i name="RTIME">     -0.10000000</i>
   <i name="WPLASMAI">      0.00000000</i>
   <v name="DFIELD">      0.00000000      0.00000000      0.00000000</v>
   <v name="WPLASMA">      0.00000000      0.00000000      0.00000000      0.00000000      0.00000000      0.00000000      0.00000000      0.00000000      0.00000000</v>
  </separator>
  <separator name="orbital magnetization" >
   <i type="logical" name="NUCIND"> F  </i>
   <v name="MAGPOS">      0.00000000      0.00000000      0.00000000</v>
   <i type="logical" name="LNICSALL"> T  </i>
   <i type="logical" name="ORBITALMAG"> F  </i>
   <i type="logical" name="LMAGBLOCH"> F  </i>
   <i type="logical" name="LCHIMAG"> F  </i>
   <i type="logical" name="LGAUGE"> T  </i>
   <i type="int" name="MAGATOM">     0</i>
   <v name="MAGDIPOL">      0.00000000      0.00000000      0.00000000</v>
   <v name="AVECCONST">      0.00000000      0.00000000      0.00000000</v>
  </separator>
  <separator name="response functions" >
   <i type="logical" name="LALL_IN_ONE"> F  </i>
   <i type="int" name="IALL_IN_ONE">    -1</i>
   <i type="int" name="NBANDS_WAVE">    -1</i>
   <i type="logical" name="LFINITE_TEMPERATURE"> F  </i>
   <i type="logical" name="LADDER"> F  </i>
   <i type="logical" name="LRPAFORCE"> F  </i>
   <i type="logical" name="LFXC"> F  </i>
   <i type="logical" name="LHARTREE"> T  </i>
   <i type="int" name="IBSE">     2</i>
   <v type="int" name="KPOINT">    -1     0     0     0</v>
   <i type="logical" name="LTCTC"> F  </i>
   <i type="logical" name="LTCTE"> F  </i>
   <i type="logical" name="LTETE"> F  </i>
   <i type="logical" name="LTRIPLET"> F  </i>
   <i type="logical" name="LFXCEPS"> F  </i>
   <i type="logical" name="LFXHEG"> F  </i>
   <i type="int" name="NATURALO">     2</i>
   <i type="logical" name="LHOLEGF"> F  </i>
   <i type="logical" name="L2ORDER"> F  </i>
   <i type="logical" name="LDMP1"> F  </i>
   <i type="logical" name="LMP2LT"> F  </i>
   <i type="logical" name="LSMP2LT"> F  </i>
   <i type="logical" name="LGWLF"> F  </i>
   <i name="ENCUTGW">     -1.60000002</i>
   <i name="ENCUTGWSOFT">     -1.60000002</i>
   <i name="ENCUTLF">     -1.00000000</i>
   <i type="logical" name="ESF_SPLINES"> F  </i>
   <i name="ESF_CONV">      0.01000000</i>
   <i type="int" name="ESF_NINTER">    15</i>
   <i type="int" name="LMAXMP2">    -1</i>
   <i name="SCISSOR">      0.00000000</i>
   <i type="int" name="NOMEGA">     0</i>
   <i type="int" name="NOMEGAR">     0</i>
   <i type="int" name="NBANDSGW">    -1</i>
   <i type="int" name="NBANDSO">    -1</i>
   <i type="int" name="NBANDSV">    -1</i>
   <i type="int" name="NELMGW">     1</i>
   <i type="int" name="NELMHF">     1</i>
   <i type="int" name="DIM">     3</i>
   <i type="int" name="IESPILON">     4</i>
   <i type="int" name="ANTIRES">     0</i>
   <i name="OMEGAMAX">    -30.00000000</i>
   <i name="OMEGAMIN">    -30.00000000</i>
   <i name="OMEGATL">   -200.00000000</i>
   <i type="int" name="OMEGAGRID">     0</i>
   <i name="CSHIFT">     -0.10000000</i>
   <i type="logical" name="LSELFENERGY"> F  </i>
   <i type="logical" name="LSPECTRAL"> F  </i>
   <i type="logical" name="LSPECTRALGW"> F  </i>
   <i type="logical" name="LSINGLES"> F  </i>
   <i type="logical" name="LFERMIGW"> F  </i>
   <i type="logical" name="ODDONLYGW"> F  </i>
   <i type="logical" name="EVENONLYGW"> F  </i>
   <i type="int" name="NKREDLFX">     1</i>
   <i type="int" name="NKREDLFY">     1</i>
   <i type="int" name="NKREDLFZ">     1</i>
   <i type="int" name="MAXMEM">  2800</i>
   <i type="int" name="TELESCOPE">     0</i>
   <i type="int" name="NTAUPAR">    -1</i>
   <i type="int" name="NOMEGAPAR">    -1</i>
   <i name="DAMP_NEWTON">      0.80000001</i>
   <i name="LAMBDA">      1.00000000</i>
  </separator>
  <separator name="External order field" >
   <i name="OFIELD_KAPPA">      0.00000000</i>
   <v name="OFIELD_K">      0.00000000      0.00000000      0.00000000</v>
   <i name="OFIELD_Q6_NEAR">      0.00000000</i>
   <i name="OFIELD_Q6_FAR">      0.00000000</i>
   <i name="OFIELD_A">      0.00000000</i>
  </separator>
  <separator name="optional k-points parameters" >
   <i type="int" name="KPOINTS_OPT_MODE">     1</i>
   <i type="logical" name="LKPOINTS_OPT"> F  </i>
  </separator>
 </parameters>
 <atominfo>
  <atoms>      92 </atoms>
  <types>       1 </types>
  <array name="atoms" >
   <dimension dim="1">ion</dimension>
   <field type="string">element</field>
   <field type="int">atomtype</field>
   <set>
    <rc><c>C </c><c>   1</c></rc>
    <rc><c>C </c><c>   1</c></rc>
    <rc><c>C </c><c>   1</c></rc>
    <rc><c>C </c><c>   1</c></rc>
    <rc><c>C </c><c>   1</c></rc>
    <rc><c>C </c><c>   1</c></rc>
    <rc><c>C </c><c>   1</c></rc>
    <rc><c>C </c><c>   1</c></rc>
    <rc><c>C </c><c>   1</c></rc>
    <rc><c>C </c><c>   1</c></rc>
    <rc><c>C </c><c>   1</c></rc>
    <rc><c>C </c><c>   1</c></rc>
    <rc><c>C </c><c>   1</c></rc>
    <rc><c>C </c><c>   1</c></rc>
    <rc><c>C </c><c>   1</c></rc>
    <rc><c>C </c><c>   1</c></rc>
    <rc><c>C </c><c>   1</c></rc>
    <rc><c>C </c><c>   1</c></rc>
    <rc><c>C </c><c>   1</c></rc>
    <rc><c>C </c><c>   1</c></rc>
    <rc><c>C </c><c>   1</c></rc>
    <rc><c>C </c><c>   1</c></rc>
    <rc><c>C </c><c>   1</c></rc>
    <rc><c>C </c><c>   1</c></rc>
    <rc><c>C </c><c>   1</c></rc>
    <rc><c>C </c><c>   1</c></rc>
    <rc><c>C </c><c>   1</c></rc>
    <rc><c>C </c><c>   1</c></rc>
    <rc><c>C </c><c>   1</c></rc>
    <rc><c>C </c><c>   1</c></rc>
    <rc><c>C </c><c>   1</c></rc>
    <rc><c>C </c><c>   1</c></rc>
    <rc><c>C </c><c>   1</c></rc>
    <rc><c>C </c><c>   1</c></rc>
    <rc><c>C </c><c>   1</c></rc>
    <rc><c>C </c><c>   1</c></rc>
    <rc><c>C </c><c>   1</c></rc>
    <rc><c>C </c><c>   1</c></rc>
    <rc><c>C </c><c>   1</c></rc>
    <rc><c>C </c><c>   1</c></rc>
    <rc><c>C </c><c>   1</c></rc>
    <rc><c>C </c><c>   1</c></rc>
    <rc><c>C </c><c>   1</c></rc>
    <rc><c>C </c><c>   1</c></rc>
    <rc><c>C </c><c>   1</c></rc>
    <rc><c>C </c><c>   1</c></rc>
    <rc><c>C </c><c>   1</c></rc>
    <rc><c>C </c><c>   1</c></rc>
    <rc><c>C </c><c>   1</c></rc>
    <rc><c>C </c><c>   1</c></rc>
    <rc><c>C </c><c>   1</c></rc>
    <rc><c>C </c><c>   1</c></rc>
    <rc><c>C </c><c>   1</c></rc>
    <rc><c>C </c><c>   1</c></rc>
    <rc><c>C </c><c>   1</c></rc>
    <rc><c>C </c><c>   1</c></rc>
    <rc><c>C </c><c>   1</c></rc>
    <rc><c>C </c><c>   1</c></rc>
    <rc><c>C </c><c>   1</c></rc>
    <rc><c>C </c><c>   1</c></rc>
    <rc><c>C </c><c>   1</c></rc>
    <rc><c>C </c><c>   1</c></rc>
    <rc><c>C </c><c>   1</c></rc>
    <rc><c>C </c><c>   1</c></rc>
    <rc><c>C </c><c>   1</c></rc>
    <rc><c>C </c><c>   1</c></rc>
    <rc><c>C </c><c>   1</c></rc>
    <rc><c>C </c><c>   1</c></rc>
    <rc><c>C </c><c>   1</c></rc>
    <rc><c>C </c><c>   1</c></rc>
    <rc><c>C </c><c>   1</c></rc>
    <rc><c>C </c><c>   1</c></rc>
    <rc><c>C </c><c>   1</c></rc>
    <rc><c>C </c><c>   1</c></rc>
    <rc><c>C </c><c>   1</c></rc>
    <rc><c>C </c><c>   1</c></rc>
    <rc><c>C </c><c>   1</c></rc>
    <rc><c>C </c><c>   1</c></rc>
    <rc><c>C </c><c>   1</c></rc>
    <rc><c>C </c><c>   1</c></rc>
    <rc><c>C </c><c>   1</c></rc>
    <rc><c>C </c><c>   1</c></rc>
    <rc><c>C </c><c>   1</c></rc>
    <rc><c>C </c><c>   1</c></rc>
    <rc><c>C </c><c>   1</c></rc>
    <rc><c>C </c><c>   1</c></rc>
    <rc><c>C </c><c>   1</c></rc>
    <rc><c>C </c><c>   1</c></rc>
    <rc><c>C </c><c>   1</c></rc>
    <rc><c>C </c><c>   1</c></rc>
    <rc><c>C </c><c>   1</c></rc>
    <rc><c>C </c><c>   1</c></rc>
   </set>
  </array>
  <array name="atomtypes" >
   <dimension dim="1">type</dimension>
   <field type="int">atomspertype</field>
   <field type="string">element</field>
   <field>mass</field>
   <field>valence</field>
   <field type="string">pseudopotential</field>
   <set>
    <rc><c>  92</c><c>C </c><c>     12.01100000</c><c>      4.00000000</c><c>  PAW_PBE C 08Apr2002                   </c></rc>
   </set>
  </array>
 </atominfo>
 <structure name="initialpos" >
  <crystal>
   <varray name="basis" >
    <v>      28.05000000       0.00000000       0.00000000 </v>
    <v>       0.00000000       8.10000000       0.00000000 </v>
    <v>       0.00000000       0.00000000      33.50000000 </v>
   </varray>
   <i name="volume">   7611.36750000 </i>
   <varray name="rec_basis" >
    <v>       0.03565062       0.00000000       0.00000000 </v>
    <v>       0.00000000       0.12345679       0.00000000 </v>
    <v>       0.00000000       0.00000000       0.02985075 </v>
   </varray>
  </crystal>
  <varray name="positions" >
   <v>       0.03755009       0.14565432       0.46163284 </v>
   <v>       0.03722745       0.32156543       0.45842090 </v>
   <v>       0.07907451       0.06641815       0.46573134 </v>
   <v>       0.08191765       0.39233951       0.45719104 </v>
   <v>       0.12222709       0.14405802       0.47534328 </v>
   <v>       0.12451159       0.31197531       0.47464776 </v>
   <v>       0.16718396       0.06692914       0.48277910 </v>
   <v>       0.16790766       0.39430864       0.47923881 </v>
   <v>       0.21111551       0.15000370       0.48865373 </v>
   <v>       0.21339002       0.31496914       0.48571045 </v>
   <v>       0.25674225       0.07271753       0.49067164 </v>
   <v>       0.25726132       0.39802840       0.48060000 </v>
   <v>       0.30244207       0.14822346       0.48685373 </v>
   <v>       0.30167273       0.31706296       0.47849552 </v>
   <v>       0.34683779       0.06548691       0.48554925 </v>
   <v>       0.34429626       0.40644074       0.46961791 </v>
   <v>       0.39197504       0.15232716       0.47540896 </v>
   <v>       0.38899822       0.32444321       0.46729254 </v>
   <v>       0.43727986       0.07443704       0.46813731 </v>
   <v>       0.43223529       0.40210617       0.45087463 </v>
   <v>       0.47866667       0.15600370       0.45199701 </v>
   <v>       0.47636720       0.32627407       0.44523284 </v>
   <v>       0.52144385       0.07099074       0.44228657 </v>
   <v>       0.51635294       0.40756296       0.43071045 </v>
   <v>       0.56398217       0.15846296       0.43242985 </v>
   <v>       0.56059893       0.32979506       0.42639701 </v>
   <v>       0.60530125       0.07255938       0.42179104 </v>
   <v>       0.60006774       0.40767037       0.40937313 </v>
   <v>       0.64610695       0.15464074       0.40360299 </v>
   <v>       0.64444207       0.31963580       0.40253433 </v>
   <v>       0.68966488       0.07077975       0.40083582 </v>
   <v>       0.68813191       0.39983704       0.39413731 </v>
   <v>       0.73381105       0.15234691       0.40215224 </v>
   <v>       0.73298396       0.31741481       0.39634030 </v>
   <v>       0.77690553       0.07200778       0.40405075 </v>
   <v>       0.77697326       0.40048765       0.39378209 </v>
   <v>       0.82069162       0.14717037       0.41026269 </v>
   <v>       0.82134046       0.31722346       0.40579104 </v>
   <v>       0.86217112       0.06850111       0.41914925 </v>
   <v>       0.86525847       0.39325802       0.40665075 </v>
   <v>       0.90320499       0.15259877       0.43125075 </v>
   <v>       0.90725134       0.31905309       0.42446567 </v>
   <v>       0.94725134       0.06666580       0.43775522 </v>
   <v>       0.95181818       0.40220617       0.42908955 </v>
   <v>       0.98761497       0.14907037       0.45017015 </v>
   <v>       0.98798930       0.32394691       0.44704179 </v>
   <v>       0.04790553       0.64755432       0.43131642 </v>
   <v>       0.04701390       0.82089506       0.43509552 </v>
   <v>       0.08536542       0.55498025       0.44796418 </v>
   <v>       0.08203066       0.90065432       0.45458806 </v>
   <v>       0.12717077       0.64441728       0.45884478 </v>
   <v>       0.12750089       0.81377407       0.46267164 </v>
   <v>       0.16944064       0.56652099       0.47100000 </v>
   <v>       0.16823565       0.89648148       0.47740597 </v>
   <v>       0.21328485       0.64705185       0.47297612 </v>
   <v>       0.21432834       0.81691605       0.47928657 </v>
   <v>       0.25849162       0.57134568       0.47880597 </v>
   <v>       0.25767701       0.90120000       0.48624179 </v>
   <v>       0.30176613       0.65393457       0.47700896 </v>
   <v>       0.30282210       0.82241852       0.48285075 </v>
   <v>       0.34459964       0.57631481       0.46751045 </v>
   <v>       0.34874617       0.89842593       0.48124179 </v>
   <v>       0.38764706       0.66019753       0.45910746 </v>
   <v>       0.39215686       0.81762346       0.47185672 </v>
   <v>       0.43096613       0.57224568       0.44891642 </v>
   <v>       0.43489127       0.90259012       0.46468060 </v>
   <v>       0.47422103       0.65948642       0.44088657 </v>
   <v>       0.47559358       0.82338025       0.44867164 </v>
   <v>       0.51766488       0.57528395       0.42957313 </v>
   <v>       0.51943316       0.90523457       0.43955522 </v>
   <v>       0.55909804       0.65849630       0.42040299 </v>
   <v>       0.55976827       0.82829012       0.42548657 </v>
   <v>       0.59857041       0.57563333       0.40481194 </v>
   <v>       0.60397861       0.90374815       0.41704776 </v>
   <v>       0.64387879       0.65291852       0.39544478 </v>
   <v>       0.64518717       0.82020741       0.40217910 </v>
   <v>       0.68870945       0.56890000       0.39027761 </v>
   <v>       0.68948663       0.89988148       0.39861791 </v>
   <v>       0.73314082       0.65024568       0.38761194 </v>
   <v>       0.73188948       0.82074444       0.39275821 </v>
   <v>       0.77730481       0.56558765       0.38955821 </v>
   <v>       0.77634225       0.90251111       0.39880896 </v>
   <v>       0.82177897       0.65045062       0.39497612 </v>
   <v>       0.82113369       0.81976543       0.39761493 </v>
   <v>       0.86547594       0.56393457       0.40299701 </v>
   <v>       0.86465954       0.90092716       0.40881791 </v>
   <v>       0.90872014       0.64483457       0.40929254 </v>
   <v>       0.90903743       0.82326790       0.41125075 </v>
   <v>       0.95266667       0.56816420       0.41912836 </v>
   <v>       0.95017825       0.90056296       0.42613134 </v>
   <v>       0.99580036       0.64693951       0.42171343 </v>
   <v>       0.99633512       0.82029630       0.42568657 </v>
  </varray>
 </structure>
 <calculation>
  <scstep>
   <time name="dav">   11.17   11.17</time>
   <time name="total">   11.63   11.65</time>
   <energy>
    <i name="alphaZ">     91.34886789 </i>
    <i name="ewald"> 119979.44016704 </i>
    <i name="hartreedc">-129312.30642098 </i>
    <i name="XCdc">   1221.04354755 </i>
    <i name="pawpsdc">   9984.02826696 </i>
    <i name="pawaedc"> -10036.41360137 </i>
    <i name="eentropy">     -0.82063930 </i>
    <i name="bandstr">  -1841.42601772 </i>
    <i name="atom">  13537.65479391 </i>
    <i name="e_fr_energy">   3622.54896398 </i>
    <i name="e_wo_entrp">   3623.36960328 </i>
    <i name="e_0_energy">   3622.95928363 </i>
   </energy>
  </scstep>
  <scstep>
   <time name="dav">   13.13   13.14</time>
   <time name="total">   13.13   13.14</time>
   <energy>
    <i name="e_fr_energy">    168.24262319 </i>
    <i name="e_wo_entrp">    168.43396399 </i>
    <i name="e_0_energy">    168.33829359 </i>
   </energy>
  </scstep>
  <scstep>
   <time name="dav">   11.30   11.30</time>
   <time name="total">   11.30   11.30</time>
   <energy>
    <i name="e_fr_energy">   -834.45646200 </i>
    <i name="e_wo_entrp">   -834.37259105 </i>
    <i name="e_0_energy">   -834.41452653 </i>
   </energy>
  </scstep>
  <scstep>
   <time name="dav">   10.87   10.88</time>
   <time name="total">   10.87   10.88</time>
   <energy>
    <i name="e_fr_energy">   -896.43905047 </i>
    <i name="e_wo_entrp">   -896.37825018 </i>
    <i name="e_0_energy">   -896.40865032 </i>
   </energy>
  </scstep>
  <scstep>
   <time name="dav">   11.33   11.34</time>
   <time name="total">   12.82   12.82</time>
   <energy>
    <i name="e_fr_energy">   -898.02591312 </i>
    <i name="e_wo_entrp">   -897.96491810 </i>
    <i name="e_0_energy">   -897.99541561 </i>
   </energy>
  </scstep>
  <scstep>
   <time name="dav">   10.23   10.23</time>
   <time name="total">   12.03   12.03</time>
   <energy>
    <i name="e_fr_energy">   -848.88738666 </i>
    <i name="e_wo_entrp">   -848.81137975 </i>
    <i name="e_0_energy">   -848.84938320 </i>
   </energy>
  </scstep>
  <scstep>
   <time name="dav">   10.14   10.15</time>
   <time name="total">   11.94   11.95</time>
   <energy>
    <i name="e_fr_energy">   -830.58474145 </i>
    <i name="e_wo_entrp">   -830.50029203 </i>
    <i name="e_0_energy">   -830.54251674 </i>
   </energy>
  </scstep>
  <scstep>
   <time name="dav">   10.30   10.31</time>
   <time name="total">   12.10   12.10</time>
   <energy>
    <i name="e_fr_energy">   -830.30424719 </i>
    <i name="e_wo_entrp">   -830.22323486 </i>
    <i name="e_0_energy">   -830.26374103 </i>
   </energy>
  </scstep>
  <scstep>
   <time name="dav">   10.72   10.72</time>
   <time name="total">   12.52   12.53</time>
   <energy>
    <i name="e_fr_energy">   -830.20110334 </i>
    <i name="e_wo_entrp">   -830.11975674 </i>
    <i name="e_0_energy">   -830.16043004 </i>
   </energy>
  </scstep>
  <scstep>
   <time name="dav">   11.40   11.40</time>
   <time name="total">   13.21   13.21</time>
   <energy>
    <i name="e_fr_energy">   -830.16772751 </i>
    <i name="e_wo_entrp">   -830.08606957 </i>
    <i name="e_0_energy">   -830.12689854 </i>
   </energy>
  </scstep>
  <scstep>
   <time name="dav">   10.09   10.09</time>
   <time name="total">   11.91   11.92</time>
   <energy>
    <i name="e_fr_energy">   -830.13589285 </i>
    <i name="e_wo_entrp">   -830.05419361 </i>
    <i name="e_0_energy">   -830.09504323 </i>
   </energy>
  </scstep>
  <scstep>
   <time name="dav">   10.13   10.13</time>
   <time name="total">   11.95   11.96</time>
   <energy>
    <i name="e_fr_energy">   -830.12923638 </i>
    <i name="e_wo_entrp">   -830.04753526 </i>
    <i name="e_0_energy">   -830.08838582 </i>
   </energy>
  </scstep>
  <scstep>
   <time name="dav">   10.04   10.05</time>
   <time name="total">   11.87   11.88</time>
   <energy>
    <i name="e_fr_energy">   -830.14272644 </i>
    <i name="e_wo_entrp">   -830.06107042 </i>
    <i name="e_0_energy">   -830.10189843 </i>
   </energy>
  </scstep>
  <scstep>
   <time name="dav">   10.34   10.34</time>
   <time name="total">   12.18   12.19</time>
   <energy>
    <i name="e_fr_energy">   -830.15654485 </i>
    <i name="e_wo_entrp">   -830.07487035 </i>
    <i name="e_0_energy">   -830.11570760 </i>
   </energy>
  </scstep>
  <scstep>
   <time name="dav">   10.08   10.09</time>
   <time name="total">   11.93   11.94</time>
   <energy>
    <i name="e_fr_energy">   -830.17810370 </i>
    <i name="e_wo_entrp">   -830.09640678 </i>
    <i name="e_0_energy">   -830.13725524 </i>
   </energy>
  </scstep>
  <scstep>
   <time name="dav">   10.46   10.47</time>
   <time name="total">   12.32   12.33</time>
   <energy>
    <i name="e_fr_energy">   -830.18626434 </i>
    <i name="e_wo_entrp">   -830.10455535 </i>
    <i name="e_0_energy">   -830.14540985 </i>
   </energy>
  </scstep>
  <scstep>
   <time name="dav">   10.36   10.37</time>
   <time name="total">   12.23   12.24</time>
   <energy>
    <i name="e_fr_energy">   -830.19275353 </i>
    <i name="e_wo_entrp">   -830.11105077 </i>
    <i name="e_0_energy">   -830.15190215 </i>
   </energy>
  </scstep>
  <scstep>
   <time name="dav">   11.02   11.02</time>
   <time name="total">   12.89   12.90</time>
   <energy>
    <i name="e_fr_energy">   -830.19420563 </i>
    <i name="e_wo_entrp">   -830.11250563 </i>
    <i name="e_0_energy">   -830.15335563 </i>
   </energy>
  </scstep>
  <scstep>
   <time name="dav">   10.09   10.09</time>
   <time name="total">   11.98   11.98</time>
   <energy>
    <i name="e_fr_energy">   -830.19541634 </i>
    <i name="e_wo_entrp">   -830.11371619 </i>
    <i name="e_0_energy">   -830.15456626 </i>
   </energy>
  </scstep>
  <scstep>
   <time name="dav">    9.32    9.32</time>
   <time name="total">   11.22   11.22</time>
   <energy>
    <i name="e_fr_energy">   -830.19590786 </i>
    <i name="e_wo_entrp">   -830.11420846 </i>
    <i name="e_0_energy">   -830.15505816 </i>
   </energy>
  </scstep>
  <scstep>
   <time name="dav">    8.97    8.97</time>
   <time name="total">   10.89   10.90</time>
   <energy>
    <i name="e_fr_energy">   -830.19613790 </i>
    <i name="e_wo_entrp">   -830.11443851 </i>
    <i name="e_0_energy">   -830.15528821 </i>
   </energy>
  </scstep>
  <scstep>
   <time name="dav">    7.71    7.71</time>
   <time name="total">    9.64    9.64</time>
   <energy>
    <i name="e_fr_energy">   -830.19624496 </i>
    <i name="e_wo_entrp">   -830.11454448 </i>
    <i name="e_0_energy">   -830.15539472 </i>
   </energy>
  </scstep>
  <scstep>
   <time name="dav">    7.38    7.38</time>
   <time name="total">    9.32    9.33</time>
   <energy>
    <i name="e_fr_energy">   -830.19628740 </i>
    <i name="e_wo_entrp">   -830.11458657 </i>
    <i name="e_0_energy">   -830.15543699 </i>
   </energy>
  </scstep>
  <scstep>
   <time name="dav">    7.26    7.27</time>
   <time name="total">    9.22    9.22</time>
   <energy>
    <i name="e_fr_energy">   -830.19630774 </i>
    <i name="e_wo_entrp">   -830.11460715 </i>
    <i name="e_0_energy">   -830.15545745 </i>
   </energy>
  </scstep>
  <scstep>
   <time name="dav">    6.97    6.97</time>
   <time name="total">    8.94    8.95</time>
   <energy>
    <i name="e_fr_energy">   -830.19631634 </i>
    <i name="e_wo_entrp">   -830.11461587 </i>
    <i name="e_0_energy">   -830.15546611 </i>
   </energy>
  </scstep>
  <scstep>
   <time name="dav">    7.19    7.19</time>
   <time name="total">    9.19    9.19</time>
   <energy>
    <i name="e_fr_energy">   -830.19631974 </i>
    <i name="e_wo_entrp">   -830.11461934 </i>
    <i name="e_0_energy">   -830.15546954 </i>
   </energy>
  </scstep>
  <scstep>
   <time name="dav">    6.99    6.99</time>
   <time name="total">    8.99    8.99</time>
   <energy>
    <i name="e_fr_energy">   -830.19632219 </i>
    <i name="e_wo_entrp">   -830.11462186 </i>
    <i name="e_0_energy">   -830.15547202 </i>
   </energy>
  </scstep>
  <scstep>
   <time name="dav">    7.15    7.16</time>
   <time name="total">    9.18    9.18</time>
   <energy>
    <i name="e_fr_energy">   -830.19632358 </i>
    <i name="e_wo_entrp">   -830.11462321 </i>
    <i name="e_0_energy">   -830.15547340 </i>
   </energy>
  </scstep>
  <scstep>
   <time name="dav">    7.19    7.20</time>
   <time name="total">    9.23    9.24</time>
   <energy>
    <i name="e_fr_energy">   -830.19632493 </i>
    <i name="e_wo_entrp">   -830.11462449 </i>
    <i name="e_0_energy">   -830.15547471 </i>
   </energy>
  </scstep>
  <scstep>
   <time name="dav">    6.99    7.00</time>
   <time name="total">    7.36    7.36</time>
   <energy>
    <i name="alphaZ">     91.34886789 </i>
    <i name="ewald"> 119979.44016704 </i>
    <i name="hartreedc">-131065.04452051 </i>
    <i name="XCdc">   1278.17338024 </i>
    <i name="pawpsdc">  40945.91299220 </i>
    <i name="pawaedc"> -41009.91320829 </i>
    <i name="eentropy">     -0.08170043 </i>
    <i name="bandstr">  -4587.68709729 </i>
    <i name="atom">  13537.65479391 </i>
    <i name="e_fr_energy">   -830.19632525 </i>
    <i name="e_wo_entrp">   -830.11462482 </i>
    <i name="e_0_energy">   -830.15547504 </i>
   </energy>
  </scstep>
  <structure>
   <crystal>
    <varray name="basis" >
     <v>      28.05000000       0.00000000       0.00000000 </v>
     <v>       0.00000000       8.10000000       0.00000000 </v>
     <v>       0.00000000       0.00000000      33.50000000 </v>
    </varray>
    <i name="volume">   7611.36750000 </i>
    <varray name="rec_basis" >
     <v>       0.03565062       0.00000000       0.00000000 </v>
     <v>       0.00000000       0.12345679       0.00000000 </v>
     <v>       0.00000000       0.00000000       0.02985075 </v>
    </varray>
   </crystal>
   <varray name="positions" >
    <v>       0.03755009       0.14565432       0.46163284 </v>
    <v>       0.03722745       0.32156543       0.45842090 </v>
    <v>       0.07907451       0.06641815       0.46573134 </v>
    <v>       0.08191765       0.39233951       0.45719104 </v>
    <v>       0.12222709       0.14405802       0.47534328 </v>
    <v>       0.12451159       0.31197531       0.47464776 </v>
    <v>       0.16718396       0.06692914       0.48277910 </v>
    <v>       0.16790766       0.39430864       0.47923881 </v>
    <v>       0.21111551       0.15000370       0.48865373 </v>
    <v>       0.21339002       0.31496914       0.48571045 </v>
    <v>       0.25674225       0.07271753       0.49067164 </v>
    <v>       0.25726132       0.39802840       0.48060000 </v>
    <v>       0.30244207       0.14822346       0.48685373 </v>
    <v>       0.30167273       0.31706296       0.47849552 </v>
    <v>       0.34683779       0.06548691       0.48554925 </v>
    <v>       0.34429626       0.40644074       0.46961791 </v>
    <v>       0.39197504       0.15232716       0.47540896 </v>
    <v>       0.38899822       0.32444321       0.46729254 </v>
    <v>       0.43727986       0.07443704       0.46813731 </v>
    <v>       0.43223529       0.40210617       0.45087463 </v>
    <v>       0.47866667       0.15600370       0.45199701 </v>
    <v>       0.47636720       0.32627407       0.44523284 </v>
    <v>       0.52144385       0.07099074       0.44228657 </v>
    <v>       0.51635294       0.40756296       0.43071045 </v>
    <v>       0.56398217       0.15846296       0.43242985 </v>
    <v>       0.56059893       0.32979506       0.42639701 </v>
    <v>       0.60530125       0.07255938       0.42179104 </v>
    <v>       0.60006774       0.40767037       0.40937313 </v>
    <v>       0.64610695       0.15464074       0.40360299 </v>
    <v>       0.64444207       0.31963580       0.40253433 </v>
    <v>       0.68966488       0.07077975       0.40083582 </v>
    <v>       0.68813191       0.39983704       0.39413731 </v>
    <v>       0.73381105       0.15234691       0.40215224 </v>
    <v>       0.73298396       0.31741481       0.39634030 </v>
    <v>       0.77690553       0.07200778       0.40405075 </v>
    <v>       0.77697326       0.40048765       0.39378209 </v>
    <v>       0.82069162       0.14717037       0.41026269 </v>
    <v>       0.82134046       0.31722346       0.40579104 </v>
    <v>       0.86217112       0.06850111       0.41914925 </v>
    <v>       0.86525847       0.39325802       0.40665075 </v>
    <v>       0.90320499       0.15259877       0.43125075 </v>
    <v>       0.90725134       0.31905309       0.42446567 </v>
    <v>       0.94725134       0.06666580       0.43775522 </v>
    <v>       0.95181818       0.40220617       0.42908955 </v>
    <v>       0.98761497       0.14907037       0.45017015 </v>
    <v>       0.98798930       0.32394691       0.44704179 </v>
    <v>       0.04790553       0.64755432       0.43131642 </v>
    <v>       0.04701390       0.82089506       0.43509552 </v>
    <v>       0.08536542       0.55498025       0.44796418 </v>
    <v>       0.08203066       0.90065432       0.45458806 </v>
    <v>       0.12717077       0.64441728       0.45884478 </v>
    <v>       0.12750089       0.81377407       0.46267164 </v>
    <v>       0.16944064       0.56652099       0.47100000 </v>
    <v>       0.16823565       0.89648148       0.47740597 </v>
    <v>       0.21328485       0.64705185       0.47297612 </v>
    <v>       0.21432834       0.81691605       0.47928657 </v>
    <v>       0.25849162       0.57134568       0.47880597 </v>
    <v>       0.25767701       0.90120000       0.48624179 </v>
    <v>       0.30176613       0.65393457       0.47700896 </v>
    <v>       0.30282210       0.82241852       0.48285075 </v>
    <v>       0.34459964       0.57631481       0.46751045 </v>
    <v>       0.34874617       0.89842593       0.48124179 </v>
    <v>       0.38764706       0.66019753       0.45910746 </v>
    <v>       0.39215686       0.81762346       0.47185672 </v>
    <v>       0.43096613       0.57224568       0.44891642 </v>
    <v>       0.43489127       0.90259012       0.46468060 </v>
    <v>       0.47422103       0.65948642       0.44088657 </v>
    <v>       0.47559358       0.82338025       0.44867164 </v>
    <v>       0.51766488       0.57528395       0.42957313 </v>
    <v>       0.51943316       0.90523457       0.43955522 </v>
    <v>       0.55909804       0.65849630       0.42040299 </v>
    <v>       0.55976827       0.82829012       0.42548657 </v>
    <v>       0.59857041       0.57563333       0.40481194 </v>
    <v>       0.60397861       0.90374815       0.41704776 </v>
    <v>       0.64387879       0.65291852       0.39544478 </v>
    <v>       0.64518717       0.82020741       0.40217910 </v>
    <v>       0.68870945       0.56890000       0.39027761 </v>
    <v>       0.68948663       0.89988148       0.39861791 </v>
    <v>       0.73314082       0.65024568       0.38761194 </v>
    <v>       0.73188948       0.82074444       0.39275821 </v>
    <v>       0.77730481       0.56558765       0.38955821 </v>
    <v>       0.77634225       0.90251111       0.39880896 </v>
    <v>       0.82177897       0.65045062       0.39497612 </v>
    <v>       0.82113369       0.81976543       0.39761493 </v>
    <v>       0.86547594       0.56393457       0.40299701 </v>
    <v>       0.86465954       0.90092716       0.40881791 </v>
    <v>       0.90872014       0.64483457       0.40929254 </v>
    <v>       0.90903743       0.82326790       0.41125075 </v>
    <v>       0.95266667       0.56816420       0.41912836 </v>
    <v>       0.95017825       0.90056296       0.42613134 </v>
    <v>       0.99580036       0.64693951       0.42171343 </v>
    <v>       0.99633512       0.82029630       0.42568657 </v>
   </varray>
  </structure>
  <varray name="forces" >
   <v>      -0.71597854       2.54112647       0.38485886 </v>
   <v>       2.93394155      -1.48493840       0.42432388 </v>
   <v>       0.67073910      -2.14947143      -0.05559731 </v>
   <v>       0.38569023      -0.42673005       1.82566507 </v>
   <v>       1.65200896       0.37783704       1.22393633 </v>
   <v>      -1.86269136       1.13206526      -1.34556662 </v>
   <v>      -0.71998460      -1.09524159      -0.10712221 </v>
   <v>       1.46215297       1.70798873      -0.48876043 </v>
   <v>       1.03492400      -1.54873879       0.21871428 </v>
   <v>      -1.92548761       2.54339881      -0.60022112 </v>
   <v>       0.18407337      -1.77429391      -0.38560116 </v>
   <v>       0.67300809       0.75502114       0.20021252 </v>
   <v>      -0.33571406       1.05633760       0.06700159 </v>
   <v>       0.31920874       0.33326147       0.63181403 </v>
   <v>       2.30440340       1.74659204      -0.97937771 </v>
   <v>       0.62768296      -1.36800136       0.13579268 </v>
   <v>      -0.81974172       1.47994015       0.26256261 </v>
   <v>       1.32733558      -1.51000207      -1.00552364 </v>
   <v>      -0.98969206       0.01104816      -0.73163761 </v>
   <v>      -1.99895785       0.28884195       1.36810843 </v>
   <v>      -0.55133009       0.25192038       0.83970078 </v>
   <v>      -0.89454101      -1.85816331       0.07882667 </v>
   <v>      -0.29559730       2.43722417       0.68110842 </v>
   <v>       0.96668245      -0.34301765       0.55565208 </v>
   <v>      -0.84660051      -0.04852283      -0.07619198 </v>
   <v>       0.28603041      -1.90876771      -0.78929912 </v>
   <v>       1.02576902       0.74130542      -1.93075919 </v>
   <v>       1.05709380      -1.04309366       0.14528993 </v>
   <v>      -1.25480732      -1.82118616       2.63210397 </v>
   <v>      -0.31844953       2.39844587      -0.68928180 </v>
   <v>       0.46318280      -0.45032918       0.19388359 </v>
   <v>       0.45819311      -0.07318992       0.00369925 </v>
   <v>      -1.32554257      -0.46083986      -0.60250277 </v>
   <v>      -0.47660173       1.78077862      -0.24156127 </v>
   <v>       0.28209451      -2.20159348       0.13714106 </v>
   <v>       1.27299824      -2.12641133       1.24570557 </v>
   <v>      -1.47780914       2.09002106       0.19857442 </v>
   <v>      -1.62523081      -0.04533797      -1.29134887 </v>
   <v>       0.94296261      -1.68778614      -0.30707531 </v>
   <v>       1.09681610       1.10257328       1.78050665 </v>
   <v>       1.70654035      -0.58569306      -0.26702858 </v>
   <v>      -1.20248097       0.44642884      -0.87823700 </v>
   <v>      -0.02466480      -0.96001791       0.20891682 </v>
   <v>      -2.35033388       0.34229554      -0.22845276 </v>
   <v>      -1.88356864       0.74222795      -0.11255468 </v>
   <v>       0.09872201      -2.09369002       0.35295534 </v>
   <v>       0.89506109      -0.79106449       0.65135310 </v>
   <v>       0.05501673      -1.22570165      -0.02901816 </v>
   <v>      -0.41544592       3.00982714      -1.20415887 </v>
   <v>       2.71115745      -0.32261257       0.66600115 </v>
   <v>       0.44607785       0.13250043       0.12075754 </v>
   <v>      -1.96566704       1.12831013      -0.31755222 </v>
   <v>      -0.14089454      -2.29651721      -0.26082977 </v>
   <v>       1.54182465      -0.02474592      -0.31221549 </v>
   <v>       1.45025916       1.12303261       1.63185085 </v>
   <v>      -1.71233488       0.28060312      -0.36490207 </v>
   <v>      -1.84347395      -2.13820074      -0.93030207 </v>
   <v>       0.39626427       0.41836992       0.18931360 </v>
   <v>       0.16807779       0.71457808      -0.21169546 </v>
   <v>       0.07035658      -0.42281987      -0.36130535 </v>
   <v>       0.02524093      -0.65427600      -0.31968021 </v>
   <v>      -1.41631972      -0.13131221       1.03262842 </v>
   <v>       1.35563939      -2.62806594       0.58554567 </v>
   <v>      -0.81317916       1.59579317      -0.70044512 </v>
   <v>      -0.38434180       1.12802762      -0.48592425 </v>
   <v>       1.20565902       0.48982737       0.18087213 </v>
   <v>      -0.05530216      -1.97173143      -0.03346526 </v>
   <v>       0.43481731       0.94843732      -0.07446266 </v>
   <v>      -2.53887397       1.04429403       0.16108236 </v>
   <v>      -0.93563559      -0.43258540       0.57760750 </v>
   <v>       0.08924649       0.51854019      -0.87457240 </v>
   <v>       1.64982570      -1.72546112      -0.46161259 </v>
   <v>       2.32744472       0.15494125       0.00514242 </v>
   <v>      -0.31991081       0.09703173       0.11240907 </v>
   <v>      -0.61265735      -0.10462190       0.46718469 </v>
   <v>      -0.44928332       0.06440695       0.03574226 </v>
   <v>      -0.90320122       0.28777856      -0.37054089 </v>
   <v>      -1.46563143       1.27970432       0.14750324 </v>
   <v>      -0.48074733       0.25466518       0.25480157 </v>
   <v>       2.38591272      -0.86518254       0.11221799 </v>
   <v>       0.63212345       2.04893949      -0.12322117 </v>
   <v>       0.22431838      -0.30895195      -0.62143867 </v>
   <v>       0.21027229      -1.06232233      -0.36485069 </v>
   <v>       0.42586597       0.60110017       0.78557786 </v>
   <v>      -0.52154680       0.52975270      -0.87466373 </v>
   <v>      -0.74118621       0.53578342       0.19818632 </v>
   <v>       1.11930185       2.71792478      -0.13619692 </v>
   <v>      -0.22587799      -2.71696951       0.45879486 </v>
   <v>      -0.07169010      -0.90074940      -0.58532170 </v>
   <v>       2.29032761       0.35236295      -0.10037349 </v>
   <v>       0.09021364       2.28554186      -0.28092874 </v>
   <v>      -3.52355203      -0.25980448      -0.65824837 </v>
  </varray>
  <varray name="stress" >
   <v>      -0.48032515       0.48010997       0.50091781 </v>
   <v>       0.48010998      48.68304706       0.25559176 </v>
   <v>       0.50091781       0.25559176      -0.62197770 </v>
  </varray>
  <energy>
   <i name="e_fr_energy">   -830.19632525 </i>
   <i name="e_wo_entrp">   -830.11462482 </i>
   <i name="e_0_energy">   -830.15547504 </i>
  </energy>
  <time name="totalsc">  345.51  345.71</time>
  <eigenvalues>
   <array>
    <dimension dim="1">band</dimension>
    <dimension dim="2">kpoint</dimension>
    <dimension dim="3">spin</dimension>
    <field>eigene</field>
    <field>occ</field>
    <set>
     <set comment="spin 1">
      <set comment="kpoint 1">
       <r>  -23.1722    1.0000 </r>
       <r>  -23.0519    1.0000 </r>
       <r>  -22.9939    1.0000 </r>
       <r>  -22.7112    1.0000 </r>
       <r>  -22.5667    1.0000 </r>
       <r>  -22.2408    1.0000 </r>
       <r>  -22.0707    1.0000 </r>
       <r>  -21.9386    1.0000 </r>
       <r>  -21.5832    1.0000 </r>
       <r>  -21.5129    1.0000 </r>
       <r>  -21.4098    1.0000 </r>
       <r>  -21.3564    1.0000 </r>
       <r>  -21.2512    1.0000 </r>
       <r>  -21.1729    1.0000 </r>
       <r>  -21.1609    1.0000 </r>
       <r>  -21.0835    1.0000 </r>
       <r>  -20.9639    1.0000 </r>
       <r>  -20.9024    1.0000 </r>
       <r>  -20.8041    1.0000 </r>
       <r>  -20.5635    1.0000 </r>
       <r>  -20.3770    1.0000 </r>
       <r>  -20.3236    1.0000 </r>
       <r>  -20.0931    1.0000 </r>
       <r>  -20.0772    1.0000 </r>
       <r>  -19.9759    1.0000 </r>
       <r>  -19.6763    1.0000 </r>
       <r>  -19.5530    1.0000 </r>
       <r>  -19.4809    1.0000 </r>
       <r>  -19.1822    1.0000 </r>
       <r>  -18.9245    1.0000 </r>
       <r>  -18.6607    1.0000 </r>
       <r>  -18.6332    1.0000 </r>
       <r>  -18.5199    1.0000 </r>
       <r>  -18.4144    1.0000 </r>
       <r>  -18.1983    1.0000 </r>
       <r>  -17.6010    1.0000 </r>
       <r>  -17.4228    1.0000 </r>
       <r>  -17.1403    1.0000 </r>
       <r>  -17.0997    1.0000 </r>
       <r>  -16.9939    1.0000 </r>
       <r>  -16.9103    1.0000 </r>
       <r>  -16.7347    1.0000 </r>
       <r>  -16.6855    1.0000 </r>
       <r>  -16.6696    1.0000 </r>
       <r>  -16.6105    1.0000 </r>
       <r>  -16.5612    1.0000 </r>
       <r>  -16.4984    1.0000 </r>
       <r>  -16.4811    1.0000 </r>
       <r>  -16.3714    1.0000 </r>
       <r>  -16.3108    1.0000 </r>
       <r>  -16.2176    1.0000 </r>
       <r>  -16.1366    1.0000 </r>
       <r>  -16.1036    1.0000 </r>
       <r>  -16.0453    1.0000 </r>
       <r>  -15.9840    1.0000 </r>
       <r>  -15.6599    1.0000 </r>
       <r>  -15.4415    1.0000 </r>
       <r>  -15.4157    1.0000 </r>
       <r>  -15.2252    1.0000 </r>
       <r>  -15.1975    1.0000 </r>
       <r>  -15.1559    1.0000 </r>
       <r>  -14.9685    1.0000 </r>
       <r>  -14.4878    1.0000 </r>
       <r>  -14.2277    1.0000 </r>
       <r>  -14.1371    1.0000 </r>
       <r>  -14.0519    1.0000 </r>
       <r>  -13.9491    1.0000 </r>
       <r>  -13.7121    1.0000 </r>
       <r>  -13.6651    1.0000 </r>
       <r>  -13.6252    1.0000 </r>
       <r>  -13.4215    1.0000 </r>
       <r>  -13.4011    1.0000 </r>
       <r>  -13.2990    1.0000 </r>
       <r>  -13.2267    1.0000 </r>
       <r>  -13.0692    1.0000 </r>
       <r>  -12.9202    1.0000 </r>
       <r>  -12.6274    1.0000 </r>
       <r>  -12.4550    1.0000 </r>
       <r>  -12.1885    1.0000 </r>
       <r>  -12.0819    1.0000 </r>
       <r>  -12.0695    1.0000 </r>
       <r>  -11.9648    1.0000 </r>
       <r>  -11.8905    1.0000 </r>
       <r>  -11.8643    1.0000 </r>
       <r>  -11.7814    1.0000 </r>
       <r>  -11.5431    1.0000 </r>
       <r>  -11.3189    1.0000 </r>
       <r>  -11.2290    1.0000 </r>
       <r>  -11.0888    1.0000 </r>
       <r>  -11.0839    1.0000 </r>
       <r>  -10.9400    1.0000 </r>
       <r>  -10.9089    1.0000 </r>
       <r>  -10.7558    1.0000 </r>
       <r>  -10.7101    1.0000 </r>
       <r>  -10.6824    1.0000 </r>
       <r>  -10.6380    1.0000 </r>
       <r>  -10.5935    1.0000 </r>
       <r>  -10.5332    1.0000 </r>
       <r>  -10.5260    1.0000 </r>
       <r>  -10.4679    1.0000 </r>
       <r>  -10.4140    1.0000 </r>
       <r>  -10.3394    1.0000 </r>
       <r>  -10.2717    1.0000 </r>
       <r>  -10.2030    1.0000 </r>
       <r>  -10.1384    1.0000 </r>
       <r>   -9.9678    1.0000 </r>
       <r>   -9.8939    1.0000 </r>
       <r>   -9.8360    1.0000 </r>
       <r>   -9.7870    1.0000 </r>
       <r>   -9.7410    1.0000 </r>
       <r>   -9.7009    1.0000 </r>
       <r>   -9.6537    1.0000 </r>
       <r>   -9.6447    1.0000 </r>
       <r>   -9.6178    1.0000 </r>
       <r>   -9.5999    1.0000 </r>
       <r>   -9.5703    1.0000 </r>
       <r>   -9.5446    1.0000 </r>
       <r>   -9.5186    1.0000 </r>
       <r>   -9.4748    1.0000 </r>
       <r>   -9.4648    1.0000 </r>
       <r>   -9.4298    1.0000 </r>
       <r>   -9.4047    1.0000 </r>
       <r>   -9.3481    1.0000 </r>
       <r>   -9.3321    1.0000 </r>
       <r>   -9.3196    1.0000 </r>
       <r>   -9.2761    1.0000 </r>
       <r>   -9.1884    1.0000 </r>
       <r>   -9.1583    1.0000 </r>
       <r>   -9.1406    1.0000 </r>
       <r>   -9.1034    1.0000 </r>
       <r>   -9.0213    1.0000 </r>
       <r>   -8.9867    1.0000 </r>
       <r>   -8.9839    1.0000 </r>
       <r>   -8.9435    1.0000 </r>
       <r>   -8.9005    1.0000 </r>
       <r>   -8.8738    1.0000 </r>
       <r>   -8.8536    1.0000 </r>
       <r>   -8.7957    1.0000 </r>
       <r>   -8.7168    1.0000 </r>
       <r>   -8.7005    1.0000 </r>
       <r>   -8.6553    1.0000 </r>
       <r>   -8.6198    1.0000 </r>
       <r>   -8.5179    1.0000 </r>
       <r>   -8.5014    1.0000 </r>
       <r>   -8.4783    1.0000 </r>
       <r>   -8.4013    1.0000 </r>
       <r>   -8.0515    1.0000 </r>
       <r>   -7.9409    1.0000 </r>
       <r>   -7.8666    1.0000 </r>
       <r>   -7.8377    1.0000 </r>
       <r>   -7.7873    1.0000 </r>
       <r>   -7.6126    1.0000 </r>
       <r>   -7.5710    1.0000 </r>
       <r>   -7.5346    1.0000 </r>
       <r>   -7.4796    1.0000 </r>
       <r>   -7.3602    1.0000 </r>
       <r>   -7.2564    1.0000 </r>
       <r>   -7.0982    1.0000 </r>
       <r>   -7.0327    1.0000 </r>
       <r>   -6.9305    1.0000 </r>
       <r>   -6.8329    1.0000 </r>
       <r>   -6.7307    1.0000 </r>
       <r>   -6.6830    1.0000 </r>
       <r>   -6.5675    1.0000 </r>
       <r>   -6.4793    1.0000 </r>
       <r>   -6.2488    1.0000 </r>
       <r>   -6.1445    1.0000 </r>
       <r>   -6.0869    1.0000 </r>
       <r>   -6.0463    1.0000 </r>
       <r>   -5.9223    1.0000 </r>
       <r>   -5.8887    1.0000 </r>
       <r>   -5.8296    1.0000 </r>
       <r>   -5.8131    1.0000 </r>
       <r>   -5.1387    1.0000 </r>
       <r>   -5.0024    1.0000 </r>
       <r>   -4.9601    1.0000 </r>
       <r>   -4.6658    1.0000 </r>
       <r>   -4.5231    1.0000 </r>
       <r>   -4.5050    1.0000 </r>
       <r>   -4.4489    1.0000 </r>
       <r>   -4.3840    1.0000 </r>
       <r>   -3.8167    1.0000 </r>
       <r>   -3.7123    0.9999 </r>
       <r>   -3.2099    0.6060 </r>
       <r>   -2.9940    0.1043 </r>
       <r>   -2.8118    0.0054 </r>
       <r>   -2.6718    0.0002 </r>
       <r>   -2.3853    0.0000 </r>
       <r>   -2.1835    0.0000 </r>
       <r>   -2.1094    0.0000 </r>
       <r>   -1.6847    0.0000 </r>
       <r>   -1.6508    0.0000 </r>
       <r>   -1.5685    0.0000 </r>
       <r>   -1.5505    0.0000 </r>
       <r>   -1.5142    0.0000 </r>
       <r>   -1.4569    0.0000 </r>
       <r>   -1.3099    0.0000 </r>
       <r>   -0.8830    0.0000 </r>
       <r>   -0.7894    0.0000 </r>
       <r>   -0.6821    0.0000 </r>
       <r>   -0.5873    0.0000 </r>
       <r>   -0.4019    0.0000 </r>
       <r>   -0.0868    0.0000 </r>
       <r>   -0.0474    0.0000 </r>
       <r>    0.1189    0.0000 </r>
       <r>    0.1663    0.0000 </r>
       <r>    0.2439    0.0000 </r>
       <r>    0.5958    0.0000 </r>
       <r>    0.6116    0.0000 </r>
       <r>    0.6951    0.0000 </r>
       <r>    0.7384    0.0000 </r>
       <r>    0.8109    0.0000 </r>
       <r>    0.8661    0.0000 </r>
       <r>    0.9180    0.0000 </r>
       <r>    0.9280    0.0000 </r>
       <r>    0.9847    0.0000 </r>
       <r>    1.0508    0.0000 </r>
       <r>    1.1538    0.0000 </r>
       <r>    1.1615    0.0000 </r>
       <r>    1.2195    0.0000 </r>
       <r>    1.3085    0.0000 </r>
       <r>    1.3143    0.0000 </r>
       <r>    1.3367    0.0000 </r>
       <r>    1.4069    0.0000 </r>
       <r>    1.4585    0.0000 </r>
       <r>    1.5464    0.0000 </r>
       <r>    1.5656    0.0000 </r>
       <r>    1.6570    0.0000 </r>
       <r>    1.7110    0.0000 </r>
       <r>    1.7315    0.0000 </r>
       <r>    1.7318    0.0000 </r>
       <r>    1.7857    0.0000 </r>
      </set>
      <set comment="kpoint 2">
       <r>  -23.0761    1.0000 </r>
       <r>  -22.9685    1.0000 </r>
       <r>  -22.8967    1.0000 </r>
       <r>  -22.6245    1.0000 </r>
       <r>  -22.4762    1.0000 </r>
       <r>  -22.4054    1.0000 </r>
       <r>  -22.2250    1.0000 </r>
       <r>  -22.0738    1.0000 </r>
       <r>  -21.9911    1.0000 </r>
       <r>  -21.8589    1.0000 </r>
       <r>  -21.8235    1.0000 </r>
       <r>  -21.6333    1.0000 </r>
       <r>  -21.2874    1.0000 </r>
       <r>  -21.0982    1.0000 </r>
       <r>  -21.0354    1.0000 </r>
       <r>  -20.9557    1.0000 </r>
       <r>  -20.6454    1.0000 </r>
       <r>  -20.5381    1.0000 </r>
       <r>  -20.4649    1.0000 </r>
       <r>  -20.2895    1.0000 </r>
       <r>  -20.2093    1.0000 </r>
       <r>  -20.0613    1.0000 </r>
       <r>  -20.0248    1.0000 </r>
       <r>  -19.9337    1.0000 </r>
       <r>  -19.8486    1.0000 </r>
       <r>  -19.4939    1.0000 </r>
       <r>  -19.4765    1.0000 </r>
       <r>  -19.1307    1.0000 </r>
       <r>  -19.0556    1.0000 </r>
       <r>  -18.8590    1.0000 </r>
       <r>  -18.6998    1.0000 </r>
       <r>  -18.5438    1.0000 </r>
       <r>  -18.4751    1.0000 </r>
       <r>  -18.3194    1.0000 </r>
       <r>  -18.1644    1.0000 </r>
       <r>  -18.1163    1.0000 </r>
       <r>  -18.0622    1.0000 </r>
       <r>  -17.9848    1.0000 </r>
       <r>  -17.8143    1.0000 </r>
       <r>  -17.7866    1.0000 </r>
       <r>  -17.4968    1.0000 </r>
       <r>  -17.4128    1.0000 </r>
       <r>  -17.2768    1.0000 </r>
       <r>  -17.1368    1.0000 </r>
       <r>  -17.0482    1.0000 </r>
       <r>  -16.5773    1.0000 </r>
       <r>  -16.3948    1.0000 </r>
       <r>  -16.2011    1.0000 </r>
       <r>  -16.1179    1.0000 </r>
       <r>  -15.9362    1.0000 </r>
       <r>  -15.8212    1.0000 </r>
       <r>  -15.6251    1.0000 </r>
       <r>  -15.5720    1.0000 </r>
       <r>  -15.3679    1.0000 </r>
       <r>  -15.3403    1.0000 </r>
       <r>  -15.2265    1.0000 </r>
       <r>  -15.1533    1.0000 </r>
       <r>  -15.1032    1.0000 </r>
       <r>  -15.0131    1.0000 </r>
       <r>  -14.9785    1.0000 </r>
       <r>  -14.9662    1.0000 </r>
       <r>  -14.7718    1.0000 </r>
       <r>  -14.5589    1.0000 </r>
       <r>  -14.3471    1.0000 </r>
       <r>  -14.2556    1.0000 </r>
       <r>  -14.1823    1.0000 </r>
       <r>  -14.0027    1.0000 </r>
       <r>  -13.8828    1.0000 </r>
       <r>  -13.3493    1.0000 </r>
       <r>  -13.2815    1.0000 </r>
       <r>  -13.2230    1.0000 </r>
       <r>  -13.1638    1.0000 </r>
       <r>  -12.9334    1.0000 </r>
       <r>  -12.8108    1.0000 </r>
       <r>  -12.7797    1.0000 </r>
       <r>  -12.7153    1.0000 </r>
       <r>  -12.6567    1.0000 </r>
       <r>  -12.5659    1.0000 </r>
       <r>  -12.4088    1.0000 </r>
       <r>  -12.3455    1.0000 </r>
       <r>  -12.1825    1.0000 </r>
       <r>  -12.1291    1.0000 </r>
       <r>  -12.0627    1.0000 </r>
       <r>  -11.9710    1.0000 </r>
       <r>  -11.7264    1.0000 </r>
       <r>  -11.6525    1.0000 </r>
       <r>  -11.4404    1.0000 </r>
       <r>  -11.3566    1.0000 </r>
       <r>  -11.2660    1.0000 </r>
       <r>  -11.1955    1.0000 </r>
       <r>  -11.1171    1.0000 </r>
       <r>  -11.0395    1.0000 </r>
       <r>  -11.0128    1.0000 </r>
       <r>  -10.9636    1.0000 </r>
       <r>  -10.9314    1.0000 </r>
       <r>  -10.8849    1.0000 </r>
       <r>  -10.8513    1.0000 </r>
       <r>  -10.8293    1.0000 </r>
       <r>  -10.7721    1.0000 </r>
       <r>  -10.6065    1.0000 </r>
       <r>  -10.5768    1.0000 </r>
       <r>  -10.5339    1.0000 </r>
       <r>  -10.5009    1.0000 </r>
       <r>  -10.4087    1.0000 </r>
       <r>  -10.3911    1.0000 </r>
       <r>  -10.3301    1.0000 </r>
       <r>  -10.3042    1.0000 </r>
       <r>  -10.1078    1.0000 </r>
       <r>  -10.0589    1.0000 </r>
       <r>  -10.0499    1.0000 </r>
       <r>  -10.0089    1.0000 </r>
       <r>   -9.9164    1.0000 </r>
       <r>   -9.8805    1.0000 </r>
       <r>   -9.8210    1.0000 </r>
       <r>   -9.7080    1.0000 </r>
       <r>   -9.6937    1.0000 </r>
       <r>   -9.6652    1.0000 </r>
       <r>   -9.6075    1.0000 </r>
       <r>   -9.5912    1.0000 </r>
       <r>   -9.5658    1.0000 </r>
       <r>   -9.5278    1.0000 </r>
       <r>   -9.4687    1.0000 </r>
       <r>   -9.4081    1.0000 </r>
       <r>   -9.3313    1.0000 </r>
       <r>   -9.3205    1.0000 </r>
       <r>   -9.2633    1.0000 </r>
       <r>   -9.0221    1.0000 </r>
       <r>   -8.9519    1.0000 </r>
       <r>   -8.8590    1.0000 </r>
       <r>   -8.8078    1.0000 </r>
       <r>   -8.7506    1.0000 </r>
       <r>   -8.7329    1.0000 </r>
       <r>   -8.6406    1.0000 </r>
       <r>   -8.6068    1.0000 </r>
       <r>   -8.5713    1.0000 </r>
       <r>   -8.5407    1.0000 </r>
       <r>   -8.5106    1.0000 </r>
       <r>   -8.4043    1.0000 </r>
       <r>   -8.3542    1.0000 </r>
       <r>   -8.3372    1.0000 </r>
       <r>   -8.2580    1.0000 </r>
       <r>   -8.1815    1.0000 </r>
       <r>   -8.1311    1.0000 </r>
       <r>   -8.1124    1.0000 </r>
       <r>   -8.0815    1.0000 </r>
       <r>   -7.9966    1.0000 </r>
       <r>   -7.9496    1.0000 </r>
       <r>   -7.9025    1.0000 </r>
       <r>   -7.7758    1.0000 </r>
       <r>   -7.7130    1.0000 </r>
       <r>   -7.6091    1.0000 </r>
       <r>   -7.5350    1.0000 </r>
       <r>   -7.4612    1.0000 </r>
       <r>   -7.4197    1.0000 </r>
       <r>   -7.3578    1.0000 </r>
       <r>   -7.2748    1.0000 </r>
       <r>   -7.2152    1.0000 </r>
       <r>   -7.0210    1.0000 </r>
       <r>   -6.9216    1.0000 </r>
       <r>   -6.9103    1.0000 </r>
       <r>   -6.8541    1.0000 </r>
       <r>   -6.6961    1.0000 </r>
       <r>   -6.6129    1.0000 </r>
       <r>   -6.5906    1.0000 </r>
       <r>   -6.4643    1.0000 </r>
       <r>   -6.3056    1.0000 </r>
       <r>   -6.1709    1.0000 </r>
       <r>   -6.1091    1.0000 </r>
       <r>   -6.0377    1.0000 </r>
       <r>   -5.9430    1.0000 </r>
       <r>   -5.8852    1.0000 </r>
       <r>   -5.7776    1.0000 </r>
       <r>   -5.7426    1.0000 </r>
       <r>   -5.7069    1.0000 </r>
       <r>   -5.5841    1.0000 </r>
       <r>   -5.5242    1.0000 </r>
       <r>   -5.2124    1.0000 </r>
       <r>   -5.1436    1.0000 </r>
       <r>   -4.7299    1.0000 </r>
       <r>   -4.6359    1.0000 </r>
       <r>   -4.5407    1.0000 </r>
       <r>   -4.5043    1.0000 </r>
       <r>   -4.4316    1.0000 </r>
       <r>   -3.4708    0.9827 </r>
       <r>   -3.0305    0.1588 </r>
       <r>   -2.4676    0.0000 </r>
       <r>   -2.1313    0.0000 </r>
       <r>   -2.0817    0.0000 </r>
       <r>   -1.6425    0.0000 </r>
       <r>   -1.5270    0.0000 </r>
       <r>   -1.4422    0.0000 </r>
       <r>   -1.4183    0.0000 </r>
       <r>   -1.3458    0.0000 </r>
       <r>   -1.3229    0.0000 </r>
       <r>   -1.1420    0.0000 </r>
       <r>   -1.0353    0.0000 </r>
       <r>   -0.9569    0.0000 </r>
       <r>   -0.9222    0.0000 </r>
       <r>   -0.8258    0.0000 </r>
       <r>   -0.3745    0.0000 </r>
       <r>   -0.2317    0.0000 </r>
       <r>   -0.1957    0.0000 </r>
       <r>   -0.0453    0.0000 </r>
       <r>    0.0066    0.0000 </r>
       <r>    0.0763    0.0000 </r>
       <r>    0.1625    0.0000 </r>
       <r>    0.2334    0.0000 </r>
       <r>    0.3112    0.0000 </r>
       <r>    0.3286    0.0000 </r>
       <r>    0.7777    0.0000 </r>
       <r>    0.7968    0.0000 </r>
       <r>    0.8407    0.0000 </r>
       <r>    1.0220    0.0000 </r>
       <r>    1.0477    0.0000 </r>
       <r>    1.0608    0.0000 </r>
       <r>    1.0999    0.0000 </r>
       <r>    1.1309    0.0000 </r>
       <r>    1.2494    0.0000 </r>
       <r>    1.2960    0.0000 </r>
       <r>    1.3034    0.0000 </r>
       <r>    1.3611    0.0000 </r>
       <r>    1.3807    0.0000 </r>
       <r>    1.4217    0.0000 </r>
       <r>    1.4473    0.0000 </r>
       <r>    1.4537    0.0000 </r>
       <r>    1.4757    0.0000 </r>
       <r>    1.5203    0.0000 </r>
       <r>    1.5488    0.0000 </r>
       <r>    1.5951    0.0000 </r>
       <r>    1.6161    0.0000 </r>
       <r>    1.6828    0.0000 </r>
       <r>    1.7117    0.0000 </r>
      </set>
      <set comment="kpoint 3">
       <r>  -22.8623    1.0000 </r>
       <r>  -22.7850    1.0000 </r>
       <r>  -22.7313    1.0000 </r>
       <r>  -22.6390    1.0000 </r>
       <r>  -22.5918    1.0000 </r>
       <r>  -22.5602    1.0000 </r>
       <r>  -22.3474    1.0000 </r>
       <r>  -22.3100    1.0000 </r>
       <r>  -22.1711    1.0000 </r>
       <r>  -22.1266    1.0000 </r>
       <r>  -21.7087    1.0000 </r>
       <r>  -21.6690    1.0000 </r>
       <r>  -21.5484    1.0000 </r>
       <r>  -21.5193    1.0000 </r>
       <r>  -20.8426    1.0000 </r>
       <r>  -20.8080    1.0000 </r>
       <r>  -20.7130    1.0000 </r>
       <r>  -20.6631    1.0000 </r>
       <r>  -19.8822    1.0000 </r>
       <r>  -19.8588    1.0000 </r>
       <r>  -19.6535    1.0000 </r>
       <r>  -19.5981    1.0000 </r>
       <r>  -19.5702    1.0000 </r>
       <r>  -19.5148    1.0000 </r>
       <r>  -19.4107    1.0000 </r>
       <r>  -19.3875    1.0000 </r>
       <r>  -19.2804    1.0000 </r>
       <r>  -19.2558    1.0000 </r>
       <r>  -19.0460    1.0000 </r>
       <r>  -19.0162    1.0000 </r>
       <r>  -18.9766    1.0000 </r>
       <r>  -18.9310    1.0000 </r>
       <r>  -18.6158    1.0000 </r>
       <r>  -18.6028    1.0000 </r>
       <r>  -18.4678    1.0000 </r>
       <r>  -18.4080    1.0000 </r>
       <r>  -18.2995    1.0000 </r>
       <r>  -18.2681    1.0000 </r>
       <r>  -18.1489    1.0000 </r>
       <r>  -18.0810    1.0000 </r>
       <r>  -17.7554    1.0000 </r>
       <r>  -17.7149    1.0000 </r>
       <r>  -17.6906    1.0000 </r>
       <r>  -17.6230    1.0000 </r>
       <r>  -16.8835    1.0000 </r>
       <r>  -16.8699    1.0000 </r>
       <r>  -16.2954    1.0000 </r>
       <r>  -16.2493    1.0000 </r>
       <r>  -16.0928    1.0000 </r>
       <r>  -16.0766    1.0000 </r>
       <r>  -15.9507    1.0000 </r>
       <r>  -15.8895    1.0000 </r>
       <r>  -15.3231    1.0000 </r>
       <r>  -15.2528    1.0000 </r>
       <r>  -15.0632    1.0000 </r>
       <r>  -15.0561    1.0000 </r>
       <r>  -14.8470    1.0000 </r>
       <r>  -14.8198    1.0000 </r>
       <r>  -14.7487    1.0000 </r>
       <r>  -14.7163    1.0000 </r>
       <r>  -14.0404    1.0000 </r>
       <r>  -13.9460    1.0000 </r>
       <r>  -13.7999    1.0000 </r>
       <r>  -13.7609    1.0000 </r>
       <r>  -13.7342    1.0000 </r>
       <r>  -13.6671    1.0000 </r>
       <r>  -13.6525    1.0000 </r>
       <r>  -13.6130    1.0000 </r>
       <r>  -13.5829    1.0000 </r>
       <r>  -13.5778    1.0000 </r>
       <r>  -13.5011    1.0000 </r>
       <r>  -13.4599    1.0000 </r>
       <r>  -13.4427    1.0000 </r>
       <r>  -13.4043    1.0000 </r>
       <r>  -13.1482    1.0000 </r>
       <r>  -13.0759    1.0000 </r>
       <r>  -12.4145    1.0000 </r>
       <r>  -12.3094    1.0000 </r>
       <r>  -12.2048    1.0000 </r>
       <r>  -12.1892    1.0000 </r>
       <r>  -12.1266    1.0000 </r>
       <r>  -12.1091    1.0000 </r>
       <r>  -11.9532    1.0000 </r>
       <r>  -11.9150    1.0000 </r>
       <r>  -11.8969    1.0000 </r>
       <r>  -11.8436    1.0000 </r>
       <r>  -11.7984    1.0000 </r>
       <r>  -11.7869    1.0000 </r>
       <r>  -11.6930    1.0000 </r>
       <r>  -11.6252    1.0000 </r>
       <r>  -11.3167    1.0000 </r>
       <r>  -11.2926    1.0000 </r>
       <r>  -11.2044    1.0000 </r>
       <r>  -11.1710    1.0000 </r>
       <r>  -11.0260    1.0000 </r>
       <r>  -10.9570    1.0000 </r>
       <r>  -10.8361    1.0000 </r>
       <r>  -10.7844    1.0000 </r>
       <r>  -10.7068    1.0000 </r>
       <r>  -10.6895    1.0000 </r>
       <r>  -10.5795    1.0000 </r>
       <r>  -10.5391    1.0000 </r>
       <r>  -10.4994    1.0000 </r>
       <r>  -10.4695    1.0000 </r>
       <r>  -10.4630    1.0000 </r>
       <r>  -10.4020    1.0000 </r>
       <r>  -10.3639    1.0000 </r>
[...]
       <r>   -22.6625    14.2291     7.0999 </r>
       <r>   -22.5660    15.0644     8.5540 </r>
       <r>   -22.4694    14.9851    10.0004 </r>
       <r>   -22.3729    14.2932    11.3801 </r>
       <r>   -22.2764    13.9962    12.7311 </r>
       <r>   -22.1799    14.3162    14.1130 </r>
       <r>   -22.0833    14.6430    15.5264 </r>
       <r>   -21.9868    14.4203    16.9184 </r>
       <r>   -21.8903    13.7159    18.2423 </r>
       <r>   -21.7938    13.0289    19.4999 </r>
       <r>   -21.6972    12.8204    20.7374 </r>
       <r>   -21.6007    12.9241    21.9850 </r>
       <r>   -21.5042    12.5538    23.1967 </r>
       <r>   -21.4076    11.7370    24.3297 </r>
       <r>   -21.3111    11.6090    25.4502 </r>
       <r>   -21.2146    12.7352    26.6795 </r>
       <r>   -21.1181    14.4704    28.0763 </r>
       <r>   -21.0215    15.6452    29.5865 </r>
       <r>   -20.9250    15.4693    31.0797 </r>
       <r>   -20.8285    14.3279    32.4627 </r>
       <r>   -20.7320    13.3893    33.7551 </r>
       <r>   -20.6354    13.2187    35.0311 </r>
       <r>   -20.5389    13.2470    36.3097 </r>
       <r>   -20.4424    12.8707    37.5521 </r>
       <r>   -20.3459    12.4226    38.7512 </r>
       <r>   -20.2493    12.5999    39.9674 </r>
       <r>   -20.1528    13.7607    41.2957 </r>
       <r>   -20.0563    15.5827    42.7998 </r>
       <r>   -19.9598    16.6417    44.4062 </r>
       <r>   -19.8632    15.6324    45.9151 </r>
       <r>   -19.7667    13.4885    47.2171 </r>
       <r>   -19.6702    12.9047    48.4628 </r>
       <r>   -19.5736    14.8444    49.8957 </r>
       <r>   -19.4771    16.7175    51.5093 </r>
       <r>   -19.3806    15.8937    53.0435 </r>
       <r>   -19.2841    13.5423    54.3507 </r>
       <r>   -19.1875    12.5875    55.5657 </r>
       <r>   -19.0910    13.5396    56.8726 </r>
       <r>   -18.9945    14.4501    58.2675 </r>
       <r>   -18.8980    13.8845    59.6077 </r>
       <r>   -18.8014    12.7991    60.8431 </r>
       <r>   -18.7049    13.2626    62.1233 </r>
       <r>   -18.6084    15.5213    63.6215 </r>
       <r>   -18.5119    17.5885    65.3193 </r>
       <r>   -18.4153    18.0054    67.0573 </r>
       <r>   -18.3188    17.5160    68.7480 </r>
       <r>   -18.2223    17.5357    70.4407 </r>
       <r>   -18.1258    17.7750    72.1564 </r>
       <r>   -18.0292    16.6676    73.7653 </r>
       <r>   -17.9327    14.4032    75.1556 </r>
       <r>   -17.8362    13.0753    76.4177 </r>
       <r>   -17.7396    13.0981    77.6820 </r>
       <r>   -17.6431    12.9036    78.9276 </r>
       <r>   -17.5466    12.0777    80.0934 </r>
       <r>   -17.4501    11.3411    81.1881 </r>
       <r>   -17.3535    10.8262    82.2331 </r>
       <r>   -17.2570    10.7109    83.2670 </r>
       <r>   -17.1605    11.4267    84.3700 </r>
       <r>   -17.0640    12.2695    85.5543 </r>
       <r>   -16.9674    12.0159    86.7141 </r>
       <r>   -16.8709    10.8741    87.7638 </r>
       <r>   -16.7744    10.2880    88.7568 </r>
       <r>   -16.6779    11.1887    89.8368 </r>
       <r>   -16.5813    12.9020    91.0822 </r>
       <r>   -16.4848    14.1559    92.4486 </r>
       <r>   -16.3883    14.9640    93.8931 </r>
       <r>   -16.2918    16.2855    95.4650 </r>
       <r>   -16.1952    18.2043    97.2222 </r>
       <r>   -16.0987    19.4413    99.0988 </r>
       <r>   -16.0022    18.7120   100.9050 </r>
       <r>   -15.9057    16.1184   102.4609 </r>
       <r>   -15.8091    12.9653   103.7124 </r>
       <r>   -15.7126    10.8624   104.7609 </r>
       <r>   -15.6161    10.5980   105.7839 </r>
       <r>   -15.5195    11.7757   106.9205 </r>
       <r>   -15.4230    14.1407   108.2855 </r>
       <r>   -15.3265    17.5733   109.9818 </r>
       <r>   -15.2300    21.0390   112.0126 </r>
       <r>   -15.1334    23.2834   114.2601 </r>
       <r>   -15.0369    23.5140   116.5298 </r>
       <r>   -14.9404    21.4292   118.5983 </r>
       <r>   -14.8439    17.7948   120.3159 </r>
       <r>   -14.7473    14.0319   121.6704 </r>
       <r>   -14.6508    10.9131   122.7238 </r>
       <r>   -14.5543     8.8174   123.5749 </r>
       <r>   -14.4578     8.1722   124.3637 </r>
       <r>   -14.3612     9.1316   125.2452 </r>
       <r>   -14.2647    11.1971   126.3260 </r>
       <r>   -14.1682    13.1877   127.5989 </r>
       <r>   -14.0717    14.3621   128.9852 </r>
       <r>   -13.9751    14.8770   130.4213 </r>
       <r>   -13.8786    15.1264   131.8814 </r>
       <r>   -13.7821    15.7925   133.4058 </r>
       <r>   -13.6855    17.1925   135.0653 </r>
       <r>   -13.5890    18.4445   136.8457 </r>
       <r>   -13.4925    19.0525   138.6847 </r>
       <r>   -13.3960    19.6594   140.5824 </r>
       <r>   -13.2994    20.1656   142.5289 </r>
       <r>   -13.2029    19.3847   144.4000 </r>
       <r>   -13.1064    16.8855   146.0299 </r>
       <r>   -13.0099    14.0710   147.3881 </r>
       <r>   -12.9133    12.9208   148.6353 </r>
       <r>   -12.8168    13.7463   149.9622 </r>
       <r>   -12.7203    14.9765   151.4078 </r>
       <r>   -12.6238    15.1374   152.8690 </r>
       <r>   -12.5272    14.5201   154.2706 </r>
       <r>   -12.4307    14.5544   155.6754 </r>
       <r>   -12.3342    16.0532   157.2250 </r>
       <r>   -12.2377    18.9891   159.0579 </r>
       <r>   -12.1411    22.4809   161.2279 </r>
       <r>   -12.0446    24.6349   163.6059 </r>
       <r>   -11.9481    24.5488   165.9755 </r>
       <r>   -11.8515    23.0476   168.2002 </r>
       <r>   -11.7550    20.7624   170.2043 </r>
       <r>   -11.6585    17.7017   171.9130 </r>
       <r>   -11.5620    14.6464   173.3267 </r>
       <r>   -11.4654    13.6007   174.6396 </r>
       <r>   -11.3689    15.8298   176.1675 </r>
       <r>   -11.2724    20.0833   178.1061 </r>
       <r>   -11.1759    24.2443   180.4463 </r>
       <r>   -11.0793    27.8113   183.1308 </r>
       <r>   -10.9828    31.0567   186.1286 </r>
       <r>   -10.8863    33.1449   189.3280 </r>
       <r>   -10.7898    33.4319   192.5550 </r>
       <r>   -10.6932    33.5476   195.7933 </r>
       <r>   -10.5967    35.5937   199.2290 </r>
       <r>   -10.5002    38.6551   202.9602 </r>
       <r>   -10.4037    39.7323   206.7954 </r>
       <r>   -10.3071    37.7108   210.4355 </r>
       <r>   -10.2106    34.5040   213.7661 </r>
       <r>   -10.1141    32.7769   216.9299 </r>
       <r>   -10.0175    32.8284   220.0987 </r>
       <r>    -9.9210    33.0898   223.2927 </r>
       <r>    -9.8245    33.7778   226.5532 </r>
       <r>    -9.7280    36.4618   230.0727 </r>
       <r>    -9.6314    40.3110   233.9638 </r>
       <r>    -9.5349    42.5569   238.0716 </r>
       <r>    -9.4384    42.3390   242.1584 </r>
       <r>    -9.3419    40.3157   246.0500 </r>
       <r>    -9.2453    36.0720   249.5319 </r>
       <r>    -9.1488    30.5638   252.4821 </r>
       <r>    -9.0523    27.6407   255.1501 </r>
       <r>    -8.9558    29.1518   257.9640 </r>
       <r>    -8.8592    32.6469   261.1153 </r>
       <r>    -8.7627    35.2633   264.5192 </r>
       <r>    -8.6662    36.2678   268.0200 </r>
       <r>    -8.5697    35.8929   271.4846 </r>
       <r>    -8.4731    34.3818   274.8033 </r>
       <r>    -8.3766    32.4505   277.9357 </r>
       <r>    -8.2801    31.0388   280.9317 </r>
       <r>    -8.1835    30.1532   283.8423 </r>
       <r>    -8.0870    29.0284   286.6443 </r>
       <r>    -7.9905    27.6024   289.3087 </r>
       <r>    -7.8940    26.6033   291.8766 </r>
       <r>    -7.7974    26.2865   294.4139 </r>
       <r>    -7.7009    26.6274   296.9842 </r>
       <r>    -7.6044    27.6999   299.6579 </r>
       <r>    -7.5079    28.8175   302.4396 </r>
       <r>    -7.4113    29.0495   305.2436 </r>
       <r>    -7.3148    28.2921   307.9745 </r>
       <r>    -7.2183    26.7936   310.5608 </r>
       <r>    -7.1218    25.2503   312.9981 </r>
       <r>    -7.0252    24.8833   315.4000 </r>
       <r>    -6.9287    25.7460   317.8852 </r>
       <r>    -6.8322    26.5313   320.4462 </r>
       <r>    -6.7357    26.6409   323.0177 </r>
       <r>    -6.6391    26.0006   325.5274 </r>
       <r>    -6.5426    23.8440   327.8290 </r>
       <r>    -6.4461    20.6051   329.8180 </r>
       <r>    -6.3495    18.4547   331.5993 </r>
       <r>    -6.2530    18.3826   333.3737 </r>
       <r>    -6.1565    19.6371   335.2692 </r>
       <r>    -6.0600    21.6258   337.3567 </r>
       <r>    -5.9634    24.2062   339.6932 </r>
       <r>    -5.8669    26.5973   342.2606 </r>
       <r>    -5.7704    27.1393   344.8802 </r>
       <r>    -5.6739    24.7324   347.2675 </r>
       <r>    -5.5773    19.8829   349.1868 </r>
       <r>    -5.4808    14.2776   350.5649 </r>
       <r>    -5.3843    10.4575   351.5744 </r>
       <r>    -5.2878    10.3882   352.5771 </r>
       <r>    -5.1912    12.5350   353.7870 </r>
       <r>    -5.0947    12.9659   355.0386 </r>
       <r>    -4.9982    10.4481   356.0471 </r>
       <r>    -4.9017     7.5045   356.7715 </r>
       <r>    -4.8051     6.9194   357.4394 </r>
       <r>    -4.7086     9.4040   358.3471 </r>
       <r>    -4.6121    13.4756   359.6479 </r>
       <r>    -4.5155    16.3359   361.2247 </r>
       <r>    -4.4190    15.4776   362.7187 </r>
       <r>    -4.3225    11.0606   363.7864 </r>
       <r>    -4.2260     6.2746   364.3920 </r>
       <r>    -4.1294     3.8115   364.7599 </r>
       <r>    -4.0329     3.3684   365.0851 </r>
       <r>    -3.9364     3.4102   365.4143 </r>
       <r>    -3.8399     3.3825   365.7408 </r>
       <r>    -3.7433     3.3630   366.0654 </r>
       <r>    -3.6468     3.3239   366.3862 </r>
       <r>    -3.5503     3.3868   366.7131 </r>
       <r>    -3.4538     3.5048   367.0514 </r>
       <r>    -3.3572     3.3335   367.3732 </r>
       <r>    -3.2607     3.1563   367.6779 </r>
       <r>    -3.1642     3.6656   368.0317 </r>
       <r>    -3.0677     4.7491   368.4901 </r>
       <r>    -2.9711     5.5210   369.0230 </r>
       <r>    -2.8746     5.6531   369.5687 </r>
       <r>    -2.7781     5.8060   370.1291 </r>
       <r>    -2.6815     6.2098   370.7285 </r>
       <r>    -2.5850     6.3523   371.3417 </r>
       <r>    -2.4885     6.1430   371.9347 </r>
       <r>    -2.3920     5.8919   372.5034 </r>
       <r>    -2.2954     6.1164   373.0938 </r>
       <r>    -2.1989     7.3558   373.8038 </r>
       <r>    -2.1024     8.5403   374.6282 </r>
       <r>    -2.0059     7.7255   375.3739 </r>
       <r>    -1.9093     5.7752   375.9314 </r>
       <r>    -1.8128     6.2210   376.5318 </r>
       <r>    -1.7163    10.9271   377.5866 </r>
       <r>    -1.6198    17.6696   379.2922 </r>
       <r>    -1.5232    22.4046   381.4548 </r>
       <r>    -1.4267    23.2295   383.6971 </r>
       <r>    -1.3302    21.1388   385.7375 </r>
       <r>    -1.2337    18.3703   387.5107 </r>
       <r>    -1.1371    16.8893   389.1410 </r>
       <r>    -1.0406    16.8820   390.7706 </r>
       <r>    -0.9441    16.9635   392.4080 </r>
       <r>    -0.8475    16.0563   393.9578 </r>
       <r>    -0.7510    14.2074   395.3292 </r>
       <r>    -0.6545    12.1874   396.5056 </r>
       <r>    -0.5580    10.8038   397.5485 </r>
       <r>    -0.4614    10.5588   398.5677 </r>
       <r>    -0.3649    11.7680   399.7036 </r>
       <r>    -0.2684    14.3392   401.0877 </r>
       <r>    -0.1719    17.2568   402.7535 </r>
       <r>    -0.0753    19.1643   404.6033 </r>
       <r>     0.0212    19.7849   406.5131 </r>
       <r>     0.1177    20.0430   408.4478 </r>
       <r>     0.2142    20.5924   410.4355 </r>
       <r>     0.3108    20.6654   412.4302 </r>
       <r>     0.4073    19.2881   414.2920 </r>
       <r>     0.5038    17.7069   416.0012 </r>
       <r>     0.6003    18.7901   417.8149 </r>
       <r>     0.6969    23.2635   420.0605 </r>
       <r>     0.7934    28.3159   422.7937 </r>
       <r>     0.8899    31.3030   425.8153 </r>
       <r>     0.9865    33.2228   429.0221 </r>
       <r>     1.0830    36.3085   432.5269 </r>
       <r>     1.1795    40.7593   436.4612 </r>
       <r>     1.2760    45.7285   440.8752 </r>
       <r>     1.3726    50.0012   445.7016 </r>
       <r>     1.4691    51.4038   450.6635 </r>
       <r>     1.5656    47.7814   455.2756 </r>
       <r>     1.6621    38.9199   459.0324 </r>
       <r>     1.7587    27.0018   461.6388 </r>
       <r>     1.8552    15.2622   463.1120 </r>
       <r>     1.9517     6.6087   463.7499 </r>
       <r>     2.0482     2.0686   463.9496 </r>
       <r>     2.1448     0.4493   463.9930 </r>
       <r>     2.2413     0.0661   463.9993 </r>
       <r>     2.3378     0.0065   464.0000 </r>
       <r>     2.4343     0.0004   464.0000 </r>
       <r>     2.5309     0.0000   464.0000 </r>
       <r>     2.6274     0.0000   464.0000 </r>
       <r>     2.7239     0.0000   464.0000 </r>
       <r>     2.8205     0.0000   464.0000 </r>
       <r>     2.9170     0.0000   464.0000 </r>
       <r>     3.0135     0.0000   464.0000 </r>
       <r>     3.1100     0.0000   464.0000 </r>
       <r>     3.2066     0.0000   464.0000 </r>
       <r>     3.3031     0.0000   464.0000 </r>
       <r>     3.3996     0.0000   464.0000 </r>
       <r>     3.4961     0.0000   464.0000 </r>
       <r>     3.5927     0.0000   464.0000 </r>
       <r>     3.6892     0.0000   464.0000 </r>
       <r>     3.7857     0.0000   464.0000 </r>
      </set>
     </set>
    </array>
   </total>
  </dos>
 </calculation>
 <structure name="finalpos" >
  <crystal>
   <varray name="basis" >
    <v>      28.05000000       0.00000000       0.00000000 </v>
    <v>       0.00000000       8.10000000       0.00000000 </v>
    <v>       0.00000000       0.00000000      33.50000000 </v>
   </varray>
   <i name="volume">   7611.36750000 </i>
   <varray name="rec_basis" >
    <v>       0.03565062       0.00000000       0.00000000 </v>
    <v>       0.00000000       0.12345679       0.00000000 </v>
    <v>       0.00000000       0.00000000       0.02985075 </v>
   </varray>
  </crystal>
  <varray name="positions" >
   <v>       0.03755009       0.14565432       0.46163284 </v>
   <v>       0.03722745       0.32156543       0.45842090 </v>
   <v>       0.07907451       0.06641815       0.46573134 </v>
   <v>       0.08191765       0.39233951       0.45719104 </v>
   <v>       0.12222709       0.14405802       0.47534328 </v>
   <v>       0.12451159       0.31197531       0.47464776 </v>
   <v>       0.16718396       0.06692914       0.48277910 </v>
   <v>       0.16790766       0.39430864       0.47923881 </v>
   <v>       0.21111551       0.15000370       0.48865373 </v>
   <v>       0.21339002       0.31496914       0.48571045 </v>
   <v>       0.25674225       0.07271753       0.49067164 </v>
   <v>       0.25726132       0.39802840       0.48060000 </v>
   <v>       0.30244207       0.14822346       0.48685373 </v>
   <v>       0.30167273       0.31706296       0.47849552 </v>
   <v>       0.34683779       0.06548691       0.48554925 </v>
   <v>       0.34429626       0.40644074       0.46961791 </v>
   <v>       0.39197504       0.15232716       0.47540896 </v>
   <v>       0.38899822       0.32444321       0.46729254 </v>
   <v>       0.43727986       0.07443704       0.46813731 </v>
   <v>       0.43223529       0.40210617       0.45087463 </v>
   <v>       0.47866667       0.15600370       0.45199701 </v>
   <v>       0.47636720       0.32627407       0.44523284 </v>
   <v>       0.52144385       0.07099074       0.44228657 </v>
   <v>       0.51635294       0.40756296       0.43071045 </v>
   <v>       0.56398217       0.15846296       0.43242985 </v>
   <v>       0.56059893       0.32979506       0.42639701 </v>
   <v>       0.60530125       0.07255938       0.42179104 </v>
   <v>       0.60006774       0.40767037       0.40937313 </v>
   <v>       0.64610695       0.15464074       0.40360299 </v>
   <v>       0.64444207       0.31963580       0.40253433 </v>
   <v>       0.68966488       0.07077975       0.40083582 </v>
   <v>       0.68813191       0.39983704       0.39413731 </v>
   <v>       0.73381105       0.15234691       0.40215224 </v>
   <v>       0.73298396       0.31741481       0.39634030 </v>
   <v>       0.77690553       0.07200778       0.40405075 </v>
   <v>       0.77697326       0.40048765       0.39378209 </v>
   <v>       0.82069162       0.14717037       0.41026269 </v>
   <v>       0.82134046       0.31722346       0.40579104 </v>
   <v>       0.86217112       0.06850111       0.41914925 </v>
   <v>       0.86525847       0.39325802       0.40665075 </v>
   <v>       0.90320499       0.15259877       0.43125075 </v>
   <v>       0.90725134       0.31905309       0.42446567 </v>
   <v>       0.94725134       0.06666580       0.43775522 </v>
   <v>       0.95181818       0.40220617       0.42908955 </v>
   <v>       0.98761497       0.14907037       0.45017015 </v>
   <v>       0.98798930       0.32394691       0.44704179 </v>
   <v>       0.04790553       0.64755432       0.43131642 </v>
   <v>       0.04701390       0.82089506       0.43509552 </v>
   <v>       0.08536542       0.55498025       0.44796418 </v>
   <v>       0.08203066       0.90065432       0.45458806 </v>
   <v>       0.12717077       0.64441728       0.45884478 </v>
   <v>       0.12750089       0.81377407       0.46267164 </v>
   <v>       0.16944064       0.56652099       0.47100000 </v>
   <v>       0.16823565       0.89648148       0.47740597 </v>
   <v>       0.21328485       0.64705185       0.47297612 </v>
   <v>       0.21432834       0.81691605       0.47928657 </v>
   <v>       0.25849162       0.57134568       0.47880597 </v>
   <v>       0.25767701       0.90120000       0.48624179 </v>
   <v>       0.30176613       0.65393457       0.47700896 </v>
   <v>       0.30282210       0.82241852       0.48285075 </v>
   <v>       0.34459964       0.57631481       0.46751045 </v>
   <v>       0.34874617       0.89842593       0.48124179 </v>
   <v>       0.38764706       0.66019753       0.45910746 </v>
   <v>       0.39215686       0.81762346       0.47185672 </v>
   <v>       0.43096613       0.57224568       0.44891642 </v>
   <v>       0.43489127       0.90259012       0.46468060 </v>
   <v>       0.47422103       0.65948642       0.44088657 </v>
   <v>       0.47559358       0.82338025       0.44867164 </v>
   <v>       0.51766488       0.57528395       0.42957313 </v>
   <v>       0.51943316       0.90523457       0.43955522 </v>
   <v>       0.55909804       0.65849630       0.42040299 </v>
   <v>       0.55976827       0.82829012       0.42548657 </v>
   <v>       0.59857041       0.57563333       0.40481194 </v>
   <v>       0.60397861       0.90374815       0.41704776 </v>
   <v>       0.64387879       0.65291852       0.39544478 </v>
   <v>       0.64518717       0.82020741       0.40217910 </v>
   <v>       0.68870945       0.56890000       0.39027761 </v>
   <v>       0.68948663       0.89988148       0.39861791 </v>
   <v>       0.73314082       0.65024568       0.38761194 </v>
   <v>       0.73188948       0.82074444       0.39275821 </v>
   <v>       0.77730481       0.56558765       0.38955821 </v>
   <v>       0.77634225       0.90251111       0.39880896 </v>
   <v>       0.82177897       0.65045062       0.39497612 </v>
   <v>       0.82113369       0.81976543       0.39761493 </v>
   <v>       0.86547594       0.56393457       0.40299701 </v>
   <v>       0.86465954       0.90092716       0.40881791 </v>
   <v>       0.90872014       0.64483457       0.40929254 </v>
   <v>       0.90903743       0.82326790       0.41125075 </v>
   <v>       0.95266667       0.56816420       0.41912836 </v>
   <v>       0.95017825       0.90056296       0.42613134 </v>
   <v>       0.99580036       0.64693951       0.42171343 </v>
   <v>       0.99633512       0.82029630       0.42568657 </v>
  </varray>
 </structure>
</modeling>
