       N       E                     dE             d eps       ncg     rms          rms(c)
DAV:   1     0.370961995082E+04    0.37096E+04   -0.11899E+05  1712   0.105E+03
DAV:   2     0.184962660683E+03   -0.35247E+04   -0.32671E+04  2136   0.238E+02
DAV:   3    -0.835236955455E+03   -0.10202E+04   -0.99604E+03  1800   0.135E+02
DAV:   4    -0.896672403551E+03   -0.61435E+02   -0.60500E+02  1720   0.429E+01
DAV:   5    -0.898186122416E+03   -0.15137E+01   -0.14942E+01  1800   0.653E+00    0.456E+01
DAV:   6    -0.848316071681E+03    0.49870E+02   -0.47716E+01  1576   0.126E+01    0.268E+01
DAV:   7    -0.829745085983E+03    0.18571E+02   -0.65779E+01  1560   0.144E+01    0.736E+00
DAV:   8    -0.829448496313E+03    0.29659E+00   -0.24550E+00  1616   0.335E+00    0.992E-01
DAV:   9    -0.829338827773E+03    0.10967E+00   -0.27453E-01  1624   0.103E+00    0.576E-01
DAV:  10    -0.829297299979E+03    0.41528E-01   -0.57310E-02  1728   0.465E-01    0.354E-01
DAV:  11    -0.829271947492E+03    0.25352E-01   -0.18585E-02  1576   0.232E-01    0.252E-01
DAV:  12    -0.829267708845E+03    0.42386E-02   -0.26540E-02  1544   0.241E-01    0.147E-01
DAV:  13    -0.829278874552E+03   -0.11166E-01   -0.83262E-03  1568   0.142E-01    0.923E-02
DAV:  14    -0.829299011318E+03   -0.20137E-01   -0.15239E-03  1560   0.736E-02    0.528E-02
DAV:  15    -0.829317003635E+03   -0.17992E-01   -0.14908E-03  1584   0.594E-02    0.326E-02
DAV:  16    -0.829326164675E+03   -0.91610E-02   -0.53852E-04  1600   0.361E-02    0.211E-02
DAV:  17    -0.829330968561E+03   -0.48039E-02   -0.28728E-04  1568   0.226E-02    0.119E-02
DAV:  18    -0.829333205139E+03   -0.22366E-02   -0.95471E-05  1600   0.139E-02    0.579E-03
DAV:  19    -0.829334179375E+03   -0.97424E-03   -0.35882E-05  1408   0.797E-03    0.400E-03
DAV:  20    -0.829334503198E+03   -0.32382E-03   -0.38378E-06  1368   0.324E-03    0.215E-03
DAV:  21    -0.829334729158E+03   -0.22596E-03   -0.34695E-06  1272   0.247E-03    0.101E-03
DAV:  22    -0.829334786040E+03   -0.56882E-04   -0.25602E-07  1048   0.105E-03    0.686E-04
DAV:  23    -0.829334824869E+03   -0.38830E-04   -0.33969E-07   960   0.824E-04    0.392E-04
DAV:  24    -0.829334836839E+03   -0.11970E-04   -0.89841E-08   976   0.533E-04    0.181E-04
DAV:  25    -0.829334842302E+03   -0.54628E-05   -0.39458E-08   888   0.324E-04    0.164E-04
DAV:  26    -0.829334845025E+03   -0.27228E-05   -0.18320E-08   936   0.239E-04    0.817E-05
DAV:  27    -0.829334847259E+03   -0.22340E-05   -0.90816E-09   936   0.169E-04    0.705E-05
DAV:  28    -0.829334848215E+03   -0.95600E-06   -0.37871E-09   952   0.124E-04
   1 F= -.82933485E+03 E0= -.82929980E+03  d E =-.701001E-01
