       N       E                     dE             d eps       ncg     rms          rms(c)
DAV:   1     0.362186589151E+04    0.36219E+04   -0.11934E+05  1712   0.105E+03
DAV:   2     0.160414241804E+03   -0.34615E+04   -0.31971E+04  2144   0.237E+02
DAV:   3    -0.835077332638E+03   -0.99549E+03   -0.97075E+03  1768   0.134E+02
DAV:   4    -0.896278744898E+03   -0.61201E+02   -0.60076E+02  1712   0.426E+01
DAV:   5    -0.897851828309E+03   -0.15731E+01   -0.15501E+01  1776   0.658E+00    0.456E+01
DAV:   6    -0.848133248283E+03    0.49719E+02   -0.47579E+01  1584   0.126E+01    0.268E+01
DAV:   7    -0.829573791357E+03    0.18559E+02   -0.65334E+01  1552   0.144E+01    0.732E+00
DAV:   8    -0.829284732376E+03    0.28906E+00   -0.23106E+00  1584   0.324E+00    0.101E+00
DAV:   9    -0.829176464373E+03    0.10827E+00   -0.24310E-01  1672   0.941E-01    0.568E-01
DAV:  10    -0.829136628594E+03    0.39836E-01   -0.42790E-02  1744   0.409E-01    0.360E-01
DAV:  11    -0.829106319308E+03    0.30309E-01   -0.23008E-02  1560   0.244E-01    0.241E-01
DAV:  12    -0.829102379893E+03    0.39394E-02   -0.23812E-02  1560   0.231E-01    0.149E-01
DAV:  13    -0.829114369321E+03   -0.11989E-01   -0.77232E-03  1560   0.137E-01    0.851E-02
DAV:  14    -0.829131500174E+03   -0.17131E-01   -0.13080E-03  1576   0.655E-02    0.572E-02
DAV:  15    -0.829150452145E+03   -0.18952E-01   -0.14326E-03  1576   0.576E-02    0.305E-02
DAV:  16    -0.829161309166E+03   -0.10857E-01   -0.72734E-04  1616   0.387E-02    0.200E-02
DAV:  17    -0.829165900295E+03   -0.45911E-02   -0.25495E-04  1600   0.206E-02    0.113E-02
DAV:  18    -0.829168210759E+03   -0.23105E-02   -0.10075E-04  1584   0.133E-02    0.582E-03
DAV:  19    -0.829169209621E+03   -0.99886E-03   -0.29883E-05  1392   0.735E-03    0.351E-03
DAV:  20    -0.829169596299E+03   -0.38668E-03   -0.76669E-06  1320   0.368E-03    0.218E-03
DAV:  21    -0.829169798281E+03   -0.20198E-03   -0.23564E-06  1296   0.224E-03    0.890E-04
DAV:  22    -0.829169842099E+03   -0.43819E-04   -0.16615E-07  1072   0.835E-04    0.574E-04
DAV:  23    -0.829169873735E+03   -0.31636E-04   -0.19923E-07   944   0.721E-04    0.324E-04
DAV:  24    -0.829169884863E+03   -0.11128E-04   -0.80327E-08   968   0.443E-04    0.213E-04
DAV:  25    -0.829169890517E+03   -0.56537E-05   -0.28059E-08   888   0.360E-04    0.113E-04
DAV:  26    -0.829169893069E+03   -0.25524E-05   -0.21944E-08   936   0.228E-04    0.126E-04
DAV:  27    -0.829169894694E+03   -0.16246E-05   -0.60775E-09   944   0.207E-04    0.742E-05
DAV:  28    -0.829169896005E+03   -0.13115E-05   -0.60116E-09   912   0.125E-04    0.653E-05
DAV:  29    -0.829169896577E+03   -0.57192E-06   -0.23843E-09   960   0.109E-04
   1 F= -.82916990E+03 E0= -.82913505E+03  d E =-.697002E-01
