 vasp.6.5.0 16Dec24 (build Feb 19 2025 19:45:31) complex                         
 executed on              LinuxNV date 2025.10.25  18:38:43
 running    2 mpi-ranks, on    1 nodes
 distrk:  each k-point on    2 cores,    1 groups
 distr:  one band on NCORE=   1 cores,    2 groups
 Offloading initialized ...    2 GPUs detected


--------------------------------------------------------------------------------------------------------


 INCAR:
   ISTART = 0            (Not Read existing wavefunction
   ISPIN = 1            (Non-Spin polarised DFT, Default\=1)
   ICHARG = 2            (The initial guess charge density is generated by superposition of atomic charge density)
   LREAL = Auto         (Projection operators: automatic)
   ENCUT = 500          (Cut-off energy for plane wave basis set, in eV)
   LWAVE = .FALSE.       (Write WAVECAR or not)
   LCHARG = .FALSE.       (Write CHGCAR or not)
   PREC = Accurate   (Precision level)
   KGAMMA = .TRUE.
   ALGO = Normal
   NSW = 0           (Default: NSW \= 0)
   IBRION = -1           (Ions are not moved)
   ISMEAR = 0
   EDIFF = 1E-06        (SCF energy convergence
   NELM = 150          (Max electronic SCF steps)

 POTCAR:    PAW_PBE C 08Apr2002                   
 POTCAR:    PAW_PBE C 08Apr2002                   
   SHA256 =  253f7b50bb8d59471dbedb8285d89021f4a42ed1a2c5d38a03a736e69125dd95 C/POTCAR              
   COPYR  = (c) Copyright 08Apr2002 Georg Kresse                                                    
   COPYR  = This file is part of the software VASP. Any use, copying, and all other rights are regul
   COPYR  = If you do not have a valid VASP license, you may not use, copy or distribute this file. 
   VRHFIN =C: s2p2                                                                                  
   LEXCH  = PE                                                                                      
   EATOM  =   147.1560 eV,   10.8157 Ry                                                             
                                                                                                    
   TITEL  = PAW_PBE C 08Apr2002                                                                     
   LULTRA =        F    use ultrasoft PP ?                                                          
   IUNSCR =        1    unscreen: 0-lin 1-nonlin 2-no                                               
   RPACOR =    1.200    partial core radius                                                         
   POMASS =   12.011; ZVAL   =    4.000    mass and valenz                                          
   RCORE  =    1.500    outmost cutoff radius                                                       
   RWIGS  =    1.630; RWIGS  =    0.863    wigner-seitz radius (au A)                               
   ENMAX  =  400.000; ENMIN  =  300.000 eV                                                          
   ICORE  =        2    local potential                                                             
   LCOR   =        T    correct aug charges                                                         
   LPAW   =        T    paw PP                                                                      
   EAUG   =  644.873                                                                                
   DEXC   =    0.000                                                                                
   RMAX   =    1.529    core radius for proj-oper                                                   
   RAUG   =    1.300    factor for augmentation sphere                                              
   RDEP   =    1.501    radius for radial grids                                                     
   RDEPT  =    1.300    core radius for aug-charge                                                  
                                                                                                    
   Atomic configuration                                                                             
    4 entries                                                                                       
     n  l   j            E        occ.                                                              
     1  0  0.50      -273.3789   2.0000                                                             
     2  0  0.50       -13.7508   2.0000                                                             
     2  1  0.50        -5.2854   2.0000                                                             
     3  2  1.50        -5.4423   0.0000                                                             
   Description                                                                                      
     l       E           TYP  RCUT    TYP  RCUT                                                     
     0    -13.7508458     23  1.200                                                                 
     0     -8.2022199     23  1.200                                                                 
     1     -5.2854383     23  1.500                                                                 
     1     34.0145650     23  1.500                                                                 
     2     -5.4423304      7  1.500                                                                 
  local pseudopotential read in
  partial core-charges read in
  partial kinetic energy density read in
  atomic valenz-charges read in
  non local Contribution for L=            0  read in
    real space projection operators read in
  non local Contribution for L=            0  read in
    real space projection operators read in
  non local Contribution for L=            1  read in
    real space projection operators read in
  non local Contribution for L=            1  read in
    real space projection operators read in
    PAW grid and wavefunctions read in
 
   number of l-projection  operators is LMAX  =            4
   number of lm-projection operators is LMMAX =            8
 
 Optimization of the real space projectors (new method)

 maximal supplied QI-value         = 25.13
 optimisation between [QCUT,QGAM] = [ 11.31, 22.87] = [ 35.82,146.48] Ry 
 Optimized for a Real-space Cutoff    1.03 Angstroem

   l    n(q)    QCUT    max X(q) W(low)/X(q) W(high)/X(q)  e(spline) 
   0      7    11.310   115.676    0.20E-03    0.90E-03    0.20E-06
   0      7    11.310    87.132    0.20E-03    0.89E-03    0.19E-06
   1      6    11.310     4.429    0.16E-03    0.28E-03    0.12E-06
   1      6    11.310     2.733    0.12E-03    0.21E-03    0.99E-07
  PAW_PBE C 08Apr2002                   :
 energy of atom  1       EATOM= -147.1560
 kinetic energy error for atom=    0.0076 (will be added to EATOM!!)
 
 
 POSCAR:  C
  positions in cartesian coordinates
  No initial velocities read in


 exchange-correlation table for PE
   RHO(1)=    0.500       N(1)  =     2000
   RHO(2)=  100.500       N(2)  =     4000
 


--------------------------------------------------------------------------------------------------------


 ion  position               nearest neighbor table
   1  0.291  0.485  0.028-   3 1.39   2 1.42  45 1.46  46 2.06
   2  0.293  0.660  0.027-   4 1.41   1 1.42  46 1.51  45 2.06
   3  0.336  0.418  0.022-   1 1.39  50 1.39   5 1.40
   4  0.336  0.742  0.018-  49 1.36   6 1.39   2 1.41
   5  0.378  0.489  0.008-   6 1.39   3 1.40   7 1.42
   6  0.378  0.660  0.008-   4 1.39   5 1.39   8 1.39
   7  0.423  0.407  0.001-  54 1.40   5 1.42   9 1.44
   8  0.420  0.741  0.998-   6 1.39  10 1.40  53 1.42
   9  0.464  0.494  0.988-  10 1.39  11 1.42   7 1.44
  10  0.464  0.666  0.987-   9 1.39   8 1.40  12 1.43
  11  0.508  0.409  0.982-  58 1.39   9 1.42  13 1.43
  12  0.506  0.751  0.977-  57 1.34  10 1.43  14 1.44
  13  0.551  0.494  0.971-  14 1.36  15 1.40  11 1.43
  14  0.550  0.662  0.969-  13 1.36  16 1.43  12 1.44
  15  0.596  0.420  0.967-  17 1.40  13 1.40  62 1.42
  16  0.593  0.749  0.961-  61 1.35  18 1.42  14 1.43
  17  0.639  0.498  0.959-  18 1.38  15 1.40  19 1.45
  18  0.638  0.668  0.958-  17 1.38  20 1.39  16 1.42
  19  0.684  0.412  0.959-  66 1.39  21 1.40  17 1.45
  20  0.682  0.744  0.960-  65 1.38  18 1.39  22 1.44
  21  0.728  0.494  0.952-  22 1.39  19 1.40  23 1.42
  22  0.728  0.664  0.956-  21 1.39  20 1.44  24 1.45
  23  0.773  0.413  0.956-  70 1.38  25 1.41  21 1.42
  24  0.774  0.743  0.960-  69 1.35  26 1.38  22 1.45
  25  0.817  0.495  0.961-  26 1.34  23 1.41  27 1.42
  26  0.817  0.660  0.962-  25 1.34  24 1.38  28 1.40
  27  0.860  0.412  0.970-  74 1.37  29 1.38  25 1.42
  28  0.859  0.735  0.975-  26 1.40  30 1.41  73 1.41
  29  0.902  0.487  0.981-  27 1.38  30 1.39  31 1.41
  30  0.903  0.658  0.984-  29 1.39  28 1.41  32 1.42
  31  0.945  0.407  0.993-  78 1.35  29 1.41  33 1.44
  32  0.944  0.735  0.999-  77 1.40  34 1.41  30 1.42
  33  0.987  0.487  0.009-  34 1.36  35 1.43  31 1.44
  34  0.987  0.654  0.007-  33 1.36  32 1.41  36 1.42
  35  0.024  0.405  0.029-  82 1.37  37 1.38  33 1.43
  36  0.026  0.735  0.027-  81 1.40  34 1.42  38 1.44
  37  0.066  0.478  0.042-  38 1.37  35 1.38  39 1.42
  38  0.066  0.647  0.043-  37 1.37  36 1.44  40 1.45
  39  0.111  0.402  0.050-  86 1.36  37 1.42  41 1.44
  40  0.111  0.736  0.048-  85 1.34  42 1.44  38 1.45
  41  0.156  0.484  0.050-  42 1.35  43 1.42  39 1.44
  42  0.156  0.651  0.049-  41 1.35  40 1.44  44 1.48
  43  0.201  0.405  0.049-  90 1.33  45 1.36  41 1.42
  44  0.201  0.744  0.052-  89 1.34  46 1.37  42 1.48
  45  0.240  0.489  0.035-  43 1.36  46 1.44   1 1.46   2 2.06
  46  0.241  0.667  0.036-  44 1.37  45 1.44   2 1.51   1 2.06
  47  0.299  0.991  0.043-  49 1.38  48 1.42  91 1.53  92 2.04
  48  0.298  0.166  0.043-  50 1.40  47 1.42  92 1.50
  49  0.337  0.906  0.027-   4 1.36  47 1.38  51 1.45
  50  0.339  0.248  0.030-   3 1.39  48 1.40  52 1.48
  51  0.382  0.989  0.020-  52 1.38  53 1.39  49 1.45
  52  0.383  0.159  0.018-  51 1.38  54 1.39  50 1.48
  53  0.424  0.912  0.008-  51 1.39   8 1.42  55 1.43
  54  0.424  0.235  0.006-  52 1.39  56 1.39   7 1.40
  55  0.468  0.991  0.999-  56 1.35  57 1.39  53 1.43
  56  0.468  0.157  0.000-  55 1.35  54 1.39  58 1.42
  57  0.509  0.912  0.986-  12 1.34  55 1.39  59 1.39
  58  0.511  0.244  0.993-  11 1.39  60 1.42  56 1.42
  59  0.552  0.996  0.981-  57 1.39  60 1.41  61 1.41
  60  0.555  0.169  0.983-  62 1.37  59 1.41  58 1.42
  61  0.594  0.912  0.970-  16 1.35  59 1.41  63 1.44
  62  0.597  0.248  0.976-  60 1.37  64 1.41  15 1.42
  63  0.640  0.994  0.970-  64 1.37  65 1.43  61 1.44
  64  0.641  0.162  0.972-  63 1.37  62 1.41  66 1.43
  65  0.684  0.914  0.963-  20 1.38  63 1.43  67 1.43
  66  0.686  0.242  0.965-  68 1.38  19 1.39  64 1.43
  67  0.730  0.994  0.965-  68 1.38  69 1.39  65 1.43
  68  0.729  0.165  0.963-  66 1.38  67 1.38  70 1.44
  69  0.773  0.910  0.964-  24 1.35  67 1.39  71 1.44
  70  0.775  0.244  0.961-  23 1.38  72 1.41  68 1.44
  71  0.818  0.994  0.971-  73 1.35  72 1.38  69 1.44
  72  0.819  0.163  0.966-  74 1.38  71 1.38  70 1.41
  73  0.859  0.909  0.978-  71 1.35  28 1.41  75 1.42
  74  0.862  0.244  0.971-  27 1.37  72 1.38  76 1.42
  75  0.902  0.992  0.988-  76 1.37  73 1.42  77 1.46
  76  0.905  0.157  0.980-  75 1.37  74 1.42  78 1.42
  77  0.944  0.908  0.003-  79 1.37  32 1.40  75 1.46
  78  0.946  0.240  0.994-  31 1.35  80 1.41  76 1.42
  79  0.986  0.987  0.011-  77 1.37  80 1.41  81 1.44
  80  0.988  0.159  0.006-  79 1.41  78 1.41  82 1.42
  81  0.028  0.908  0.026-  83 1.37  36 1.40  79 1.44
  82  0.028  0.238  0.023-  35 1.37  84 1.39  80 1.42
  83  0.070  0.982  0.038-  81 1.37  84 1.38  85 1.44
  84  0.069  0.152  0.035-  83 1.38  82 1.39  86 1.44
  85  0.113  0.902  0.050-  40 1.34  87 1.40  83 1.44
  86  0.112  0.234  0.046-  39 1.36  84 1.44  88 1.45
  87  0.156  0.987  0.056-  88 1.39  85 1.40  89 1.46
  88  0.158  0.157  0.052-  87 1.39  90 1.41  86 1.45
  89  0.203  0.908  0.057-  44 1.34  91 1.39  87 1.46
  90  0.202  0.242  0.054-  43 1.33  88 1.41  92 1.42
  91  0.246  0.989  0.054-  92 1.36  89 1.39  47 1.53
  92  0.246  0.157  0.055-  91 1.36  90 1.42  48 1.50  47 2.04
 
  LATTYP: Found a simple orthorhombic cell.
 ALAT       =     8.1000000000
 B/A-ratio  =     3.4629629630
 C/A-ratio  =     4.1358024691
  
  Lattice vectors:
  
 A1 = (   0.0000000000,  -8.1000000000,   0.0000000000)
 A2 = (  28.0500000000,   0.0000000000,   0.0000000000)
 A3 = (   0.0000000000,   0.0000000000,  33.5000000000)


Analysis of symmetry for initial positions (statically):
=====================================================================
 Subroutine PRICEL returns:
 Original cell was already a primitive cell.
 

 Routine SETGRP: Setting up the symmetry group for a 
 simple orthorhombic supercell.


 Subroutine GETGRP returns: Found  1 space group operations
 (whereof  1 operations were pure point group operations)
 out of a pool of  8 trial point group operations.


The static configuration has the point symmetry C_1 .


Analysis of symmetry for dynamics (positions and initial velocities):
=====================================================================
 Subroutine PRICEL returns:
 Original cell was already a primitive cell.
 

 Routine SETGRP: Setting up the symmetry group for a 
 simple orthorhombic supercell.


 Subroutine GETGRP returns: Found  1 space group operations
 (whereof  1 operations were pure point group operations)
 out of a pool of  8 trial point group operations.


The dynamic configuration has the point symmetry C_1 .


 Subroutine INISYM returns: Found  1 space group operations
 (whereof  1 operations are pure point group operations),
 and found     1 'primitive' translations


----------------------------------------------------------------------------------------

                                     Primitive cell                                     

  volume of cell :    7611.3675

  direct lattice vectors                    reciprocal lattice vectors
    28.050000000  0.000000000  0.000000000     0.035650624  0.000000000  0.000000000
     0.000000000  8.100000000  0.000000000     0.000000000  0.123456790  0.000000000
     0.000000000  0.000000000 33.500000000     0.000000000  0.000000000  0.029850746

  length of vectors
    28.050000000  8.100000000 33.500000000     0.035650624  0.123456790  0.029850746

  position of ions in fractional coordinates (direct lattice)
     0.291072727  0.485269136  0.028105970
     0.293443137  0.659809877  0.027436179
     0.336091979  0.417750617  0.022438776
     0.336310517  0.741885185  0.017587701
     0.378481283  0.488869136  0.008228149
     0.378320856  0.660451852  0.007826239
     0.422645276  0.407037037  0.001416090
     0.420420677  0.741370370  0.997858913
     0.464256684  0.494172840  0.988103254
     0.463508021  0.665779012  0.987309015
     0.507910873  0.409317284  0.982251254
     0.506445633  0.751459259  0.977393881
     0.550648841  0.494201235  0.970869164
     0.549718360  0.661795062  0.968734627
     0.595639929  0.419880247  0.966975522
     0.593133690  0.748656790  0.960990746
     0.638955437  0.498161728  0.958604776
     0.638007130  0.668190123  0.957839701
     0.684317291  0.412370370  0.958544776
     0.682299465  0.744238272  0.960469552
     0.727946524  0.493619753  0.952494328
     0.727818182  0.663911111  0.956265075
     0.772588235  0.413358025  0.956065672
     0.773921569  0.743481481  0.960197612
     0.816549020  0.494524691  0.960794030
     0.816648841  0.660385185  0.962116119
     0.860071301  0.412350617  0.969865970
     0.858766488  0.734824691  0.975416687
     0.902231729  0.486867901  0.981380806
     0.902502674  0.657583951  0.984364716
     0.944534759  0.407088889  0.993369881
     0.944217469  0.735303704  0.998896376
     0.986655971  0.486749383  0.008536269
     0.987347594  0.654320988  0.007472836
     0.024434938  0.404969136  0.029260000
     0.025995258  0.734737037  0.026926597
     0.066276649  0.477786420  0.042062687
     0.066329768  0.647065432  0.042774328
     0.110736185  0.401749383  0.049884776
     0.110604278  0.735890123  0.048176119
     0.156269162  0.484407407  0.049783582
     0.155846702  0.651028395  0.049046567
     0.201339750  0.405497531  0.049185970
     0.201278788  0.743937037  0.051623284
     0.239854902  0.488985185  0.035142388
     0.240534046  0.667058025  0.035729851
     0.298660606  0.991346914  0.042611343
     0.297678431  0.166417284  0.043443881
     0.337175045  0.905567901  0.027148239
     0.338562923  0.248497531  0.029581075
     0.381903743  0.989125926  0.019669194
     0.382591800  0.159337037  0.018478388
     0.423664884  0.911639506  0.007698299
     0.424149733  0.235202469  0.005647910
     0.467953654  0.990530864  0.998806758
     0.467910873  0.157060494  0.000446045
     0.509368984  0.912439506  0.986389493
     0.511069519  0.243595062  0.992828537
     0.552178253  0.995780247  0.981259313
     0.555162210  0.168790123  0.982961701
     0.594153298  0.911722222  0.969867761
     0.597490196  0.248471605  0.975871612
     0.639803922  0.993850617  0.970012239
     0.640887701  0.162456790  0.971661254
     0.684385027  0.914351852  0.962570448
     0.685679144  0.242491358  0.965095522
     0.729896613  0.993946914  0.965158209
     0.729247772  0.164656790  0.963174030
     0.773172906  0.909509877  0.964017612
     0.774962567  0.243808642  0.960966866
     0.817910873  0.993654321  0.970586149
     0.819197861  0.163334568  0.965972239
     0.858524064  0.909277778  0.977532657
     0.862049911  0.243590123  0.971190627
     0.901600713  0.991581481  0.987504418
     0.904609626  0.156985185  0.979983075
     0.943839572  0.907870370  0.002808325
     0.945636364  0.240496296  0.994060896
     0.985739750  0.986630864  0.011188000
     0.987593583  0.158928395  0.006424328
     0.028431266  0.907879012  0.025719224
     0.028175686  0.238477778  0.023068060
     0.069528342  0.982391358  0.038141493
     0.068515865  0.152018519  0.035146269
     0.113248485  0.901575309  0.049512836
     0.112175045  0.234295062  0.045806269
     0.155852763  0.986579012  0.056022985
     0.158080570  0.156581481  0.051962388
     0.202526560  0.907556790  0.057305672
     0.201740820  0.242117284  0.054248657
     0.245859180  0.989456790  0.054025373
     0.245952585  0.157076543  0.054893731

  ion indices of the primitive-cell ions
   primitive index   ion index
                 1           1
                 2           2
                 3           3
                 4           4
                 5           5
                 6           6
                 7           7
                 8           8
                 9           9
                10          10
                11          11
                12          12
                13          13
                14          14
                15          15
                16          16
                17          17
                18          18
                19          19
                20          20
                21          21
                22          22
                23          23
                24          24
                25          25
                26          26
                27          27
                28          28
                29          29
                30          30
                31          31
                32          32
                33          33
                34          34
                35          35
                36          36
                37          37
                38          38
                39          39
                40          40
                41          41
                42          42
                43          43
                44          44
                45          45
                46          46
                47          47
                48          48
                49          49
                50          50
                51          51
                52          52
                53          53
                54          54
                55          55
                56          56
                57          57
                58          58
                59          59
                60          60
                61          61
                62          62
                63          63
                64          64
                65          65
                66          66
                67          67
                68          68
                69          69
                70          70
                71          71
                72          72
                73          73
                74          74
                75          75
                76          76
                77          77
                78          78
                79          79
                80          80
                81          81
                82          82
                83          83
                84          84
                85          85
                86          86
                87          87
                88          88
                89          89
                90          90
                91          91
                92          92

----------------------------------------------------------------------------------------

 
 
 KPOINTS: K-Spacing Value to Generate K-Mesh: 0.03

Automatic generation of k-mesh.
 Grid dimensions read from file:
 generate k-points for:    1    4    1

 Generating k-lattice:

  Cartesian coordinates                     Fractional coordinates (reciprocal lattice)
     0.035650624  0.000000000  0.000000000     1.000000000  0.000000000  0.000000000
     0.000000000  0.030864198  0.000000000     0.000000000  0.250000000  0.000000000
     0.000000000  0.000000000  0.029850746     0.000000000  0.000000000  1.000000000

  Length of vectors
     0.035650624  0.030864198  0.029850746

  Shift w.r.t. Gamma in fractional coordinates (k-lattice)
     0.000000000  0.000000000  0.000000000

 
 Subroutine IBZKPT returns following result:
 ===========================================
 
 Found      3 irreducible k-points:
 
 Following reciprocal coordinates:
            Coordinates               Weight
  0.000000  0.000000  0.000000      1.000000
  0.000000  0.250000  0.000000      2.000000
  0.000000  0.500000  0.000000      1.000000
 
 Following cartesian coordinates:
            Coordinates               Weight
  0.000000  0.000000  0.000000      1.000000
  0.000000  0.030864  0.000000      2.000000
  0.000000  0.061728  0.000000      1.000000
 


--------------------------------------------------------------------------------------------------------




 Dimension of arrays:
   k-points           NKPTS =      3   k-points in BZ     NKDIM =      3   number of bands    NBANDS=    232
   number of dos      NEDOS =    301   number of ions     NIONS =     92
   non local maximal  LDIM  =      4   non local SUM 2l+1 LMDIM =      8
   total plane-waves  NPLWV = ******
   max r-space proj   IRMAX =   1967   max aug-charges    IRDMAX=   5083
   dimension x,y,z NGX =   210 NGY =   60 NGZ =  250
   dimension x,y,z NGXF=   420 NGYF=  120 NGZF=  500
   support grid    NGXF=   420 NGYF=  120 NGZF=  500
   ions per type =              92
   NGX,Y,Z   is equivalent  to a cutoff of  12.45, 12.31, 12.41 a.u.
   NGXF,Y,Z  is equivalent  to a cutoff of  24.89, 24.63, 24.81 a.u.

 SYSTEM =  unknown system                          
 POSCAR =   C                                      

 Startparameter for this run:
   NWRITE =      2    write-flag & timer
   PREC   = accura    normal or accurate (medium, high low for compatibility)
   ISTART =      0    job   : 0-new  1-cont  2-samecut
   ICHARG =      2    charge: 1-file 2-atom 10-const
   ISPIN  =      1    spin polarized calculation?
   LNONCOLLINEAR =      F non collinear calculations
   LSORBIT =      F    spin-orbit coupling
   INIWAV =      1    electr: 0-lowe 1-rand  2-diag
   LASPH  =      F    aspherical Exc in radial PAW
 Electronic Relaxation 1
   ENCUT  =  500.0 eV  36.75 Ry    6.06 a.u.  51.14 14.77 61.08*2*pi/ulx,y,z
   ENINI  =  500.0     initial cutoff
   ENAUG  =  644.9 eV  augmentation charge cutoff
   NELM   =    150;   NELMIN=  2; NELMDL= -5     # of ELM steps 
   EDIFF  = 0.1E-05   stopping-criterion for ELM
   LREAL  =      T    real-space projection
   NLSPLINE    = F    spline interpolate recip. space projectors
   LCOMPAT=      F    compatible to vasp.4.4
   GGA_COMPAT  = T    GGA compatible to vasp.4.4-vasp.4.6
   LMAXPAW     = -100 max onsite density
   LMAXMIX     =    2 max onsite mixed and CHGCAR
   VOSKOWN=      0    Vosko Wilk Nusair interpolation
   ROPT   =   -0.00025
 Ionic relaxation
   EDIFFG = 0.1E-04   stopping-criterion for IOM
   NSW    =      0    number of steps for IOM
   NBLOCK =      1;   KBLOCK =      1    inner block; outer block 
   IBRION =     -1    ionic relax: 0-MD 1-quasi-New 2-CG
   NFREE  =      0    steps in history (QN), initial steepest desc. (CG)
   ISIF   =      2    stress and relaxation
   IWAVPR =     10    prediction:  0-non 1-charg 2-wave 3-comb
   ISYM   =      2    0-nonsym 1-usesym 2-fastsym
   LCORR  =      T    Harris-Foulkes like correction to forces

   POTIM  = 0.5000    time-step for ionic-motion
   TEIN   =    0.0    initial temperature
   TEBEG  =    0.0;   TEEND  =   0.0 temperature during run
   SMASS  =  -3.00    Nose mass-parameter (am)
   estimated Nose-frequenzy (Omega)   =  0.10E-29 period in steps = 0.13E+47 mass=  -0.180E-25a.u.
   SCALEE = 1.0000    scale energy and forces
   NPACO  =    256;   APACO  = 10.0  distance and # of slots for P.C.
   PSTRESS=    0.0 pullay stress

  Mass of Ions in am
   POMASS =  12.01
  Ionic Valenz
   ZVAL   =   4.00
  Atomic Wigner-Seitz radii
   RWIGS  =  -1.00
  virtual crystal weights 
   VCA    =   1.00
   NELECT =     368.0000    total number of electrons
   NUPDOWN=      -1.0000    fix difference up-down

 DOS related values:
   EMIN   =  10.00;   EMAX   =-10.00  energy-range for DOS
   EFERMI =   0.00;   METHOD = LEGACY      
   ISMEAR =     0;   SIGMA  =   0.20  broadening in eV -4-tet -1-fermi 0-gaus
   EFERMI_NEDOS =   21; number of points for ismear=-14 and -15

 Electronic relaxation 2 (details)
   IALGO  =     38    algorithm
   LDIAG  =      T    sub-space diagonalisation (order eigenvalues)
   LSUBROT=      F    optimize rotation matrix (better conditioning)
   TURBO    =      0    0=normal 1=particle mesh
   IRESTART =      0    0=no restart 2=restart with 2 vectors
   NREBOOT  =      0    no. of reboots
   NMIN     =      0    reboot dimension
   EREF     =   0.00    reference energy to select bands
   IMIX   =      4    mixing-type and parameters
     AMIX     =   0.40;   BMIX     =  1.00
     AMIX_MAG =   1.60;   BMIX_MAG =  1.00
     AMIN     =   0.10
     WC   =   100.;   INIMIX=   1;  MIXPRE=   1;  MAXMIX= -45

 Intra band minimization:
   WEIMIN = 0.0000     energy-eigenvalue tresh-hold
   EBREAK =  0.11E-08  absolut break condition
   DEPER  =   0.30     relativ break condition  

   TIME   =   0.40     timestep for ELM

  volume/ion in A,a.u.               =      82.73       558.30
  Fermi-wavevector in a.u.,A,eV,Ry     =   0.596398  1.127030  4.839472  0.355691
  Thomas-Fermi vector in A             =   1.646729
 
 Write flags
   LWAVE        =      F    write WAVECAR
   LDOWNSAMPLE  =      F    k-point downsampling of WAVECAR
   LCHARG       =      F    write CHGCAR
   LVTOT        =      F    write LOCPOT, total local potential
   LVHAR        =      F    write LOCPOT, Hartree potential only
   WRT_POTENTIAL= false  ! write potential to hdf5 file
   LELF         =      F    write electronic localiz. function (ELF)
   LORBIT       =      0    0 simple, 1 ext, 2 COOP (PROOUT), +10 PAW based schemes


 Python interface
   PLUGINS active      =      F    recompile with -DPLUGINS to activate
 
 Dipole corrections
   LMONO      =      F    monopole corrections only (constant potential shift)
   LDIPOL     =      F    correct potential (dipole corrections)
   IDIPOL     =      0    1-x, 2-y, 3-z, 4-all directions 
   EPSILON    =  1.0000000 bulk dielectric constant
   LVACPOTAV  =      F  vacuum potentials using an averaging scheme for the charge density
   VACPOTFLAT =  0.1000000 required flatness to determine vacuum potential
 
Coulomb truncation method
  LTRUNCATE          =      F  Coulomb kernel truncation to be used
  IDIMENSIONALITY    =      3  Dimensionality of cutoff (0 molecules / 2 surfaces)
  ISURFACE           =     -1  Direction of surface normal
  LCOARSEN           =      F  Coarsen the charge grid before padding, preferred

 
 Exchange correlation treatment:
   GGA     = PE    functional components
   XC_C    = 1    coefficients multiplying the functional components
   LIBXC   =     F    Libxc                    
   VOSKOWN =     0    Vosko Wilk Nusair interpolation
   LHFCALC =     F    Hartree Fock is set to
   LHFONE  =     F    Hartree Fock one center treatment
   AEXX    =    0.0000 exact exchange contribution

 Parameters of functionals:
   PE:
     No parameter
 
 Van der Waals corrections
   IVDW    =     0    specifies the selected vdW correction

 Linear response parameters
   LEPSILON=     F    determine dielectric tensor
   LRPA    =     F    only Hartree local field effects (RPA)
   LNABLA  =     F    use nabla operator in PAW spheres
   LVEL    =     F    velocity operator in full k-point grid
   CSHIFT  =0.1000    complex shift for real part using Kramers Kronig
   OMEGAMAX=  -1.0    maximum frequency
   DEG_THRESHOLD= 0.2000000E-02 threshold for treating states as degnerate
   RTIME   =   -0.100 relaxation time in fs
  (WPLASMAI=    0.000 imaginary part of plasma frequency in eV, 0.658/RTIME)
   DFIELD  = 0.0000000 0.0000000 0.0000000 field for delta impulse in time
 
  Optional k-point grid parameters
   LKPOINTS_OPT  =     F    use optional k-point grid
   KPOINTS_OPT_MODE=     1    mode for optional k-point grid
 
 Orbital magnetization related:
   ORBITALMAG=     F  switch on orbital magnetization
   LCHIMAG   =     F  perturbation theory with respect to B field
   DQ        =  0.001000  dq finite difference perturbation B field
   LLRAUG    =     F  two centre corrections for induced B field
   LBONE     =     F  B-component reconstruction in AE one-centre
   LVGVCALC  =     T  calculate vGv susceptibility
   LVGVAPPL  =     F  apply vGv susceptibility instead of pGv for G=0

 Random number generation:
   RANDOM_GENERATOR = DEFAULT
   PCG_SEED         = not used


--------------------------------------------------------------------------------------------------------


 Static calculation
 charge density and potential will be updated during run
 non-spin polarized calculation
 Variant of blocked Davidson
 Davidson routine will perform the subspace rotation
 perform sub-space diagonalisation
    after iterative eigenvector-optimisation
 modified Broyden-mixing scheme, WC =      100.0
 initial mixing is a Kerker type mixing with AMIX =  0.4000 and BMIX =      1.0000
 Hartree-type preconditioning will be used
 using additional bands            48
 real space projection scheme for non local part
 use partial core corrections
 calculate Harris-corrections to forces 
   (improved forces if not selfconsistent)
 use gradient corrections 
 use of overlap-Matrix (Vanderbilt PP)
 Gauss-broadening in eV      SIGMA  =   0.20


--------------------------------------------------------------------------------------------------------


  energy-cutoff  :      500.00
  volume of cell :     7611.37
      direct lattice vectors                 reciprocal lattice vectors
    28.050000000  0.000000000  0.000000000     0.035650624  0.000000000  0.000000000
     0.000000000  8.100000000  0.000000000     0.000000000  0.123456790  0.000000000
     0.000000000  0.000000000 33.500000000     0.000000000  0.000000000  0.029850746

  length of vectors
    28.050000000  8.100000000 33.500000000     0.035650624  0.123456790  0.029850746


 
 k-points in units of 2pi/SCALE and weight: K-Spacing Value to Generate K-Mesh: 0.03
   0.00000000  0.00000000  0.00000000       0.250
   0.00000000  0.03086420  0.00000000       0.500
   0.00000000  0.06172840  0.00000000       0.250
 
 k-points in reciprocal lattice and weights: K-Spacing Value to Generate K-Mesh: 0.03
   0.00000000  0.00000000  0.00000000       0.250
   0.00000000  0.25000000  0.00000000       0.500
   0.00000000  0.50000000  0.00000000       0.250
 
 position of ions in fractional coordinates (direct lattice) 
   0.29107273  0.48526914  0.02810597
   0.29344314  0.65980988  0.02743618
   0.33609198  0.41775062  0.02243878
   0.33631052  0.74188519  0.01758770
   0.37848128  0.48886914  0.00822815
   0.37832086  0.66045185  0.00782624
   0.42264528  0.40703704  0.00141609
   0.42042068  0.74137037  0.99785891
   0.46425668  0.49417284  0.98810325
   0.46350802  0.66577901  0.98730901
   0.50791087  0.40931728  0.98225125
   0.50644563  0.75145926  0.97739388
   0.55064884  0.49420123  0.97086916
   0.54971836  0.66179506  0.96873463
   0.59563993  0.41988025  0.96697552
   0.59313369  0.74865679  0.96099075
   0.63895544  0.49816173  0.95860478
   0.63800713  0.66819012  0.95783970
   0.68431729  0.41237037  0.95854478
   0.68229947  0.74423827  0.96046955
   0.72794652  0.49361975  0.95249433
   0.72781818  0.66391111  0.95626507
   0.77258824  0.41335802  0.95606567
   0.77392157  0.74348148  0.96019761
   0.81654902  0.49452469  0.96079403
   0.81664884  0.66038519  0.96211612
   0.86007130  0.41235062  0.96986597
   0.85876649  0.73482469  0.97541669
   0.90223173  0.48686790  0.98138081
   0.90250267  0.65758395  0.98436472
   0.94453476  0.40708889  0.99336988
   0.94421747  0.73530370  0.99889638
   0.98665597  0.48674938  0.00853627
   0.98734759  0.65432099  0.00747284
   0.02443494  0.40496914  0.02926000
   0.02599526  0.73473704  0.02692660
   0.06627665  0.47778642  0.04206269
   0.06632977  0.64706543  0.04277433
   0.11073619  0.40174938  0.04988478
   0.11060428  0.73589012  0.04817612
   0.15626916  0.48440741  0.04978358
   0.15584670  0.65102840  0.04904657
   0.20133975  0.40549753  0.04918597
   0.20127879  0.74393704  0.05162328
   0.23985490  0.48898519  0.03514239
   0.24053405  0.66705802  0.03572985
   0.29866061  0.99134691  0.04261134
   0.29767843  0.16641728  0.04344388
   0.33717504  0.90556790  0.02714824
   0.33856292  0.24849753  0.02958107
   0.38190374  0.98912593  0.01966919
   0.38259180  0.15933704  0.01847839
   0.42366488  0.91163951  0.00769830
   0.42414973  0.23520247  0.00564791
   0.46795365  0.99053086  0.99880676
   0.46791087  0.15706049  0.00044604
   0.50936898  0.91243951  0.98638949
   0.51106952  0.24359506  0.99282854
   0.55217825  0.99578025  0.98125931
   0.55516221  0.16879012  0.98296170
   0.59415330  0.91172222  0.96986776
   0.59749020  0.24847160  0.97587161
   0.63980392  0.99385062  0.97001224
   0.64088770  0.16245679  0.97166125
   0.68438503  0.91435185  0.96257045
   0.68567914  0.24249136  0.96509552
   0.72989661  0.99394691  0.96515821
   0.72924777  0.16465679  0.96317403
   0.77317291  0.90950988  0.96401761
   0.77496257  0.24380864  0.96096687
   0.81791087  0.99365432  0.97058615
   0.81919786  0.16333457  0.96597224
   0.85852406  0.90927778  0.97753266
   0.86204991  0.24359012  0.97119063
   0.90160071  0.99158148  0.98750442
   0.90460963  0.15698519  0.97998307
   0.94383957  0.90787037  0.00280833
   0.94563636  0.24049630  0.99406090
   0.98573975  0.98663086  0.01118800
   0.98759358  0.15892840  0.00642433
   0.02843127  0.90787901  0.02571922
   0.02817569  0.23847778  0.02306806
   0.06952834  0.98239136  0.03814149
   0.06851586  0.15201852  0.03514627
   0.11324848  0.90157531  0.04951284
   0.11217504  0.23429506  0.04580627
   0.15585276  0.98657901  0.05602299
   0.15808057  0.15658148  0.05196239
   0.20252656  0.90755679  0.05730567
   0.20174082  0.24211728  0.05424866
   0.24585918  0.98945679  0.05402537
   0.24595258  0.15707654  0.05489373
 
 position of ions in cartesian coordinates  (Angst):
   8.16459000  3.93068000  0.94155000
   8.23108000  5.34446000  0.91911200
   9.42738000  3.38378000  0.75169900
   9.43351000  6.00927000  0.58918800
  10.61640000  3.95984000  0.27564300
  10.61190000  5.34966000  0.26217900
  11.85520000  3.29700000  0.04743900
  11.79280000  6.00510000 33.42827360
  13.02240000  4.00280000 33.10145900
  13.00140000  5.39281000 33.07485200
  14.24690000  3.31547000 32.90541700
  14.20580000  6.08682000 32.74269500
  15.44570000  4.00303000 32.52411700
  15.41960000  5.36054000 32.45261000
  16.70770000  3.40103000 32.39368000
  16.63740000  6.06412000 32.19319000
  17.92270000  4.03511000 32.11326000
  17.89610000  5.41234000 32.08763000
  19.19510000  3.34020000 32.11125000
  19.13850000  6.02833000 32.17573000
  20.41890000  3.99832000 31.90856000
  20.41530000  5.37768000 32.03488000
  21.67110000  3.34820000 32.02820000
  21.70850000  6.02220000 32.16662000
  22.90420000  4.00565000 32.18660000
  22.90700000  5.34912000 32.23089000
  24.12500000  3.34004000 32.49051000
  24.08840000  5.95208000 32.67645900
  25.30760000  3.94363000 32.87625700
  25.31520000  5.32643000 32.97621800
  26.49420000  3.29742000 33.27789100
  26.48530000  5.95596000 33.46302860
  27.67570000  3.94267000  0.28596500
  27.69510000  5.30000000  0.25034000
   0.68540000  3.28025000  0.98021000
   0.72916700  5.95137000  0.90204100
   1.85906000  3.87007000  1.40910000
   1.86055000  5.24123000  1.43294000
   3.10615000  3.25417000  1.67114000
   3.10245000  5.96071000  1.61390000
   4.38335000  3.92370000  1.66775000
   4.37150000  5.27333000  1.64306000
   5.64758000  3.28453000  1.64773000
   5.64587000  6.02589000  1.72938000
   6.72793000  3.96078000  1.17727000
   6.74698000  5.40317000  1.19695000
   8.37743000  8.02991000  1.42748000
   8.34988000  1.34798000  1.45537000
   9.45776000  7.33510000  0.90946600
   9.49669000  2.01283000  0.99096600
  10.71240000  8.01192000  0.65891800
  10.73170000  1.29063000  0.61902600
  11.88380000  7.38428000  0.25789300
  11.89740000  1.90514000  0.18920500
  13.12610000  8.02330000 33.46002640
  13.12490000  1.27219000  0.01494250
  14.28780000  7.39076000 33.04404800
  14.33550000  1.97312000 33.25975600
  15.48860000  8.06582000 32.87218700
  15.57230000  1.36720000 32.92921700
  16.66600000  7.38495000 32.49057000
  16.75960000  2.01262000 32.69169900
  17.94650000  8.05019000 32.49541000
  17.97690000  1.31590000 32.55065200
  19.19700000  7.40625000 32.24611000
  19.23330000  1.96418000 32.33070000
  20.47360000  8.05097000 32.33280000
  20.45540000  1.33372000 32.26633000
  21.68750000  7.36703000 32.29459000
  21.73770000  1.97485000 32.19239000
  22.94240000  8.04860000 32.51463600
  22.97850000  1.32301000 32.36007000
  24.08160000  7.36515000 32.74734400
  24.18050000  1.97308000 32.53488600
  25.28990000  8.03181000 33.08139800
  25.37430000  1.27158000 32.82943300
  26.47470000  7.35375000  0.09407890
  26.52510000  1.94802000 33.30104000
  27.65000000  7.99171000  0.37479800
  27.70200000  1.28732000  0.21521500
   0.79749700  7.35382000  0.86159400
   0.79032800  1.93167000  0.77278000
   1.95027000  7.95737000  1.27774000
   1.92187000  1.23135000  1.17740000
   3.17662000  7.30276000  1.65868000
   3.14651000  1.89779000  1.53451000
   4.37167000  7.99129000  1.87677000
   4.43416000  1.26831000  1.74074000
   5.68087000  7.35121000  1.91974000
   5.65883000  1.96115000  1.81733000
   6.89635000  8.01460000  1.80985000
   6.89897000  1.27232000  1.83894000
 


--------------------------------------------------------------------------------------------------------


 k-point     1 :   0.0000 0.0000 0.0000  plane waves:  193173
 k-point     2 :   0.0000 0.2500 0.0000  plane waves:  193166
 k-point     3 :   0.0000 0.5000 0.0000  plane waves:  193226

 maximum and minimum number of plane-waves per node :    193226   193166

 maximum number of plane-waves:    193226
 maximum index in each direction: 
   IXMAX=   51   IYMAX=   14   IZMAX=   61
   IXMIN=  -51   IYMIN=  -15   IZMIN=  -61


 serial   3D FFT for wavefunctions
 parallel 3D FFT for charge:
    minimum data exchange during FFTs selected (reduces bandwidth)


 total amount of memory used by VASP MPI-rank0  2294510. kBytes
=======================================================================

   base                                    :      30000. kBytes
   nonlr-proj                              :      15076. kBytes
   fftplans                                :     436558. kBytes
   grid                                    :     732614. kBytes
   one-center                              :        282. kBytes
   wavefun                                 :    1079980. kBytes
 
     INWAV:  cpu time      0.0000: real time      0.0000
 Broyden mixing: mesh for mixing (old mesh)
   NGX =103   NGY = 29   NGZ =123
  (NGX  =420   NGY  =120   NGZ  =500)
  gives a total of 367401 points

 initial charge density was supplied:
 charge density of overlapping atoms calculated
 number of electron     368.0000000 magnetization 
 keeping initial charge density in first step


--------------------------------------------------------------------------------------------------------


 Maximum index for non-local projection operator          1874
 Maximum index for augmentation-charges          2386 (set IRDMAX)


--------------------------------------------------------------------------------------------------------


 First call to EWALD:  gamma=   0.090
 Maximum number of real-space cells   2x   6x   2
 Maximum number of reciprocal cells   4x   1x   4

    FEWALD:  cpu time      0.1599: real time      0.1599


--------------------------------------- Ionic step        1  -------------------------------------------




--------------------------------------- Iteration      1(   1)  ---------------------------------------


    POTLOK:  cpu time      0.4199: real time      0.4435
    SETDIJ:  cpu time      0.0416: real time      0.0416
     EDDAV:  cpu time     11.0792: real time     11.0906
       DOS:  cpu time      0.0008: real time      0.0008
    --------------------------------------------
      LOOP:  cpu time     11.5415: real time     11.5765

 eigenvalue-minimisations  :  1712
 total energy-change (2. order) : 0.3621866E+04  (-0.1193436E+05)
 number of electron     368.0000000 magnetization 
 augmentation part      368.0000000 magnetization 

 Free energy of the ion-electron system (eV)
  ---------------------------------------------------
  alpha Z        PSCENC =        91.34886789
  Ewald energy   TEWEN  =    119817.78435254
  -Hartree energ DENC   =   -129140.22144917
  -exchange      EXHF   =         0.00000000
  -V(xc)+E(xc)   XCENC  =      1221.76044925
  PAW double counting   =      9984.02826696   -10036.41360137
  entropy T*S    EENTRO =        -0.81239137
  eigenvalues    EBANDS =     -1853.26339713
  atomic energy  EATOM  =     13537.65479391
  Solvation  Ediel_sol  =         0.00000000
  ---------------------------------------------------
  free energy    TOTEN  =      3621.86589151 eV

  energy without entropy =     3622.67828288  energy(sigma->0) =     3622.27208719


--------------------------------------------------------------------------------------------------------




--------------------------------------- Iteration      1(   2)  ---------------------------------------


     EDDAV:  cpu time     13.1380: real time     13.1429
       DOS:  cpu time      0.0007: real time      0.0007
    --------------------------------------------
      LOOP:  cpu time     13.1387: real time     13.1436

 eigenvalue-minimisations  :  2144
 total energy-change (2. order) :-0.3461452E+04  (-0.3197109E+04)
 number of electron     368.0000000 magnetization 
 augmentation part      368.0000000 magnetization 

 Free energy of the ion-electron system (eV)
  ---------------------------------------------------
  alpha Z        PSCENC =        91.34886789
  Ewald energy   TEWEN  =    119817.78435254
  -Hartree energ DENC   =   -129140.22144917
  -exchange      EXHF   =         0.00000000
  -V(xc)+E(xc)   XCENC  =      1221.76044925
  PAW double counting   =      9984.02826696   -10036.41360137
  entropy T*S    EENTRO =        -0.11996921
  eigenvalues    EBANDS =     -5315.40746900
  atomic energy  EATOM  =     13537.65479391
  Solvation  Ediel_sol  =         0.00000000
  ---------------------------------------------------
  free energy    TOTEN  =       160.41424180 eV

  energy without entropy =      160.53421102  energy(sigma->0) =      160.47422641


--------------------------------------------------------------------------------------------------------




--------------------------------------- Iteration      1(   3)  ---------------------------------------


     EDDAV:  cpu time     11.2030: real time     11.2074
       DOS:  cpu time      0.0007: real time      0.0007
    --------------------------------------------
      LOOP:  cpu time     11.2037: real time     11.2081

 eigenvalue-minimisations  :  1768
 total energy-change (2. order) :-0.9954916E+03  (-0.9707482E+03)
 number of electron     368.0000000 magnetization 
 augmentation part      368.0000000 magnetization 

 Free energy of the ion-electron system (eV)
  ---------------------------------------------------
  alpha Z        PSCENC =        91.34886789
  Ewald energy   TEWEN  =    119817.78435254
  -Hartree energ DENC   =   -129140.22144917
  -exchange      EXHF   =         0.00000000
  -V(xc)+E(xc)   XCENC  =      1221.76044925
  PAW double counting   =      9984.02826696   -10036.41360137
  entropy T*S    EENTRO =        -0.05474100
  eigenvalues    EBANDS =     -6310.96427166
  atomic energy  EATOM  =     13537.65479391
  Solvation  Ediel_sol  =         0.00000000
  ---------------------------------------------------
  free energy    TOTEN  =      -835.07733264 eV

  energy without entropy =     -835.02259164  energy(sigma->0) =     -835.04996214


--------------------------------------------------------------------------------------------------------




--------------------------------------- Iteration      1(   4)  ---------------------------------------


     EDDAV:  cpu time     10.9119: real time     10.9160
       DOS:  cpu time      0.0007: real time      0.0007
    --------------------------------------------
      LOOP:  cpu time     10.9126: real time     10.9166

 eigenvalue-minimisations  :  1712
 total energy-change (2. order) :-0.6120141E+02  (-0.6007569E+02)
 number of electron     368.0000000 magnetization 
 augmentation part      368.0000000 magnetization 

 Free energy of the ion-electron system (eV)
  ---------------------------------------------------
  alpha Z        PSCENC =        91.34886789
  Ewald energy   TEWEN  =    119817.78435254
  -Hartree energ DENC   =   -129140.22144917
  -exchange      EXHF   =         0.00000000
  -V(xc)+E(xc)   XCENC  =      1221.76044925
  PAW double counting   =      9984.02826696   -10036.41360137
  entropy T*S    EENTRO =        -0.05147869
  eigenvalues    EBANDS =     -6372.16894622
  atomic energy  EATOM  =     13537.65479391
  Solvation  Ediel_sol  =         0.00000000
  ---------------------------------------------------
  free energy    TOTEN  =      -896.27874490 eV

  energy without entropy =     -896.22726621  energy(sigma->0) =     -896.25300555


--------------------------------------------------------------------------------------------------------




--------------------------------------- Iteration      1(   5)  ---------------------------------------


     EDDAV:  cpu time     11.2169: real time     11.2240
       DOS:  cpu time      0.0007: real time      0.0007
    CHARGE:  cpu time      1.2069: real time      1.2108
    MIXING:  cpu time      0.2752: real time      0.2752
    --------------------------------------------
      LOOP:  cpu time     12.6997: real time     12.7108

 eigenvalue-minimisations  :  1776
 total energy-change (2. order) :-0.1573083E+01  (-0.1550116E+01)
 number of electron     368.0000006 magnetization 
 augmentation part       10.1645254 magnetization 

 Broyden mixing:
  rms(total) = 0.45567E+01    rms(broyden)= 0.45562E+01
  rms(prec ) = 0.46742E+01
  weight for this iteration     100.00

 Free energy of the ion-electron system (eV)
  ---------------------------------------------------
  alpha Z        PSCENC =        91.34886789
  Ewald energy   TEWEN  =    119817.78435254
  -Hartree energ DENC   =   -129140.22144917
  -exchange      EXHF   =         0.00000000
  -V(xc)+E(xc)   XCENC  =      1221.76044925
  PAW double counting   =      9984.02826696   -10036.41360137
  entropy T*S    EENTRO =        -0.05230324
  eigenvalues    EBANDS =     -6373.74120509
  atomic energy  EATOM  =     13537.65479391
  Solvation  Ediel_sol  =         0.00000000
  ---------------------------------------------------
  free energy    TOTEN  =      -897.85182831 eV

  energy without entropy =     -897.79952507  energy(sigma->0) =     -897.82567669


--------------------------------------------------------------------------------------------------------




--------------------------------------- Iteration      1(   6)  ---------------------------------------


    POTLOK:  cpu time      0.3226: real time      0.3227
    SETDIJ:  cpu time      0.0406: real time      0.0406
     EDDAV:  cpu time     10.2742: real time     10.2782
       DOS:  cpu time      0.0007: real time      0.0007
    CHARGE:  cpu time      1.1579: real time      1.1593
    MIXING:  cpu time      0.2760: real time      0.2768
    --------------------------------------------
      LOOP:  cpu time     12.0720: real time     12.0783

 eigenvalue-minimisations  :  1584
 total energy-change (2. order) : 0.4971858E+02  (-0.4757936E+01)
 number of electron     368.0000006 magnetization 
 augmentation part        9.7377701 magnetization 

 Broyden mixing:
  rms(total) = 0.26764E+01    rms(broyden)= 0.26763E+01
  rms(prec ) = 0.27346E+01
  weight for this iteration     100.00

 eigenvalues of (default mixing * dielectric matrix)
  average eigenvalue GAMMA=   2.1814
  2.1814

 Free energy of the ion-electron system (eV)
  ---------------------------------------------------
  alpha Z        PSCENC =        91.34886789
  Ewald energy   TEWEN  =    119817.78435254
  -Hartree energ DENC   =   -129711.53601248
  -exchange      EXHF   =         0.00000000
  -V(xc)+E(xc)   XCENC  =      1245.10973353
  PAW double counting   =     18955.62316684   -19015.64367910
  entropy T*S    EENTRO =        -0.06409068
  eigenvalues    EBANDS =     -5768.41038072
  atomic energy  EATOM  =     13537.65479391
  Solvation  Ediel_sol  =         0.00000000
  ---------------------------------------------------
  free energy    TOTEN  =      -848.13324828 eV

  energy without entropy =     -848.06915760  energy(sigma->0) =     -848.10120294


--------------------------------------------------------------------------------------------------------




--------------------------------------- Iteration      1(   7)  ---------------------------------------


    POTLOK:  cpu time      0.3222: real time      0.3223
    SETDIJ:  cpu time      0.0404: real time      0.0404
     EDDAV:  cpu time     10.0993: real time     10.1063
       DOS:  cpu time      0.0007: real time      0.0008
    CHARGE:  cpu time      1.1536: real time      1.1541
    MIXING:  cpu time      0.2784: real time      0.2785
    --------------------------------------------
      LOOP:  cpu time     11.8947: real time     11.9023

 eigenvalue-minimisations  :  1552
 total energy-change (2. order) : 0.1855946E+02  (-0.6533383E+01)
 number of electron     368.0000005 magnetization 
 augmentation part        9.1833355 magnetization 

 Broyden mixing:
  rms(total) = 0.73229E+00    rms(broyden)= 0.73202E+00
  rms(prec ) = 0.74204E+00
  weight for this iteration     100.00

 eigenvalues of (default mixing * dielectric matrix)
  average eigenvalue GAMMA=   2.1839
  2.1839  2.1839

 Free energy of the ion-electron system (eV)
  ---------------------------------------------------
  alpha Z        PSCENC =        91.34886789
  Ewald energy   TEWEN  =    119817.78435254
  -Hartree energ DENC   =   -130477.58180232
  -exchange      EXHF   =         0.00000000
  -V(xc)+E(xc)   XCENC  =      1276.21979880
  PAW double counting   =     36606.22600638   -36673.16339233
  entropy T*S    EENTRO =        -0.07375248
  eigenvalues    EBANDS =     -5007.98866373
  atomic energy  EATOM  =     13537.65479391
  Solvation  Ediel_sol  =         0.00000000
  ---------------------------------------------------
  free energy    TOTEN  =      -829.57379136 eV

  energy without entropy =     -829.50003887  energy(sigma->0) =     -829.53691512


--------------------------------------------------------------------------------------------------------




--------------------------------------- Iteration      1(   8)  ---------------------------------------


    POTLOK:  cpu time      0.3222: real time      0.3222
    SETDIJ:  cpu time      0.0402: real time      0.0402
     EDDAV:  cpu time     10.2642: real time     10.2682
       DOS:  cpu time      0.0007: real time      0.0007
    CHARGE:  cpu time      1.1520: real time      1.1543
    MIXING:  cpu time      0.2812: real time      0.2842
    --------------------------------------------
      LOOP:  cpu time     12.0605: real time     12.0698

 eigenvalue-minimisations  :  1584
 total energy-change (2. order) : 0.2890590E+00  (-0.2310640E+00)
 number of electron     368.0000005 magnetization 
 augmentation part        9.1662526 magnetization 

 Broyden mixing:
  rms(total) = 0.10050E+00    rms(broyden)= 0.10047E+00
  rms(prec ) = 0.12284E+00
  weight for this iteration     100.00

 eigenvalues of (default mixing * dielectric matrix)
  average eigenvalue GAMMA=   1.8551
  1.1870  2.4327  1.9455

 Free energy of the ion-electron system (eV)
  ---------------------------------------------------
  alpha Z        PSCENC =        91.34886789
  Ewald energy   TEWEN  =    119817.78435254
  -Hartree energ DENC   =   -130572.80149335
  -exchange      EXHF   =         0.00000000
  -V(xc)+E(xc)   XCENC  =      1276.08915547
  PAW double counting   =     40837.55342621   -40901.87964837
  entropy T*S    EENTRO =        -0.06716490
  eigenvalues    EBANDS =     -4914.96702177
  atomic energy  EATOM  =     13537.65479391
  Solvation  Ediel_sol  =         0.00000000
  ---------------------------------------------------
  free energy    TOTEN  =      -829.28473238 eV

  energy without entropy =     -829.21756747  energy(sigma->0) =     -829.25114993


--------------------------------------------------------------------------------------------------------




--------------------------------------- Iteration      1(   9)  ---------------------------------------


    POTLOK:  cpu time      0.3222: real time      0.3223
    SETDIJ:  cpu time      0.0404: real time      0.0404
     EDDAV:  cpu time     10.7118: real time     10.7161
       DOS:  cpu time      0.0007: real time      0.0007
    CHARGE:  cpu time      1.1543: real time      1.1560
    MIXING:  cpu time      0.2854: real time      0.2863
    --------------------------------------------
      LOOP:  cpu time     12.5149: real time     12.5217

 eigenvalue-minimisations  :  1672
 total energy-change (2. order) : 0.1082680E+00  (-0.2431045E-01)
 number of electron     368.0000005 magnetization 
 augmentation part        9.1439167 magnetization 

 Broyden mixing:
  rms(total) = 0.56814E-01    rms(broyden)= 0.56806E-01
  rms(prec ) = 0.78614E-01
  weight for this iteration     100.00

 eigenvalues of (default mixing * dielectric matrix)
  average eigenvalue GAMMA=   1.6951
  2.2161  2.2161  1.1018  1.2465

 Free energy of the ion-electron system (eV)
  ---------------------------------------------------
  alpha Z        PSCENC =        91.34886789
  Ewald energy   TEWEN  =    119817.78435254
  -Hartree energ DENC   =   -130642.56044504
  -exchange      EXHF   =         0.00000000
  -V(xc)+E(xc)   XCENC  =      1277.44289195
  PAW double counting   =     41428.47425060   -41492.80725477
  entropy T*S    EENTRO =        -0.06969493
  eigenvalues    EBANDS =     -4846.44422653
  atomic energy  EATOM  =     13537.65479391
  Solvation  Ediel_sol  =         0.00000000
  ---------------------------------------------------
  free energy    TOTEN  =      -829.17646437 eV

  energy without entropy =     -829.10676944  energy(sigma->0) =     -829.14161691


--------------------------------------------------------------------------------------------------------




--------------------------------------- Iteration      1(  10)  ---------------------------------------


    POTLOK:  cpu time      0.3222: real time      0.3222
    SETDIJ:  cpu time      0.0403: real time      0.0403
     EDDAV:  cpu time     11.0671: real time     11.0714
       DOS:  cpu time      0.0008: real time      0.0008
    CHARGE:  cpu time      1.1558: real time      1.1561
    MIXING:  cpu time      0.2926: real time      0.2936
    --------------------------------------------
      LOOP:  cpu time     12.8787: real time     12.8843

 eigenvalue-minimisations  :  1744
 total energy-change (2. order) : 0.3983578E-01  (-0.4279040E-02)
 number of electron     368.0000005 magnetization 
 augmentation part        9.1352076 magnetization 

 Broyden mixing:
  rms(total) = 0.35980E-01    rms(broyden)= 0.35977E-01
  rms(prec ) = 0.55687E-01
  weight for this iteration     100.00

 eigenvalues of (default mixing * dielectric matrix)
  average eigenvalue GAMMA=   1.7216
  2.4632  2.4632  1.6332  1.2139  0.8345

 Free energy of the ion-electron system (eV)
  ---------------------------------------------------
  alpha Z        PSCENC =        91.34886789
  Ewald energy   TEWEN  =    119817.78435254
  -Hartree energ DENC   =   -130693.12761478
  -exchange      EXHF   =         0.00000000
  -V(xc)+E(xc)   XCENC  =      1277.78897937
  PAW double counting   =     41202.07230400   -41266.27488774
  entropy T*S    EENTRO =        -0.06984550
  eigenvalues    EBANDS =     -4796.31357829
  atomic energy  EATOM  =     13537.65479391
  Solvation  Ediel_sol  =         0.00000000
  ---------------------------------------------------
  free energy    TOTEN  =      -829.13662859 eV

  energy without entropy =     -829.06678310  energy(sigma->0) =     -829.10170584


--------------------------------------------------------------------------------------------------------




--------------------------------------- Iteration      1(  11)  ---------------------------------------


    POTLOK:  cpu time      0.3221: real time      0.3221
    SETDIJ:  cpu time      0.0404: real time      0.0404
     EDDAV:  cpu time     10.1140: real time     10.1178
       DOS:  cpu time      0.0008: real time      0.0008
    CHARGE:  cpu time      1.1645: real time      1.1676
    MIXING:  cpu time      0.2997: real time      0.2997
    --------------------------------------------
      LOOP:  cpu time     11.9415: real time     11.9483

 eigenvalue-minimisations  :  1560
 total energy-change (2. order) : 0.3030929E-01  (-0.2300756E-02)
 number of electron     368.0000005 magnetization 
 augmentation part        9.1299253 magnetization 

 Broyden mixing:
  rms(total) = 0.24137E-01    rms(broyden)= 0.24135E-01
  rms(prec ) = 0.37896E-01
  weight for this iteration     100.00

 eigenvalues of (default mixing * dielectric matrix)
  average eigenvalue GAMMA=   1.7951
  3.0873  2.5043  1.9346  0.9317  1.1564  1.1564

 Free energy of the ion-electron system (eV)
  ---------------------------------------------------
  alpha Z        PSCENC =        91.34886789
  Ewald energy   TEWEN  =    119817.78435254
  -Hartree energ DENC   =   -130758.21473918
  -exchange      EXHF   =         0.00000000
  -V(xc)+E(xc)   XCENC  =      1278.37536701
  PAW double counting   =     41143.25470874   -41207.35927663
  entropy T*S    EENTRO =        -0.06945059
  eigenvalues    EBANDS =     -4731.88094298
  atomic energy  EATOM  =     13537.65479391
  Solvation  Ediel_sol  =         0.00000000
  ---------------------------------------------------
  free energy    TOTEN  =      -829.10631931 eV

  energy without entropy =     -829.03686871  energy(sigma->0) =     -829.07159401


--------------------------------------------------------------------------------------------------------




--------------------------------------- Iteration      1(  12)  ---------------------------------------


    POTLOK:  cpu time      0.3218: real time      0.3218
    SETDIJ:  cpu time      0.0403: real time      0.0403
     EDDAV:  cpu time     10.1097: real time     10.1133
       DOS:  cpu time      0.0007: real time      0.0007
    CHARGE:  cpu time      1.1564: real time      1.1568
    MIXING:  cpu time      0.3075: real time      0.3075
    --------------------------------------------
      LOOP:  cpu time     11.9365: real time     11.9405

 eigenvalue-minimisations  :  1560
 total energy-change (2. order) : 0.3939415E-02  (-0.2381247E-02)
 number of electron     368.0000005 magnetization 
 augmentation part        9.1226905 magnetization 

 Broyden mixing:
  rms(total) = 0.14897E-01    rms(broyden)= 0.14893E-01
  rms(prec ) = 0.22781E-01
  weight for this iteration     100.00

 eigenvalues of (default mixing * dielectric matrix)
  average eigenvalue GAMMA=   2.0636
  4.8290  2.4396  2.0207  2.0207  0.9313  1.1019  1.1019

 Free energy of the ion-electron system (eV)
  ---------------------------------------------------
  alpha Z        PSCENC =        91.34886789
  Ewald energy   TEWEN  =    119817.78435254
  -Hartree energ DENC   =   -130824.88518161
  -exchange      EXHF   =         0.00000000
  -V(xc)+E(xc)   XCENC  =      1279.00239356
  PAW double counting   =     41191.32145867   -41255.41031170
  entropy T*S    EENTRO =        -0.06981359
  eigenvalues    EBANDS =     -4665.84893957
  atomic energy  EATOM  =     13537.65479391
  Solvation  Ediel_sol  =         0.00000000
  ---------------------------------------------------
  free energy    TOTEN  =      -829.10237989 eV

  energy without entropy =     -829.03256631  energy(sigma->0) =     -829.06747310


--------------------------------------------------------------------------------------------------------




--------------------------------------- Iteration      1(  13)  ---------------------------------------


    POTLOK:  cpu time      0.3225: real time      0.3226
    SETDIJ:  cpu time      0.0403: real time      0.0403
     EDDAV:  cpu time     10.0992: real time     10.1030
       DOS:  cpu time      0.0008: real time      0.0008
    CHARGE:  cpu time      1.1579: real time      1.1583
    MIXING:  cpu time      0.3144: real time      0.3144
    --------------------------------------------
      LOOP:  cpu time     11.9351: real time     11.9393

 eigenvalue-minimisations  :  1560
 total energy-change (2. order) :-0.1198943E-01  (-0.7723158E-03)
 number of electron     368.0000005 magnetization 
 augmentation part        9.1202597 magnetization 

 Broyden mixing:
  rms(total) = 0.85142E-02    rms(broyden)= 0.85124E-02
  rms(prec ) = 0.12145E-01
  weight for this iteration     100.00

 eigenvalues of (default mixing * dielectric matrix)
  average eigenvalue GAMMA=   2.0837
  5.4109  2.4905  2.4905  1.8466  1.1826  1.1826  0.8712  1.1946

 Free energy of the ion-electron system (eV)
  ---------------------------------------------------
  alpha Z        PSCENC =        91.34886789
  Ewald energy   TEWEN  =    119817.78435254
  -Hartree energ DENC   =   -130873.30917396
  -exchange      EXHF   =         0.00000000
  -V(xc)+E(xc)   XCENC  =      1279.18185596
  PAW double counting   =     41142.00749438   -41206.09074594
  entropy T*S    EENTRO =        -0.06954981
  eigenvalues    EBANDS =     -4617.62226428
  atomic energy  EATOM  =     13537.65479391
  Solvation  Ediel_sol  =         0.00000000
  ---------------------------------------------------
  free energy    TOTEN  =      -829.11436932 eV

  energy without entropy =     -829.04481951  energy(sigma->0) =     -829.07959441


--------------------------------------------------------------------------------------------------------




--------------------------------------- Iteration      1(  14)  ---------------------------------------


    POTLOK:  cpu time      0.3222: real time      0.3223
    SETDIJ:  cpu time      0.0401: real time      0.0401
     EDDAV:  cpu time     10.2148: real time     10.2186
       DOS:  cpu time      0.0007: real time      0.0008
    CHARGE:  cpu time      1.1565: real time      1.1581
    MIXING:  cpu time      0.3211: real time      0.3229
    --------------------------------------------
      LOOP:  cpu time     12.0555: real time     12.0628

 eigenvalue-minimisations  :  1576
 total energy-change (2. order) :-0.1713085E-01  (-0.1308049E-03)
 number of electron     368.0000005 magnetization 
 augmentation part        9.1190575 magnetization 

 Broyden mixing:
  rms(total) = 0.57201E-02    rms(broyden)= 0.57196E-02
  rms(prec ) = 0.79709E-02
  weight for this iteration     100.00

 eigenvalues of (default mixing * dielectric matrix)
  average eigenvalue GAMMA=   2.1626
  6.3405  2.7266  2.5882  1.9347  1.4737  1.3839  1.0988  0.9584  0.9584

 Free energy of the ion-electron system (eV)
  ---------------------------------------------------
  alpha Z        PSCENC =        91.34886789
  Ewald energy   TEWEN  =    119817.78435254
  -Hartree energ DENC   =   -130889.12867779
  -exchange      EXHF   =         0.00000000
  -V(xc)+E(xc)   XCENC  =      1279.21884532
  PAW double counting   =     41152.10175858   -41216.19866559
  entropy T*S    EENTRO =        -0.06965951
  eigenvalues    EBANDS =     -4601.84311552
  atomic energy  EATOM  =     13537.65479391
  Solvation  Ediel_sol  =         0.00000000
  ---------------------------------------------------
  free energy    TOTEN  =      -829.13150017 eV

  energy without entropy =     -829.06184066  energy(sigma->0) =     -829.09667042


--------------------------------------------------------------------------------------------------------




--------------------------------------- Iteration      1(  15)  ---------------------------------------


    POTLOK:  cpu time      0.3224: real time      0.3224
    SETDIJ:  cpu time      0.0403: real time      0.0402
     EDDAV:  cpu time     10.2107: real time     10.2143
       DOS:  cpu time      0.0008: real time      0.0008
    CHARGE:  cpu time      1.1553: real time      1.1586
    MIXING:  cpu time      0.3301: real time      0.3316
    --------------------------------------------
      LOOP:  cpu time     12.0595: real time     12.0679

 eigenvalue-minimisations  :  1576
 total energy-change (2. order) :-0.1895197E-01  (-0.1432630E-03)
 number of electron     368.0000005 magnetization 
 augmentation part        9.1189874 magnetization 

 Broyden mixing:
  rms(total) = 0.30512E-02    rms(broyden)= 0.30509E-02
  rms(prec ) = 0.43330E-02
  weight for this iteration     100.00

 eigenvalues of (default mixing * dielectric matrix)
  average eigenvalue GAMMA=   2.2489
  7.0551  3.5210  2.2734  2.2734  1.6987  1.3090  1.3090  1.1483  0.9507  0.9507

 Free energy of the ion-electron system (eV)
  ---------------------------------------------------
  alpha Z        PSCENC =        91.34886789
  Ewald energy   TEWEN  =    119817.78435254
  -Hartree energ DENC   =   -130898.58549659
  -exchange      EXHF   =         0.00000000
  -V(xc)+E(xc)   XCENC  =      1279.18199646
  PAW double counting   =     41146.86094119   -41210.95453456
  entropy T*S    EENTRO =        -0.06972902
  eigenvalues    EBANDS =     -4592.37164395
  atomic energy  EATOM  =     13537.65479391
  Solvation  Ediel_sol  =         0.00000000
  ---------------------------------------------------
  free energy    TOTEN  =      -829.15045215 eV

  energy without entropy =     -829.08072313  energy(sigma->0) =     -829.11558764


--------------------------------------------------------------------------------------------------------




--------------------------------------- Iteration      1(  16)  ---------------------------------------


    POTLOK:  cpu time      0.3220: real time      0.3222
    SETDIJ:  cpu time      0.0402: real time      0.0402
     EDDAV:  cpu time     10.4195: real time     10.4233
       DOS:  cpu time      0.0008: real time      0.0008
    CHARGE:  cpu time      1.1678: real time      1.1683
    MIXING:  cpu time      0.3397: real time      0.3404
    --------------------------------------------
      LOOP:  cpu time     12.2900: real time     12.2951

 eigenvalue-minimisations  :  1616
 total energy-change (2. order) :-0.1085702E-01  (-0.7273364E-04)
 number of electron     368.0000005 magnetization 
 augmentation part        9.1189102 magnetization 

 Broyden mixing:
  rms(total) = 0.20029E-02    rms(broyden)= 0.20028E-02
  rms(prec ) = 0.25732E-02
  weight for this iteration     100.00

 eigenvalues of (default mixing * dielectric matrix)
  average eigenvalue GAMMA=   2.3302
  7.9424  4.0446  2.4031  2.4031  1.8875  1.4634  1.4634  1.0570  1.0570  0.9012
  1.0093

 Free energy of the ion-electron system (eV)
  ---------------------------------------------------
  alpha Z        PSCENC =        91.34886789
  Ewald energy   TEWEN  =    119817.78435254
  -Hartree energ DENC   =   -130903.38655142
  -exchange      EXHF   =         0.00000000
  -V(xc)+E(xc)   XCENC  =      1279.16281662
  PAW double counting   =     41143.49902893   -41207.59101483
  entropy T*S    EENTRO =        -0.06969394
  eigenvalues    EBANDS =     -4587.56390885
  atomic energy  EATOM  =     13537.65479391
  Solvation  Ediel_sol  =         0.00000000
  ---------------------------------------------------
  free energy    TOTEN  =      -829.16130917 eV

  energy without entropy =     -829.09161523  energy(sigma->0) =     -829.12646220


--------------------------------------------------------------------------------------------------------




--------------------------------------- Iteration      1(  17)  ---------------------------------------


    POTLOK:  cpu time      0.3217: real time      0.3217
    SETDIJ:  cpu time      0.0401: real time      0.0401
     EDDAV:  cpu time     10.3446: real time     10.3484
       DOS:  cpu time      0.0008: real time      0.0008
    CHARGE:  cpu time      1.1602: real time      1.1609
    MIXING:  cpu time      0.3515: real time      0.3514
    --------------------------------------------
      LOOP:  cpu time     12.2187: real time     12.2232

 eigenvalue-minimisations  :  1600
 total energy-change (2. order) :-0.4591129E-02  (-0.2549505E-04)
 number of electron     368.0000005 magnetization 
 augmentation part        9.1187706 magnetization 

 Broyden mixing:
  rms(total) = 0.11317E-02    rms(broyden)= 0.11316E-02
  rms(prec ) = 0.14575E-02
  weight for this iteration     100.00

 eigenvalues of (default mixing * dielectric matrix)
  average eigenvalue GAMMA=   2.3758
  8.3984  4.6866  2.4664  2.4664  1.9772  1.5382  1.3903  1.3903  0.9287  1.1488
  1.0593  1.0593

 Free energy of the ion-electron system (eV)
  ---------------------------------------------------
  alpha Z        PSCENC =        91.34886789
  Ewald energy   TEWEN  =    119817.78435254
  -Hartree energ DENC   =   -130905.61237187
  -exchange      EXHF   =         0.00000000
  -V(xc)+E(xc)   XCENC  =      1279.16436461
  PAW double counting   =     41147.46234374   -41211.55288133
  entropy T*S    EENTRO =        -0.06970921
  eigenvalues    EBANDS =     -4585.34566058
  atomic energy  EATOM  =     13537.65479391
  Solvation  Ediel_sol  =         0.00000000
  ---------------------------------------------------
  free energy    TOTEN  =      -829.16590029 eV

  energy without entropy =     -829.09619109  energy(sigma->0) =     -829.13104569


--------------------------------------------------------------------------------------------------------




--------------------------------------- Iteration      1(  18)  ---------------------------------------


    POTLOK:  cpu time      0.3215: real time      0.3216
    SETDIJ:  cpu time      0.0403: real time      0.0403
     EDDAV:  cpu time     10.2485: real time     10.2522
       DOS:  cpu time      0.0007: real time      0.0007
    CHARGE:  cpu time      1.1577: real time      1.1581
    MIXING:  cpu time      0.3593: real time      0.3610
    --------------------------------------------
      LOOP:  cpu time     12.1280: real time     12.1339

 eigenvalue-minimisations  :  1584
 total energy-change (2. order) :-0.2310464E-02  (-0.1007523E-04)
 number of electron     368.0000005 magnetization 
 augmentation part        9.1187175 magnetization 

 Broyden mixing:
  rms(total) = 0.58153E-03    rms(broyden)= 0.58146E-03
  rms(prec ) = 0.76346E-03
  weight for this iteration     100.00

 eigenvalues of (default mixing * dielectric matrix)
  average eigenvalue GAMMA=   2.3931
  8.8080  4.9738  2.8017  2.4543  2.1849  1.6910  1.4730  1.4730  1.2566  0.9396
  0.9396  1.0575  1.0575

 Free energy of the ion-electron system (eV)
  ---------------------------------------------------
  alpha Z        PSCENC =        91.34886789
  Ewald energy   TEWEN  =    119817.78435254
  -Hartree energ DENC   =   -130906.49150068
  -exchange      EXHF   =         0.00000000
  -V(xc)+E(xc)   XCENC  =      1279.16341998
  PAW double counting   =     41148.21865084   -41212.30858007
  entropy T*S    EENTRO =        -0.06969247
  eigenvalues    EBANDS =     -4584.46852269
  atomic energy  EATOM  =     13537.65479391
  Solvation  Ediel_sol  =         0.00000000
  ---------------------------------------------------
  free energy    TOTEN  =      -829.16821076 eV

  energy without entropy =     -829.09851829  energy(sigma->0) =     -829.13336453


--------------------------------------------------------------------------------------------------------




--------------------------------------- Iteration      1(  19)  ---------------------------------------


    POTLOK:  cpu time      0.3205: real time      0.3205
    SETDIJ:  cpu time      0.0402: real time      0.0402
     EDDAV:  cpu time      9.3270: real time      9.3305
       DOS:  cpu time      0.0008: real time      0.0008
    CHARGE:  cpu time      1.1583: real time      1.1583
    MIXING:  cpu time      0.3727: real time      0.3727
    --------------------------------------------
      LOOP:  cpu time     11.2195: real time     11.2231

 eigenvalue-minimisations  :  1392
 total energy-change (2. order) :-0.9988616E-03  (-0.2988339E-05)
 number of electron     368.0000005 magnetization 
 augmentation part        9.1187009 magnetization 

 Broyden mixing:
  rms(total) = 0.35102E-03    rms(broyden)= 0.35100E-03
  rms(prec ) = 0.43827E-03
  weight for this iteration     100.00

 eigenvalues of (default mixing * dielectric matrix)
  average eigenvalue GAMMA=   2.4255
  9.0096  5.5888  3.2384  2.3783  2.3783  1.9486  1.4546  1.4546  1.2813  1.2813
  0.9205  0.9858  1.0184  1.0184

 Free energy of the ion-electron system (eV)
  ---------------------------------------------------
  alpha Z        PSCENC =        91.34886789
  Ewald energy   TEWEN  =    119817.78435254
  -Hartree energ DENC   =   -130906.85055453
  -exchange      EXHF   =         0.00000000
  -V(xc)+E(xc)   XCENC  =      1279.16296712
  PAW double counting   =     41146.82767951   -41210.91723096
  entropy T*S    EENTRO =        -0.06969995
  eigenvalues    EBANDS =     -4584.11038515
  atomic energy  EATOM  =     13537.65479391
  Solvation  Ediel_sol  =         0.00000000
  ---------------------------------------------------
  free energy    TOTEN  =      -829.16920962 eV

  energy without entropy =     -829.09950967  energy(sigma->0) =     -829.13435965


--------------------------------------------------------------------------------------------------------




--------------------------------------- Iteration      1(  20)  ---------------------------------------


    POTLOK:  cpu time      0.3203: real time      0.3204
    SETDIJ:  cpu time      0.0403: real time      0.0404
     EDDAV:  cpu time      8.9571: real time      8.9601
       DOS:  cpu time      0.0007: real time      0.0007
    CHARGE:  cpu time      1.1559: real time      1.1569
    MIXING:  cpu time      0.3844: real time      0.3858
    --------------------------------------------
      LOOP:  cpu time     10.8588: real time     10.8642

 eigenvalue-minimisations  :  1320
 total energy-change (2. order) :-0.3866788E-03  (-0.7666853E-06)
 number of electron     368.0000005 magnetization 
 augmentation part        9.1187072 magnetization 

 Broyden mixing:
  rms(total) = 0.21766E-03    rms(broyden)= 0.21765E-03
  rms(prec ) = 0.26225E-03
  weight for this iteration     100.00

 eigenvalues of (default mixing * dielectric matrix)
  average eigenvalue GAMMA=   2.4681
  9.2219  5.9837  3.7865  2.5523  2.4588  1.9411  1.5254  1.5254  1.4369  1.4369
  0.9336  1.0094  1.0920  1.0587  1.0587

 Free energy of the ion-electron system (eV)
  ---------------------------------------------------
  alpha Z        PSCENC =        91.34886789
  Ewald energy   TEWEN  =    119817.78435254
  -Hartree energ DENC   =   -130906.97521039
  -exchange      EXHF   =         0.00000000
  -V(xc)+E(xc)   XCENC  =      1279.16151777
  PAW double counting   =     41146.85699222   -41210.94633105
  entropy T*S    EENTRO =        -0.06969860
  eigenvalues    EBANDS =     -4583.98488058
  atomic energy  EATOM  =     13537.65479391
  Solvation  Ediel_sol  =         0.00000000
  ---------------------------------------------------
  free energy    TOTEN  =      -829.16959630 eV

  energy without entropy =     -829.09989769  energy(sigma->0) =     -829.13474700


--------------------------------------------------------------------------------------------------------




--------------------------------------- Iteration      1(  21)  ---------------------------------------


    POTLOK:  cpu time      0.3201: real time      0.3200
    SETDIJ:  cpu time      0.0401: real time      0.0401
     EDDAV:  cpu time      8.8486: real time      8.8517
       DOS:  cpu time      0.0008: real time      0.0008
    CHARGE:  cpu time      1.1671: real time      1.1691
    MIXING:  cpu time      0.3974: real time      0.3977
    --------------------------------------------
      LOOP:  cpu time     10.7740: real time     10.7794

 eigenvalue-minimisations  :  1296
 total energy-change (2. order) :-0.2019814E-03  (-0.2356405E-06)
 number of electron     368.0000005 magnetization 
 augmentation part        9.1187016 magnetization 

 Broyden mixing:
  rms(total) = 0.89010E-04    rms(broyden)= 0.89000E-04
  rms(prec ) = 0.11249E-03
  weight for this iteration     100.00

 eigenvalues of (default mixing * dielectric matrix)
  average eigenvalue GAMMA=   2.4333
  9.2394  6.2239  3.9644  2.5296  2.5296  2.0578  1.9103  1.4347  1.4347  1.3256
  1.3256  1.0381  1.0381  0.9331  0.9743  0.9743

 Free energy of the ion-electron system (eV)
  ---------------------------------------------------
  alpha Z        PSCENC =        91.34886789
  Ewald energy   TEWEN  =    119817.78435254
  -Hartree energ DENC   =   -130907.07649980
  -exchange      EXHF   =         0.00000000
  -V(xc)+E(xc)   XCENC  =      1279.16116806
  PAW double counting   =     41146.15914341   -41210.24887594
  entropy T*S    EENTRO =        -0.06970045
  eigenvalues    EBANDS =     -4583.88304790
  atomic energy  EATOM  =     13537.65479391
  Solvation  Ediel_sol  =         0.00000000
  ---------------------------------------------------
  free energy    TOTEN  =      -829.16979828 eV

  energy without entropy =     -829.10009783  energy(sigma->0) =     -829.13494806


[...]
   0.163E+02 -.108E+02 0.157E+03   -.171E+02 0.107E+02 -.158E+03   0.424E+00 -.676E+00 0.168E+00   -.480E-05 0.577E-06 0.541E-06
   0.168E+02 -.592E+01 0.118E+03   -.176E+02 0.585E+01 -.118E+03   -.343E+00 0.613E-01 -.820E+00   -.436E-05 0.524E-06 0.499E-06
   -.161E+01 0.113E+02 0.846E+02   0.267E+01 -.110E+02 -.841E+02   0.112E+01 0.536E+00 -.176E+01   -.923E-05 0.304E-06 -.569E-07
   0.209E+01 0.930E+01 0.202E+03   -.229E+01 -.897E+01 -.203E+03   0.393E+00 0.629E-01 0.166E+01   -.557E-05 0.160E-05 0.472E-06
   0.238E+01 -.174E+02 0.140E+03   -.232E+01 0.178E+02 -.140E+03   0.111E+00 -.471E+00 0.852E-01   -.540E-05 -.137E-06 0.701E-06
   -.117E+01 -.558E+01 0.168E+03   0.116E+01 0.511E+01 -.168E+03   0.789E+00 -.418E+00 -.181E-01   -.783E-05 0.254E-05 -.541E-06
   0.740E+01 0.113E+02 0.125E+03   -.914E+01 -.118E+02 -.124E+03   -.116E+01 0.125E+00 -.618E+00   -.608E-05 0.145E-05 0.151E-06
   -.193E+02 0.169E+02 0.157E+03   0.191E+02 -.181E+02 -.157E+03   0.569E+00 -.413E+00 0.654E-01   -.472E-05 0.684E-06 -.948E-06
   -.214E+02 -.160E+02 0.157E+03   0.223E+02 0.164E+02 -.158E+03   0.318E+00 0.100E-01 0.151E+01   -.548E-05 0.299E-05 -.122E-05
   -.123E+02 -.118E+02 0.123E+03   0.115E+02 0.120E+02 -.124E+03   0.705E+00 -.637E+00 0.184E+00   -.788E-06 0.486E-05 -.263E-06
   -.144E+02 0.300E+01 0.572E+02   0.146E+02 -.209E+01 -.565E+02   0.586E+00 0.165E+01 -.759E+00   0.555E-06 -.199E-05 0.911E-06
   -.249E+02 0.481E+01 0.830E+02   0.254E+02 -.389E+01 -.830E+02   0.757E+00 0.893E+00 0.834E-01   0.485E-05 0.275E-05 0.154E-05
   -.182E+02 -.168E+02 0.589E+02   0.185E+02 0.166E+02 -.593E+02   -.548E+00 -.321E+00 0.426E+00   0.537E-05 0.230E-05 0.205E-05
   -.208E+02 -.195E+02 0.575E+02   0.213E+02 0.203E+02 -.574E+02   0.570E+00 -.860E-01 0.380E+00   0.417E-05 0.366E-05 0.170E-05
   0.281E+01 0.428E+01 0.298E+01   -.316E+01 -.360E+01 -.269E+01   -.550E-01 0.751E+00 -.699E+00   0.346E-05 0.190E-07 0.214E-05
   -.105E+02 0.156E+02 0.185E+02   0.102E+02 -.164E+02 -.188E+02   -.445E+00 -.565E-02 0.817E+00   0.474E-05 0.171E-05 0.247E-05
   -.254E+02 -.173E+02 0.515E+02   0.260E+02 0.181E+02 -.519E+02   -.844E+00 0.499E-01 0.217E+01   0.227E-05 0.129E-05 0.932E-06
   0.477E+02 -.112E+02 -.139E+03   -.492E+02 0.111E+02 0.139E+03   0.141E+01 -.659E+00 -.249E+01   0.640E-05 0.223E-05 0.396E-05
   0.170E+02 0.535E+01 -.884E+02   -.168E+02 -.497E+01 0.890E+02   0.562E+00 -.127E+00 -.663E+00   0.306E-05 -.621E-06 0.245E-05
   0.198E+02 0.996E+01 -.165E+03   -.188E+02 -.959E+01 0.165E+03   0.157E+00 0.159E+01 0.110E+01   0.296E-05 0.668E-06 0.813E-06
   0.273E+02 -.168E+02 -.179E+03   -.275E+02 0.177E+02 0.179E+03   0.609E+00 0.155E+01 -.138E+01   0.314E-05 -.336E-05 0.622E-06
   0.909E+01 -.162E+02 -.193E+03   -.870E+01 0.162E+02 0.193E+03   0.193E+00 -.288E-01 -.157E+01   -.126E-05 0.170E-05 -.186E-05
   0.127E+02 0.176E+02 -.149E+03   -.127E+02 -.198E+02 0.149E+03   0.957E+00 -.772E+00 0.385E+00   -.417E-06 0.159E-05 -.103E-05
   0.127E+00 0.152E+02 -.136E+03   -.566E+00 -.158E+02 0.136E+03   -.619E+00 0.543E+00 0.512E+00   0.731E-06 -.236E-05 -.168E-05
   -.943E+01 -.216E+02 -.118E+03   0.933E+01 0.230E+02 0.117E+03   0.147E+00 0.954E+00 0.107E+01   -.113E-05 -.630E-06 -.181E-05
   -.277E+02 -.738E+01 -.145E+03   0.278E+02 0.862E+01 0.146E+03   -.960E+00 0.382E+00 -.216E+01   0.126E-06 -.241E-05 -.163E-05
   -.177E+02 0.137E+02 -.175E+03   0.169E+02 -.155E+02 0.177E+03   -.883E-01 -.121E+01 -.303E+01   0.146E-05 0.137E-05 -.187E-05
   -.147E+02 0.497E+02 0.823E+01   0.121E+02 -.490E+02 -.913E+01   0.263E+01 0.144E+01 0.150E+01   -.539E-05 0.691E-06 0.109E-05
   -.225E+02 -.605E+02 0.221E+01   0.209E+02 0.607E+02 -.329E+01   0.189E+01 -.285E+01 0.157E+01   -.260E-05 -.184E-05 0.860E-07
   -.138E+02 0.582E+02 -.158E+03   0.157E+02 -.582E+02 0.159E+03   -.205E+01 0.708E+00 -.585E+00   -.187E-05 -.217E-05 0.604E-06
   -.159E+02 -.621E+02 -.162E+03   0.183E+02 0.628E+02 0.162E+03   -.756E+00 -.244E+01 0.702E-01   -.384E-05 -.809E-06 0.174E-05
   0.695E+01 -.566E+01 -.712E+02   -.660E+01 0.634E+01 0.711E+02   0.627E+00 0.112E+01 0.204E+00   -.121E-05 0.135E-05 0.188E-05
   -.108E+02 0.574E+01 -.994E+02   0.116E+02 -.523E+01 0.990E+02   -.459E+00 -.147E+01 0.122E+00   -.101E-05 -.235E-05 0.206E-05
   0.345E+01 0.118E+02 -.876E+02   -.460E+01 -.115E+02 0.883E+02   0.105E+00 0.518E+00 -.457E+00   -.148E-05 0.175E-06 0.244E-05
   0.135E+02 -.169E+02 -.639E+02   -.153E+02 0.169E+02 0.648E+02   -.643E+00 0.224E-01 0.338E+00   0.276E-05 -.167E-05 0.111E-05
   -.888E+01 0.187E+01 -.512E+02   0.962E+01 -.313E+01 0.509E+02   -.274E-01 -.781E+00 -.127E+01   0.181E-05 -.707E-06 0.611E-06
   0.812E+01 -.147E+01 -.311E+01   -.798E+01 0.242E+01 0.266E+01   0.412E-01 0.140E+01 0.966E+00   0.382E-05 0.492E-08 0.505E-06
   0.300E+01 0.178E+02 -.326E+02   -.392E+01 -.187E+02 0.331E+02   -.772E+00 0.276E+00 0.462E+00   0.888E-05 -.294E-06 -.186E-05
   -.103E+02 -.193E+02 -.470E+02   0.110E+02 0.200E+02 0.472E+02   0.196E+00 0.554E+00 -.144E+00   0.526E-05 0.129E-05 -.268E-06
   0.249E+01 -.735E+01 0.163E+02   -.226E+01 0.803E+01 -.160E+02   -.366E+00 0.320E+00 -.503E+00   0.761E-05 -.212E-05 -.306E-05
   -.932E+01 -.135E+01 -.700E+02   0.942E+01 0.187E+01 0.708E+02   -.340E+00 0.589E+00 -.243E+01   0.634E-05 0.737E-06 -.269E-05
   -.144E+01 0.232E+01 0.669E+01   0.242E+01 -.148E+01 -.635E+01   0.809E+00 -.803E-01 -.818E+00   0.301E-05 -.132E-05 -.191E-05
   0.137E+01 -.685E+01 -.386E+01   -.229E+01 0.608E+01 0.394E+01   -.104E+01 -.143E+01 0.152E+01   0.421E-05 -.802E-06 -.139E-05
   0.519E+01 -.157E+02 0.761E+02   -.513E+01 0.169E+02 -.760E+02   0.908E+00 0.540E+00 0.165E+00   -.172E-05 -.316E-05 -.863E-06
   -.762E+01 -.661E+01 0.574E+00   0.879E+01 0.831E+01 -.742E+00   -.269E+00 -.291E-01 -.876E+00   -.262E-05 -.999E-06 -.905E-06
   0.491E+01 0.166E+02 0.216E+02   -.504E+01 -.175E+02 -.210E+02   0.170E+00 0.405E+00 -.126E+01   -.569E-05 0.327E-06 -.228E-06
   -.233E+01 -.148E+02 0.781E+01   0.251E+01 0.152E+02 -.774E+01   0.264E+00 0.272E+00 -.399E-02   -.571E-05 -.184E-05 0.436E-06
   0.279E+01 -.139E+02 0.990E+02   -.266E+01 0.143E+02 -.996E+02   -.442E+00 -.410E+00 0.203E+01   -.596E-05 -.199E-05 0.108E-05
   0.118E+02 0.365E+01 0.497E+02   -.130E+02 -.302E+01 -.495E+02   -.440E+00 0.831E+00 -.318E+00   -.481E-05 -.234E-05 0.988E-06
   0.675E+01 0.959E+01 0.434E+02   -.742E+01 -.958E+01 -.427E+02   -.953E+00 -.128E+00 -.143E+01   -.557E-05 0.541E-06 0.433E-06
   -.395E+01 -.897E+01 0.780E+02   0.544E+01 0.867E+01 -.781E+02   0.520E+00 -.830E+00 0.545E+00   -.782E-05 -.226E-05 0.134E-05
   -.401E+01 -.149E+02 0.891E+02   0.492E+01 0.160E+02 -.893E+02   0.214E+00 0.528E+00 0.103E+01   -.851E-05 -.254E-05 -.638E-07
   -.239E+01 0.140E+02 0.115E+03   0.191E+01 -.138E+02 -.115E+03   -.112E+01 0.308E+00 -.218E+00   -.945E-05 -.608E-06 0.495E-06
   0.113E+02 0.289E+01 0.514E+02   -.133E+02 -.244E+01 -.514E+02   -.717E+00 -.140E+00 -.118E+01   -.760E-05 -.433E-05 0.152E-06
   -.317E+01 -.393E+01 0.116E+03   0.289E+01 0.361E+01 -.116E+03   -.122E+01 -.570E+00 0.668E+00   -.606E-05 0.115E-05 -.578E-06
   -.189E+02 0.522E+01 0.422E+02   0.204E+02 -.689E+01 -.421E+02   0.737E+00 -.215E+00 0.760E+00   0.122E-05 -.324E-05 0.106E-05
   -.272E+02 0.905E+01 0.113E+03   0.278E+02 -.909E+01 -.113E+03   -.544E+00 -.362E+00 -.756E+00   0.137E-05 -.738E-06 0.265E-06
   -.965E+01 0.183E+02 0.141E+02   0.101E+02 -.192E+02 -.135E+02   0.639E+00 -.286E+00 -.518E+00   0.494E-05 -.526E-05 0.332E-05
   -.352E+02 -.294E+01 0.133E+03   0.357E+02 0.313E+01 -.133E+03   -.850E+00 0.402E+00 0.218E+01   0.455E-05 0.909E-06 -.746E-06
   0.279E+02 -.485E+01 -.539E+02   -.298E+02 0.405E+01 0.538E+02   -.333E+00 -.394E+00 -.170E+01   0.218E-05 -.462E-05 0.326E-05
   -.162E+02 0.165E+02 0.451E+02   0.161E+02 -.174E+02 -.446E+02   0.485E+00 -.421E+00 -.135E+01   0.358E-05 0.864E-06 0.192E-05
   -.723E+01 0.657E+01 -.206E+02   0.867E+01 -.543E+01 0.206E+02   0.699E+00 0.768E+00 0.342E+00   0.332E-05 -.421E-05 0.254E-05
   -.211E+02 -.298E+01 0.502E+02   0.215E+02 0.245E+01 -.506E+02   -.587E+00 -.594E+00 0.145E+01   0.518E-05 0.854E-06 0.183E-05
   0.172E+02 -.522E+01 -.586E+02   -.184E+02 0.397E+01 0.581E+02   -.113E+01 -.142E+01 0.126E+00   0.571E-05 -.818E-06 0.331E-05
   0.238E+01 0.118E+02 -.316E+02   -.314E+01 -.119E+02 0.310E+02   -.855E+00 -.773E+00 0.293E+00   0.710E-05 0.178E-05 0.377E-05
   0.238E+01 0.103E+02 -.118E+03   -.938E+00 -.100E+02 0.119E+03   -.274E+00 0.104E+01 -.763E+00   0.317E-05 0.186E-06 0.115E-05
   0.284E+00 -.609E+01 -.757E+02   0.806E+00 0.593E+01 0.762E+02   0.132E+01 0.580E+00 0.568E+00   0.296E-05 -.117E-05 0.131E-05
   0.118E+02 -.158E+02 -.166E+03   -.126E+02 0.168E+02 0.166E+03   -.124E+01 0.624E+00 -.374E+00   -.235E-06 -.140E-05 -.104E-05
   0.168E+01 0.215E+02 -.118E+03   -.176E+01 -.222E+02 0.118E+03   0.294E+00 0.194E+00 0.556E+00   0.348E-06 0.137E-05 -.778E-06
   -.196E+01 0.105E+02 -.207E+03   0.342E+01 -.100E+02 0.207E+03   0.119E+01 0.194E-01 -.679E+00   0.958E-06 -.113E-05 -.221E-05
   -.235E+01 -.925E+01 -.139E+03   0.169E+01 0.902E+01 0.138E+03   -.127E+01 -.211E+00 0.994E+00   0.385E-05 0.222E-05 -.130E-05
   -.240E+02 -.788E+01 -.221E+03   0.228E+02 0.946E+01 0.222E+03   -.172E+00 0.198E-01 -.369E+00   -.196E-06 0.962E-06 -.191E-05
   -.298E+02 0.909E+01 -.184E+03   0.306E+02 -.109E+02 0.184E+03   0.461E+00 -.130E+01 -.181E-01   -.190E-05 0.181E-05 -.193E-05
   -.468E+02 0.699E+02 -.193E+03   0.459E+02 -.714E+02 0.194E+03   0.931E+00 0.128E+01 -.656E-01   -.511E-05 -.211E-05 -.632E-06
   -.404E+02 -.684E+02 -.217E+03   0.379E+02 0.700E+02 0.218E+03   0.120E+01 -.240E+00 -.167E+01   -.667E-05 0.167E-05 -.921E-06
 -----------------------------------------------------------------------------------------------
   0.361E+00 -.166E+00 -.505E+00   -.298E-12 0.426E-13 0.398E-12   -.266E+00 0.780E-01 0.481E+00   -.534E-05 0.725E-06 0.183E-04
 
 
 POSITION                                       TOTAL-FORCE (eV/Angst)
 -----------------------------------------------------------------------------------
      8.16459      3.93068      0.94155         2.349422      3.345132     -0.821587
      8.23108      5.34446      0.91911         0.143084     -1.223552     -0.997464
      9.42738      3.38378      0.75170        -0.471537     -3.176360      0.026054
      9.43351      6.00927      0.58919        -2.376328     -0.712088      1.490140
     10.61640      3.95984      0.27564         0.133906      1.299893      0.346078
     10.61190      5.34966      0.26218         0.231773     -1.140719     -1.124904
     11.85520      3.29700      0.04744        -0.142230      0.253229     -0.543507
     11.79280      6.00510     33.42827         1.036797      2.137877      1.204655
     13.02240      4.00280     33.10146        -0.325755     -0.751864      0.375584
     13.00140      5.39281     33.07485         0.107250     -0.739266     -0.994407
     14.24690      3.31547     32.90542         0.332913      0.410512      0.723945
     14.20580      6.08682     32.74269         0.552140     -3.240715      0.479288
     15.44570      4.00303     32.52412        -0.440889     -0.588558      0.048134
     15.41960      5.36054     32.45261        -0.597747      1.990735     -0.990639
     16.70770      3.40103     32.39368         0.026849     -2.494507      0.675685
     16.63740      6.06412     32.19319         0.001162     -1.511798      0.918393
     17.92270      4.03511     32.11326         0.716101     -0.637708      0.234978
     17.89610      5.41234     32.08763        -0.285225     -0.768934     -0.257041
     19.19510      3.34020     32.11125        -1.069138     -0.013966     -0.392311
     19.13850      6.02833     32.17573         2.175877      0.860662     -1.225761
     20.41890      3.99832     31.90856         0.196005      0.394410      0.902027
     20.41530      5.37768     32.03488         0.166355     -0.087716     -0.092117
     21.67110      3.34820     32.02820         0.781492     -0.894302     -0.118209
     21.70850      6.02220     32.16662        -2.905609     -0.384002     -0.551392
     22.90420      4.00565     32.18660         0.349284     -1.610024     -0.184557
     22.90700      5.34912     32.23089         1.205826      0.427909      0.872280
     24.12500      3.34004     32.49051        -0.080564     -0.453540     -0.297691
     24.08840      5.95208     32.67646         0.839524      2.566286     -0.042287
     25.30760      3.94363     32.87626         1.211331      1.816047      0.074444
     25.31520      5.32643     32.97622        -0.279897     -0.521443      0.109991
     26.49420      3.29742     33.27789         1.091661      0.716136      0.464864
     26.48530      5.95596     33.46303        -0.405154      1.433513     -0.412767
     27.67570      3.94267      0.28597        -0.751795     -0.750316      0.522346
     27.69510      5.30000      0.25034        -0.218897      0.855127      1.773107
      0.68540      3.28025      0.98021        -0.074642     -0.749152     -2.073504
      0.72917      5.95137      0.90204         0.730716      0.255398     -0.058371
      1.85906      3.87007      1.40910         1.101727      1.955868      0.939054
      1.86055      5.24123      1.43294         0.330976      2.383697     -1.126644
      3.10615      3.25417      1.67114         0.590131     -0.014649     -1.000158
      3.10245      5.96071      1.61390         0.948005     -2.992766      0.465184
      4.38335      3.92370      1.66775        -1.058502     -0.041028      0.340766
      4.37150      5.27333      1.64306         0.046852      2.377749      0.987612
      5.64758      3.28453      1.64773        -0.842874      1.621444     -1.135438
      5.64587      6.02589      1.72938        -0.889342     -2.993040     -1.813337
      6.72793      3.96078      1.17727         0.050504      2.102384      0.603581
      6.74698      5.40317      1.19695         0.257755     -2.602433      0.483926
      8.37743      8.02991      1.42748        -0.145174      0.682796     -0.000399
      8.34988      1.34798      1.45537         1.638928     -1.743343     -0.051483
      9.45776      7.33510      0.90947         0.970595      1.809170      0.066608
      9.49669      2.01283      0.99097         0.351229     -0.970172     -0.251878
     10.71240      8.01192      0.65892        -1.040189      0.750393      0.279718
     10.73170      1.29063      0.61903        -2.398601      0.073292      1.226760
     11.88380      7.38428      0.25789         0.704258     -2.043008     -1.622390
     11.89740      1.90514      0.18921         0.175037      2.351238      0.519063
     13.12610      8.02330     33.46003        -1.692645     -0.596461      0.980858
     13.12490      1.27219      0.01494         0.924918      1.184359      0.089968
     14.28780      7.39076     33.04405        -0.134996      0.993962     -0.229310
     14.33550      1.97312     33.25976        -0.244485      1.110045     -1.676243
     15.48860      8.06582     32.87219         1.784763      0.757631     -0.480377
     15.57230      1.36720     32.92922        -1.952300     -2.200421      1.597351
     16.66600      7.38495     32.49057         0.969998      1.742771      0.282348
     16.75960      2.01262     32.69170         0.900863      1.671890     -1.044973
     17.94650      8.05019     32.49541         0.042355     -0.471036     -0.734596
     17.97690      1.31590     32.55065         0.437674      0.651373      0.070011
     19.19700      7.40625     32.24611        -0.306832     -0.041982      1.380162
     19.23330      1.96418     32.33070        -1.656682      1.459103     -0.189086
     20.47360      8.05097     32.33280        -1.628655     -0.118862     -0.735344
     20.45540      1.33372     32.26633         2.004688     -1.136641      0.461422
     21.68750      7.36703     32.29459         1.121755      1.656457      0.811596
     21.73770      1.97485     32.19239        -1.596583      0.512220     -0.279389
     22.94240      8.04860     32.51464        -2.665440      0.320570     -1.257643
     22.97850      1.32301     32.36007        -1.501119     -0.886934      0.385284
     24.08160      7.36515     32.74734         2.246927     -1.886259      0.852522
     24.18050      1.97308     32.53489         0.080354     -0.400314     -0.664538
     25.28990      8.03181     33.08140         1.049538     -1.202708      0.139293
     25.37430      1.27158     32.82943        -0.265042      0.599205      1.519998
     26.47470      7.35375      0.09408        -2.190717     -1.200896     -1.808472
     26.52510      1.94802     33.30104         0.419108     -1.366772     -0.874528
     27.65000      7.99171      0.37480         2.139188      1.911689      0.343771
     27.70200      1.28732      0.21521        -0.165087     -1.115572      1.041230
      0.79750      7.35382      0.86159        -2.275220     -2.664854     -0.385988
      0.79033      1.93167      0.77278        -1.617325     -0.929723     -0.299578
      1.95027      7.95737      1.27774         1.168096      1.289270      0.013977
      1.92187      1.23135      1.17740         2.404249      0.422276      1.068649
      3.17662      7.30276      1.65868        -2.111675      1.635548     -0.520535
      3.14651      1.89779      1.53451         0.215749     -0.516773      0.194178
      4.37167      7.99129      1.87677         2.660731      0.514315     -0.193952
      4.43416      1.26831      1.74074        -1.934780     -0.444734      0.562027
      5.68087      7.35121      1.91974        -1.337130      1.597752      0.159414
      5.65883      1.96115      1.81733         1.207708     -3.146263      0.310435
      6.89635      8.01460      1.80985         0.002137     -0.138692      0.383052
      6.89897      1.27232      1.83894        -1.249468      1.415536     -0.247016
 -----------------------------------------------------------------------------------
    total drift:                                0.094941     -0.087694     -0.023995


--------------------------------------------------------------------------------------------------------



  FREE ENERGIE OF THE ION-ELECTRON SYSTEM (eV)
  ---------------------------------------------------
  free  energy   TOTEN  =      -829.16989658 eV

  energy  without entropy=     -829.10019641  energy(sigma->0) =     -829.13504649
 


--------------------------------------------------------------------------------------------------------


    POTLOK:  cpu time      0.4546: real time      0.4545


--------------------------------------------------------------------------------------------------------


     LOOP+:  cpu time    333.3271: real time    333.5305
    4ORBIT:  cpu time      0.0000: real time      0.0000

 total amount of memory used by VASP MPI-rank0  2294510. kBytes
=======================================================================

   base                                    :      30000. kBytes
   nonlr-proj                              :      15076. kBytes
   fftplans                                :     436558. kBytes
   grid                                    :     732614. kBytes
   one-center                              :        282. kBytes
   wavefun                                 :    1079980. kBytes
 
  
  
 General timing and accounting informations for this job:
 ========================================================
  
                  Total CPU time used (sec):      366.780
                            User time (sec):      358.199
                          System time (sec):        8.581
                         Elapsed time (sec):      367.084
  
                   Maximum memory used (kb):     3729488.
                   Average memory used (kb):          N/A
  
                          Minor page faults:      3178924
                          Major page faults:         6997
                 Voluntary context switches:        10210
