<?xml version="1.0" encoding="ISO-8859-1"?>
<modeling>
 <generator>
  <i name="program" type="string">vasp </i>
  <i name="version" type="string">6.5.0  </i>
  <i name="subversion" type="string">16Dec24 (build Feb 19 2025 19:45:31) complex                          parallel </i>
  <i name="platform" type="string">LinuxNV </i>
  <i name="date" type="string">2025 10 25 </i>
  <i name="time" type="string">18:38:43 </i>
 </generator>
 <incar>
  <i type="int" name="ISTART">     0</i>
  <i type="string" name="PREC">Accurate   (Precision level)</i>
  <i type="string" name="ALGO">Normal</i>
  <i type="int" name="ISPIN">     1</i>
  <i type="int" name="ICHARG">     2</i>
  <i type="int" name="NELM">   150</i>
  <i type="int" name="IBRION">    -1</i>
  <i name="EDIFF">      0.00000100</i>
  <i type="int" name="NSW">     0</i>
  <i name="ENCUT">    500.00000000</i>
  <i type="string" name="LREAL">Auto         (Projection operators: automatic)</i>
  <i type="int" name="ISMEAR">     0</i>
  <i type="logical" name="KGAMMA"> T  </i>
  <i type="logical" name="LWAVE"> F  </i>
  <i type="logical" name="LCHARG"> F  </i>
 </incar>
 <primitive_cell>
  <structure name="primitive_cell" >
   <crystal>
    <varray name="basis" >
     <v>      28.05000000       0.00000000       0.00000000 </v>
     <v>       0.00000000       8.10000000       0.00000000 </v>
     <v>       0.00000000       0.00000000      33.50000000 </v>
    </varray>
    <i name="volume">   7611.36750000 </i>
    <varray name="rec_basis" >
     <v>       0.03565062       0.00000000       0.00000000 </v>
     <v>       0.00000000       0.12345679       0.00000000 </v>
     <v>       0.00000000       0.00000000       0.02985075 </v>
    </varray>
   </crystal>
   <varray name="positions" >
    <v>       0.29107273       0.48526914       0.02810597 </v>
    <v>       0.29344314       0.65980988       0.02743618 </v>
    <v>       0.33609198       0.41775062       0.02243878 </v>
    <v>       0.33631052       0.74188519       0.01758770 </v>
    <v>       0.37848128       0.48886914       0.00822815 </v>
    <v>       0.37832086       0.66045185       0.00782624 </v>
    <v>       0.42264528       0.40703704       0.00141609 </v>
    <v>       0.42042068       0.74137037       0.99785891 </v>
    <v>       0.46425668       0.49417284       0.98810325 </v>
    <v>       0.46350802       0.66577901       0.98730901 </v>
    <v>       0.50791087       0.40931728       0.98225125 </v>
    <v>       0.50644563       0.75145926       0.97739388 </v>
    <v>       0.55064884       0.49420123       0.97086916 </v>
    <v>       0.54971836       0.66179506       0.96873463 </v>
    <v>       0.59563993       0.41988025       0.96697552 </v>
    <v>       0.59313369       0.74865679       0.96099075 </v>
    <v>       0.63895544       0.49816173       0.95860478 </v>
    <v>       0.63800713       0.66819012       0.95783970 </v>
    <v>       0.68431729       0.41237037       0.95854478 </v>
    <v>       0.68229947       0.74423827       0.96046955 </v>
    <v>       0.72794652       0.49361975       0.95249433 </v>
    <v>       0.72781818       0.66391111       0.95626507 </v>
    <v>       0.77258824       0.41335802       0.95606567 </v>
    <v>       0.77392157       0.74348148       0.96019761 </v>
    <v>       0.81654902       0.49452469       0.96079403 </v>
    <v>       0.81664884       0.66038519       0.96211612 </v>
    <v>       0.86007130       0.41235062       0.96986597 </v>
    <v>       0.85876649       0.73482469       0.97541669 </v>
    <v>       0.90223173       0.48686790       0.98138081 </v>
    <v>       0.90250267       0.65758395       0.98436472 </v>
    <v>       0.94453476       0.40708889       0.99336988 </v>
    <v>       0.94421747       0.73530370       0.99889638 </v>
    <v>       0.98665597       0.48674938       0.00853627 </v>
    <v>       0.98734759       0.65432099       0.00747284 </v>
    <v>       0.02443494       0.40496914       0.02926000 </v>
    <v>       0.02599526       0.73473704       0.02692660 </v>
    <v>       0.06627665       0.47778642       0.04206269 </v>
    <v>       0.06632977       0.64706543       0.04277433 </v>
    <v>       0.11073619       0.40174938       0.04988478 </v>
    <v>       0.11060428       0.73589012       0.04817612 </v>
    <v>       0.15626916       0.48440741       0.04978358 </v>
    <v>       0.15584670       0.65102840       0.04904657 </v>
    <v>       0.20133975       0.40549753       0.04918597 </v>
    <v>       0.20127879       0.74393704       0.05162328 </v>
    <v>       0.23985490       0.48898519       0.03514239 </v>
    <v>       0.24053405       0.66705802       0.03572985 </v>
    <v>       0.29866061       0.99134691       0.04261134 </v>
    <v>       0.29767843       0.16641728       0.04344388 </v>
    <v>       0.33717504       0.90556790       0.02714824 </v>
    <v>       0.33856292       0.24849753       0.02958107 </v>
    <v>       0.38190374       0.98912593       0.01966919 </v>
    <v>       0.38259180       0.15933704       0.01847839 </v>
    <v>       0.42366488       0.91163951       0.00769830 </v>
    <v>       0.42414973       0.23520247       0.00564791 </v>
    <v>       0.46795365       0.99053086       0.99880676 </v>
    <v>       0.46791087       0.15706049       0.00044604 </v>
    <v>       0.50936898       0.91243951       0.98638949 </v>
    <v>       0.51106952       0.24359506       0.99282854 </v>
    <v>       0.55217825       0.99578025       0.98125931 </v>
    <v>       0.55516221       0.16879012       0.98296170 </v>
    <v>       0.59415330       0.91172222       0.96986776 </v>
    <v>       0.59749020       0.24847160       0.97587161 </v>
    <v>       0.63980392       0.99385062       0.97001224 </v>
    <v>       0.64088770       0.16245679       0.97166125 </v>
    <v>       0.68438503       0.91435185       0.96257045 </v>
    <v>       0.68567914       0.24249136       0.96509552 </v>
    <v>       0.72989661       0.99394691       0.96515821 </v>
    <v>       0.72924777       0.16465679       0.96317403 </v>
    <v>       0.77317291       0.90950988       0.96401761 </v>
    <v>       0.77496257       0.24380864       0.96096687 </v>
    <v>       0.81791087       0.99365432       0.97058615 </v>
    <v>       0.81919786       0.16333457       0.96597224 </v>
    <v>       0.85852406       0.90927778       0.97753266 </v>
    <v>       0.86204991       0.24359012       0.97119063 </v>
    <v>       0.90160071       0.99158148       0.98750442 </v>
    <v>       0.90460963       0.15698519       0.97998307 </v>
    <v>       0.94383957       0.90787037       0.00280833 </v>
    <v>       0.94563636       0.24049630       0.99406090 </v>
    <v>       0.98573975       0.98663086       0.01118800 </v>
    <v>       0.98759358       0.15892840       0.00642433 </v>
    <v>       0.02843127       0.90787901       0.02571922 </v>
    <v>       0.02817569       0.23847778       0.02306806 </v>
    <v>       0.06952834       0.98239136       0.03814149 </v>
    <v>       0.06851586       0.15201852       0.03514627 </v>
    <v>       0.11324848       0.90157531       0.04951284 </v>
    <v>       0.11217504       0.23429506       0.04580627 </v>
    <v>       0.15585276       0.98657901       0.05602299 </v>
    <v>       0.15808057       0.15658148       0.05196239 </v>
    <v>       0.20252656       0.90755679       0.05730567 </v>
    <v>       0.20174082       0.24211728       0.05424866 </v>
    <v>       0.24585918       0.98945679       0.05402537 </v>
    <v>       0.24595258       0.15707654       0.05489373 </v>
   </varray>
  </structure>
  <varray name="primitive_index" >
   <v type="int" >        1 </v>
   <v type="int" >        2 </v>
   <v type="int" >        3 </v>
   <v type="int" >        4 </v>
   <v type="int" >        5 </v>
   <v type="int" >        6 </v>
   <v type="int" >        7 </v>
   <v type="int" >        8 </v>
   <v type="int" >        9 </v>
   <v type="int" >       10 </v>
   <v type="int" >       11 </v>
   <v type="int" >       12 </v>
   <v type="int" >       13 </v>
   <v type="int" >       14 </v>
   <v type="int" >       15 </v>
   <v type="int" >       16 </v>
   <v type="int" >       17 </v>
   <v type="int" >       18 </v>
   <v type="int" >       19 </v>
   <v type="int" >       20 </v>
   <v type="int" >       21 </v>
   <v type="int" >       22 </v>
   <v type="int" >       23 </v>
   <v type="int" >       24 </v>
   <v type="int" >       25 </v>
   <v type="int" >       26 </v>
   <v type="int" >       27 </v>
   <v type="int" >       28 </v>
   <v type="int" >       29 </v>
   <v type="int" >       30 </v>
   <v type="int" >       31 </v>
   <v type="int" >       32 </v>
   <v type="int" >       33 </v>
   <v type="int" >       34 </v>
   <v type="int" >       35 </v>
   <v type="int" >       36 </v>
   <v type="int" >       37 </v>
   <v type="int" >       38 </v>
   <v type="int" >       39 </v>
   <v type="int" >       40 </v>
   <v type="int" >       41 </v>
   <v type="int" >       42 </v>
   <v type="int" >       43 </v>
   <v type="int" >       44 </v>
   <v type="int" >       45 </v>
   <v type="int" >       46 </v>
   <v type="int" >       47 </v>
   <v type="int" >       48 </v>
   <v type="int" >       49 </v>
   <v type="int" >       50 </v>
   <v type="int" >       51 </v>
   <v type="int" >       52 </v>
   <v type="int" >       53 </v>
   <v type="int" >       54 </v>
   <v type="int" >       55 </v>
   <v type="int" >       56 </v>
   <v type="int" >       57 </v>
   <v type="int" >       58 </v>
   <v type="int" >       59 </v>
   <v type="int" >       60 </v>
   <v type="int" >       61 </v>
   <v type="int" >       62 </v>
   <v type="int" >       63 </v>
   <v type="int" >       64 </v>
   <v type="int" >       65 </v>
   <v type="int" >       66 </v>
   <v type="int" >       67 </v>
   <v type="int" >       68 </v>
   <v type="int" >       69 </v>
   <v type="int" >       70 </v>
   <v type="int" >       71 </v>
   <v type="int" >       72 </v>
   <v type="int" >       73 </v>
   <v type="int" >       74 </v>
   <v type="int" >       75 </v>
   <v type="int" >       76 </v>
   <v type="int" >       77 </v>
   <v type="int" >       78 </v>
   <v type="int" >       79 </v>
   <v type="int" >       80 </v>
   <v type="int" >       81 </v>
   <v type="int" >       82 </v>
   <v type="int" >       83 </v>
   <v type="int" >       84 </v>
   <v type="int" >       85 </v>
   <v type="int" >       86 </v>
   <v type="int" >       87 </v>
   <v type="int" >       88 </v>
   <v type="int" >       89 </v>
   <v type="int" >       90 </v>
   <v type="int" >       91 </v>
   <v type="int" >       92 </v>
  </varray>
 </primitive_cell>
 <kpoints>
  <generation param="Gamma">
   <v type="int" name="divisions">       1        4        1 </v>
   <v name="usershift">      0.00000000       0.00000000       0.00000000 </v>
   <v name="genvec1">      1.00000000       0.00000000       0.00000000 </v>
   <v name="genvec2">      0.00000000       0.25000000       0.00000000 </v>
   <v name="genvec3">      0.00000000       0.00000000       1.00000000 </v>
   <v name="shift">      0.00000000       0.00000000       0.00000000 </v>
  </generation>
  <varray name="kpointlist" >
   <v>       0.00000000       0.00000000       0.00000000 </v>
   <v>       0.00000000       0.25000000       0.00000000 </v>
   <v>       0.00000000       0.50000000       0.00000000 </v>
  </varray>
  <varray name="weights" >
   <v>       0.25000000 </v>
   <v>       0.50000000 </v>
   <v>       0.25000000 </v>
  </varray>
 </kpoints>
 <parameters>
  <separator name="general" >
   <i type="string" name="SYSTEM">unknown system</i>
   <i type="logical" name="LCOMPAT"> F  </i>
  </separator>
  <separator name="electronic" >
   <i type="string" name="PREC">accura</i>
   <i name="ENMAX">    500.00000000</i>
   <i name="ENAUG">    644.87300000</i>
   <i name="EDIFF">      0.00000100</i>
   <i type="int" name="IALGO">    38</i>
   <i type="int" name="IWAVPR">    10</i>
   <i type="int" name="NBANDS">   232</i>
   <i type="int" name="NBANDSLOW">    -1</i>
   <i type="int" name="NBANDSHIGH">    -1</i>
   <i name="NELECT">    368.00000000</i>
   <i type="int" name="TURBO">     0</i>
   <i type="int" name="IRESTART">     0</i>
   <i type="int" name="NREBOOT">     0</i>
   <i type="int" name="NMIN">     0</i>
   <i name="EREF">      0.00000000</i>
   <separator name="electronic smearing" >
    <i type="int" name="ISMEAR">     0</i>
    <i name="SIGMA">      0.20000000</i>
    <i name="KSPACING">      0.50000000</i>
    <i type="logical" name="KGAMMA"> T  </i>
    <i type="logical" name="KBLOWUP"> T  </i>
   </separator>
   <separator name="electronic projectors" >
    <i type="logical" name="LREAL"> T  </i>
    <v name="ROPT">     -0.00025000</v>
    <i type="int" name="LMAXPAW">  -100</i>
    <i type="int" name="LMAXMIX">     2</i>
    <i type="logical" name="NLSPLINE"> F  </i>
   </separator>
   <separator name="electronic startup" >
    <i type="int" name="ISTART">     0</i>
    <i type="int" name="ICHARG">     2</i>
    <i type="int" name="INIWAV">     1</i>
   </separator>
   <separator name="electronic spin" >
    <i type="int" name="ISPIN">     1</i>
    <i type="logical" name="LNONCOLLINEAR"> F  </i>
    <v name="MAGMOM">      1.00000000      1.00000000      1.00000000      1.00000000      1.00000000      1.00000000      1.00000000      1.00000000      1.00000000      1.00000000      1.00000000      1.00000000      1.00000000      1.00000000      1.00000000      1.00000000      1.00000000      1.00000000      1.00000000      1.00000000
      1.00000000      1.00000000      1.00000000      1.00000000      1.00000000      1.00000000      1.00000000      1.00000000      1.00000000      1.00000000      1.00000000      1.00000000      1.00000000      1.00000000      1.00000000      1.00000000      1.00000000      1.00000000      1.00000000      1.00000000
      1.00000000      1.00000000      1.00000000      1.00000000      1.00000000      1.00000000      1.00000000      1.00000000      1.00000000      1.00000000      1.00000000      1.00000000      1.00000000      1.00000000      1.00000000      1.00000000      1.00000000      1.00000000      1.00000000      1.00000000
      1.00000000      1.00000000      1.00000000      1.00000000      1.00000000      1.00000000      1.00000000      1.00000000      1.00000000      1.00000000      1.00000000      1.00000000      1.00000000      1.00000000      1.00000000      1.00000000      1.00000000      1.00000000      1.00000000      1.00000000
      1.00000000      1.00000000      1.00000000      1.00000000      1.00000000      1.00000000      1.00000000      1.00000000      1.00000000      1.00000000      1.00000000      1.00000000</v>
    <i name="NUPDOWN">     -1.00000000</i>
    <i type="logical" name="LSORBIT"> F  </i>
    <v name="SAXIS">      0.00000000      0.00000000      1.00000000</v>
    <i type="logical" name="LSPIRAL"> F  </i>
    <v name="QSPIRAL">      0.00000000      0.00000000      0.00000000</v>
    <i type="logical" name="LZEROZ"> F  </i>
   </separator>
   <separator name="electronic exchange-correlation" >
    <i type="logical" name="LASPH"> F  </i>
   </separator>
   <separator name="electronic convergence" >
    <i type="int" name="NELM">   150</i>
    <i type="int" name="NELMDL">    -5</i>
    <i type="int" name="NELMIN">     2</i>
    <i name="ENINI">    500.00000000</i>
    <separator name="electronic convergence detail" >
     <i type="logical" name="LDIAG"> T  </i>
     <i type="logical" name="LSUBROT"> F  </i>
     <i name="WEIMIN">      0.00000000</i>
     <i name="EBREAK">      0.00000000</i>
     <i name="DEPER">      0.30000000</i>
     <i type="int" name="NRMM">     4</i>
     <i name="TIME">      0.40000000</i>
    </separator>
   </separator>
   <separator name="electronic mixer" >
    <i name="AMIX">      0.40000000</i>
    <i name="BMIX">      1.00000000</i>
    <i name="AMIN">      0.10000000</i>
    <i name="AMIX_MAG">      1.60000000</i>
    <i name="BMIX_MAG">      1.00000000</i>
    <separator name="electronic mixer details" >
     <i type="int" name="IMIX">     4</i>
     <i type="logical" name="MIXFIRST"> F  </i>
     <i type="int" name="MAXMIX">   -45</i>
     <i name="WC">    100.00000000</i>
     <i type="int" name="INIMIX">     1</i>
     <i type="int" name="MIXPRE">     1</i>
     <i type="int" name="MREMOVE">     5</i>
    </separator>
   </separator>
   <separator name="electronic dipolcorrection" >
    <i type="logical" name="LDIPOL"> F  </i>
    <i type="logical" name="LMONO"> F  </i>
    <i type="int" name="IDIPOL">     0</i>
    <i name="EPSILON">      1.00000000</i>
    <v name="DIPOL">   -100.00000000   -100.00000000   -100.00000000</v>
    <i name="EFIELD">      0.00000000</i>
    <i type="logical" name="LVACPOTAV"> F  </i>
   </separator>
  </separator>
  <separator name="grids" >
   <i type="int" name="NGX">   210</i>
   <i type="int" name="NGY">    60</i>
   <i type="int" name="NGZ">   250</i>
   <i type="int" name="NGXF">   420</i>
   <i type="int" name="NGYF">   120</i>
   <i type="int" name="NGZF">   500</i>
   <i type="logical" name="ADDGRID"> F  </i>
  </separator>
  <separator name="ionic" >
   <i type="int" name="NSW">     0</i>
   <i type="int" name="IBRION">    -1</i>
   <i type="int" name="MDALGO">     0</i>
   <i type="int" name="ISIF">     2</i>
   <i name="PSTRESS">      0.00000000</i>
   <i name="EDIFFG">      0.00001000</i>
   <i type="int" name="NFREE">     0</i>
   <i name="POTIM">      0.50000000</i>
   <i name="SMASS">     -3.00000000</i>
   <i name="SCALEE">      1.00000000</i>
  </separator>
  <separator name="ionic md" >
   <i name="TEBEG">      0.00010000</i>
   <i name="TEEND">      0.00010000</i>
   <i type="int" name="NBLOCK">     1</i>
   <i type="int" name="KBLOCK">     1</i>
   <i type="int" name="NPACO">   256</i>
   <i name="APACO">     10.00000000</i>
  </separator>
  <separator name="symmetry" >
   <i type="int" name="ISYM">     2</i>
   <i name="SYMPREC">      0.00001000</i>
  </separator>
  <separator name="dos" >
   <i type="int" name="LORBIT">     0</i>
   <v name="RWIGS">     -1.00000000</v>
   <i type="int" name="NEDOS">   301</i>
   <i name="EMIN">     10.00000000</i>
   <i name="EMAX">    -10.00000000</i>
   <i name="EFERMI">      0.00000000</i>
  </separator>
  <separator name="writing" >
   <i type="int" name="NWRITE">     2</i>
   <i type="logical" name="LWAVE"> F  </i>
   <i type="logical" name="LDOWNSAMPLE"> F  </i>
   <i type="logical" name="LCHARG"> F  </i>
   <i type="logical" name="LPARD"> F  </i>
   <i type="logical" name="LVTOT"> F  </i>
   <i type="logical" name="LVHAR"> F  </i>
   <i type="logical" name="LELF"> F  </i>
   <i type="logical" name="LOPTICS"> F  </i>
   <v name="STM">      0.00000000      0.00000000      0.00000000      0.00000000      0.00000000      0.00000000      0.00000000</v>
  </separator>
  <separator name="performance" >
   <i type="int" name="NPAR">     2</i>
   <i type="int" name="NSIM">     4</i>
   <i type="int" name="NBLK">    -1</i>
   <i type="logical" name="LPLANE"> T  </i>
   <i type="logical" name="LSCALAPACK"> T  </i>
   <i type="logical" name="LSCAAWARE"> F  </i>
   <i type="logical" name="LSCALU"> F  </i>
   <i type="logical" name="LASYNC"> F  </i>
   <i type="logical" name="LORBITALREAL"> F  </i>
  </separator>
  <separator name="miscellaneous" >
   <i type="int" name="IDIOT">     3</i>
   <i type="int" name="PHON_NSTRUCT">    -1</i>
   <i type="logical" name="LMUSIC"> F  </i>
   <v name="POMASS">     12.01100000</v>
   <v name="DARWINR">      0.00000000</v>
   <v name="DARWINV">      1.00000000</v>
   <i type="logical" name="LCORR"> T  </i>
  </separator>
  <i type="logical" name="GGA_COMPAT"> T  </i>
  <i type="logical" name="LBERRY"> F  </i>
  <i type="int" name="ICORELEVEL">     0</i>
  <i type="logical" name="LDAU"> F  </i>
  <i type="int" name="I_CONSTRAINED_M">     0</i>
  <separator name="electronic exchange-correlation" >
   <i type="string" name="GGA    ">PE</i>
   <i type="string" name="XC_C">1</i>
   <i type="int" name="VOSKOWN">     0</i>
   <i type="logical" name="LHFCALC"> F  </i>
   <i type="string" name="PRECFOCK"></i>
   <i type="logical" name="LSYMGRAD"> F  </i>
   <i type="logical" name="LHFONE"> F  </i>
   <i type="logical" name="LRHFCALC"> F  </i>
   <i type="logical" name="LTHOMAS"> F  </i>
   <i type="logical" name="LMODELHF"> F  </i>
   <i type="logical" name="LFOCKACE"> F  </i>
   <i name="ENCUT4O">     -1.00000000</i>
   <i type="int" name="EXXOEP">     0</i>
   <i type="int" name="FOURORBIT">     0</i>
   <i name="AEXX">      0.00000000</i>
   <i name="HFALPHA">      0.00000000</i>
   <i name="MCALPHA">      0.00000000</i>
   <i name="ALDAX">      1.00000000</i>
   <i name="AGGAX">      1.00000000</i>
   <i name="AMGGAX">      1.00000000</i>
   <i name="ALDAC">      1.00000000</i>
   <i name="AGGAC">      1.00000000</i>
   <i name="AMGGAC">      1.00000000</i>
   <i type="int" name="NKREDX">     1</i>
   <i type="int" name="NKREDY">     1</i>
   <i type="int" name="NKREDZ">     1</i>
   <i type="logical" name="SHIFTRED"> F  </i>
   <i type="logical" name="ODDONLY"> F  </i>
   <i type="logical" name="EVENONLY"> F  </i>
   <i type="int" name="LMAXFOCK">     0</i>
   <i type="int" name="NMAXFOCKAE">     0</i>
   <i type="logical" name="LFOCKAEDFT"> F  </i>
   <i name="HFSCREEN">      0.00000000</i>
   <i name="HFSCREENC">      0.00000000</i>
   <i type="int" name="NBANDSGWLOW">     0</i>
  </separator>
  <separator name="vdW DFT" >
   <i type="logical" name="LUSE_VDW"> F  </i>
   <i type="int" name="IVDW_NL">    -1</i>
   <i type="logical" name="LSPIN_VDW"> F  </i>
   <i name="ZAB_VDW">     -0.84910000</i>
   <i name="GAMMA_VDW">      1.39626340</i>
   <i name="ALPHA_VDW">      0.00000000</i>
   <i name="PARAM1">      0.12340000</i>
   <i name="PARAM2">      1.00000000</i>
   <i name="BPARAM">      6.30000000</i>
   <i name="CPARAM">      0.00930000</i>
  </separator>
  <separator name="model GW" >
   <i type="int" name="MODEL_GW">     0</i>
   <i name="MODEL_EPS0">     49.63935326</i>
   <i name="MODEL_ALPHA">      1.00000000</i>
  </separator>
  <separator name="linear response parameters" >
   <i type="logical" name="LEPSILON"> F  </i>
   <i type="logical" name="LRPA"> F  </i>
   <i type="logical" name="LNABLA"> F  </i>
   <i type="logical" name="LVEL"> F  </i>
   <i name="CSHIFT">      0.10000000</i>
   <i name="OMEGAMAX">     -1.00000000</i>
   <i name="DEG_THRESHOLD">      0.00200000</i>
   <i name="RTIME">     -0.10000000</i>
   <i name="WPLASMAI">      0.00000000</i>
   <v name="DFIELD">      0.00000000      0.00000000      0.00000000</v>
   <v name="WPLASMA">      0.00000000      0.00000000      0.00000000      0.00000000      0.00000000      0.00000000      0.00000000      0.00000000      0.00000000</v>
  </separator>
  <separator name="orbital magnetization" >
   <i type="logical" name="NUCIND"> F  </i>
   <v name="MAGPOS">      0.00000000      0.00000000      0.00000000</v>
   <i type="logical" name="LNICSALL"> T  </i>
   <i type="logical" name="ORBITALMAG"> F  </i>
   <i type="logical" name="LMAGBLOCH"> F  </i>
   <i type="logical" name="LCHIMAG"> F  </i>
   <i type="logical" name="LGAUGE"> T  </i>
   <i type="int" name="MAGATOM">     0</i>
   <v name="MAGDIPOL">      0.00000000      0.00000000      0.00000000</v>
   <v name="AVECCONST">      0.00000000      0.00000000      0.00000000</v>
  </separator>
  <separator name="response functions" >
   <i type="logical" name="LALL_IN_ONE"> F  </i>
   <i type="int" name="IALL_IN_ONE">    -1</i>
   <i type="int" name="NBANDS_WAVE">    -1</i>
   <i type="logical" name="LFINITE_TEMPERATURE"> F  </i>
   <i type="logical" name="LADDER"> F  </i>
   <i type="logical" name="LRPAFORCE"> F  </i>
   <i type="logical" name="LFXC"> F  </i>
   <i type="logical" name="LHARTREE"> T  </i>
   <i type="int" name="IBSE">     2</i>
   <v type="int" name="KPOINT">    -1     0     0     0</v>
   <i type="logical" name="LTCTC"> F  </i>
   <i type="logical" name="LTCTE"> F  </i>
   <i type="logical" name="LTETE"> F  </i>
   <i type="logical" name="LTRIPLET"> F  </i>
   <i type="logical" name="LFXCEPS"> F  </i>
   <i type="logical" name="LFXHEG"> F  </i>
   <i type="int" name="NATURALO">     2</i>
   <i type="logical" name="LHOLEGF"> F  </i>
   <i type="logical" name="L2ORDER"> F  </i>
   <i type="logical" name="LDMP1"> F  </i>
   <i type="logical" name="LMP2LT"> F  </i>
   <i type="logical" name="LSMP2LT"> F  </i>
   <i type="logical" name="LGWLF"> F  </i>
   <i name="ENCUTGW">     -1.60000002</i>
   <i name="ENCUTGWSOFT">     -1.60000002</i>
   <i name="ENCUTLF">     -1.00000000</i>
   <i type="logical" name="ESF_SPLINES"> F  </i>
   <i name="ESF_CONV">      0.01000000</i>
   <i type="int" name="ESF_NINTER">    15</i>
   <i type="int" name="LMAXMP2">    -1</i>
   <i name="SCISSOR">      0.00000000</i>
   <i type="int" name="NOMEGA">     0</i>
   <i type="int" name="NOMEGAR">     0</i>
   <i type="int" name="NBANDSGW">    -1</i>
   <i type="int" name="NBANDSO">    -1</i>
   <i type="int" name="NBANDSV">    -1</i>
   <i type="int" name="NELMGW">     1</i>
   <i type="int" name="NELMHF">     1</i>
   <i type="int" name="DIM">     3</i>
   <i type="int" name="IESPILON">     4</i>
   <i type="int" name="ANTIRES">     0</i>
   <i name="OMEGAMAX">    -30.00000000</i>
   <i name="OMEGAMIN">    -30.00000000</i>
   <i name="OMEGATL">   -200.00000000</i>
   <i type="int" name="OMEGAGRID">     0</i>
   <i name="CSHIFT">     -0.10000000</i>
   <i type="logical" name="LSELFENERGY"> F  </i>
   <i type="logical" name="LSPECTRAL"> F  </i>
   <i type="logical" name="LSPECTRALGW"> F  </i>
   <i type="logical" name="LSINGLES"> F  </i>
   <i type="logical" name="LFERMIGW"> F  </i>
   <i type="logical" name="ODDONLYGW"> F  </i>
   <i type="logical" name="EVENONLYGW"> F  </i>
   <i type="int" name="NKREDLFX">     1</i>
   <i type="int" name="NKREDLFY">     1</i>
   <i type="int" name="NKREDLFZ">     1</i>
   <i type="int" name="MAXMEM">  2800</i>
   <i type="int" name="TELESCOPE">     0</i>
   <i type="int" name="NTAUPAR">    -1</i>
   <i type="int" name="NOMEGAPAR">    -1</i>
   <i name="DAMP_NEWTON">      0.80000001</i>
   <i name="LAMBDA">      1.00000000</i>
  </separator>
  <separator name="External order field" >
   <i name="OFIELD_KAPPA">      0.00000000</i>
   <v name="OFIELD_K">      0.00000000      0.00000000      0.00000000</v>
   <i name="OFIELD_Q6_NEAR">      0.00000000</i>
   <i name="OFIELD_Q6_FAR">      0.00000000</i>
   <i name="OFIELD_A">      0.00000000</i>
  </separator>
  <separator name="optional k-points parameters" >
   <i type="int" name="KPOINTS_OPT_MODE">     1</i>
   <i type="logical" name="LKPOINTS_OPT"> F  </i>
  </separator>
 </parameters>
 <atominfo>
  <atoms>      92 </atoms>
  <types>       1 </types>
  <array name="atoms" >
   <dimension dim="1">ion</dimension>
   <field type="string">element</field>
   <field type="int">atomtype</field>
   <set>
    <rc><c>C </c><c>   1</c></rc>
    <rc><c>C </c><c>   1</c></rc>
    <rc><c>C </c><c>   1</c></rc>
    <rc><c>C </c><c>   1</c></rc>
    <rc><c>C </c><c>   1</c></rc>
    <rc><c>C </c><c>   1</c></rc>
    <rc><c>C </c><c>   1</c></rc>
    <rc><c>C </c><c>   1</c></rc>
    <rc><c>C </c><c>   1</c></rc>
    <rc><c>C </c><c>   1</c></rc>
    <rc><c>C </c><c>   1</c></rc>
    <rc><c>C </c><c>   1</c></rc>
    <rc><c>C </c><c>   1</c></rc>
    <rc><c>C </c><c>   1</c></rc>
    <rc><c>C </c><c>   1</c></rc>
    <rc><c>C </c><c>   1</c></rc>
    <rc><c>C </c><c>   1</c></rc>
    <rc><c>C </c><c>   1</c></rc>
    <rc><c>C </c><c>   1</c></rc>
    <rc><c>C </c><c>   1</c></rc>
    <rc><c>C </c><c>   1</c></rc>
    <rc><c>C </c><c>   1</c></rc>
    <rc><c>C </c><c>   1</c></rc>
    <rc><c>C </c><c>   1</c></rc>
    <rc><c>C </c><c>   1</c></rc>
    <rc><c>C </c><c>   1</c></rc>
    <rc><c>C </c><c>   1</c></rc>
    <rc><c>C </c><c>   1</c></rc>
    <rc><c>C </c><c>   1</c></rc>
    <rc><c>C </c><c>   1</c></rc>
    <rc><c>C </c><c>   1</c></rc>
    <rc><c>C </c><c>   1</c></rc>
    <rc><c>C </c><c>   1</c></rc>
    <rc><c>C </c><c>   1</c></rc>
    <rc><c>C </c><c>   1</c></rc>
    <rc><c>C </c><c>   1</c></rc>
    <rc><c>C </c><c>   1</c></rc>
    <rc><c>C </c><c>   1</c></rc>
    <rc><c>C </c><c>   1</c></rc>
    <rc><c>C </c><c>   1</c></rc>
    <rc><c>C </c><c>   1</c></rc>
    <rc><c>C </c><c>   1</c></rc>
    <rc><c>C </c><c>   1</c></rc>
    <rc><c>C </c><c>   1</c></rc>
    <rc><c>C </c><c>   1</c></rc>
    <rc><c>C </c><c>   1</c></rc>
    <rc><c>C </c><c>   1</c></rc>
    <rc><c>C </c><c>   1</c></rc>
    <rc><c>C </c><c>   1</c></rc>
    <rc><c>C </c><c>   1</c></rc>
    <rc><c>C </c><c>   1</c></rc>
    <rc><c>C </c><c>   1</c></rc>
    <rc><c>C </c><c>   1</c></rc>
    <rc><c>C </c><c>   1</c></rc>
    <rc><c>C </c><c>   1</c></rc>
    <rc><c>C </c><c>   1</c></rc>
    <rc><c>C </c><c>   1</c></rc>
    <rc><c>C </c><c>   1</c></rc>
    <rc><c>C </c><c>   1</c></rc>
    <rc><c>C </c><c>   1</c></rc>
    <rc><c>C </c><c>   1</c></rc>
    <rc><c>C </c><c>   1</c></rc>
    <rc><c>C </c><c>   1</c></rc>
    <rc><c>C </c><c>   1</c></rc>
    <rc><c>C </c><c>   1</c></rc>
    <rc><c>C </c><c>   1</c></rc>
    <rc><c>C </c><c>   1</c></rc>
    <rc><c>C </c><c>   1</c></rc>
    <rc><c>C </c><c>   1</c></rc>
    <rc><c>C </c><c>   1</c></rc>
    <rc><c>C </c><c>   1</c></rc>
    <rc><c>C </c><c>   1</c></rc>
    <rc><c>C </c><c>   1</c></rc>
    <rc><c>C </c><c>   1</c></rc>
    <rc><c>C </c><c>   1</c></rc>
    <rc><c>C </c><c>   1</c></rc>
    <rc><c>C </c><c>   1</c></rc>
    <rc><c>C </c><c>   1</c></rc>
    <rc><c>C </c><c>   1</c></rc>
    <rc><c>C </c><c>   1</c></rc>
    <rc><c>C </c><c>   1</c></rc>
    <rc><c>C </c><c>   1</c></rc>
    <rc><c>C </c><c>   1</c></rc>
    <rc><c>C </c><c>   1</c></rc>
    <rc><c>C </c><c>   1</c></rc>
    <rc><c>C </c><c>   1</c></rc>
    <rc><c>C </c><c>   1</c></rc>
    <rc><c>C </c><c>   1</c></rc>
    <rc><c>C </c><c>   1</c></rc>
    <rc><c>C </c><c>   1</c></rc>
    <rc><c>C </c><c>   1</c></rc>
    <rc><c>C </c><c>   1</c></rc>
   </set>
  </array>
  <array name="atomtypes" >
   <dimension dim="1">type</dimension>
   <field type="int">atomspertype</field>
   <field type="string">element</field>
   <field>mass</field>
   <field>valence</field>
   <field type="string">pseudopotential</field>
   <set>
    <rc><c>  92</c><c>C </c><c>     12.01100000</c><c>      4.00000000</c><c>  PAW_PBE C 08Apr2002                   </c></rc>
   </set>
  </array>
 </atominfo>
 <structure name="initialpos" >
  <crystal>
   <varray name="basis" >
    <v>      28.05000000       0.00000000       0.00000000 </v>
    <v>       0.00000000       8.10000000       0.00000000 </v>
    <v>       0.00000000       0.00000000      33.50000000 </v>
   </varray>
   <i name="volume">   7611.36750000 </i>
   <varray name="rec_basis" >
    <v>       0.03565062       0.00000000       0.00000000 </v>
    <v>       0.00000000       0.12345679       0.00000000 </v>
    <v>       0.00000000       0.00000000       0.02985075 </v>
   </varray>
  </crystal>
  <varray name="positions" >
   <v>       0.29107273       0.48526914       0.02810597 </v>
   <v>       0.29344314       0.65980988       0.02743618 </v>
   <v>       0.33609198       0.41775062       0.02243878 </v>
   <v>       0.33631052       0.74188519       0.01758770 </v>
   <v>       0.37848128       0.48886914       0.00822815 </v>
   <v>       0.37832086       0.66045185       0.00782624 </v>
   <v>       0.42264528       0.40703704       0.00141609 </v>
   <v>       0.42042068       0.74137037       0.99785891 </v>
   <v>       0.46425668       0.49417284       0.98810325 </v>
   <v>       0.46350802       0.66577901       0.98730901 </v>
   <v>       0.50791087       0.40931728       0.98225125 </v>
   <v>       0.50644563       0.75145926       0.97739388 </v>
   <v>       0.55064884       0.49420123       0.97086916 </v>
   <v>       0.54971836       0.66179506       0.96873463 </v>
   <v>       0.59563993       0.41988025       0.96697552 </v>
   <v>       0.59313369       0.74865679       0.96099075 </v>
   <v>       0.63895544       0.49816173       0.95860478 </v>
   <v>       0.63800713       0.66819012       0.95783970 </v>
   <v>       0.68431729       0.41237037       0.95854478 </v>
   <v>       0.68229947       0.74423827       0.96046955 </v>
   <v>       0.72794652       0.49361975       0.95249433 </v>
   <v>       0.72781818       0.66391111       0.95626507 </v>
   <v>       0.77258824       0.41335802       0.95606567 </v>
   <v>       0.77392157       0.74348148       0.96019761 </v>
   <v>       0.81654902       0.49452469       0.96079403 </v>
   <v>       0.81664884       0.66038519       0.96211612 </v>
   <v>       0.86007130       0.41235062       0.96986597 </v>
   <v>       0.85876649       0.73482469       0.97541669 </v>
   <v>       0.90223173       0.48686790       0.98138081 </v>
   <v>       0.90250267       0.65758395       0.98436472 </v>
   <v>       0.94453476       0.40708889       0.99336988 </v>
   <v>       0.94421747       0.73530370       0.99889638 </v>
   <v>       0.98665597       0.48674938       0.00853627 </v>
   <v>       0.98734759       0.65432099       0.00747284 </v>
   <v>       0.02443494       0.40496914       0.02926000 </v>
   <v>       0.02599526       0.73473704       0.02692660 </v>
   <v>       0.06627665       0.47778642       0.04206269 </v>
   <v>       0.06632977       0.64706543       0.04277433 </v>
   <v>       0.11073619       0.40174938       0.04988478 </v>
   <v>       0.11060428       0.73589012       0.04817612 </v>
   <v>       0.15626916       0.48440741       0.04978358 </v>
   <v>       0.15584670       0.65102840       0.04904657 </v>
   <v>       0.20133975       0.40549753       0.04918597 </v>
   <v>       0.20127879       0.74393704       0.05162328 </v>
   <v>       0.23985490       0.48898519       0.03514239 </v>
   <v>       0.24053405       0.66705802       0.03572985 </v>
   <v>       0.29866061       0.99134691       0.04261134 </v>
   <v>       0.29767843       0.16641728       0.04344388 </v>
   <v>       0.33717504       0.90556790       0.02714824 </v>
   <v>       0.33856292       0.24849753       0.02958107 </v>
   <v>       0.38190374       0.98912593       0.01966919 </v>
   <v>       0.38259180       0.15933704       0.01847839 </v>
   <v>       0.42366488       0.91163951       0.00769830 </v>
   <v>       0.42414973       0.23520247       0.00564791 </v>
   <v>       0.46795365       0.99053086       0.99880676 </v>
   <v>       0.46791087       0.15706049       0.00044604 </v>
   <v>       0.50936898       0.91243951       0.98638949 </v>
   <v>       0.51106952       0.24359506       0.99282854 </v>
   <v>       0.55217825       0.99578025       0.98125931 </v>
   <v>       0.55516221       0.16879012       0.98296170 </v>
   <v>       0.59415330       0.91172222       0.96986776 </v>
   <v>       0.59749020       0.24847160       0.97587161 </v>
   <v>       0.63980392       0.99385062       0.97001224 </v>
   <v>       0.64088770       0.16245679       0.97166125 </v>
   <v>       0.68438503       0.91435185       0.96257045 </v>
   <v>       0.68567914       0.24249136       0.96509552 </v>
   <v>       0.72989661       0.99394691       0.96515821 </v>
   <v>       0.72924777       0.16465679       0.96317403 </v>
   <v>       0.77317291       0.90950988       0.96401761 </v>
   <v>       0.77496257       0.24380864       0.96096687 </v>
   <v>       0.81791087       0.99365432       0.97058615 </v>
   <v>       0.81919786       0.16333457       0.96597224 </v>
   <v>       0.85852406       0.90927778       0.97753266 </v>
   <v>       0.86204991       0.24359012       0.97119063 </v>
   <v>       0.90160071       0.99158148       0.98750442 </v>
   <v>       0.90460963       0.15698519       0.97998307 </v>
   <v>       0.94383957       0.90787037       0.00280833 </v>
   <v>       0.94563636       0.24049630       0.99406090 </v>
   <v>       0.98573975       0.98663086       0.01118800 </v>
   <v>       0.98759358       0.15892840       0.00642433 </v>
   <v>       0.02843127       0.90787901       0.02571922 </v>
   <v>       0.02817569       0.23847778       0.02306806 </v>
   <v>       0.06952834       0.98239136       0.03814149 </v>
   <v>       0.06851586       0.15201852       0.03514627 </v>
   <v>       0.11324848       0.90157531       0.04951284 </v>
   <v>       0.11217504       0.23429506       0.04580627 </v>
   <v>       0.15585276       0.98657901       0.05602299 </v>
   <v>       0.15808057       0.15658148       0.05196239 </v>
   <v>       0.20252656       0.90755679       0.05730567 </v>
   <v>       0.20174082       0.24211728       0.05424866 </v>
   <v>       0.24585918       0.98945679       0.05402537 </v>
   <v>       0.24595258       0.15707654       0.05489373 </v>
  </varray>
 </structure>
 <calculation>
  <scstep>
   <time name="dav">   11.08   11.09</time>
   <time name="total">   11.54   11.58</time>
   <energy>
    <i name="alphaZ">     91.34886789 </i>
    <i name="ewald"> 119817.78435254 </i>
    <i name="hartreedc">-129140.22144917 </i>
    <i name="XCdc">   1221.76044925 </i>
    <i name="pawpsdc">   9984.02826696 </i>
    <i name="pawaedc"> -10036.41360137 </i>
    <i name="eentropy">     -0.81239137 </i>
    <i name="bandstr">  -1853.26339713 </i>
    <i name="atom">  13537.65479391 </i>
    <i name="e_fr_energy">   3621.86589151 </i>
    <i name="e_wo_entrp">   3622.67828288 </i>
    <i name="e_0_energy">   3622.27208719 </i>
   </energy>
  </scstep>
  <scstep>
   <time name="dav">   13.14   13.14</time>
   <time name="total">   13.14   13.14</time>
   <energy>
    <i name="e_fr_energy">    160.41424180 </i>
    <i name="e_wo_entrp">    160.53421102 </i>
    <i name="e_0_energy">    160.47422641 </i>
   </energy>
  </scstep>
  <scstep>
   <time name="dav">   11.20   11.21</time>
   <time name="total">   11.20   11.21</time>
   <energy>
    <i name="e_fr_energy">   -835.07733264 </i>
    <i name="e_wo_entrp">   -835.02259164 </i>
    <i name="e_0_energy">   -835.04996214 </i>
   </energy>
  </scstep>
  <scstep>
   <time name="dav">   10.91   10.92</time>
   <time name="total">   10.91   10.92</time>
   <energy>
    <i name="e_fr_energy">   -896.27874490 </i>
    <i name="e_wo_entrp">   -896.22726621 </i>
    <i name="e_0_energy">   -896.25300555 </i>
   </energy>
  </scstep>
  <scstep>
   <time name="dav">   11.22   11.22</time>
   <time name="total">   12.70   12.71</time>
   <energy>
    <i name="e_fr_energy">   -897.85182831 </i>
    <i name="e_wo_entrp">   -897.79952507 </i>
    <i name="e_0_energy">   -897.82567669 </i>
   </energy>
  </scstep>
  <scstep>
   <time name="dav">   10.27   10.28</time>
   <time name="total">   12.07   12.08</time>
   <energy>
    <i name="e_fr_energy">   -848.13324828 </i>
    <i name="e_wo_entrp">   -848.06915760 </i>
    <i name="e_0_energy">   -848.10120294 </i>
   </energy>
  </scstep>
  <scstep>
   <time name="dav">   10.10   10.11</time>
   <time name="total">   11.89   11.90</time>
   <energy>
    <i name="e_fr_energy">   -829.57379136 </i>
    <i name="e_wo_entrp">   -829.50003887 </i>
    <i name="e_0_energy">   -829.53691512 </i>
   </energy>
  </scstep>
  <scstep>
   <time name="dav">   10.26   10.27</time>
   <time name="total">   12.06   12.07</time>
   <energy>
    <i name="e_fr_energy">   -829.28473238 </i>
    <i name="e_wo_entrp">   -829.21756747 </i>
    <i name="e_0_energy">   -829.25114993 </i>
   </energy>
  </scstep>
  <scstep>
   <time name="dav">   10.71   10.72</time>
   <time name="total">   12.51   12.52</time>
   <energy>
    <i name="e_fr_energy">   -829.17646437 </i>
    <i name="e_wo_entrp">   -829.10676944 </i>
    <i name="e_0_energy">   -829.14161691 </i>
   </energy>
  </scstep>
  <scstep>
   <time name="dav">   11.07   11.07</time>
   <time name="total">   12.88   12.88</time>
   <energy>
    <i name="e_fr_energy">   -829.13662859 </i>
    <i name="e_wo_entrp">   -829.06678310 </i>
    <i name="e_0_energy">   -829.10170584 </i>
   </energy>
  </scstep>
  <scstep>
   <time name="dav">   10.11   10.12</time>
   <time name="total">   11.94   11.95</time>
   <energy>
    <i name="e_fr_energy">   -829.10631931 </i>
    <i name="e_wo_entrp">   -829.03686871 </i>
    <i name="e_0_energy">   -829.07159401 </i>
   </energy>
  </scstep>
  <scstep>
   <time name="dav">   10.11   10.11</time>
   <time name="total">   11.94   11.94</time>
   <energy>
    <i name="e_fr_energy">   -829.10237989 </i>
    <i name="e_wo_entrp">   -829.03256631 </i>
    <i name="e_0_energy">   -829.06747310 </i>
   </energy>
  </scstep>
  <scstep>
   <time name="dav">   10.10   10.10</time>
   <time name="total">   11.94   11.94</time>
   <energy>
    <i name="e_fr_energy">   -829.11436932 </i>
    <i name="e_wo_entrp">   -829.04481951 </i>
    <i name="e_0_energy">   -829.07959441 </i>
   </energy>
  </scstep>
  <scstep>
   <time name="dav">   10.21   10.22</time>
   <time name="total">   12.06   12.06</time>
   <energy>
    <i name="e_fr_energy">   -829.13150017 </i>
    <i name="e_wo_entrp">   -829.06184066 </i>
    <i name="e_0_energy">   -829.09667042 </i>
   </energy>
  </scstep>
  <scstep>
   <time name="dav">   10.21   10.21</time>
   <time name="total">   12.06   12.07</time>
   <energy>
    <i name="e_fr_energy">   -829.15045215 </i>
    <i name="e_wo_entrp">   -829.08072313 </i>
    <i name="e_0_energy">   -829.11558764 </i>
   </energy>
  </scstep>
  <scstep>
   <time name="dav">   10.42   10.42</time>
   <time name="total">   12.29   12.30</time>
   <energy>
    <i name="e_fr_energy">   -829.16130917 </i>
    <i name="e_wo_entrp">   -829.09161523 </i>
    <i name="e_0_energy">   -829.12646220 </i>
   </energy>
  </scstep>
  <scstep>
   <time name="dav">   10.34   10.35</time>
   <time name="total">   12.22   12.22</time>
   <energy>
    <i name="e_fr_energy">   -829.16590029 </i>
    <i name="e_wo_entrp">   -829.09619109 </i>
    <i name="e_0_energy">   -829.13104569 </i>
   </energy>
  </scstep>
  <scstep>
   <time name="dav">   10.25   10.25</time>
   <time name="total">   12.13   12.13</time>
   <energy>
    <i name="e_fr_energy">   -829.16821076 </i>
    <i name="e_wo_entrp">   -829.09851829 </i>
    <i name="e_0_energy">   -829.13336453 </i>
   </energy>
  </scstep>
  <scstep>
   <time name="dav">    9.33    9.33</time>
   <time name="total">   11.22   11.22</time>
   <energy>
    <i name="e_fr_energy">   -829.16920962 </i>
    <i name="e_wo_entrp">   -829.09950967 </i>
    <i name="e_0_energy">   -829.13435965 </i>
   </energy>
  </scstep>
  <scstep>
   <time name="dav">    8.96    8.96</time>
   <time name="total">   10.86   10.86</time>
   <energy>
    <i name="e_fr_energy">   -829.16959630 </i>
    <i name="e_wo_entrp">   -829.09989769 </i>
    <i name="e_0_energy">   -829.13474700 </i>
   </energy>
  </scstep>
  <scstep>
   <time name="dav">    8.85    8.85</time>
   <time name="total">   10.77   10.78</time>
   <energy>
    <i name="e_fr_energy">   -829.16979828 </i>
    <i name="e_wo_entrp">   -829.10009783 </i>
    <i name="e_0_energy">   -829.13494806 </i>
   </energy>
  </scstep>
  <scstep>
   <time name="dav">    7.78    7.78</time>
   <time name="total">    9.72    9.72</time>
   <energy>
    <i name="e_fr_energy">   -829.16984210 </i>
    <i name="e_wo_entrp">   -829.10014144 </i>
    <i name="e_0_energy">   -829.13499177 </i>
   </energy>
  </scstep>
  <scstep>
   <time name="dav">    7.09    7.10</time>
   <time name="total">    9.04    9.04</time>
   <energy>
    <i name="e_fr_energy">   -829.16987374 </i>
    <i name="e_wo_entrp">   -829.10017332 </i>
    <i name="e_0_energy">   -829.13502353 </i>
   </energy>
  </scstep>
  <scstep>
   <time name="dav">    7.22    7.23</time>
   <time name="total">    9.18    9.18</time>
   <energy>
    <i name="e_fr_energy">   -829.16988486 </i>
    <i name="e_wo_entrp">   -829.10018473 </i>
    <i name="e_0_energy">   -829.13503480 </i>
   </energy>
  </scstep>
  <scstep>
   <time name="dav">    6.82    6.83</time>
   <time name="total">    8.79    8.80</time>
   <energy>
    <i name="e_fr_energy">   -829.16989052 </i>
    <i name="e_wo_entrp">   -829.10019031 </i>
    <i name="e_0_energy">   -829.13504041 </i>
   </energy>
  </scstep>
  <scstep>
   <time name="dav">    7.07    7.07</time>
   <time name="total">    9.06    9.07</time>
   <energy>
    <i name="e_fr_energy">   -829.16989307 </i>
    <i name="e_wo_entrp">   -829.10019302 </i>
    <i name="e_0_energy">   -829.13504305 </i>
   </energy>
  </scstep>
  <scstep>
   <time name="dav">    7.11    7.12</time>
   <time name="total">    9.12    9.12</time>
   <energy>
    <i name="e_fr_energy">   -829.16989469 </i>
    <i name="e_wo_entrp">   -829.10019460 </i>
    <i name="e_0_energy">   -829.13504465 </i>
   </energy>
  </scstep>
  <scstep>
   <time name="dav">    6.96    6.96</time>
   <time name="total">    8.98    8.99</time>
   <energy>
    <i name="e_fr_energy">   -829.16989601 </i>
    <i name="e_wo_entrp">   -829.10019579 </i>
    <i name="e_0_energy">   -829.13504590 </i>
   </energy>
  </scstep>
  <scstep>
   <time name="dav">    7.20    7.20</time>
   <time name="total">    7.56    7.56</time>
   <energy>
    <i name="alphaZ">     91.34886789 </i>
    <i name="ewald"> 119817.78435254 </i>
    <i name="hartreedc">-130907.16839894 </i>
    <i name="XCdc">   1279.16134131 </i>
    <i name="pawpsdc">  41146.43733487 </i>
    <i name="pawaedc"> -41210.52701092 </i>
    <i name="eentropy">     -0.06970017 </i>
    <i name="bandstr">  -4583.79147706 </i>
    <i name="atom">  13537.65479391 </i>
    <i name="e_fr_energy">   -829.16989658 </i>
    <i name="e_wo_entrp">   -829.10019641 </i>
    <i name="e_0_energy">   -829.13504649 </i>
   </energy>
  </scstep>
  <structure>
   <crystal>
    <varray name="basis" >
     <v>      28.05000000       0.00000000       0.00000000 </v>
     <v>       0.00000000       8.10000000       0.00000000 </v>
     <v>       0.00000000       0.00000000      33.50000000 </v>
    </varray>
    <i name="volume">   7611.36750000 </i>
    <varray name="rec_basis" >
     <v>       0.03565062       0.00000000       0.00000000 </v>
     <v>       0.00000000       0.12345679       0.00000000 </v>
     <v>       0.00000000       0.00000000       0.02985075 </v>
    </varray>
   </crystal>
   <varray name="positions" >
    <v>       0.29107273       0.48526914       0.02810597 </v>
    <v>       0.29344314       0.65980988       0.02743618 </v>
    <v>       0.33609198       0.41775062       0.02243878 </v>
    <v>       0.33631052       0.74188519       0.01758770 </v>
    <v>       0.37848128       0.48886914       0.00822815 </v>
    <v>       0.37832086       0.66045185       0.00782624 </v>
    <v>       0.42264528       0.40703704       0.00141609 </v>
    <v>       0.42042068       0.74137037       0.99785891 </v>
    <v>       0.46425668       0.49417284       0.98810325 </v>
    <v>       0.46350802       0.66577901       0.98730901 </v>
    <v>       0.50791087       0.40931728       0.98225125 </v>
    <v>       0.50644563       0.75145926       0.97739388 </v>
    <v>       0.55064884       0.49420123       0.97086916 </v>
    <v>       0.54971836       0.66179506       0.96873463 </v>
    <v>       0.59563993       0.41988025       0.96697552 </v>
    <v>       0.59313369       0.74865679       0.96099075 </v>
    <v>       0.63895544       0.49816173       0.95860478 </v>
    <v>       0.63800713       0.66819012       0.95783970 </v>
    <v>       0.68431729       0.41237037       0.95854478 </v>
    <v>       0.68229947       0.74423827       0.96046955 </v>
    <v>       0.72794652       0.49361975       0.95249433 </v>
    <v>       0.72781818       0.66391111       0.95626507 </v>
    <v>       0.77258824       0.41335802       0.95606567 </v>
    <v>       0.77392157       0.74348148       0.96019761 </v>
    <v>       0.81654902       0.49452469       0.96079403 </v>
    <v>       0.81664884       0.66038519       0.96211612 </v>
    <v>       0.86007130       0.41235062       0.96986597 </v>
    <v>       0.85876649       0.73482469       0.97541669 </v>
    <v>       0.90223173       0.48686790       0.98138081 </v>
    <v>       0.90250267       0.65758395       0.98436472 </v>
    <v>       0.94453476       0.40708889       0.99336988 </v>
    <v>       0.94421747       0.73530370       0.99889638 </v>
    <v>       0.98665597       0.48674938       0.00853627 </v>
    <v>       0.98734759       0.65432099       0.00747284 </v>
    <v>       0.02443494       0.40496914       0.02926000 </v>
    <v>       0.02599526       0.73473704       0.02692660 </v>
    <v>       0.06627665       0.47778642       0.04206269 </v>
    <v>       0.06632977       0.64706543       0.04277433 </v>
    <v>       0.11073619       0.40174938       0.04988478 </v>
    <v>       0.11060428       0.73589012       0.04817612 </v>
    <v>       0.15626916       0.48440741       0.04978358 </v>
    <v>       0.15584670       0.65102840       0.04904657 </v>
    <v>       0.20133975       0.40549753       0.04918597 </v>
    <v>       0.20127879       0.74393704       0.05162328 </v>
    <v>       0.23985490       0.48898519       0.03514239 </v>
    <v>       0.24053405       0.66705802       0.03572985 </v>
    <v>       0.29866061       0.99134691       0.04261134 </v>
    <v>       0.29767843       0.16641728       0.04344388 </v>
    <v>       0.33717504       0.90556790       0.02714824 </v>
    <v>       0.33856292       0.24849753       0.02958107 </v>
    <v>       0.38190374       0.98912593       0.01966919 </v>
    <v>       0.38259180       0.15933704       0.01847839 </v>
    <v>       0.42366488       0.91163951       0.00769830 </v>
    <v>       0.42414973       0.23520247       0.00564791 </v>
    <v>       0.46795365       0.99053086       0.99880676 </v>
    <v>       0.46791087       0.15706049       0.00044604 </v>
    <v>       0.50936898       0.91243951       0.98638949 </v>
    <v>       0.51106952       0.24359506       0.99282854 </v>
    <v>       0.55217825       0.99578025       0.98125931 </v>
    <v>       0.55516221       0.16879012       0.98296170 </v>
    <v>       0.59415330       0.91172222       0.96986776 </v>
    <v>       0.59749020       0.24847160       0.97587161 </v>
    <v>       0.63980392       0.99385062       0.97001224 </v>
    <v>       0.64088770       0.16245679       0.97166125 </v>
    <v>       0.68438503       0.91435185       0.96257045 </v>
    <v>       0.68567914       0.24249136       0.96509552 </v>
    <v>       0.72989661       0.99394691       0.96515821 </v>
    <v>       0.72924777       0.16465679       0.96317403 </v>
    <v>       0.77317291       0.90950988       0.96401761 </v>
    <v>       0.77496257       0.24380864       0.96096687 </v>
    <v>       0.81791087       0.99365432       0.97058615 </v>
    <v>       0.81919786       0.16333457       0.96597224 </v>
    <v>       0.85852406       0.90927778       0.97753266 </v>
    <v>       0.86204991       0.24359012       0.97119063 </v>
    <v>       0.90160071       0.99158148       0.98750442 </v>
    <v>       0.90460963       0.15698519       0.97998307 </v>
    <v>       0.94383957       0.90787037       0.00280833 </v>
    <v>       0.94563636       0.24049630       0.99406090 </v>
    <v>       0.98573975       0.98663086       0.01118800 </v>
    <v>       0.98759358       0.15892840       0.00642433 </v>
    <v>       0.02843127       0.90787901       0.02571922 </v>
    <v>       0.02817569       0.23847778       0.02306806 </v>
    <v>       0.06952834       0.98239136       0.03814149 </v>
    <v>       0.06851586       0.15201852       0.03514627 </v>
    <v>       0.11324848       0.90157531       0.04951284 </v>
    <v>       0.11217504       0.23429506       0.04580627 </v>
    <v>       0.15585276       0.98657901       0.05602299 </v>
    <v>       0.15808057       0.15658148       0.05196239 </v>
    <v>       0.20252656       0.90755679       0.05730567 </v>
    <v>       0.20174082       0.24211728       0.05424866 </v>
    <v>       0.24585918       0.98945679       0.05402537 </v>
    <v>       0.24595258       0.15707654       0.05489373 </v>
   </varray>
  </structure>
  <varray name="forces" >
   <v>       2.34942182       3.34513218      -0.82158705 </v>
   <v>       0.14308418      -1.22355162      -0.99746366 </v>
   <v>      -0.47153740      -3.17636046       0.02605411 </v>
   <v>      -2.37632798      -0.71208769       1.49014013 </v>
   <v>       0.13390596       1.29989298       0.34607802 </v>
   <v>       0.23177334      -1.14071867      -1.12490426 </v>
   <v>      -0.14223030       0.25322884      -0.54350747 </v>
   <v>       1.03679750       2.13787707       1.20465485 </v>
   <v>      -0.32575453      -0.75186417       0.37558395 </v>
   <v>       0.10725037      -0.73926591      -0.99440733 </v>
   <v>       0.33291330       0.41051196       0.72394455 </v>
   <v>       0.55213977      -3.24071494       0.47928849 </v>
   <v>      -0.44088948      -0.58855836       0.04813439 </v>
   <v>      -0.59774653       1.99073495      -0.99063884 </v>
   <v>       0.02684921      -2.49450686       0.67568457 </v>
   <v>       0.00116190      -1.51179791       0.91839267 </v>
   <v>       0.71610138      -0.63770802       0.23497820 </v>
   <v>      -0.28522531      -0.76893395      -0.25704147 </v>
   <v>      -1.06913754      -0.01396597      -0.39231068 </v>
   <v>       2.17587678       0.86066187      -1.22576084 </v>
   <v>       0.19600539       0.39441049       0.90202729 </v>
   <v>       0.16635464      -0.08771589      -0.09211658 </v>
   <v>       0.78149187      -0.89430201      -0.11820889 </v>
   <v>      -2.90560854      -0.38400228      -0.55139188 </v>
   <v>       0.34928420      -1.61002415      -0.18455734 </v>
   <v>       1.20582590       0.42790860       0.87227958 </v>
   <v>      -0.08056363      -0.45354017      -0.29769112 </v>
   <v>       0.83952381       2.56628604      -0.04228656 </v>
   <v>       1.21133111       1.81604667       0.07444406 </v>
   <v>      -0.27989688      -0.52144347       0.10999102 </v>
   <v>       1.09166141       0.71613578       0.46486368 </v>
   <v>      -0.40515406       1.43351258      -0.41276690 </v>
   <v>      -0.75179497      -0.75031592       0.52234569 </v>
   <v>      -0.21889677       0.85512729       1.77310746 </v>
   <v>      -0.07464168      -0.74915177      -2.07350443 </v>
   <v>       0.73071594       0.25539755      -0.05837086 </v>
   <v>       1.10172706       1.95586795       0.93905378 </v>
   <v>       0.33097641       2.38369725      -1.12664355 </v>
   <v>       0.59013079      -0.01464923      -1.00015798 </v>
   <v>       0.94800498      -2.99276621       0.46518354 </v>
   <v>      -1.05850210      -0.04102756       0.34076610 </v>
   <v>       0.04685205       2.37774914       0.98761151 </v>
   <v>      -0.84287430       1.62144419      -1.13543801 </v>
   <v>      -0.88934200      -2.99304002      -1.81333699 </v>
   <v>       0.05050426       2.10238375       0.60358082 </v>
   <v>       0.25775498      -2.60243305       0.48392644 </v>
   <v>      -0.14517386       0.68279580      -0.00039936 </v>
   <v>       1.63892758      -1.74334305      -0.05148273 </v>
   <v>       0.97059549       1.80916968       0.06660806 </v>
   <v>       0.35122886      -0.97017238      -0.25187758 </v>
   <v>      -1.04018856       0.75039261       0.27971819 </v>
   <v>      -2.39860143       0.07329192       1.22676034 </v>
   <v>       0.70425808      -2.04300848      -1.62239029 </v>
   <v>       0.17503742       2.35123823       0.51906279 </v>
   <v>      -1.69264501      -0.59646112       0.98085844 </v>
   <v>       0.92491752       1.18435940       0.08996821 </v>
   <v>      -0.13499561       0.99396193      -0.22930989 </v>
   <v>      -0.24448485       1.11004510      -1.67624281 </v>
   <v>       1.78476278       0.75763058      -0.48037693 </v>
   <v>      -1.95229953      -2.20042143       1.59735093 </v>
   <v>       0.96999767       1.74277096       0.28234785 </v>
   <v>       0.90086304       1.67189024      -1.04497290 </v>
   <v>       0.04235534      -0.47103570      -0.73459572 </v>
   <v>       0.43767398       0.65137284       0.07001147 </v>
   <v>      -0.30683152      -0.04198156       1.38016157 </v>
   <v>      -1.65668195       1.45910298      -0.18908602 </v>
   <v>      -1.62865498      -0.11886154      -0.73534432 </v>
   <v>       2.00468849      -1.13664109       0.46142202 </v>
   <v>       1.12175537       1.65645686       0.81159609 </v>
   <v>      -1.59658334       0.51221971      -0.27938903 </v>
   <v>      -2.66543979       0.32057035      -1.25764318 </v>
   <v>      -1.50111944      -0.88693438       0.38528354 </v>
   <v>       2.24692703      -1.88625896       0.85252212 </v>
   <v>       0.08035448      -0.40031361      -0.66453837 </v>
   <v>       1.04953843      -1.20270824       0.13929275 </v>
   <v>      -0.26504247       0.59920484       1.51999818 </v>
   <v>      -2.19071709      -1.20089557      -1.80847248 </v>
   <v>       0.41910834      -1.36677240      -0.87452783 </v>
   <v>       2.13918760       1.91168907       0.34377115 </v>
   <v>      -0.16508683      -1.11557249       1.04122987 </v>
   <v>      -2.27521983      -2.66485394      -0.38598790 </v>
   <v>      -1.61732525      -0.92972307      -0.29957780 </v>
   <v>       1.16809650       1.28926979       0.01397686 </v>
   <v>       2.40424926       0.42227564       1.06864888 </v>
   <v>      -2.11167539       1.63554836      -0.52053494 </v>
   <v>       0.21574906      -0.51677264       0.19417829 </v>
   <v>       2.66073086       0.51431516      -0.19395205 </v>
   <v>      -1.93477959      -0.44473434       0.56202723 </v>
   <v>      -1.33712982       1.59775237       0.15941399 </v>
   <v>       1.20770826      -3.14626330       0.31043498 </v>
   <v>       0.00213659      -0.13869198       0.38305187 </v>
   <v>      -1.24946817       1.41553596      -0.24701574 </v>
  </varray>
  <varray name="stress" >
   <v>      -2.47064336      -0.04606173       0.03693719 </v>
   <v>      -0.04606173      54.64394594       1.12820001 </v>
   <v>       0.03693719       1.12820000      -1.00019519 </v>
  </varray>
  <energy>
   <i name="e_fr_energy">   -829.16989658 </i>
   <i name="e_wo_entrp">   -829.10019641 </i>
   <i name="e_0_energy">   -829.13504649 </i>
  </energy>
  <time name="totalsc">  333.33  333.53</time>
  <eigenvalues>
   <array>
    <dimension dim="1">band</dimension>
    <dimension dim="2">kpoint</dimension>
    <dimension dim="3">spin</dimension>
    <field>eigene</field>
    <field>occ</field>
    <set>
     <set comment="spin 1">
      <set comment="kpoint 1">
       <r>  -23.1593    1.0000 </r>
       <r>  -23.0185    1.0000 </r>
       <r>  -23.0012    1.0000 </r>
       <r>  -22.6541    1.0000 </r>
       <r>  -22.6069    1.0000 </r>
       <r>  -22.0464    1.0000 </r>
       <r>  -22.0120    1.0000 </r>
       <r>  -21.9826    1.0000 </r>
       <r>  -21.5481    1.0000 </r>
       <r>  -21.5107    1.0000 </r>
       <r>  -21.4125    1.0000 </r>
       <r>  -21.3858    1.0000 </r>
       <r>  -21.2840    1.0000 </r>
       <r>  -21.1746    1.0000 </r>
       <r>  -21.1515    1.0000 </r>
       <r>  -21.1170    1.0000 </r>
       <r>  -21.0043    1.0000 </r>
       <r>  -20.9612    1.0000 </r>
       <r>  -20.7991    1.0000 </r>
       <r>  -20.5257    1.0000 </r>
       <r>  -20.4189    1.0000 </r>
       <r>  -20.3616    1.0000 </r>
       <r>  -20.1380    1.0000 </r>
       <r>  -20.1084    1.0000 </r>
       <r>  -19.9664    1.0000 </r>
       <r>  -19.6949    1.0000 </r>
       <r>  -19.5839    1.0000 </r>
       <r>  -19.5149    1.0000 </r>
       <r>  -19.1839    1.0000 </r>
       <r>  -18.9061    1.0000 </r>
       <r>  -18.7358    1.0000 </r>
       <r>  -18.6743    1.0000 </r>
       <r>  -18.5515    1.0000 </r>
       <r>  -18.3952    1.0000 </r>
       <r>  -18.2129    1.0000 </r>
       <r>  -17.6297    1.0000 </r>
       <r>  -17.4210    1.0000 </r>
       <r>  -17.2168    1.0000 </r>
       <r>  -17.0422    1.0000 </r>
       <r>  -16.9559    1.0000 </r>
       <r>  -16.7936    1.0000 </r>
       <r>  -16.6869    1.0000 </r>
       <r>  -16.6715    1.0000 </r>
       <r>  -16.6274    1.0000 </r>
       <r>  -16.6006    1.0000 </r>
       <r>  -16.5306    1.0000 </r>
       <r>  -16.5145    1.0000 </r>
       <r>  -16.4331    1.0000 </r>
       <r>  -16.3780    1.0000 </r>
       <r>  -16.3209    1.0000 </r>
       <r>  -16.2330    1.0000 </r>
       <r>  -16.1375    1.0000 </r>
       <r>  -16.0375    1.0000 </r>
       <r>  -16.0232    1.0000 </r>
       <r>  -15.8769    1.0000 </r>
       <r>  -15.6350    1.0000 </r>
       <r>  -15.4670    1.0000 </r>
       <r>  -15.3711    1.0000 </r>
       <r>  -15.3203    1.0000 </r>
       <r>  -15.2347    1.0000 </r>
       <r>  -15.0803    1.0000 </r>
       <r>  -14.9728    1.0000 </r>
       <r>  -14.3746    1.0000 </r>
       <r>  -14.1826    1.0000 </r>
       <r>  -14.1070    1.0000 </r>
       <r>  -14.0788    1.0000 </r>
       <r>  -13.9672    1.0000 </r>
       <r>  -13.8018    1.0000 </r>
       <r>  -13.7245    1.0000 </r>
       <r>  -13.6180    1.0000 </r>
       <r>  -13.4597    1.0000 </r>
       <r>  -13.4315    1.0000 </r>
       <r>  -13.2686    1.0000 </r>
       <r>  -13.2399    1.0000 </r>
       <r>  -12.9867    1.0000 </r>
       <r>  -12.9253    1.0000 </r>
       <r>  -12.6602    1.0000 </r>
       <r>  -12.4652    1.0000 </r>
       <r>  -12.2060    1.0000 </r>
       <r>  -12.1518    1.0000 </r>
       <r>  -12.0581    1.0000 </r>
       <r>  -12.0109    1.0000 </r>
       <r>  -11.9119    1.0000 </r>
       <r>  -11.8106    1.0000 </r>
       <r>  -11.7492    1.0000 </r>
       <r>  -11.6037    1.0000 </r>
       <r>  -11.3655    1.0000 </r>
       <r>  -11.2178    1.0000 </r>
       <r>  -11.0988    1.0000 </r>
       <r>  -11.0342    1.0000 </r>
       <r>  -10.9645    1.0000 </r>
       <r>  -10.8726    1.0000 </r>
       <r>  -10.7890    1.0000 </r>
       <r>  -10.7854    1.0000 </r>
       <r>  -10.7040    1.0000 </r>
       <r>  -10.6566    1.0000 </r>
       <r>  -10.5967    1.0000 </r>
       <r>  -10.5438    1.0000 </r>
       <r>  -10.4808    1.0000 </r>
       <r>  -10.3789    1.0000 </r>
       <r>  -10.3482    1.0000 </r>
       <r>  -10.2971    1.0000 </r>
       <r>  -10.2605    1.0000 </r>
       <r>  -10.2071    1.0000 </r>
       <r>   -9.9930    1.0000 </r>
       <r>   -9.9473    1.0000 </r>
       <r>   -9.8417    1.0000 </r>
       <r>   -9.8055    1.0000 </r>
       <r>   -9.7484    1.0000 </r>
       <r>   -9.6989    1.0000 </r>
       <r>   -9.6715    1.0000 </r>
       <r>   -9.5972    1.0000 </r>
       <r>   -9.5702    1.0000 </r>
       <r>   -9.5324    1.0000 </r>
       <r>   -9.5078    1.0000 </r>
       <r>   -9.4900    1.0000 </r>
       <r>   -9.4474    1.0000 </r>
       <r>   -9.4085    1.0000 </r>
       <r>   -9.3946    1.0000 </r>
       <r>   -9.3669    1.0000 </r>
       <r>   -9.3464    1.0000 </r>
       <r>   -9.3267    1.0000 </r>
       <r>   -9.3048    1.0000 </r>
       <r>   -9.2898    1.0000 </r>
       <r>   -9.2583    1.0000 </r>
       <r>   -9.2238    1.0000 </r>
       <r>   -9.1580    1.0000 </r>
       <r>   -9.1320    1.0000 </r>
       <r>   -9.1281    1.0000 </r>
       <r>   -9.0915    1.0000 </r>
       <r>   -9.0677    1.0000 </r>
       <r>   -9.0309    1.0000 </r>
       <r>   -9.0092    1.0000 </r>
       <r>   -8.9760    1.0000 </r>
       <r>   -8.9411    1.0000 </r>
       <r>   -8.9019    1.0000 </r>
       <r>   -8.8398    1.0000 </r>
       <r>   -8.7667    1.0000 </r>
       <r>   -8.7421    1.0000 </r>
       <r>   -8.6912    1.0000 </r>
       <r>   -8.6566    1.0000 </r>
       <r>   -8.6113    1.0000 </r>
       <r>   -8.5558    1.0000 </r>
       <r>   -8.4716    1.0000 </r>
       <r>   -8.3885    1.0000 </r>
       <r>   -8.3257    1.0000 </r>
       <r>   -8.0187    1.0000 </r>
       <r>   -7.9831    1.0000 </r>
       <r>   -7.9028    1.0000 </r>
       <r>   -7.7698    1.0000 </r>
       <r>   -7.7209    1.0000 </r>
       <r>   -7.6493    1.0000 </r>
       <r>   -7.6263    1.0000 </r>
       <r>   -7.4789    1.0000 </r>
       <r>   -7.4048    1.0000 </r>
       <r>   -7.3936    1.0000 </r>
       <r>   -7.2954    1.0000 </r>
       <r>   -7.0862    1.0000 </r>
       <r>   -7.0659    1.0000 </r>
       <r>   -6.9602    1.0000 </r>
       <r>   -6.8230    1.0000 </r>
       <r>   -6.7075    1.0000 </r>
       <r>   -6.6914    1.0000 </r>
       <r>   -6.5315    1.0000 </r>
       <r>   -6.4287    1.0000 </r>
       <r>   -6.2320    1.0000 </r>
       <r>   -6.2171    1.0000 </r>
       <r>   -6.0967    1.0000 </r>
       <r>   -5.9849    1.0000 </r>
       <r>   -5.9329    1.0000 </r>
       <r>   -5.9014    1.0000 </r>
       <r>   -5.8661    1.0000 </r>
       <r>   -5.7823    1.0000 </r>
       <r>   -5.1058    1.0000 </r>
       <r>   -4.9502    1.0000 </r>
       <r>   -4.8559    1.0000 </r>
       <r>   -4.7478    1.0000 </r>
       <r>   -4.5085    1.0000 </r>
       <r>   -4.4706    1.0000 </r>
       <r>   -4.4574    1.0000 </r>
       <r>   -4.3800    1.0000 </r>
       <r>   -3.7794    1.0000 </r>
       <r>   -3.6671    0.9999 </r>
       <r>   -3.1868    0.6326 </r>
       <r>   -3.0348    0.2309 </r>
       <r>   -2.7841    0.0061 </r>
       <r>   -2.6016    0.0001 </r>
       <r>   -2.3735    0.0000 </r>
       <r>   -2.2405    0.0000 </r>
       <r>   -2.0341    0.0000 </r>
       <r>   -1.7000    0.0000 </r>
       <r>   -1.5802    0.0000 </r>
       <r>   -1.5143    0.0000 </r>
       <r>   -1.4812    0.0000 </r>
       <r>   -1.4459    0.0000 </r>
       <r>   -1.3734    0.0000 </r>
       <r>   -1.3016    0.0000 </r>
       <r>   -1.0861    0.0000 </r>
       <r>   -0.8225    0.0000 </r>
       <r>   -0.6930    0.0000 </r>
       <r>   -0.5392    0.0000 </r>
       <r>   -0.4018    0.0000 </r>
       <r>   -0.0552    0.0000 </r>
       <r>    0.0187    0.0000 </r>
       <r>    0.1429    0.0000 </r>
       <r>    0.1527    0.0000 </r>
       <r>    0.3491    0.0000 </r>
       <r>    0.5887    0.0000 </r>
       <r>    0.6465    0.0000 </r>
       <r>    0.7023    0.0000 </r>
       <r>    0.7355    0.0000 </r>
       <r>    0.8627    0.0000 </r>
       <r>    0.8848    0.0000 </r>
       <r>    0.9180    0.0000 </r>
       <r>    0.9351    0.0000 </r>
       <r>    0.9829    0.0000 </r>
       <r>    1.0446    0.0000 </r>
       <r>    1.1505    0.0000 </r>
       <r>    1.1583    0.0000 </r>
       <r>    1.2196    0.0000 </r>
       <r>    1.3089    0.0000 </r>
       <r>    1.3164    0.0000 </r>
       <r>    1.3334    0.0000 </r>
       <r>    1.4066    0.0000 </r>
       <r>    1.4617    0.0000 </r>
       <r>    1.5525    0.0000 </r>
       <r>    1.5736    0.0000 </r>
       <r>    1.7053    0.0000 </r>
       <r>    1.7274    0.0000 </r>
       <r>    1.7302    0.0000 </r>
       <r>    1.7335    0.0000 </r>
       <r>    1.9097    0.0000 </r>
      </set>
      <set comment="kpoint 2">
       <r>  -23.0592    1.0000 </r>
       <r>  -22.9228    1.0000 </r>
       <r>  -22.9039    1.0000 </r>
       <r>  -22.5638    1.0000 </r>
       <r>  -22.5088    1.0000 </r>
       <r>  -22.2943    1.0000 </r>
       <r>  -22.2009    1.0000 </r>
       <r>  -22.0919    1.0000 </r>
       <r>  -21.9372    1.0000 </r>
       <r>  -21.8998    1.0000 </r>
       <r>  -21.8089    1.0000 </r>
       <r>  -21.6848    1.0000 </r>
       <r>  -21.2417    1.0000 </r>
       <r>  -21.1467    1.0000 </r>
       <r>  -21.0364    1.0000 </r>
       <r>  -20.9991    1.0000 </r>
       <r>  -20.6310    1.0000 </r>
       <r>  -20.5467    1.0000 </r>
       <r>  -20.4912    1.0000 </r>
       <r>  -20.3150    1.0000 </r>
       <r>  -20.2295    1.0000 </r>
       <r>  -20.1161    1.0000 </r>
       <r>  -20.0093    1.0000 </r>
       <r>  -19.9184    1.0000 </r>
       <r>  -19.8614    1.0000 </r>
       <r>  -19.5359    1.0000 </r>
       <r>  -19.4911    1.0000 </r>
       <r>  -19.1375    1.0000 </r>
       <r>  -19.0703    1.0000 </r>
       <r>  -18.8725    1.0000 </r>
       <r>  -18.7009    1.0000 </r>
       <r>  -18.6251    1.0000 </r>
       <r>  -18.5381    1.0000 </r>
       <r>  -18.2887    1.0000 </r>
       <r>  -18.1639    1.0000 </r>
       <r>  -18.0884    1.0000 </r>
       <r>  -18.0268    1.0000 </r>
       <r>  -18.0036    1.0000 </r>
       <r>  -17.7944    1.0000 </r>
       <r>  -17.7788    1.0000 </r>
       <r>  -17.4523    1.0000 </r>
       <r>  -17.3939    1.0000 </r>
       <r>  -17.3093    1.0000 </r>
       <r>  -17.1448    1.0000 </r>
       <r>  -17.0432    1.0000 </r>
       <r>  -16.6101    1.0000 </r>
       <r>  -16.3846    1.0000 </r>
       <r>  -16.1615    1.0000 </r>
       <r>  -16.1120    1.0000 </r>
       <r>  -15.8840    1.0000 </r>
       <r>  -15.7776    1.0000 </r>
       <r>  -15.6266    1.0000 </r>
       <r>  -15.5804    1.0000 </r>
       <r>  -15.3972    1.0000 </r>
       <r>  -15.2728    1.0000 </r>
       <r>  -15.2095    1.0000 </r>
       <r>  -15.1073    1.0000 </r>
       <r>  -15.0969    1.0000 </r>
       <r>  -14.9662    1.0000 </r>
       <r>  -14.9359    1.0000 </r>
       <r>  -14.9173    1.0000 </r>
       <r>  -14.7666    1.0000 </r>
       <r>  -14.5597    1.0000 </r>
       <r>  -14.3941    1.0000 </r>
       <r>  -14.3329    1.0000 </r>
       <r>  -14.1744    1.0000 </r>
       <r>  -14.0101    1.0000 </r>
       <r>  -13.8278    1.0000 </r>
       <r>  -13.3538    1.0000 </r>
       <r>  -13.2469    1.0000 </r>
       <r>  -13.2142    1.0000 </r>
       <r>  -13.1882    1.0000 </r>
       <r>  -12.9158    1.0000 </r>
       <r>  -12.8442    1.0000 </r>
       <r>  -12.8114    1.0000 </r>
       <r>  -12.7505    1.0000 </r>
       <r>  -12.6698    1.0000 </r>
       <r>  -12.5419    1.0000 </r>
       <r>  -12.3756    1.0000 </r>
       <r>  -12.3078    1.0000 </r>
       <r>  -12.1661    1.0000 </r>
       <r>  -12.0934    1.0000 </r>
       <r>  -11.9627    1.0000 </r>
       <r>  -11.9096    1.0000 </r>
       <r>  -11.7318    1.0000 </r>
       <r>  -11.6110    1.0000 </r>
       <r>  -11.5347    1.0000 </r>
       <r>  -11.3463    1.0000 </r>
       <r>  -11.2852    1.0000 </r>
       <r>  -11.2185    1.0000 </r>
       <r>  -11.0682    1.0000 </r>
       <r>  -11.0415    1.0000 </r>
       <r>  -11.0103    1.0000 </r>
       <r>  -10.9475    1.0000 </r>
       <r>  -10.9085    1.0000 </r>
       <r>  -10.8619    1.0000 </r>
       <r>  -10.8354    1.0000 </r>
       <r>  -10.8207    1.0000 </r>
       <r>  -10.7089    1.0000 </r>
       <r>  -10.6278    1.0000 </r>
       <r>  -10.5628    1.0000 </r>
       <r>  -10.5230    1.0000 </r>
       <r>  -10.4832    1.0000 </r>
       <r>  -10.4097    1.0000 </r>
       <r>  -10.3873    1.0000 </r>
       <r>  -10.3463    1.0000 </r>
       <r>  -10.2206    1.0000 </r>
       <r>  -10.0959    1.0000 </r>
       <r>  -10.0625    1.0000 </r>
       <r>  -10.0132    1.0000 </r>
       <r>   -9.9811    1.0000 </r>
       <r>   -9.9103    1.0000 </r>
       <r>   -9.8749    1.0000 </r>
       <r>   -9.7848    1.0000 </r>
       <r>   -9.7216    1.0000 </r>
       <r>   -9.6710    1.0000 </r>
       <r>   -9.6343    1.0000 </r>
       <r>   -9.6232    1.0000 </r>
       <r>   -9.5807    1.0000 </r>
       <r>   -9.5438    1.0000 </r>
       <r>   -9.4885    1.0000 </r>
       <r>   -9.4683    1.0000 </r>
       <r>   -9.3903    1.0000 </r>
       <r>   -9.3336    1.0000 </r>
       <r>   -9.2731    1.0000 </r>
       <r>   -9.1772    1.0000 </r>
       <r>   -8.9818    1.0000 </r>
       <r>   -8.8844    1.0000 </r>
       <r>   -8.8222    1.0000 </r>
       <r>   -8.7535    1.0000 </r>
       <r>   -8.7251    1.0000 </r>
       <r>   -8.6857    1.0000 </r>
       <r>   -8.6626    1.0000 </r>
       <r>   -8.6164    1.0000 </r>
       <r>   -8.5491    1.0000 </r>
       <r>   -8.5122    1.0000 </r>
       <r>   -8.4679    1.0000 </r>
       <r>   -8.4171    1.0000 </r>
       <r>   -8.3407    1.0000 </r>
       <r>   -8.3054    1.0000 </r>
       <r>   -8.2071    1.0000 </r>
       <r>   -8.1541    1.0000 </r>
       <r>   -8.1378    1.0000 </r>
       <r>   -8.0857    1.0000 </r>
       <r>   -7.9848    1.0000 </r>
       <r>   -7.9456    1.0000 </r>
       <r>   -7.9237    1.0000 </r>
       <r>   -7.8784    1.0000 </r>
       <r>   -7.7532    1.0000 </r>
       <r>   -7.6811    1.0000 </r>
       <r>   -7.6091    1.0000 </r>
       <r>   -7.5566    1.0000 </r>
       <r>   -7.4617    1.0000 </r>
       <r>   -7.4081    1.0000 </r>
       <r>   -7.3313    1.0000 </r>
       <r>   -7.2922    1.0000 </r>
       <r>   -7.1616    1.0000 </r>
       <r>   -7.0260    1.0000 </r>
       <r>   -6.9487    1.0000 </r>
       <r>   -6.8966    1.0000 </r>
       <r>   -6.8659    1.0000 </r>
       <r>   -6.6425    1.0000 </r>
       <r>   -6.6034    1.0000 </r>
       <r>   -6.5675    1.0000 </r>
       <r>   -6.5093    1.0000 </r>
       <r>   -6.2523    1.0000 </r>
       <r>   -6.1538    1.0000 </r>
       <r>   -6.0931    1.0000 </r>
       <r>   -6.0535    1.0000 </r>
       <r>   -5.9705    1.0000 </r>
       <r>   -5.8971    1.0000 </r>
       <r>   -5.7865    1.0000 </r>
       <r>   -5.7490    1.0000 </r>
       <r>   -5.6870    1.0000 </r>
       <r>   -5.5306    1.0000 </r>
       <r>   -5.4427    1.0000 </r>
       <r>   -5.1722    1.0000 </r>
       <r>   -5.1253    1.0000 </r>
       <r>   -4.7299    1.0000 </r>
       <r>   -4.6650    1.0000 </r>
       <r>   -4.5579    1.0000 </r>
       <r>   -4.4878    1.0000 </r>
       <r>   -4.4428    1.0000 </r>
       <r>   -3.5211    0.9966 </r>
       <r>   -2.9283    0.0682 </r>
       <r>   -2.4432    0.0000 </r>
       <r>   -2.0853    0.0000 </r>
       <r>   -2.0807    0.0000 </r>
       <r>   -1.5965    0.0000 </r>
       <r>   -1.5390    0.0000 </r>
       <r>   -1.4236    0.0000 </r>
       <r>   -1.3839    0.0000 </r>
       <r>   -1.3364    0.0000 </r>
       <r>   -1.2467    0.0000 </r>
       <r>   -1.0852    0.0000 </r>
       <r>   -1.0447    0.0000 </r>
       <r>   -0.9690    0.0000 </r>
       <r>   -0.8330    0.0000 </r>
       <r>   -0.7179    0.0000 </r>
       <r>   -0.4752    0.0000 </r>
       <r>   -0.2050    0.0000 </r>
       <r>   -0.1381    0.0000 </r>
       <r>   -0.1010    0.0000 </r>
       <r>    0.0540    0.0000 </r>
       <r>    0.1405    0.0000 </r>
       <r>    0.1900    0.0000 </r>
       <r>    0.2427    0.0000 </r>
       <r>    0.3106    0.0000 </r>
       <r>    0.3606    0.0000 </r>
       <r>    0.7731    0.0000 </r>
       <r>    0.7973    0.0000 </r>
       <r>    0.8515    0.0000 </r>
       <r>    1.0058    0.0000 </r>
       <r>    1.0470    0.0000 </r>
       <r>    1.0663    0.0000 </r>
       <r>    1.1250    0.0000 </r>
       <r>    1.1571    0.0000 </r>
       <r>    1.2128    0.0000 </r>
       <r>    1.2934    0.0000 </r>
       <r>    1.3004    0.0000 </r>
       <r>    1.3547    0.0000 </r>
       <r>    1.3646    0.0000 </r>
       <r>    1.3976    0.0000 </r>
       <r>    1.4459    0.0000 </r>
       <r>    1.4571    0.0000 </r>
       <r>    1.4737    0.0000 </r>
       <r>    1.5490    0.0000 </r>
       <r>    1.5733    0.0000 </r>
       <r>    1.6079    0.0000 </r>
       <r>    1.6767    0.0000 </r>
       <r>    1.7027    0.0000 </r>
       <r>    1.7287    0.0000 </r>
      </set>
      <set comment="kpoint 3">
       <r>  -22.7909    1.0000 </r>
       <r>  -22.7503    1.0000 </r>
       <r>  -22.6612    1.0000 </r>
       <r>  -22.6330    1.0000 </r>
       <r>  -22.6061    1.0000 </r>
       <r>  -22.5710    1.0000 </r>
       <r>  -22.2949    1.0000 </r>
       <r>  -22.2717    1.0000 </r>
       <r>  -22.1998    1.0000 </r>
       <r>  -22.1866    1.0000 </r>
       <r>  -21.6566    1.0000 </r>
       <r>  -21.6363    1.0000 </r>
       <r>  -21.5959    1.0000 </r>
       <r>  -21.5763    1.0000 </r>
       <r>  -20.8440    1.0000 </r>
       <r>  -20.8285    1.0000 </r>
       <r>  -20.7193    1.0000 </r>
       <r>  -20.7060    1.0000 </r>
       <r>  -19.8952    1.0000 </r>
       <r>  -19.8685    1.0000 </r>
       <r>  -19.6479    1.0000 </r>
       <r>  -19.6295    1.0000 </r>
       <r>  -19.5618    1.0000 </r>
       <r>  -19.5221    1.0000 </r>
       <r>  -19.4233    1.0000 </r>
       <r>  -19.3575    1.0000 </r>
       <r>  -19.3086    1.0000 </r>
       <r>  -19.2591    1.0000 </r>
       <r>  -19.0478    1.0000 </r>
       <r>  -19.0107    1.0000 </r>
       <r>  -18.9789    1.0000 </r>
       <r>  -18.9421    1.0000 </r>
       <r>  -18.6187    1.0000 </r>
       <r>  -18.5605    1.0000 </r>
       <r>  -18.4884    1.0000 </r>
       <r>  -18.4833    1.0000 </r>
       <r>  -18.3515    1.0000 </r>
       <r>  -18.2852    1.0000 </r>
       <r>  -18.1443    1.0000 </r>
       <r>  -18.0946    1.0000 </r>
       <r>  -17.7621    1.0000 </r>
       <r>  -17.6852    1.0000 </r>
       <r>  -17.6651    1.0000 </r>
       <r>  -17.6077    1.0000 </r>
       <r>  -16.9170    1.0000 </r>
       <r>  -16.8564    1.0000 </r>
       <r>  -16.2787    1.0000 </r>
       <r>  -16.2415    1.0000 </r>
       <r>  -16.0902    1.0000 </r>
       <r>  -16.0389    1.0000 </r>
       <r>  -15.9218    1.0000 </r>
       <r>  -15.8818    1.0000 </r>
       <r>  -15.2843    1.0000 </r>
       <r>  -15.2650    1.0000 </r>
       <r>  -15.1554    1.0000 </r>
       <r>  -15.0875    1.0000 </r>
       <r>  -14.9161    1.0000 </r>
       <r>  -14.8241    1.0000 </r>
       <r>  -14.7063    1.0000 </r>
       <r>  -14.6463    1.0000 </r>
       <r>  -14.0174    1.0000 </r>
       <r>  -13.9619    1.0000 </r>
       <r>  -13.7978    1.0000 </r>
       <r>  -13.7372    1.0000 </r>
       <r>  -13.6878    1.0000 </r>
       <r>  -13.6298    1.0000 </r>
       <r>  -13.6230    1.0000 </r>
       <r>  -13.5602    1.0000 </r>
       <r>  -13.5264    1.0000 </r>
       <r>  -13.5148    1.0000 </r>
       <r>  -13.5030    1.0000 </r>
       <r>  -13.4481    1.0000 </r>
       <r>  -13.4182    1.0000 </r>
       <r>  -13.3608    1.0000 </r>
       <r>  -13.1036    1.0000 </r>
       <r>  -13.0746    1.0000 </r>
       <r>  -12.3755    1.0000 </r>
       <r>  -12.3049    1.0000 </r>
       <r>  -12.2228    1.0000 </r>
       <r>  -12.1469    1.0000 </r>
       <r>  -12.1179    1.0000 </r>
       <r>  -12.0811    1.0000 </r>
       <r>  -11.9986    1.0000 </r>
       <r>  -11.8858    1.0000 </r>
       <r>  -11.8425    1.0000 </r>
       <r>  -11.8200    1.0000 </r>
       <r>  -11.7838    1.0000 </r>
       <r>  -11.7603    1.0000 </r>
       <r>  -11.6247    1.0000 </r>
       <r>  -11.5771    1.0000 </r>
       <r>  -11.3434    1.0000 </r>
       <r>  -11.2726    1.0000 </r>
       <r>  -11.2153    1.0000 </r>
       <r>  -11.1270    1.0000 </r>
       <r>  -11.0149    1.0000 </r>
       <r>  -10.9855    1.0000 </r>
       <r>  -10.8153    1.0000 </r>
       <r>  -10.7005    1.0000 </r>
       <r>  -10.6889    1.0000 </r>
       <r>  -10.6711    1.0000 </r>
       <r>  -10.6282    1.0000 </r>
       <r>  -10.5390    1.0000 </r>
       <r>  -10.5217    1.0000 </r>
       <r>  -10.4895    1.0000 </r>
       <r>  -10.4782    1.0000 </r>
       <r>  -10.4660    1.0000 </r>
       <r>  -10.3322    1.0000 </r>
       <r>  -10.3008    1.0000 </r>
       <r>  -10.2769    1.0000 </r>
       <r>  -10.2438    1.0000 </r>
       <r>  -10.2239    1.0000 </r>
       <r>  -10.1654    1.0000 </r>
       <r>  -10.1400    1.0000 </r>
       <r>  -10.0920    1.0000 </r>
       <r>  -10.0346    1.0000 </r>
[...]
       <r>   -22.6399    14.9725     7.1001 </r>
       <r>   -22.5431    15.5617     8.6080 </r>
       <r>   -22.4462    14.0853     9.9728 </r>
       <r>   -22.3493    12.8554    11.2184 </r>
       <r>   -22.2524    13.7964    12.5553 </r>
       <r>   -22.1555    15.4090    14.0483 </r>
       <r>   -22.0586    15.9873    15.5975 </r>
       <r>   -21.9617    15.6244    17.1114 </r>
       <r>   -21.8648    14.7083    18.5366 </r>
       <r>   -21.7679    13.7650    19.8704 </r>
       <r>   -21.6710    13.4581    21.1744 </r>
       <r>   -21.5741    13.2198    22.4554 </r>
       <r>   -21.4772    12.1496    23.6326 </r>
       <r>   -21.3803    11.1564    24.7136 </r>
       <r>   -21.2834    11.9070    25.8674 </r>
       <r>   -21.1865    14.2977    27.2528 </r>
       <r>   -21.0896    16.3487    28.8369 </r>
       <r>   -20.9927    16.3415    30.4203 </r>
       <r>   -20.8958    14.5453    31.8297 </r>
       <r>   -20.7989    12.7712    33.0672 </r>
       <r>   -20.7020    12.3608    34.2649 </r>
       <r>   -20.6051    13.0898    35.5333 </r>
       <r>   -20.5082    13.7888    36.8694 </r>
       <r>   -20.4113    13.6510    38.1921 </r>
       <r>   -20.3144    13.1256    39.4639 </r>
       <r>   -20.2175    13.1555    40.7386 </r>
       <r>   -20.1206    13.9769    42.0929 </r>
       <r>   -20.0237    15.0902    43.5551 </r>
       <r>   -19.9268    15.5657    45.0634 </r>
       <r>   -19.8300    14.6768    46.4855 </r>
       <r>   -19.7331    13.5390    47.7974 </r>
       <r>   -19.6362    14.2928    49.1823 </r>
       <r>   -19.5393    16.2314    50.7551 </r>
       <r>   -19.4424    16.3152    52.3360 </r>
       <r>   -19.3455    14.1195    53.7041 </r>
       <r>   -19.2486    12.3304    54.8989 </r>
       <r>   -19.1517    12.6314    56.1228 </r>
       <r>   -19.0548    13.9823    57.4776 </r>
       <r>   -18.9579    14.5454    58.8870 </r>
       <r>   -18.8610    14.0808    60.2514 </r>
       <r>   -18.7641    14.1858    61.6260 </r>
       <r>   -18.6672    15.8519    63.1620 </r>
       <r>   -18.5703    17.5150    64.8591 </r>
       <r>   -18.4734    17.2226    66.5279 </r>
       <r>   -18.3765    15.7311    68.0522 </r>
       <r>   -18.2796    15.2553    69.5304 </r>
       <r>   -18.1827    16.2183    71.1019 </r>
       <r>   -18.0858    16.8739    72.7369 </r>
       <r>   -17.9889    15.6788    74.2561 </r>
       <r>   -17.8920    13.6176    75.5756 </r>
       <r>   -17.7951    12.8001    76.8159 </r>
       <r>   -17.6982    12.9332    78.0691 </r>
       <r>   -17.6013    12.4793    79.2783 </r>
       <r>   -17.5044    11.8307    80.4246 </r>
       <r>   -17.4075    11.8618    81.5740 </r>
       <r>   -17.3106    11.8857    82.7257 </r>
       <r>   -17.2137    11.4152    83.8318 </r>
       <r>   -17.1169    11.0920    84.9066 </r>
       <r>   -17.0200    10.9832    85.9708 </r>
       <r>   -16.9231    10.5249    86.9906 </r>
       <r>   -16.8262    10.0905    87.9683 </r>
       <r>   -16.7293    10.7941    89.0143 </r>
       <r>   -16.6324    12.5924    90.2344 </r>
       <r>   -16.5355    14.0461    91.5954 </r>
       <r>   -16.4386    14.5813    93.0083 </r>
       <r>   -16.3417    15.1119    94.4726 </r>
       <r>   -16.2448    16.2700    96.0491 </r>
       <r>   -16.1479    17.5790    97.7524 </r>
       <r>   -16.0510    17.9636    99.4931 </r>
       <r>   -15.9541    16.9888   101.1392 </r>
       <r>   -15.8572    15.2484   102.6167 </r>
       <r>   -15.7603    13.4828   103.9232 </r>
       <r>   -15.6634    12.3546   105.1203 </r>
       <r>   -15.5665    12.1642   106.2989 </r>
       <r>   -15.4696    13.0021   107.5588 </r>
       <r>   -15.3727    15.3480   109.0460 </r>
       <r>   -15.2758    18.7984   110.8675 </r>
       <r>   -15.1789    21.6417   112.9645 </r>
       <r>   -15.0820    22.7744   115.1712 </r>
       <r>   -14.9851    22.2204   117.3243 </r>
       <r>   -14.8882    19.9976   119.2620 </r>
       <r>   -14.7913    16.3787   120.8490 </r>
       <r>   -14.6944    12.6648   122.0762 </r>
       <r>   -14.5975    10.1697   123.0616 </r>
       <r>   -14.5006     9.3307   123.9657 </r>
       <r>   -14.4038     9.8567   124.9208 </r>
       <r>   -14.3069    10.8861   125.9756 </r>
       <r>   -14.2100    11.9087   127.1295 </r>
       <r>   -14.1131    13.1100   128.3999 </r>
       <r>   -14.0162    14.1738   129.7732 </r>
       <r>   -13.9193    14.6006   131.1880 </r>
       <r>   -13.8224    14.9151   132.6332 </r>
       <r>   -13.7255    15.8010   134.1643 </r>
       <r>   -13.6286    17.1528   135.8263 </r>
       <r>   -13.5317    18.6298   137.6315 </r>
       <r>   -13.4348    19.8724   139.5570 </r>
       <r>   -13.3379    20.4984   141.5433 </r>
       <r>   -13.2410    20.0676   143.4877 </r>
       <r>   -13.1441    18.1045   145.2420 </r>
       <r>   -13.0472    15.5135   146.7452 </r>
       <r>   -12.9503    14.4336   148.1438 </r>
       <r>   -12.8534    15.1245   149.6093 </r>
       <r>   -12.7565    15.5400   151.1150 </r>
       <r>   -12.6596    14.4386   152.5141 </r>
       <r>   -12.5627    12.8285   153.7571 </r>
       <r>   -12.4658    12.5167   154.9699 </r>
       <r>   -12.3689    14.2621   156.3519 </r>
       <r>   -12.2720    17.4027   158.0382 </r>
       <r>   -12.1751    20.7389   160.0477 </r>
       <r>   -12.0782    23.0923   162.2852 </r>
       <r>   -11.9813    23.8793   164.5991 </r>
       <r>   -11.8844    23.5327   166.8793 </r>
       <r>   -11.7875    22.4889   169.0584 </r>
       <r>   -11.6907    20.6947   171.0636 </r>
       <r>   -11.5938    18.2727   172.8342 </r>
       <r>   -11.4969    16.0207   174.3865 </r>
       <r>   -11.4000    15.5609   175.8943 </r>
       <r>   -11.3031    17.6589   177.6054 </r>
       <r>   -11.2062    21.0246   179.6426 </r>
       <r>   -11.1093    24.7362   182.0395 </r>
       <r>   -11.0124    28.8098   184.8310 </r>
       <r>   -10.9155    32.1824   187.9494 </r>
       <r>   -10.8186    33.8167   191.2261 </r>
       <r>   -10.7217    34.5229   194.5712 </r>
       <r>   -10.6248    35.7720   198.0374 </r>
       <r>   -10.5279    37.5068   201.6717 </r>
       <r>   -10.4310    38.1626   205.3695 </r>
       <r>   -10.3341    36.8559   208.9407 </r>
       <r>   -10.2372    34.4942   212.2831 </r>
       <r>   -10.1403    32.8834   215.4694 </r>
       <r>   -10.0434    32.7756   218.6452 </r>
       <r>    -9.9465    32.7594   221.8195 </r>
       <r>    -9.8496    32.0997   224.9298 </r>
       <r>    -9.7527    32.8087   228.1089 </r>
       <r>    -9.6558    35.9246   231.5898 </r>
       <r>    -9.5589    39.4105   235.4086 </r>
       <r>    -9.4620    41.5058   239.4303 </r>
       <r>    -9.3651    42.0681   243.5066 </r>
       <r>    -9.2682    40.3895   247.4202 </r>
       <r>    -9.1713    36.0438   250.9127 </r>
       <r>    -9.0745    31.3500   253.9504 </r>
       <r>    -8.9776    29.4434   256.8034 </r>
       <r>    -8.8807    31.1025   259.8171 </r>
       <r>    -8.7838    34.6334   263.1729 </r>
       <r>    -8.6869    37.0724   266.7651 </r>
       <r>    -8.5900    36.4940   270.3012 </r>
       <r>    -8.4931    34.0711   273.6026 </r>
       <r>    -8.3962    31.8889   276.6925 </r>
       <r>    -8.2993    30.2959   279.6281 </r>
       <r>    -8.2024    29.0175   282.4398 </r>
       <r>    -8.1055    28.2432   285.1765 </r>
       <r>    -8.0086    27.8999   287.8799 </r>
       <r>    -7.9117    27.4986   290.5444 </r>
       <r>    -7.8148    27.1693   293.1770 </r>
       <r>    -7.7179    27.8024   295.8709 </r>
       <r>    -7.6210    29.1455   298.6950 </r>
       <r>    -7.5241    29.7811   301.5807 </r>
       <r>    -7.4272    29.4261   304.4320 </r>
       <r>    -7.3303    28.6460   307.2077 </r>
       <r>    -7.2334    27.6537   309.8872 </r>
       <r>    -7.1365    26.9433   312.4979 </r>
       <r>    -7.0396    26.7881   315.0936 </r>
       <r>    -6.9427    26.1866   317.6310 </r>
       <r>    -6.8458    24.5143   320.0063 </r>
       <r>    -6.7489    23.1971   322.2541 </r>
       <r>    -6.6520    23.5584   324.5368 </r>
       <r>    -6.5551    24.0309   326.8653 </r>
       <r>    -6.4582    22.4258   329.0383 </r>
       <r>    -6.3614    19.9095   330.9674 </r>
       <r>    -6.2645    19.2446   332.8322 </r>
       <r>    -6.1676    20.7558   334.8433 </r>
       <r>    -6.0707    23.1102   337.0826 </r>
       <r>    -5.9738    25.5561   339.5589 </r>
       <r>    -5.8769    27.1037   342.1852 </r>
       <r>    -5.7800    26.2784   344.7315 </r>
       <r>    -5.6831    22.8972   346.9501 </r>
       <r>    -5.5862    18.2909   348.7224 </r>
       <r>    -5.4893    13.9158   350.0708 </r>
       <r>    -5.3924    10.9201   351.1289 </r>
       <r>    -5.2955    10.4720   352.1436 </r>
       <r>    -5.1986    12.1891   353.3247 </r>
       <r>    -5.1017    13.0477   354.5890 </r>
       <r>    -5.0048    11.1890   355.6732 </r>
       <r>    -4.9079     8.7972   356.5256 </r>
       <r>    -4.8110     8.6165   357.3605 </r>
       <r>    -4.7141    10.6743   358.3948 </r>
       <r>    -4.6172    13.5051   359.7034 </r>
       <r>    -4.5203    15.6310   361.2180 </r>
       <r>    -4.4234    15.2492   362.6956 </r>
       <r>    -4.3265    11.6938   363.8287 </r>
       <r>    -4.2296     7.1670   364.5231 </r>
       <r>    -4.1327     4.1518   364.9254 </r>
       <r>    -4.0358     2.8545   365.2020 </r>
       <r>    -3.9389     2.4229   365.4368 </r>
       <r>    -3.8420     2.5326   365.6822 </r>
       <r>    -3.7451     3.1614   365.9885 </r>
       <r>    -3.6483     3.9460   366.3709 </r>
       <r>    -3.5514     4.3012   366.7876 </r>
       <r>    -3.4545     3.8233   367.1581 </r>
       <r>    -3.3576     2.8268   367.4320 </r>
       <r>    -3.2607     2.2877   367.6537 </r>
       <r>    -3.1638     2.7173   367.9170 </r>
       <r>    -3.0669     3.7750   368.2828 </r>
       <r>    -2.9700     4.8625   368.7539 </r>
       <r>    -2.8731     5.4730   369.2842 </r>
       <r>    -2.7762     5.5829   369.8252 </r>
       <r>    -2.6793     5.7241   370.3798 </r>
       <r>    -2.5824     6.2787   370.9882 </r>
       <r>    -2.4855     6.9664   371.6632 </r>
       <r>    -2.3886     7.1330   372.3544 </r>
       <r>    -2.2917     6.8478   373.0179 </r>
       <r>    -2.1948     7.1315   373.7089 </r>
       <r>    -2.0979     7.9869   374.4828 </r>
       <r>    -2.0010     7.7413   375.2329 </r>
       <r>    -1.9041     6.1453   375.8284 </r>
       <r>    -1.8072     5.9014   376.4002 </r>
       <r>    -1.7103     9.3577   377.3070 </r>
       <r>    -1.6134    15.4908   378.8080 </r>
       <r>    -1.5165    20.8950   380.8326 </r>
       <r>    -1.4196    23.0246   383.0636 </r>
       <r>    -1.3227    22.0264   385.1979 </r>
       <r>    -1.2258    20.0029   387.1361 </r>
       <r>    -1.1289    18.8729   388.9648 </r>
       <r>    -1.0320    18.1906   390.7274 </r>
       <r>    -0.9352    16.4665   392.3229 </r>
       <r>    -0.8383    14.3495   393.7134 </r>
       <r>    -0.7414    13.3342   395.0054 </r>
       <r>    -0.6445    13.1388   396.2785 </r>
       <r>    -0.5476    12.7762   397.5165 </r>
       <r>    -0.4507    12.0209   398.6812 </r>
       <r>    -0.3538    11.4804   399.7936 </r>
       <r>    -0.2569    12.4684   401.0018 </r>
       <r>    -0.1600    15.3036   402.4846 </r>
       <r>    -0.0631    18.1796   404.2462 </r>
       <r>     0.0338    19.8077   406.1655 </r>
       <r>     0.1307    20.8646   408.1872 </r>
       <r>     0.2276    21.5563   410.2759 </r>
       <r>     0.3245    20.9953   412.3103 </r>
       <r>     0.4214    19.2083   414.1715 </r>
       <r>     0.5183    17.7919   415.8955 </r>
       <r>     0.6152    18.7967   417.7168 </r>
       <r>     0.7121    22.8182   419.9278 </r>
       <r>     0.8090    28.1212   422.6527 </r>
       <r>     0.9059    32.5285   425.8045 </r>
       <r>     1.0028    35.8219   429.2756 </r>
       <r>     1.0997    39.1127   433.0654 </r>
       <r>     1.1966    42.9296   437.2252 </r>
       <r>     1.2935    46.8050   441.7604 </r>
       <r>     1.3904    49.3347   446.5408 </r>
       <r>     1.4873    48.7742   451.2668 </r>
       <r>     1.5842    44.2238   455.5519 </r>
       <r>     1.6811    36.0648   459.0465 </r>
       <r>     1.7779    25.5663   461.5238 </r>
       <r>     1.8748    14.9668   462.9740 </r>
       <r>     1.9717     6.9800   463.6503 </r>
       <r>     2.0686     2.6031   463.9026 </r>
       <r>     2.1655     0.7852   463.9786 </r>
       <r>     2.2624     0.1849   463.9966 </r>
       <r>     2.3593     0.0316   463.9996 </r>
       <r>     2.4562     0.0037   464.0000 </r>
       <r>     2.5531     0.0003   464.0000 </r>
       <r>     2.6500     0.0000   464.0000 </r>
       <r>     2.7469     0.0000   464.0000 </r>
       <r>     2.8438     0.0000   464.0000 </r>
       <r>     2.9407     0.0000   464.0000 </r>
       <r>     3.0376     0.0000   464.0000 </r>
       <r>     3.1345     0.0000   464.0000 </r>
       <r>     3.2314     0.0000   464.0000 </r>
       <r>     3.3283     0.0000   464.0000 </r>
       <r>     3.4252     0.0000   464.0000 </r>
       <r>     3.5221     0.0000   464.0000 </r>
       <r>     3.6190     0.0000   464.0000 </r>
       <r>     3.7159     0.0000   464.0000 </r>
       <r>     3.8128     0.0000   464.0000 </r>
       <r>     3.9097     0.0000   464.0000 </r>
      </set>
     </set>
    </array>
   </total>
  </dos>
 </calculation>
 <structure name="finalpos" >
  <crystal>
   <varray name="basis" >
    <v>      28.05000000       0.00000000       0.00000000 </v>
    <v>       0.00000000       8.10000000       0.00000000 </v>
    <v>       0.00000000       0.00000000      33.50000000 </v>
   </varray>
   <i name="volume">   7611.36750000 </i>
   <varray name="rec_basis" >
    <v>       0.03565062       0.00000000       0.00000000 </v>
    <v>       0.00000000       0.12345679       0.00000000 </v>
    <v>       0.00000000       0.00000000       0.02985075 </v>
   </varray>
  </crystal>
  <varray name="positions" >
   <v>       0.29107273       0.48526914       0.02810597 </v>
   <v>       0.29344314       0.65980988       0.02743618 </v>
   <v>       0.33609198       0.41775062       0.02243878 </v>
   <v>       0.33631052       0.74188519       0.01758770 </v>
   <v>       0.37848128       0.48886914       0.00822815 </v>
   <v>       0.37832086       0.66045185       0.00782624 </v>
   <v>       0.42264528       0.40703704       0.00141609 </v>
   <v>       0.42042068       0.74137037       0.99785891 </v>
   <v>       0.46425668       0.49417284       0.98810325 </v>
   <v>       0.46350802       0.66577901       0.98730901 </v>
   <v>       0.50791087       0.40931728       0.98225125 </v>
   <v>       0.50644563       0.75145926       0.97739388 </v>
   <v>       0.55064884       0.49420123       0.97086916 </v>
   <v>       0.54971836       0.66179506       0.96873463 </v>
   <v>       0.59563993       0.41988025       0.96697552 </v>
   <v>       0.59313369       0.74865679       0.96099075 </v>
   <v>       0.63895544       0.49816173       0.95860478 </v>
   <v>       0.63800713       0.66819012       0.95783970 </v>
   <v>       0.68431729       0.41237037       0.95854478 </v>
   <v>       0.68229947       0.74423827       0.96046955 </v>
   <v>       0.72794652       0.49361975       0.95249433 </v>
   <v>       0.72781818       0.66391111       0.95626507 </v>
   <v>       0.77258824       0.41335802       0.95606567 </v>
   <v>       0.77392157       0.74348148       0.96019761 </v>
   <v>       0.81654902       0.49452469       0.96079403 </v>
   <v>       0.81664884       0.66038519       0.96211612 </v>
   <v>       0.86007130       0.41235062       0.96986597 </v>
   <v>       0.85876649       0.73482469       0.97541669 </v>
   <v>       0.90223173       0.48686790       0.98138081 </v>
   <v>       0.90250267       0.65758395       0.98436472 </v>
   <v>       0.94453476       0.40708889       0.99336988 </v>
   <v>       0.94421747       0.73530370       0.99889638 </v>
   <v>       0.98665597       0.48674938       0.00853627 </v>
   <v>       0.98734759       0.65432099       0.00747284 </v>
   <v>       0.02443494       0.40496914       0.02926000 </v>
   <v>       0.02599526       0.73473704       0.02692660 </v>
   <v>       0.06627665       0.47778642       0.04206269 </v>
   <v>       0.06632977       0.64706543       0.04277433 </v>
   <v>       0.11073619       0.40174938       0.04988478 </v>
   <v>       0.11060428       0.73589012       0.04817612 </v>
   <v>       0.15626916       0.48440741       0.04978358 </v>
   <v>       0.15584670       0.65102840       0.04904657 </v>
   <v>       0.20133975       0.40549753       0.04918597 </v>
   <v>       0.20127879       0.74393704       0.05162328 </v>
   <v>       0.23985490       0.48898519       0.03514239 </v>
   <v>       0.24053405       0.66705802       0.03572985 </v>
   <v>       0.29866061       0.99134691       0.04261134 </v>
   <v>       0.29767843       0.16641728       0.04344388 </v>
   <v>       0.33717504       0.90556790       0.02714824 </v>
   <v>       0.33856292       0.24849753       0.02958107 </v>
   <v>       0.38190374       0.98912593       0.01966919 </v>
   <v>       0.38259180       0.15933704       0.01847839 </v>
   <v>       0.42366488       0.91163951       0.00769830 </v>
   <v>       0.42414973       0.23520247       0.00564791 </v>
   <v>       0.46795365       0.99053086       0.99880676 </v>
   <v>       0.46791087       0.15706049       0.00044604 </v>
   <v>       0.50936898       0.91243951       0.98638949 </v>
   <v>       0.51106952       0.24359506       0.99282854 </v>
   <v>       0.55217825       0.99578025       0.98125931 </v>
   <v>       0.55516221       0.16879012       0.98296170 </v>
   <v>       0.59415330       0.91172222       0.96986776 </v>
   <v>       0.59749020       0.24847160       0.97587161 </v>
   <v>       0.63980392       0.99385062       0.97001224 </v>
   <v>       0.64088770       0.16245679       0.97166125 </v>
   <v>       0.68438503       0.91435185       0.96257045 </v>
   <v>       0.68567914       0.24249136       0.96509552 </v>
   <v>       0.72989661       0.99394691       0.96515821 </v>
   <v>       0.72924777       0.16465679       0.96317403 </v>
   <v>       0.77317291       0.90950988       0.96401761 </v>
   <v>       0.77496257       0.24380864       0.96096687 </v>
   <v>       0.81791087       0.99365432       0.97058615 </v>
   <v>       0.81919786       0.16333457       0.96597224 </v>
   <v>       0.85852406       0.90927778       0.97753266 </v>
   <v>       0.86204991       0.24359012       0.97119063 </v>
   <v>       0.90160071       0.99158148       0.98750442 </v>
   <v>       0.90460963       0.15698519       0.97998307 </v>
   <v>       0.94383957       0.90787037       0.00280833 </v>
   <v>       0.94563636       0.24049630       0.99406090 </v>
   <v>       0.98573975       0.98663086       0.01118800 </v>
   <v>       0.98759358       0.15892840       0.00642433 </v>
   <v>       0.02843127       0.90787901       0.02571922 </v>
   <v>       0.02817569       0.23847778       0.02306806 </v>
   <v>       0.06952834       0.98239136       0.03814149 </v>
   <v>       0.06851586       0.15201852       0.03514627 </v>
   <v>       0.11324848       0.90157531       0.04951284 </v>
   <v>       0.11217504       0.23429506       0.04580627 </v>
   <v>       0.15585276       0.98657901       0.05602299 </v>
   <v>       0.15808057       0.15658148       0.05196239 </v>
   <v>       0.20252656       0.90755679       0.05730567 </v>
   <v>       0.20174082       0.24211728       0.05424866 </v>
   <v>       0.24585918       0.98945679       0.05402537 </v>
   <v>       0.24595258       0.15707654       0.05489373 </v>
  </varray>
 </structure>
</modeling>
