       N       E                     dE             d eps       ncg     rms          rms(c)
DAV:   1     0.372125949642E+04    0.37213E+04   -0.11904E+05  1712   0.105E+03
DAV:   2     0.186343701027E+03   -0.35349E+04   -0.32716E+04  2144   0.238E+02
DAV:   3    -0.834971100058E+03   -0.10213E+04   -0.99715E+03  1800   0.135E+02
DAV:   4    -0.897004015477E+03   -0.62033E+02   -0.61008E+02  1712   0.430E+01
DAV:   5    -0.898535091430E+03   -0.15311E+01   -0.15116E+01  1800   0.656E+00    0.458E+01
DAV:   6    -0.848208719907E+03    0.50326E+02   -0.48069E+01  1584   0.126E+01    0.269E+01
DAV:   7    -0.829400014392E+03    0.18809E+02   -0.65709E+01  1552   0.144E+01    0.737E+00
DAV:   8    -0.829103690810E+03    0.29632E+00   -0.22967E+00  1592   0.323E+00    0.102E+00
DAV:   9    -0.828998168123E+03    0.10552E+00   -0.22655E-01  1672   0.907E-01    0.566E-01
DAV:  10    -0.828957905431E+03    0.40263E-01   -0.42991E-02  1736   0.397E-01    0.383E-01
DAV:  11    -0.828923568330E+03    0.34337E-01   -0.23221E-02  1560   0.249E-01    0.237E-01
DAV:  12    -0.828917334310E+03    0.62340E-02   -0.24109E-02  1552   0.228E-01    0.153E-01
DAV:  13    -0.828928707502E+03   -0.11373E-01   -0.88654E-03  1536   0.142E-01    0.832E-02
DAV:  14    -0.828944932442E+03   -0.16225E-01   -0.10417E-03  1600   0.631E-02    0.575E-02
DAV:  15    -0.828965952219E+03   -0.21020E-01   -0.17533E-03  1568   0.601E-02    0.318E-02
DAV:  16    -0.828976278302E+03   -0.10326E-01   -0.63199E-04  1616   0.368E-02    0.224E-02
DAV:  17    -0.828981360748E+03   -0.50824E-02   -0.28046E-04  1592   0.235E-02    0.113E-02
DAV:  18    -0.828983904684E+03   -0.25439E-02   -0.11679E-04  1616   0.144E-02    0.697E-03
DAV:  19    -0.828985141788E+03   -0.12371E-02   -0.46775E-05  1408   0.910E-03    0.407E-03
DAV:  20    -0.828985613441E+03   -0.47165E-03   -0.90032E-06  1384   0.412E-03    0.218E-03
DAV:  21    -0.828985852748E+03   -0.23931E-03   -0.34098E-06  1288   0.255E-03    0.109E-03
DAV:  22    -0.828985913569E+03   -0.60821E-04   -0.25904E-07  1048   0.995E-04    0.614E-04
DAV:  23    -0.828985947034E+03   -0.33465E-04   -0.23712E-07   952   0.784E-04    0.382E-04
DAV:  24    -0.828985964434E+03   -0.17399E-04   -0.13436E-07   952   0.591E-04    0.260E-04
DAV:  25    -0.828985967807E+03   -0.33734E-05   -0.28479E-08  1016   0.390E-04    0.127E-04
DAV:  26    -0.828985971861E+03   -0.40536E-05   -0.28555E-08   928   0.269E-04    0.137E-04
DAV:  27    -0.828985972954E+03   -0.10936E-05   -0.63391E-09  1000   0.197E-04    0.638E-05
DAV:  28    -0.828985974875E+03   -0.19213E-05   -0.78841E-09   944   0.135E-04    0.603E-05
DAV:  29    -0.828985975516E+03   -0.64037E-06   -0.26789E-09   976   0.113E-04
   1 F= -.82898598E+03 E0= -.82894065E+03  d E =-.906549E-01
