 vasp.6.5.0 16Dec24 (build Feb 19 2025 19:45:31) complex                         
 executed on              LinuxNV date 2025.10.25  14:25:25
 running    2 mpi-ranks, on    1 nodes
 distrk:  each k-point on    2 cores,    1 groups
 distr:  one band on NCORE=   1 cores,    2 groups
 Offloading initialized ...    2 GPUs detected


--------------------------------------------------------------------------------------------------------


 INCAR:
   ISTART = 0            (Not Read existing wavefunction
   ISPIN = 1            (Non-Spin polarised DFT, Default\=1)
   ICHARG = 2            (The initial guess charge density is generated by superposition of atomic charge density)
   LREAL = Auto         (Projection operators: automatic)
   ENCUT = 500          (Cut-off energy for plane wave basis set, in eV)
   LWAVE = .FALSE.       (Write WAVECAR or not)
   LCHARG = .FALSE.       (Write CHGCAR or not)
   PREC = Accurate   (Precision level)
   KGAMMA = .TRUE.
   ALGO = Normal
   NSW = 0           (Default: NSW \= 0)
   IBRION = -1           (Ions are not moved)
   ISMEAR = 0
   EDIFF = 1E-06        (SCF energy convergence
   NELM = 150          (Max electronic SCF steps)

 POTCAR:    PAW_PBE C 08Apr2002                   
 POTCAR:    PAW_PBE C 08Apr2002                   
   SHA256 =  253f7b50bb8d59471dbedb8285d89021f4a42ed1a2c5d38a03a736e69125dd95 C/POTCAR              
   COPYR  = (c) Copyright 08Apr2002 Georg Kresse                                                    
   COPYR  = This file is part of the software VASP. Any use, copying, and all other rights are regul
   COPYR  = If you do not have a valid VASP license, you may not use, copy or distribute this file. 
   VRHFIN =C: s2p2                                                                                  
   LEXCH  = PE                                                                                      
   EATOM  =   147.1560 eV,   10.8157 Ry                                                             
                                                                                                    
   TITEL  = PAW_PBE C 08Apr2002                                                                     
   LULTRA =        F    use ultrasoft PP ?                                                          
   IUNSCR =        1    unscreen: 0-lin 1-nonlin 2-no                                               
   RPACOR =    1.200    partial core radius                                                         
   POMASS =   12.011; ZVAL   =    4.000    mass and valenz                                          
   RCORE  =    1.500    outmost cutoff radius                                                       
   RWIGS  =    1.630; RWIGS  =    0.863    wigner-seitz radius (au A)                               
   ENMAX  =  400.000; ENMIN  =  300.000 eV                                                          
   ICORE  =        2    local potential                                                             
   LCOR   =        T    correct aug charges                                                         
   LPAW   =        T    paw PP                                                                      
   EAUG   =  644.873                                                                                
   DEXC   =    0.000                                                                                
   RMAX   =    1.529    core radius for proj-oper                                                   
   RAUG   =    1.300    factor for augmentation sphere                                              
   RDEP   =    1.501    radius for radial grids                                                     
   RDEPT  =    1.300    core radius for aug-charge                                                  
                                                                                                    
   Atomic configuration                                                                             
    4 entries                                                                                       
     n  l   j            E        occ.                                                              
     1  0  0.50      -273.3789   2.0000                                                             
     2  0  0.50       -13.7508   2.0000                                                             
     2  1  0.50        -5.2854   2.0000                                                             
     3  2  1.50        -5.4423   0.0000                                                             
   Description                                                                                      
     l       E           TYP  RCUT    TYP  RCUT                                                     
     0    -13.7508458     23  1.200                                                                 
     0     -8.2022199     23  1.200                                                                 
     1     -5.2854383     23  1.500                                                                 
     1     34.0145650     23  1.500                                                                 
     2     -5.4423304      7  1.500                                                                 
  local pseudopotential read in
  partial core-charges read in
  partial kinetic energy density read in
  atomic valenz-charges read in
  non local Contribution for L=            0  read in
    real space projection operators read in
  non local Contribution for L=            0  read in
    real space projection operators read in
  non local Contribution for L=            1  read in
    real space projection operators read in
  non local Contribution for L=            1  read in
    real space projection operators read in
    PAW grid and wavefunctions read in
 
   number of l-projection  operators is LMAX  =            4
   number of lm-projection operators is LMMAX =            8
 
 Optimization of the real space projectors (new method)

 maximal supplied QI-value         = 25.13
 optimisation between [QCUT,QGAM] = [ 11.31, 22.87] = [ 35.82,146.48] Ry 
 Optimized for a Real-space Cutoff    1.03 Angstroem

   l    n(q)    QCUT    max X(q) W(low)/X(q) W(high)/X(q)  e(spline) 
   0      7    11.310   115.676    0.20E-03    0.90E-03    0.20E-06
   0      7    11.310    87.132    0.20E-03    0.89E-03    0.19E-06
   1      6    11.310     4.429    0.16E-03    0.28E-03    0.12E-06
   1      6    11.310     2.733    0.12E-03    0.21E-03    0.99E-07
  PAW_PBE C 08Apr2002                   :
 energy of atom  1       EATOM= -147.1560
 kinetic energy error for atom=    0.0076 (will be added to EATOM!!)
 
 
 POSCAR:  C
  positions in cartesian coordinates
  No initial velocities read in


 exchange-correlation table for PE
   RHO(1)=    0.500       N(1)  =     2000
   RHO(2)=  100.500       N(2)  =     4000
 


--------------------------------------------------------------------------------------------------------


 ion  position               nearest neighbor table
   1  0.004  0.100  0.455-   3 1.37  45 1.47   2 1.51  46 2.01
   2  0.004  0.282  0.464-   4 1.38  46 1.38   1 1.51  45 2.07
   3  0.049  0.035  0.452-   1 1.37  50 1.41   5 1.43
   4  0.047  0.361  0.463-   2 1.38  49 1.40   6 1.45
   5  0.094  0.114  0.458-   6 1.35   7 1.43   3 1.43
   6  0.093  0.279  0.464-   5 1.35   8 1.42   4 1.45
   7  0.139  0.028  0.459-  54 1.37   5 1.43   9 1.46
   8  0.136  0.357  0.476-  10 1.40  53 1.41   6 1.42
   9  0.182  0.112  0.473-  10 1.39  11 1.44   7 1.46
  10  0.180  0.277  0.484-   9 1.39  12 1.40   8 1.40
  11  0.226  0.031  0.482-  58 1.38  13 1.42   9 1.44
  12  0.219  0.359  0.500-  57 1.39  10 1.40  14 1.44
  13  0.266  0.108  0.501-  14 1.34  11 1.42  15 1.43
  14  0.263  0.270  0.506-  13 1.34  16 1.37  12 1.44
  15  0.310  0.025  0.507-  62 1.39  17 1.42  13 1.43
  16  0.305  0.351  0.515-  14 1.37  18 1.43  61 1.43
  17  0.351  0.107  0.522-  19 1.38  18 1.38  15 1.42
  18  0.350  0.277  0.525-  17 1.38  20 1.40  16 1.43
  19  0.394  0.026  0.530-  17 1.38  66 1.40  21 1.40
  20  0.394  0.355  0.532-  65 1.37  18 1.40  22 1.41
  21  0.436  0.107  0.540-  22 1.35  19 1.40  23 1.46
  22  0.437  0.273  0.541-  21 1.35  24 1.36  20 1.41
  23  0.482  0.020  0.536-  25 1.38  70 1.42  21 1.46
  24  0.481  0.341  0.544-  22 1.36  69 1.37  26 1.45
  25  0.525  0.094  0.542-  23 1.38  26 1.40  27 1.40
  26  0.527  0.264  0.548-  28 1.38  25 1.40  24 1.45
  27  0.569  0.013  0.536-  74 1.34  29 1.39  25 1.40
  28  0.571  0.344  0.548-  73 1.37  26 1.38  30 1.42
  29  0.612  0.094  0.531-  31 1.39  30 1.39  27 1.39
  30  0.614  0.261  0.541-  29 1.39  28 1.42  32 1.44
  31  0.657  0.022  0.525-  29 1.39  78 1.39  33 1.41
  32  0.659  0.347  0.535-  77 1.37  34 1.40  30 1.44
  33  0.700  0.101  0.517-  34 1.38  35 1.38  31 1.41
  34  0.701  0.269  0.524-  33 1.38  32 1.40  36 1.43
  35  0.741  0.022  0.504-  33 1.38  37 1.38  82 1.40
  36  0.744  0.353  0.514-  81 1.36  38 1.42  34 1.43
  37  0.783  0.101  0.493-  35 1.38  39 1.40  38 1.40
  38  0.786  0.272  0.500-  37 1.40  40 1.41  36 1.42
  39  0.825  0.022  0.481-  86 1.37  41 1.39  37 1.40
  40  0.829  0.350  0.490-  85 1.37  42 1.40  38 1.41
  41  0.866  0.101  0.468-  42 1.37  43 1.37  39 1.39
  42  0.868  0.270  0.472-  41 1.37  40 1.40  44 1.42
  43  0.909  0.024  0.462-  90 1.36  41 1.37  45 1.39
  44  0.912  0.355  0.470-  89 1.37  46 1.38  42 1.42
  45  0.952  0.105  0.456-  43 1.39  46 1.42   1 1.47   2 2.07
  46  0.955  0.278  0.461-   2 1.38  44 1.38  45 1.42   1 2.01
  47  0.008  0.611  0.453-  49 1.36  48 1.40  91 1.54  92 2.03
  48  0.008  0.783  0.449-  50 1.39  47 1.40  92 1.51  91 2.06
  49  0.051  0.533  0.460-  47 1.36   4 1.40  51 1.41
  50  0.051  0.862  0.450-  48 1.39   3 1.41  52 1.41
  51  0.095  0.614  0.462-  52 1.38  53 1.39  49 1.41
  52  0.095  0.783  0.458-  51 1.38  50 1.41  54 1.41
  53  0.136  0.531  0.473-  51 1.39   8 1.41  55 1.41
  54  0.140  0.860  0.462-   7 1.37  52 1.41  56 1.43
  55  0.180  0.613  0.481-  56 1.35  53 1.41  57 1.41
  56  0.183  0.778  0.474-  55 1.35  58 1.40  54 1.43
  57  0.222  0.527  0.492-  12 1.39  55 1.41  59 1.42
  58  0.225  0.861  0.484-  11 1.38  56 1.40  60 1.43
  59  0.267  0.604  0.494-  61 1.40  60 1.41  57 1.42
  60  0.269  0.777  0.493-  62 1.38  59 1.41  58 1.43
  61  0.309  0.523  0.506-  59 1.40  63 1.41  16 1.43
  62  0.311  0.855  0.502-  60 1.38  15 1.39  64 1.44
  63  0.352  0.603  0.514-  65 1.36  64 1.39  61 1.41
  64  0.355  0.774  0.511-  66 1.38  63 1.39  62 1.44
  65  0.392  0.522  0.526-  63 1.36  20 1.37  67 1.41
  66  0.396  0.855  0.524-  64 1.38  19 1.40  68 1.41
  67  0.438  0.595  0.529-  68 1.36  65 1.41  69 1.47
  68  0.438  0.764  0.527-  67 1.36  66 1.41  70 1.42
  69  0.482  0.509  0.540-  24 1.37  71 1.42  67 1.47
  70  0.482  0.845  0.532-  72 1.38  68 1.42  23 1.42
  71  0.527  0.591  0.538-  72 1.37  69 1.42  73 1.42
  72  0.525  0.760  0.536-  71 1.37  70 1.38  74 1.43
  73  0.571  0.512  0.544-  28 1.37  75 1.40  71 1.42
  74  0.570  0.847  0.536-  27 1.34  76 1.43  72 1.43
  75  0.615  0.592  0.541-  76 1.38  73 1.40  77 1.41
  76  0.614  0.760  0.534-  75 1.38  74 1.43  78 1.44
  77  0.660  0.515  0.539-  32 1.37  75 1.41  79 1.46
  78  0.657  0.850  0.525-  31 1.39  80 1.42  76 1.44
  79  0.703  0.605  0.527-  80 1.34  81 1.40  77 1.46
  80  0.702  0.771  0.525-  79 1.34  82 1.41  78 1.42
  81  0.744  0.521  0.515-  36 1.36  79 1.40  83 1.45
  82  0.744  0.855  0.514-  35 1.40  80 1.41  84 1.41
  83  0.788  0.605  0.504-  84 1.39  81 1.45  85 1.46
  84  0.786  0.776  0.501-  83 1.39  86 1.39  82 1.41
  85  0.830  0.519  0.490-  40 1.37  87 1.39  83 1.46
  86  0.826  0.853  0.485-  39 1.37  84 1.39  88 1.41
  87  0.870  0.603  0.477-  85 1.39  88 1.40  89 1.41
  88  0.868  0.775  0.473-  90 1.39  87 1.40  86 1.41
  89  0.915  0.523  0.471-  44 1.37  91 1.39  87 1.41
  90  0.910  0.855  0.462-  43 1.36  88 1.39  92 1.41
  91  0.955  0.615  0.462-  92 1.34  89 1.39  47 1.54  48 2.06
  92  0.955  0.779  0.458-  91 1.34  90 1.41  48 1.51  47 2.03
 
  LATTYP: Found a simple orthorhombic cell.
 ALAT       =     8.1000000000
 B/A-ratio  =     3.4629629630
 C/A-ratio  =     4.1358024691
  
  Lattice vectors:
  
 A1 = (   0.0000000000,  -8.1000000000,   0.0000000000)
 A2 = (  28.0500000000,   0.0000000000,   0.0000000000)
 A3 = (   0.0000000000,   0.0000000000,  33.5000000000)


Analysis of symmetry for initial positions (statically):
=====================================================================
 Subroutine PRICEL returns:
 Original cell was already a primitive cell.
 

 Routine SETGRP: Setting up the symmetry group for a 
 simple orthorhombic supercell.


 Subroutine GETGRP returns: Found  1 space group operations
 (whereof  1 operations were pure point group operations)
 out of a pool of  8 trial point group operations.


The static configuration has the point symmetry C_1 .


Analysis of symmetry for dynamics (positions and initial velocities):
=====================================================================
 Subroutine PRICEL returns:
 Original cell was already a primitive cell.
 

 Routine SETGRP: Setting up the symmetry group for a 
 simple orthorhombic supercell.


 Subroutine GETGRP returns: Found  1 space group operations
 (whereof  1 operations were pure point group operations)
 out of a pool of  8 trial point group operations.


The dynamic configuration has the point symmetry C_1 .


 Subroutine INISYM returns: Found  1 space group operations
 (whereof  1 operations are pure point group operations),
 and found     1 'primitive' translations


----------------------------------------------------------------------------------------

                                     Primitive cell                                     

  volume of cell :    7611.3675

  direct lattice vectors                    reciprocal lattice vectors
    28.050000000  0.000000000  0.000000000     0.035650624  0.000000000  0.000000000
     0.000000000  8.100000000  0.000000000     0.000000000  0.123456790  0.000000000
     0.000000000  0.000000000 33.500000000     0.000000000  0.000000000  0.029850746

  length of vectors
    28.050000000  8.100000000 33.500000000     0.035650624  0.123456790  0.029850746

  position of ions in fractional coordinates (direct lattice)
     0.004255865  0.100382840  0.455158209
     0.003773119  0.282448148  0.464188060
     0.049087344  0.035203333  0.451591045
     0.047283066  0.361308642  0.462591045
     0.094257398  0.114189012  0.457552239
     0.093187879  0.278524691  0.464402985
     0.138821034  0.028118642  0.459391045
     0.136385383  0.356806173  0.475608955
     0.182139037  0.111981852  0.472504478
     0.179541889  0.276738272  0.484274627
     0.226049554  0.030566543  0.482286567
     0.219422816  0.358560494  0.499710448
     0.265831016  0.107532346  0.500779104
     0.263370766  0.270481481  0.506480597
     0.310441711  0.025303704  0.506964179
     0.305066310  0.351451852  0.515480597
     0.351220321  0.107080123  0.522462687
     0.349936185  0.277339506  0.524516418
     0.393500891  0.026077160  0.529874627
     0.393664884  0.355395062  0.531874627
     0.436270945  0.106658642  0.539650746
     0.436563280  0.272808642  0.540820896
     0.481529412  0.020120370  0.535752239
     0.480616756  0.340739506  0.543829851
     0.525290553  0.093958519  0.541991045
     0.527016043  0.264300000  0.548352239
     0.569012478  0.012948765  0.536182090
     0.570520499  0.343517284  0.547680597
     0.612399287  0.094331481  0.531423881
     0.614331551  0.261390123  0.540683582
     0.656666667  0.022367531  0.525352239
     0.658684492  0.347011111  0.535346269
     0.700188948  0.100775432  0.516680597
     0.700980392  0.268646914  0.523910448
     0.741447415  0.022284074  0.504391045
     0.744385027  0.352959259  0.514176119
     0.783237077  0.101219753  0.493498507
     0.786135472  0.271559259  0.500292537
     0.824634581  0.021586667  0.480770149
     0.829422460  0.349776543  0.490122388
     0.865928699  0.100883210  0.468408955
     0.867864528  0.269640741  0.471955224
     0.908784314  0.023574938  0.461656716
     0.912206774  0.354667901  0.469979104
     0.951800357  0.104728272  0.455629851
     0.954773619  0.278245679  0.460698507
     0.008482745  0.611386420  0.452946269
     0.007532299  0.783218519  0.448662687
     0.050744385  0.533307407  0.459835821
     0.051471658  0.861502469  0.450322388
     0.095149733  0.613743210  0.461943284
     0.095449554  0.783304938  0.457973134
     0.136364349  0.530861728  0.473385075
     0.140492335  0.859609877  0.461617910
     0.179823529  0.613365432  0.480782090
     0.183056684  0.777628395  0.474361194
     0.221672727  0.527275309  0.491862687
     0.225150802  0.860617284  0.483925373
     0.267119786  0.603562963  0.493585075
     0.268713012  0.776976543  0.492600000
     0.308762567  0.522967901  0.505686567
     0.310922638  0.855435802  0.501973134
     0.352481996  0.602653086  0.513800000
     0.355140107  0.773933333  0.511283582
     0.392409982  0.522265432  0.525877612
     0.395686275  0.855362963  0.523955224
     0.437935829  0.595377778  0.528847761
     0.438021390  0.763560494  0.527277612
     0.482114082  0.509227160  0.539531343
     0.482345811  0.844755556  0.532456716
     0.526584670  0.591448148  0.537579104
     0.524991087  0.760407407  0.536274627
     0.570941176  0.511706173  0.544349254
     0.569600713  0.846974074  0.535725373
     0.615012478  0.592391358  0.541450746
     0.613811052  0.759967901  0.534023881
     0.660103387  0.514934568  0.538997015
     0.656627451  0.850170370  0.525232836
     0.702948307  0.605408642  0.527298507
     0.701757576  0.770581481  0.524626866
     0.743814617  0.520797531  0.514677612
     0.743975045  0.854832099  0.514256716
     0.787511586  0.604685185  0.504026866
     0.786124777  0.775708642  0.501250746
     0.830167558  0.519019753  0.490313433
     0.825925134  0.852880247  0.485080597
     0.870303030  0.603312346  0.476695522
     0.868367201  0.774823457  0.473164179
     0.914588235  0.523039506  0.471477612
     0.909910873  0.855216049  0.462026866
     0.954823529  0.615401235  0.462277612
     0.954812834  0.779190123  0.457776119

  ion indices of the primitive-cell ions
   primitive index   ion index
                 1           1
                 2           2
                 3           3
                 4           4
                 5           5
                 6           6
                 7           7
                 8           8
                 9           9
                10          10
                11          11
                12          12
                13          13
                14          14
                15          15
                16          16
                17          17
                18          18
                19          19
                20          20
                21          21
                22          22
                23          23
                24          24
                25          25
                26          26
                27          27
                28          28
                29          29
                30          30
                31          31
                32          32
                33          33
                34          34
                35          35
                36          36
                37          37
                38          38
                39          39
                40          40
                41          41
                42          42
                43          43
                44          44
                45          45
                46          46
                47          47
                48          48
                49          49
                50          50
                51          51
                52          52
                53          53
                54          54
                55          55
                56          56
                57          57
                58          58
                59          59
                60          60
                61          61
                62          62
                63          63
                64          64
                65          65
                66          66
                67          67
                68          68
                69          69
                70          70
                71          71
                72          72
                73          73
                74          74
                75          75
                76          76
                77          77
                78          78
                79          79
                80          80
                81          81
                82          82
                83          83
                84          84
                85          85
                86          86
                87          87
                88          88
                89          89
                90          90
                91          91
                92          92

----------------------------------------------------------------------------------------

 
 
 KPOINTS: K-Spacing Value to Generate K-Mesh: 0.03

Automatic generation of k-mesh.
 Grid dimensions read from file:
 generate k-points for:    1    4    1

 Generating k-lattice:

  Cartesian coordinates                     Fractional coordinates (reciprocal lattice)
     0.035650624  0.000000000  0.000000000     1.000000000  0.000000000  0.000000000
     0.000000000  0.030864198  0.000000000     0.000000000  0.250000000  0.000000000
     0.000000000  0.000000000  0.029850746     0.000000000  0.000000000  1.000000000

  Length of vectors
     0.035650624  0.030864198  0.029850746

  Shift w.r.t. Gamma in fractional coordinates (k-lattice)
     0.000000000  0.000000000  0.000000000

 
 Subroutine IBZKPT returns following result:
 ===========================================
 
 Found      3 irreducible k-points:
 
 Following reciprocal coordinates:
            Coordinates               Weight
  0.000000  0.000000  0.000000      1.000000
  0.000000  0.250000  0.000000      2.000000
  0.000000  0.500000  0.000000      1.000000
 
 Following cartesian coordinates:
            Coordinates               Weight
  0.000000  0.000000  0.000000      1.000000
  0.000000  0.030864  0.000000      2.000000
  0.000000  0.061728  0.000000      1.000000
 


--------------------------------------------------------------------------------------------------------




 Dimension of arrays:
   k-points           NKPTS =      3   k-points in BZ     NKDIM =      3   number of bands    NBANDS=    232
   number of dos      NEDOS =    301   number of ions     NIONS =     92
   non local maximal  LDIM  =      4   non local SUM 2l+1 LMDIM =      8
   total plane-waves  NPLWV = ******
   max r-space proj   IRMAX =   1967   max aug-charges    IRDMAX=   5083
   dimension x,y,z NGX =   210 NGY =   60 NGZ =  250
   dimension x,y,z NGXF=   420 NGYF=  120 NGZF=  500
   support grid    NGXF=   420 NGYF=  120 NGZF=  500
   ions per type =              92
   NGX,Y,Z   is equivalent  to a cutoff of  12.45, 12.31, 12.41 a.u.
   NGXF,Y,Z  is equivalent  to a cutoff of  24.89, 24.63, 24.81 a.u.

 SYSTEM =  unknown system                          
 POSCAR =   C                                      

 Startparameter for this run:
   NWRITE =      2    write-flag & timer
   PREC   = accura    normal or accurate (medium, high low for compatibility)
   ISTART =      0    job   : 0-new  1-cont  2-samecut
   ICHARG =      2    charge: 1-file 2-atom 10-const
   ISPIN  =      1    spin polarized calculation?
   LNONCOLLINEAR =      F non collinear calculations
   LSORBIT =      F    spin-orbit coupling
   INIWAV =      1    electr: 0-lowe 1-rand  2-diag
   LASPH  =      F    aspherical Exc in radial PAW
 Electronic Relaxation 1
   ENCUT  =  500.0 eV  36.75 Ry    6.06 a.u.  51.14 14.77 61.08*2*pi/ulx,y,z
   ENINI  =  500.0     initial cutoff
   ENAUG  =  644.9 eV  augmentation charge cutoff
   NELM   =    150;   NELMIN=  2; NELMDL= -5     # of ELM steps 
   EDIFF  = 0.1E-05   stopping-criterion for ELM
   LREAL  =      T    real-space projection
   NLSPLINE    = F    spline interpolate recip. space projectors
   LCOMPAT=      F    compatible to vasp.4.4
   GGA_COMPAT  = T    GGA compatible to vasp.4.4-vasp.4.6
   LMAXPAW     = -100 max onsite density
   LMAXMIX     =    2 max onsite mixed and CHGCAR
   VOSKOWN=      0    Vosko Wilk Nusair interpolation
   ROPT   =   -0.00025
 Ionic relaxation
   EDIFFG = 0.1E-04   stopping-criterion for IOM
   NSW    =      0    number of steps for IOM
   NBLOCK =      1;   KBLOCK =      1    inner block; outer block 
   IBRION =     -1    ionic relax: 0-MD 1-quasi-New 2-CG
   NFREE  =      0    steps in history (QN), initial steepest desc. (CG)
   ISIF   =      2    stress and relaxation
   IWAVPR =     10    prediction:  0-non 1-charg 2-wave 3-comb
   ISYM   =      2    0-nonsym 1-usesym 2-fastsym
   LCORR  =      T    Harris-Foulkes like correction to forces

   POTIM  = 0.5000    time-step for ionic-motion
   TEIN   =    0.0    initial temperature
   TEBEG  =    0.0;   TEEND  =   0.0 temperature during run
   SMASS  =  -3.00    Nose mass-parameter (am)
   estimated Nose-frequenzy (Omega)   =  0.10E-29 period in steps = 0.13E+47 mass=  -0.180E-25a.u.
   SCALEE = 1.0000    scale energy and forces
   NPACO  =    256;   APACO  = 10.0  distance and # of slots for P.C.
   PSTRESS=    0.0 pullay stress

  Mass of Ions in am
   POMASS =  12.01
  Ionic Valenz
   ZVAL   =   4.00
  Atomic Wigner-Seitz radii
   RWIGS  =  -1.00
  virtual crystal weights 
   VCA    =   1.00
   NELECT =     368.0000    total number of electrons
   NUPDOWN=      -1.0000    fix difference up-down

 DOS related values:
   EMIN   =  10.00;   EMAX   =-10.00  energy-range for DOS
   EFERMI =   0.00;   METHOD = LEGACY      
   ISMEAR =     0;   SIGMA  =   0.20  broadening in eV -4-tet -1-fermi 0-gaus
   EFERMI_NEDOS =   21; number of points for ismear=-14 and -15

 Electronic relaxation 2 (details)
   IALGO  =     38    algorithm
   LDIAG  =      T    sub-space diagonalisation (order eigenvalues)
   LSUBROT=      F    optimize rotation matrix (better conditioning)
   TURBO    =      0    0=normal 1=particle mesh
   IRESTART =      0    0=no restart 2=restart with 2 vectors
   NREBOOT  =      0    no. of reboots
   NMIN     =      0    reboot dimension
   EREF     =   0.00    reference energy to select bands
   IMIX   =      4    mixing-type and parameters
     AMIX     =   0.40;   BMIX     =  1.00
     AMIX_MAG =   1.60;   BMIX_MAG =  1.00
     AMIN     =   0.10
     WC   =   100.;   INIMIX=   1;  MIXPRE=   1;  MAXMIX= -45

 Intra band minimization:
   WEIMIN = 0.0000     energy-eigenvalue tresh-hold
   EBREAK =  0.11E-08  absolut break condition
   DEPER  =   0.30     relativ break condition  

   TIME   =   0.40     timestep for ELM

  volume/ion in A,a.u.               =      82.73       558.30
  Fermi-wavevector in a.u.,A,eV,Ry     =   0.596398  1.127030  4.839472  0.355691
  Thomas-Fermi vector in A             =   1.646729
 
 Write flags
   LWAVE        =      F    write WAVECAR
   LDOWNSAMPLE  =      F    k-point downsampling of WAVECAR
   LCHARG       =      F    write CHGCAR
   LVTOT        =      F    write LOCPOT, total local potential
   LVHAR        =      F    write LOCPOT, Hartree potential only
   WRT_POTENTIAL= false  ! write potential to hdf5 file
   LELF         =      F    write electronic localiz. function (ELF)
   LORBIT       =      0    0 simple, 1 ext, 2 COOP (PROOUT), +10 PAW based schemes


 Python interface
   PLUGINS active      =      F    recompile with -DPLUGINS to activate
 
 Dipole corrections
   LMONO      =      F    monopole corrections only (constant potential shift)
   LDIPOL     =      F    correct potential (dipole corrections)
   IDIPOL     =      0    1-x, 2-y, 3-z, 4-all directions 
   EPSILON    =  1.0000000 bulk dielectric constant
   LVACPOTAV  =      F  vacuum potentials using an averaging scheme for the charge density
   VACPOTFLAT =  0.1000000 required flatness to determine vacuum potential
 
Coulomb truncation method
  LTRUNCATE          =      F  Coulomb kernel truncation to be used
  IDIMENSIONALITY    =      3  Dimensionality of cutoff (0 molecules / 2 surfaces)
  ISURFACE           =     -1  Direction of surface normal
  LCOARSEN           =      F  Coarsen the charge grid before padding, preferred

 
 Exchange correlation treatment:
   GGA     = PE    functional components
   XC_C    = 1    coefficients multiplying the functional components
   LIBXC   =     F    Libxc                    
   VOSKOWN =     0    Vosko Wilk Nusair interpolation
   LHFCALC =     F    Hartree Fock is set to
   LHFONE  =     F    Hartree Fock one center treatment
   AEXX    =    0.0000 exact exchange contribution

 Parameters of functionals:
   PE:
     No parameter
 
 Van der Waals corrections
   IVDW    =     0    specifies the selected vdW correction

 Linear response parameters
   LEPSILON=     F    determine dielectric tensor
   LRPA    =     F    only Hartree local field effects (RPA)
   LNABLA  =     F    use nabla operator in PAW spheres
   LVEL    =     F    velocity operator in full k-point grid
   CSHIFT  =0.1000    complex shift for real part using Kramers Kronig
   OMEGAMAX=  -1.0    maximum frequency
   DEG_THRESHOLD= 0.2000000E-02 threshold for treating states as degnerate
   RTIME   =   -0.100 relaxation time in fs
  (WPLASMAI=    0.000 imaginary part of plasma frequency in eV, 0.658/RTIME)
   DFIELD  = 0.0000000 0.0000000 0.0000000 field for delta impulse in time
 
  Optional k-point grid parameters
   LKPOINTS_OPT  =     F    use optional k-point grid
   KPOINTS_OPT_MODE=     1    mode for optional k-point grid
 
 Orbital magnetization related:
   ORBITALMAG=     F  switch on orbital magnetization
   LCHIMAG   =     F  perturbation theory with respect to B field
   DQ        =  0.001000  dq finite difference perturbation B field
   LLRAUG    =     F  two centre corrections for induced B field
   LBONE     =     F  B-component reconstruction in AE one-centre
   LVGVCALC  =     T  calculate vGv susceptibility
   LVGVAPPL  =     F  apply vGv susceptibility instead of pGv for G=0

 Random number generation:
   RANDOM_GENERATOR = DEFAULT
   PCG_SEED         = not used


--------------------------------------------------------------------------------------------------------


 Static calculation
 charge density and potential will be updated during run
 non-spin polarized calculation
 Variant of blocked Davidson
 Davidson routine will perform the subspace rotation
 perform sub-space diagonalisation
    after iterative eigenvector-optimisation
 modified Broyden-mixing scheme, WC =      100.0
 initial mixing is a Kerker type mixing with AMIX =  0.4000 and BMIX =      1.0000
 Hartree-type preconditioning will be used
 using additional bands            48
 real space projection scheme for non local part
 use partial core corrections
 calculate Harris-corrections to forces 
   (improved forces if not selfconsistent)
 use gradient corrections 
 use of overlap-Matrix (Vanderbilt PP)
 Gauss-broadening in eV      SIGMA  =   0.20


--------------------------------------------------------------------------------------------------------


  energy-cutoff  :      500.00
  volume of cell :     7611.37
      direct lattice vectors                 reciprocal lattice vectors
    28.050000000  0.000000000  0.000000000     0.035650624  0.000000000  0.000000000
     0.000000000  8.100000000  0.000000000     0.000000000  0.123456790  0.000000000
     0.000000000  0.000000000 33.500000000     0.000000000  0.000000000  0.029850746

  length of vectors
    28.050000000  8.100000000 33.500000000     0.035650624  0.123456790  0.029850746


 
 k-points in units of 2pi/SCALE and weight: K-Spacing Value to Generate K-Mesh: 0.03
   0.00000000  0.00000000  0.00000000       0.250
   0.00000000  0.03086420  0.00000000       0.500
   0.00000000  0.06172840  0.00000000       0.250
 
 k-points in reciprocal lattice and weights: K-Spacing Value to Generate K-Mesh: 0.03
   0.00000000  0.00000000  0.00000000       0.250
   0.00000000  0.25000000  0.00000000       0.500
   0.00000000  0.50000000  0.00000000       0.250
 
 position of ions in fractional coordinates (direct lattice) 
   0.00425586  0.10038284  0.45515821
   0.00377312  0.28244815  0.46418806
   0.04908734  0.03520333  0.45159104
   0.04728307  0.36130864  0.46259104
   0.09425740  0.11418901  0.45755224
   0.09318788  0.27852469  0.46440299
   0.13882103  0.02811864  0.45939104
   0.13638538  0.35680617  0.47560896
   0.18213904  0.11198185  0.47250448
   0.17954189  0.27673827  0.48427463
   0.22604955  0.03056654  0.48228657
   0.21942282  0.35856049  0.49971045
   0.26583102  0.10753235  0.50077910
   0.26337077  0.27048148  0.50648060
   0.31044171  0.02530370  0.50696418
   0.30506631  0.35145185  0.51548060
   0.35122032  0.10708012  0.52246269
   0.34993619  0.27733951  0.52451642
   0.39350089  0.02607716  0.52987463
   0.39366488  0.35539506  0.53187463
   0.43627094  0.10665864  0.53965075
   0.43656328  0.27280864  0.54082090
   0.48152941  0.02012037  0.53575224
   0.48061676  0.34073951  0.54382985
   0.52529055  0.09395852  0.54199104
   0.52701604  0.26430000  0.54835224
   0.56901248  0.01294877  0.53618209
   0.57052050  0.34351728  0.54768060
   0.61239929  0.09433148  0.53142388
   0.61433155  0.26139012  0.54068358
   0.65666667  0.02236753  0.52535224
   0.65868449  0.34701111  0.53534627
   0.70018895  0.10077543  0.51668060
   0.70098039  0.26864691  0.52391045
   0.74144742  0.02228407  0.50439104
   0.74438503  0.35295926  0.51417612
   0.78323708  0.10121975  0.49349851
   0.78613547  0.27155926  0.50029254
   0.82463458  0.02158667  0.48077015
   0.82942246  0.34977654  0.49012239
   0.86592870  0.10088321  0.46840896
   0.86786453  0.26964074  0.47195522
   0.90878431  0.02357494  0.46165672
   0.91220677  0.35466790  0.46997910
   0.95180036  0.10472827  0.45562985
   0.95477362  0.27824568  0.46069851
   0.00848275  0.61138642  0.45294627
   0.00753230  0.78321852  0.44866269
   0.05074439  0.53330741  0.45983582
   0.05147166  0.86150247  0.45032239
   0.09514973  0.61374321  0.46194328
   0.09544955  0.78330494  0.45797313
   0.13636435  0.53086173  0.47338507
   0.14049234  0.85960988  0.46161791
   0.17982353  0.61336543  0.48078209
   0.18305668  0.77762840  0.47436119
   0.22167273  0.52727531  0.49186269
   0.22515080  0.86061728  0.48392537
   0.26711979  0.60356296  0.49358507
   0.26871301  0.77697654  0.49260000
   0.30876257  0.52296790  0.50568657
   0.31092264  0.85543580  0.50197313
   0.35248200  0.60265309  0.51380000
   0.35514011  0.77393333  0.51128358
   0.39240998  0.52226543  0.52587761
   0.39568627  0.85536296  0.52395522
   0.43793583  0.59537778  0.52884776
   0.43802139  0.76356049  0.52727761
   0.48211408  0.50922716  0.53953134
   0.48234581  0.84475556  0.53245672
   0.52658467  0.59144815  0.53757910
   0.52499109  0.76040741  0.53627463
   0.57094118  0.51170617  0.54434925
   0.56960071  0.84697407  0.53572537
   0.61501248  0.59239136  0.54145075
   0.61381105  0.75996790  0.53402388
   0.66010339  0.51493457  0.53899701
   0.65662745  0.85017037  0.52523284
   0.70294831  0.60540864  0.52729851
   0.70175758  0.77058148  0.52462687
   0.74381462  0.52079753  0.51467761
   0.74397504  0.85483210  0.51425672
   0.78751159  0.60468519  0.50402687
   0.78612478  0.77570864  0.50125075
   0.83016756  0.51901975  0.49031343
   0.82592513  0.85288025  0.48508060
   0.87030303  0.60331235  0.47669552
   0.86836720  0.77482346  0.47316418
   0.91458824  0.52303951  0.47147761
   0.90991087  0.85521605  0.46202687
   0.95482353  0.61540123  0.46227761
   0.95481283  0.77919012  0.45777612
 
 position of ions in cartesian coordinates  (Angst):
   0.11937700  0.81310100 15.24780000
   0.10583600  2.28783000 15.55030000
   1.37690000  0.28514700 15.12830000
   1.32629000  2.92660000 15.49680000
   2.64392000  0.92493100 15.32800000
   2.61392000  2.25605000 15.55750000
   3.89393000  0.22776100 15.38960000
   3.82561000  2.89013000 15.93290000
   5.10900000  0.90705300 15.82890000
   5.03615000  2.24158000 16.22320000
   6.34069000  0.24758900 16.15660000
   6.15481000  2.90434000 16.74030000
   7.45656000  0.87101200 16.77610000
   7.38755000  2.19090000 16.96710000
   8.70789000  0.20496000 16.98330000
   8.55711000  2.84676000 17.26860000
   9.85173000  0.86734900 17.50250000
   9.81571000  2.24645000 17.57130000
  11.03770000  0.21122500 17.75080000
  11.04230000  2.87870000 17.81780000
  12.23740000  0.86393500 18.07830000
  12.24560000  2.20975000 18.11750000
  13.50690000  0.16297500 17.94770000
  13.48130000  2.75999000 18.21830000
  14.73440000  0.76106400 18.15670000
  14.78280000  2.14083000 18.36980000
  15.96080000  0.10488500 17.96210000
  16.00310000  2.78249000 18.34730000
  17.17780000  0.76408500 17.80270000
  17.23200000  2.11726000 18.11290000
  18.41950000  0.18117700 17.59930000
  18.47610000  2.81079000 17.93410000
  19.64030000  0.81628100 17.30880000
  19.66250000  2.17604000 17.55100000
  20.79760000  0.18050100 16.89710000
  20.88000000  2.85897000 17.22490000
  21.96980000  0.81988000 16.53220000
  22.05110000  2.19963000 16.75980000
  23.13100000  0.17485200 16.10580000
  23.26530000  2.83319000 16.41910000
  24.28930000  0.81715400 15.69170000
  24.34360000  2.18409000 15.81050000
  25.49140000  0.19095700 15.46550000
  25.58740000  2.87281000 15.74430000
  26.69800000  0.84829900 15.26360000
  26.78140000  2.25379000 15.43340000
   0.23794100  4.95223000 15.17370000
   0.21128100  6.34407000 15.03020000
   1.42338000  4.31979000 15.40450000
   1.44378000  6.97817000 15.08580000
   2.66895000  4.97132000 15.47510000
   2.67736000  6.34477000 15.34210000
   3.82502000  4.29998000 15.85840000
   3.94081000  6.96284000 15.46420000
   5.04405000  4.96826000 16.10620000
   5.13474000  6.29879000 15.89110000
   6.21792000  4.27093000 16.47740000
   6.31548000  6.97100000 16.21150000
   7.49271000  4.88886000 16.53510000
   7.53740000  6.29351000 16.50210000
   8.66079000  4.23604000 16.94050000
   8.72138000  6.92903000 16.81610000
   9.88712000  4.88149000 17.21230000
   9.96168000  6.26886000 17.12800000
  11.00710000  4.23035000 17.61690000
  11.09900000  6.92844000 17.55250000
  12.28410000  4.82256000 17.71640000
  12.28650000  6.18484000 17.66380000
  13.52330000  4.12474000 18.07430000
  13.52980000  6.84252000 17.83730000
  14.77070000  4.79073000 18.00890000
  14.72600000  6.15930000 17.96520000
  16.01490000  4.14482000 18.23570000
  15.97730000  6.86049000 17.94680000
  17.25110000  4.79837000 18.13860000
  17.21740000  6.15574000 17.88980000
  18.51590000  4.17097000 18.05640000
  18.41840000  6.88638000 17.59530000
  19.71770000  4.90381000 17.66450000
  19.68430000  6.24171000 17.57500000
  20.86400000  4.21846000 17.24170000
  20.86850000  6.92414000 17.22760000
  22.08970000  4.89795000 16.88490000
  22.05080000  6.28324000 16.79190000
  23.28620000  4.20406000 16.42550000
  23.16720000  6.90833000 16.25020000
  24.41200000  4.88683000 15.96930000
  24.35770000  6.27607000 15.85100000
  25.65420000  4.23662000 15.79450000
  25.52300000  6.92725000 15.47790000
  26.78280000  4.98475000 15.48630000
  26.78250000  6.31144000 15.33550000
 


--------------------------------------------------------------------------------------------------------


 k-point     1 :   0.0000 0.0000 0.0000  plane waves:  193173
 k-point     2 :   0.0000 0.2500 0.0000  plane waves:  193166
 k-point     3 :   0.0000 0.5000 0.0000  plane waves:  193226

 maximum and minimum number of plane-waves per node :    193226   193166

 maximum number of plane-waves:    193226
 maximum index in each direction: 
   IXMAX=   51   IYMAX=   14   IZMAX=   61
   IXMIN=  -51   IYMIN=  -15   IZMIN=  -61


 serial   3D FFT for wavefunctions
 parallel 3D FFT for charge:
    minimum data exchange during FFTs selected (reduces bandwidth)


 total amount of memory used by VASP MPI-rank0  2294508. kBytes
=======================================================================

   base                                    :      30000. kBytes
   nonlr-proj                              :      15074. kBytes
   fftplans                                :     436558. kBytes
   grid                                    :     732614. kBytes
   one-center                              :        282. kBytes
   wavefun                                 :    1079980. kBytes
 
     INWAV:  cpu time      0.0000: real time      0.0000
 Broyden mixing: mesh for mixing (old mesh)
   NGX =103   NGY = 29   NGZ =123
  (NGX  =420   NGY  =120   NGZ  =500)
  gives a total of 367401 points

 initial charge density was supplied:
 charge density of overlapping atoms calculated
 number of electron     368.0000000 magnetization 
 keeping initial charge density in first step


--------------------------------------------------------------------------------------------------------


 Maximum index for non-local projection operator          1873
 Maximum index for augmentation-charges          2384 (set IRDMAX)


--------------------------------------------------------------------------------------------------------


 First call to EWALD:  gamma=   0.090
 Maximum number of real-space cells   2x   6x   2
 Maximum number of reciprocal cells   4x   1x   4

    FEWALD:  cpu time      0.1608: real time      0.1609


--------------------------------------- Ionic step        1  -------------------------------------------




--------------------------------------- Iteration      1(   1)  ---------------------------------------


    POTLOK:  cpu time      0.4221: real time      0.4434
    SETDIJ:  cpu time      0.0417: real time      0.0417
     EDDAV:  cpu time     11.0566: real time     11.0693
       DOS:  cpu time      0.0008: real time      0.0008
    --------------------------------------------
      LOOP:  cpu time     11.5212: real time     11.5552

 eigenvalue-minimisations  :  1712
 total energy-change (2. order) : 0.3721259E+04  (-0.1190403E+05)
 number of electron     368.0000000 magnetization 
 augmentation part      368.0000000 magnetization 

 Free energy of the ion-electron system (eV)
  ---------------------------------------------------
  alpha Z        PSCENC =        91.34886789
  Ewald energy   TEWEN  =    120449.95222525
  -Hartree energ DENC   =   -129755.82250725
  -exchange      EXHF   =         0.00000000
  -V(xc)+E(xc)   XCENC  =      1222.88283601
  PAW double counting   =      9984.02826696   -10036.41360137
  entropy T*S    EENTRO =        -0.89036897
  eigenvalues    EBANDS =     -1771.48101601
  atomic energy  EATOM  =     13537.65479391
  Solvation  Ediel_sol  =         0.00000000
  ---------------------------------------------------
  free energy    TOTEN  =      3721.25949642 eV

  energy without entropy =     3722.14986539  energy(sigma->0) =     3721.70468090


--------------------------------------------------------------------------------------------------------




--------------------------------------- Iteration      1(   2)  ---------------------------------------


     EDDAV:  cpu time     13.1168: real time     13.1212
       DOS:  cpu time      0.0007: real time      0.0007
    --------------------------------------------
      LOOP:  cpu time     13.1175: real time     13.1219

 eigenvalue-minimisations  :  2144
 total energy-change (2. order) :-0.3534916E+04  (-0.3271615E+04)
 number of electron     368.0000000 magnetization 
 augmentation part      368.0000000 magnetization 

 Free energy of the ion-electron system (eV)
  ---------------------------------------------------
  alpha Z        PSCENC =        91.34886789
  Ewald energy   TEWEN  =    120449.95222525
  -Hartree energ DENC   =   -129755.82250725
  -exchange      EXHF   =         0.00000000
  -V(xc)+E(xc)   XCENC  =      1222.88283601
  PAW double counting   =      9984.02826696   -10036.41360137
  entropy T*S    EENTRO =        -0.22813296
  eigenvalues    EBANDS =     -5307.05904741
  atomic energy  EATOM  =     13537.65479391
  Solvation  Ediel_sol  =         0.00000000
  ---------------------------------------------------
  free energy    TOTEN  =       186.34370103 eV

  energy without entropy =      186.57183399  energy(sigma->0) =      186.45776751


--------------------------------------------------------------------------------------------------------




--------------------------------------- Iteration      1(   3)  ---------------------------------------


     EDDAV:  cpu time     11.3440: real time     11.3478
       DOS:  cpu time      0.0007: real time      0.0007
    --------------------------------------------
      LOOP:  cpu time     11.3447: real time     11.3485

 eigenvalue-minimisations  :  1800
 total energy-change (2. order) :-0.1021315E+04  (-0.9971505E+03)
 number of electron     368.0000000 magnetization 
 augmentation part      368.0000000 magnetization 

 Free energy of the ion-electron system (eV)
  ---------------------------------------------------
  alpha Z        PSCENC =        91.34886789
  Ewald energy   TEWEN  =    120449.95222525
  -Hartree energ DENC   =   -129755.82250725
  -exchange      EXHF   =         0.00000000
  -V(xc)+E(xc)   XCENC  =      1222.88283601
  PAW double counting   =      9984.02826696   -10036.41360137
  entropy T*S    EENTRO =        -0.05502067
  eigenvalues    EBANDS =     -6328.54696079
  atomic energy  EATOM  =     13537.65479391
  Solvation  Ediel_sol  =         0.00000000
  ---------------------------------------------------
  free energy    TOTEN  =      -834.97110006 eV

  energy without entropy =     -834.91607939  energy(sigma->0) =     -834.94358972


--------------------------------------------------------------------------------------------------------




--------------------------------------- Iteration      1(   4)  ---------------------------------------


     EDDAV:  cpu time     10.8889: real time     10.8927
       DOS:  cpu time      0.0007: real time      0.0007
    --------------------------------------------
      LOOP:  cpu time     10.8896: real time     10.8933

 eigenvalue-minimisations  :  1712
 total energy-change (2. order) :-0.6203292E+02  (-0.6100844E+02)
 number of electron     368.0000000 magnetization 
 augmentation part      368.0000000 magnetization 

 Free energy of the ion-electron system (eV)
  ---------------------------------------------------
  alpha Z        PSCENC =        91.34886789
  Ewald energy   TEWEN  =    120449.95222525
  -Hartree energ DENC   =   -129755.82250725
  -exchange      EXHF   =         0.00000000
  -V(xc)+E(xc)   XCENC  =      1222.88283601
  PAW double counting   =      9984.02826696   -10036.41360137
  entropy T*S    EENTRO =        -0.06852732
  eigenvalues    EBANDS =     -6390.56636956
  atomic energy  EATOM  =     13537.65479391
  Solvation  Ediel_sol  =         0.00000000
  ---------------------------------------------------
  free energy    TOTEN  =      -897.00401548 eV

  energy without entropy =     -896.93548816  energy(sigma->0) =     -896.96975182


--------------------------------------------------------------------------------------------------------




--------------------------------------- Iteration      1(   5)  ---------------------------------------


     EDDAV:  cpu time     11.3158: real time     11.3198
       DOS:  cpu time      0.0007: real time      0.0007
    CHARGE:  cpu time      1.2081: real time      1.2093
    MIXING:  cpu time      0.2747: real time      0.2754
    --------------------------------------------
      LOOP:  cpu time     12.7993: real time     12.8051

 eigenvalue-minimisations  :  1800
 total energy-change (2. order) :-0.1531076E+01  (-0.1511569E+01)
 number of electron     367.9999996 magnetization 
 augmentation part       10.2099238 magnetization 

 Broyden mixing:
  rms(total) = 0.45819E+01    rms(broyden)= 0.45813E+01
  rms(prec ) = 0.47000E+01
  weight for this iteration     100.00

 Free energy of the ion-electron system (eV)
  ---------------------------------------------------
  alpha Z        PSCENC =        91.34886789
  Ewald energy   TEWEN  =    120449.95222525
  -Hartree energ DENC   =   -129755.82250725
  -exchange      EXHF   =         0.00000000
  -V(xc)+E(xc)   XCENC  =      1222.88283601
  PAW double counting   =      9984.02826696   -10036.41360137
  entropy T*S    EENTRO =        -0.06891050
  eigenvalues    EBANDS =     -6392.09706234
  atomic energy  EATOM  =     13537.65479391
  Solvation  Ediel_sol  =         0.00000000
  ---------------------------------------------------
  free energy    TOTEN  =      -898.53509143 eV

  energy without entropy =     -898.46618093  energy(sigma->0) =     -898.50063618


--------------------------------------------------------------------------------------------------------




--------------------------------------- Iteration      1(   6)  ---------------------------------------


    POTLOK:  cpu time      0.3212: real time      0.3212
    SETDIJ:  cpu time      0.0403: real time      0.0403
     EDDAV:  cpu time     10.2724: real time     10.2759
       DOS:  cpu time      0.0007: real time      0.0007
    CHARGE:  cpu time      1.1564: real time      1.1603
    MIXING:  cpu time      0.2798: real time      0.2798
    --------------------------------------------
      LOOP:  cpu time     12.0709: real time     12.0783

 eigenvalue-minimisations  :  1584
 total energy-change (2. order) : 0.5032637E+02  (-0.4806902E+01)
 number of electron     367.9999995 magnetization 
 augmentation part        9.7803031 magnetization 

 Broyden mixing:
  rms(total) = 0.26915E+01    rms(broyden)= 0.26914E+01
  rms(prec ) = 0.27500E+01
  weight for this iteration     100.00

 eigenvalues of (default mixing * dielectric matrix)
  average eigenvalue GAMMA=   2.1801
  2.1801

 Free energy of the ion-electron system (eV)
  ---------------------------------------------------
  alpha Z        PSCENC =        91.34886789
  Ewald energy   TEWEN  =    120449.95222525
  -Hartree energ DENC   =   -130331.54205286
  -exchange      EXHF   =         0.00000000
  -V(xc)+E(xc)   XCENC  =      1246.35609451
  PAW double counting   =     19028.40668494   -19088.49938621
  entropy T*S    EENTRO =        -0.08516536
  eigenvalues    EBANDS =     -5781.80078197
  atomic energy  EATOM  =     13537.65479391
  Solvation  Ediel_sol  =         0.00000000
  ---------------------------------------------------
  free energy    TOTEN  =      -848.20871991 eV

  energy without entropy =     -848.12355455  energy(sigma->0) =     -848.16613723


--------------------------------------------------------------------------------------------------------




--------------------------------------- Iteration      1(   7)  ---------------------------------------


    POTLOK:  cpu time      0.3217: real time      0.3218
    SETDIJ:  cpu time      0.0405: real time      0.0405
     EDDAV:  cpu time     10.0999: real time     10.1031
       DOS:  cpu time      0.0007: real time      0.0007
    CHARGE:  cpu time      1.1558: real time      1.1564
    MIXING:  cpu time      0.2785: real time      0.2802
    --------------------------------------------
      LOOP:  cpu time     11.8971: real time     11.9027

 eigenvalue-minimisations  :  1552
 total energy-change (2. order) : 0.1880871E+02  (-0.6570876E+01)
 number of electron     367.9999995 magnetization 
 augmentation part        9.2221978 magnetization 

 Broyden mixing:
  rms(total) = 0.73733E+00    rms(broyden)= 0.73705E+00
  rms(prec ) = 0.74710E+00
  weight for this iteration     100.00

 eigenvalues of (default mixing * dielectric matrix)
  average eigenvalue GAMMA=   2.1791
  2.1791  2.1791

 Free energy of the ion-electron system (eV)
  ---------------------------------------------------
  alpha Z        PSCENC =        91.34886789
  Ewald energy   TEWEN  =    120449.95222525
  -Hartree energ DENC   =   -131103.02127694
  -exchange      EXHF   =         0.00000000
  -V(xc)+E(xc)   XCENC  =      1277.62512914
  PAW double counting   =     36849.74720454   -36916.82205834
  entropy T*S    EENTRO =        -0.09151129
  eigenvalues    EBANDS =     -5015.79338855
  atomic energy  EATOM  =     13537.65479391
  Solvation  Ediel_sol  =         0.00000000
  ---------------------------------------------------
  free energy    TOTEN  =      -829.40001439 eV

  energy without entropy =     -829.30850310  energy(sigma->0) =     -829.35425875


--------------------------------------------------------------------------------------------------------




--------------------------------------- Iteration      1(   8)  ---------------------------------------


    POTLOK:  cpu time      0.3212: real time      0.3212
    SETDIJ:  cpu time      0.0404: real time      0.0404
     EDDAV:  cpu time     10.3054: real time     10.3089
       DOS:  cpu time      0.0008: real time      0.0008
    CHARGE:  cpu time      1.1527: real time      1.1556
    MIXING:  cpu time      0.2837: real time      0.2836
    --------------------------------------------
      LOOP:  cpu time     12.1042: real time     12.1105

 eigenvalue-minimisations  :  1592
 total energy-change (2. order) : 0.2963236E+00  (-0.2296652E+00)
 number of electron     367.9999995 magnetization 
 augmentation part        9.2041213 magnetization 

 Broyden mixing:
  rms(total) = 0.10173E+00    rms(broyden)= 0.10170E+00
  rms(prec ) = 0.12412E+00
  weight for this iteration     100.00

 eigenvalues of (default mixing * dielectric matrix)
  average eigenvalue GAMMA=   1.8390
  1.1215  2.4117  1.9838

 Free energy of the ion-electron system (eV)
  ---------------------------------------------------
  alpha Z        PSCENC =        91.34886789
  Ewald energy   TEWEN  =    120449.95222525
  -Hartree energ DENC   =   -131200.44176894
  -exchange      EXHF   =         0.00000000
  -V(xc)+E(xc)   XCENC  =      1277.55824840
  PAW double counting   =     41142.67104704   -41207.14748779
  entropy T*S    EENTRO =        -0.09197231
  eigenvalues    EBANDS =     -4920.60764426
  atomic energy  EATOM  =     13537.65479391
  Solvation  Ediel_sol  =         0.00000000
  ---------------------------------------------------
  free energy    TOTEN  =      -829.10369081 eV

  energy without entropy =     -829.01171850  energy(sigma->0) =     -829.05770466


--------------------------------------------------------------------------------------------------------




--------------------------------------- Iteration      1(   9)  ---------------------------------------


    POTLOK:  cpu time      0.3205: real time      0.3205
    SETDIJ:  cpu time      0.0404: real time      0.0404
     EDDAV:  cpu time     10.7162: real time     10.7199
       DOS:  cpu time      0.0008: real time      0.0008
    CHARGE:  cpu time      1.1543: real time      1.1558
    MIXING:  cpu time      0.2862: real time      0.2868
    --------------------------------------------
      LOOP:  cpu time     12.5184: real time     12.5242

 eigenvalue-minimisations  :  1672
 total energy-change (2. order) : 0.1055227E+00  (-0.2265529E-01)
 number of electron     367.9999995 magnetization 
 augmentation part        9.1832671 magnetization 

 Broyden mixing:
  rms(total) = 0.56591E-01    rms(broyden)= 0.56583E-01
  rms(prec ) = 0.79139E-01
  weight for this iteration     100.00

 eigenvalues of (default mixing * dielectric matrix)
  average eigenvalue GAMMA=   1.6689
  2.2012  2.2012  0.9587  1.3145

 Free energy of the ion-electron system (eV)
  ---------------------------------------------------
  alpha Z        PSCENC =        91.34886789
  Ewald energy   TEWEN  =    120449.95222525
  -Hartree energ DENC   =   -131267.20064276
  -exchange      EXHF   =         0.00000000
  -V(xc)+E(xc)   XCENC  =      1278.80763727
  PAW double counting   =     41726.85197542   -41791.29826153
  entropy T*S    EENTRO =        -0.09019252
  eigenvalues    EBANDS =     -4855.02457105
  atomic energy  EATOM  =     13537.65479391
  Solvation  Ediel_sol  =         0.00000000
  ---------------------------------------------------
  free energy    TOTEN  =      -828.99816812 eV

  energy without entropy =     -828.90797560  energy(sigma->0) =     -828.95307186


--------------------------------------------------------------------------------------------------------




--------------------------------------- Iteration      1(  10)  ---------------------------------------


    POTLOK:  cpu time      0.3193: real time      0.3193
    SETDIJ:  cpu time      0.0403: real time      0.0403
     EDDAV:  cpu time     11.0199: real time     11.0236
       DOS:  cpu time      0.0007: real time      0.0007
    CHARGE:  cpu time      1.1564: real time      1.1567
    MIXING:  cpu time      0.2913: real time      0.2927
    --------------------------------------------
      LOOP:  cpu time     12.8281: real time     12.8334

 eigenvalue-minimisations  :  1736
 total energy-change (2. order) : 0.4026269E-01  (-0.4299063E-02)
 number of electron     367.9999995 magnetization 
 augmentation part        9.1730283 magnetization 

 Broyden mixing:
  rms(total) = 0.38322E-01    rms(broyden)= 0.38319E-01
  rms(prec ) = 0.58533E-01
  weight for this iteration     100.00

 eigenvalues of (default mixing * dielectric matrix)
  average eigenvalue GAMMA=   1.6935
  2.4180  2.4180  1.6112  1.1808  0.8396

 Free energy of the ion-electron system (eV)
  ---------------------------------------------------
  alpha Z        PSCENC =        91.34886789
  Ewald energy   TEWEN  =    120449.95222525
  -Hartree energ DENC   =   -131315.23303580
  -exchange      EXHF   =         0.00000000
  -V(xc)+E(xc)   XCENC  =      1279.21007491
  PAW double counting   =     41558.50114727   -41622.85459619
  entropy T*S    EENTRO =        -0.09051033
  eigenvalues    EBANDS =     -4807.44687234
  atomic energy  EATOM  =     13537.65479391
  Solvation  Ediel_sol  =         0.00000000
  ---------------------------------------------------
  free energy    TOTEN  =      -828.95790543 eV

  energy without entropy =     -828.86739510  energy(sigma->0) =     -828.91265027


--------------------------------------------------------------------------------------------------------




--------------------------------------- Iteration      1(  11)  ---------------------------------------


    POTLOK:  cpu time      0.3203: real time      0.3203
    SETDIJ:  cpu time      0.0401: real time      0.0401
     EDDAV:  cpu time     10.1344: real time     10.1379
       DOS:  cpu time      0.0008: real time      0.0008
    CHARGE:  cpu time      1.1652: real time      1.1671
    MIXING:  cpu time      0.3001: real time      0.3004
    --------------------------------------------
      LOOP:  cpu time     11.9608: real time     11.9666

 eigenvalue-minimisations  :  1560
 total energy-change (2. order) : 0.3433710E-01  (-0.2322077E-02)
 number of electron     367.9999995 magnetization 
 augmentation part        9.1683556 magnetization 

 Broyden mixing:
  rms(total) = 0.23707E-01    rms(broyden)= 0.23705E-01
  rms(prec ) = 0.38405E-01
  weight for this iteration     100.00

 eigenvalues of (default mixing * dielectric matrix)
  average eigenvalue GAMMA=   1.7734
  3.0591  2.5245  1.9219  0.9197  1.1077  1.1077

 Free energy of the ion-electron system (eV)
  ---------------------------------------------------
  alpha Z        PSCENC =        91.34886789
  Ewald energy   TEWEN  =    120449.95222525
  -Hartree energ DENC   =   -131383.09712186
  -exchange      EXHF   =         0.00000000
  -V(xc)+E(xc)   XCENC  =      1279.78134604
  PAW double counting   =     41469.28357373   -41533.51687571
  entropy T*S    EENTRO =        -0.09080055
  eigenvalues    EBANDS =     -4740.23957702
  atomic energy  EATOM  =     13537.65479391
  Solvation  Ediel_sol  =         0.00000000
  ---------------------------------------------------
  free energy    TOTEN  =      -828.92356833 eV

  energy without entropy =     -828.83276778  energy(sigma->0) =     -828.87816806


--------------------------------------------------------------------------------------------------------




--------------------------------------- Iteration      1(  12)  ---------------------------------------


    POTLOK:  cpu time      0.3203: real time      0.3203
    SETDIJ:  cpu time      0.0401: real time      0.0401
     EDDAV:  cpu time     10.0829: real time     10.0862
       DOS:  cpu time      0.0007: real time      0.0007
    CHARGE:  cpu time      1.1560: real time      1.1563
    MIXING:  cpu time      0.3071: real time      0.3070
    --------------------------------------------
      LOOP:  cpu time     11.9072: real time     11.9106

 eigenvalue-minimisations  :  1552
 total energy-change (2. order) : 0.6234019E-02  (-0.2410908E-02)
 number of electron     367.9999995 magnetization 
 augmentation part        9.1613386 magnetization 

 Broyden mixing:
  rms(total) = 0.15347E-01    rms(broyden)= 0.15343E-01
  rms(prec ) = 0.23574E-01
  weight for this iteration     100.00

 eigenvalues of (default mixing * dielectric matrix)
  average eigenvalue GAMMA=   2.0144
  4.6406  2.2761  2.2761  1.8586  1.0586  0.9952  0.9952

 Free energy of the ion-electron system (eV)
  ---------------------------------------------------
  alpha Z        PSCENC =        91.34886789
  Ewald energy   TEWEN  =    120449.95222525
  -Hartree energ DENC   =   -131451.39279787
  -exchange      EXHF   =         0.00000000
  -V(xc)+E(xc)   XCENC  =      1280.41600678
  PAW double counting   =     41500.09926650   -41564.30486597
  entropy T*S    EENTRO =        -0.09046238
  eigenvalues    EBANDS =     -4672.60036842
  atomic energy  EATOM  =     13537.65479391
  Solvation  Ediel_sol  =         0.00000000
  ---------------------------------------------------
  free energy    TOTEN  =      -828.91733431 eV

  energy without entropy =     -828.82687193  energy(sigma->0) =     -828.87210312


--------------------------------------------------------------------------------------------------------




--------------------------------------- Iteration      1(  13)  ---------------------------------------


    POTLOK:  cpu time      0.3201: real time      0.3202
    SETDIJ:  cpu time      0.0404: real time      0.0404
     EDDAV:  cpu time     10.0034: real time     10.0065
       DOS:  cpu time      0.0007: real time      0.0007
    CHARGE:  cpu time      1.1561: real time      1.1570
    MIXING:  cpu time      0.3121: real time      0.3141
    --------------------------------------------
      LOOP:  cpu time     11.8328: real time     11.8389

 eigenvalue-minimisations  :  1536
 total energy-change (2. order) :-0.1137319E-01  (-0.8865388E-03)
 number of electron     367.9999995 magnetization 
 augmentation part        9.1580873 magnetization 

 Broyden mixing:
  rms(total) = 0.83181E-02    rms(broyden)= 0.83157E-02
  rms(prec ) = 0.12285E-01
  weight for this iteration     100.00

 eigenvalues of (default mixing * dielectric matrix)
  average eigenvalue GAMMA=   2.0478
  5.4219  2.5108  2.1272  2.1272  1.1798  1.1798  0.9179  0.9179

 Free energy of the ion-electron system (eV)
  ---------------------------------------------------
  alpha Z        PSCENC =        91.34886789
  Ewald energy   TEWEN  =    120449.95222525
  -Hartree energ DENC   =   -131502.58738262
  -exchange      EXHF   =         0.00000000
  -V(xc)+E(xc)   XCENC  =      1280.65229585
  PAW double counting   =     41474.02026357   -41538.23135162
  entropy T*S    EENTRO =        -0.09079594
  eigenvalues    EBANDS =     -4621.64762379
  atomic energy  EATOM  =     13537.65479391
  Solvation  Ediel_sol  =         0.00000000
  ---------------------------------------------------
  free energy    TOTEN  =      -828.92870750 eV

  energy without entropy =     -828.83791156  energy(sigma->0) =     -828.88330953


--------------------------------------------------------------------------------------------------------




--------------------------------------- Iteration      1(  14)  ---------------------------------------


    POTLOK:  cpu time      0.3219: real time      0.3219
    SETDIJ:  cpu time      0.0404: real time      0.0403
     EDDAV:  cpu time     10.3350: real time     10.3384
       DOS:  cpu time      0.0007: real time      0.0007
    CHARGE:  cpu time      1.1533: real time      1.1558
    MIXING:  cpu time      0.3214: real time      0.3214
    --------------------------------------------
      LOOP:  cpu time     12.1726: real time     12.1785

 eigenvalue-minimisations  :  1600
 total energy-change (2. order) :-0.1622494E-01  (-0.1041693E-03)
 number of electron     367.9999995 magnetization 
 augmentation part        9.1576887 magnetization 

 Broyden mixing:
  rms(total) = 0.57489E-02    rms(broyden)= 0.57486E-02
  rms(prec ) = 0.82663E-02
  weight for this iteration     100.00

 eigenvalues of (default mixing * dielectric matrix)
  average eigenvalue GAMMA=   2.1572
  6.2539  2.7044  2.7044  1.7748  1.7464  1.2111  1.2111  0.9041  0.9041

 Free energy of the ion-electron system (eV)
  ---------------------------------------------------
  alpha Z        PSCENC =        91.34886789
  Ewald energy   TEWEN  =    120449.95222525
  -Hartree energ DENC   =   -131517.00664812
  -exchange      EXHF   =         0.00000000
  -V(xc)+E(xc)   XCENC  =      1280.63399067
  PAW double counting   =     41450.09511518   -41514.30769827
  entropy T*S    EENTRO =        -0.09058696
  eigenvalues    EBANDS =     -4607.22499198
  atomic energy  EATOM  =     13537.65479391
  Solvation  Ediel_sol  =         0.00000000
  ---------------------------------------------------
  free energy    TOTEN  =      -828.94493244 eV

  energy without entropy =     -828.85434548  energy(sigma->0) =     -828.89963896


--------------------------------------------------------------------------------------------------------




--------------------------------------- Iteration      1(  15)  ---------------------------------------


    POTLOK:  cpu time      0.3210: real time      0.3211
    SETDIJ:  cpu time      0.0401: real time      0.0401
     EDDAV:  cpu time     10.1625: real time     10.1658
       DOS:  cpu time      0.0007: real time      0.0007
    CHARGE:  cpu time      1.1561: real time      1.1564
    MIXING:  cpu time      0.3311: real time      0.3311
    --------------------------------------------
      LOOP:  cpu time     12.0116: real time     12.0153

 eigenvalue-minimisations  :  1568
 total energy-change (2. order) :-0.2101978E-01  (-0.1753313E-03)
 number of electron     367.9999995 magnetization 
 augmentation part        9.1569912 magnetization 

 Broyden mixing:
  rms(total) = 0.31803E-02    rms(broyden)= 0.31800E-02
  rms(prec ) = 0.44733E-02
  weight for this iteration     100.00

 eigenvalues of (default mixing * dielectric matrix)
  average eigenvalue GAMMA=   2.2362
  7.1934  3.5077  2.2207  2.2207  1.8452  1.2508  1.2508  1.0646  0.9040  0.9040

 Free energy of the ion-electron system (eV)
  ---------------------------------------------------
  alpha Z        PSCENC =        91.34886789
  Ewald energy   TEWEN  =    120449.95222525
  -Hartree energ DENC   =   -131529.38892365
  -exchange      EXHF   =         0.00000000
  -V(xc)+E(xc)   XCENC  =      1280.63990093
  PAW double counting   =     41473.01147648   -41537.22961027
  entropy T*S    EENTRO =        -0.09065066
  eigenvalues    EBANDS =     -4594.86403209
  atomic energy  EATOM  =     13537.65479391
  Solvation  Ediel_sol  =         0.00000000
  ---------------------------------------------------
  free energy    TOTEN  =      -828.96595222 eV

  energy without entropy =     -828.87530156  energy(sigma->0) =     -828.92062689


--------------------------------------------------------------------------------------------------------




--------------------------------------- Iteration      1(  16)  ---------------------------------------


    POTLOK:  cpu time      0.3196: real time      0.3196
    SETDIJ:  cpu time      0.0404: real time      0.0404
     EDDAV:  cpu time     10.4186: real time     10.4221
       DOS:  cpu time      0.0008: real time      0.0008
    CHARGE:  cpu time      1.1670: real time      1.1688
    MIXING:  cpu time      0.3407: real time      0.3415
    --------------------------------------------
      LOOP:  cpu time     12.2870: real time     12.2932

 eigenvalue-minimisations  :  1616
 total energy-change (2. order) :-0.1032608E-01  (-0.6319936E-04)
 number of electron     367.9999995 magnetization 
 augmentation part        9.1569794 magnetization 

 Broyden mixing:
  rms(total) = 0.22411E-02    rms(broyden)= 0.22410E-02
  rms(prec ) = 0.28452E-02
  weight for this iteration     100.00

 eigenvalues of (default mixing * dielectric matrix)
  average eigenvalue GAMMA=   2.2592
  7.6474  3.8599  2.3837  2.3837  1.7640  1.4788  1.4788  1.1009  0.9246  0.9246
  0.9049

 Free energy of the ion-electron system (eV)
  ---------------------------------------------------
  alpha Z        PSCENC =        91.34886789
  Ewald energy   TEWEN  =    120449.95222525
  -Hartree energ DENC   =   -131533.77860677
  -exchange      EXHF   =         0.00000000
  -V(xc)+E(xc)   XCENC  =      1280.60981187
  PAW double counting   =     41455.96768866   -41520.18478745
  entropy T*S    EENTRO =        -0.09064130
  eigenvalues    EBANDS =     -4590.45563037
  atomic energy  EATOM  =     13537.65479391
  Solvation  Ediel_sol  =         0.00000000
  ---------------------------------------------------
  free energy    TOTEN  =      -828.97627830 eV

  energy without entropy =     -828.88563700  energy(sigma->0) =     -828.93095765


--------------------------------------------------------------------------------------------------------




--------------------------------------- Iteration      1(  17)  ---------------------------------------


    POTLOK:  cpu time      0.3207: real time      0.3207
    SETDIJ:  cpu time      0.0404: real time      0.0404
     EDDAV:  cpu time     10.2922: real time     10.2978
       DOS:  cpu time      0.0007: real time      0.0007
    CHARGE:  cpu time      1.1543: real time      1.1553
    MIXING:  cpu time      0.3472: real time      0.3500
    --------------------------------------------
      LOOP:  cpu time     12.1555: real time     12.1649

 eigenvalue-minimisations  :  1592
 total energy-change (2. order) :-0.5082446E-02  (-0.2804583E-04)
 number of electron     367.9999995 magnetization 
 augmentation part        9.1569383 magnetization 

 Broyden mixing:
  rms(total) = 0.11349E-02    rms(broyden)= 0.11349E-02
  rms(prec ) = 0.15309E-02
  weight for this iteration     100.00

 eigenvalues of (default mixing * dielectric matrix)
  average eigenvalue GAMMA=   2.3274
  8.3940  4.5025  2.5175  2.2091  2.2091  1.4630  1.4630  1.2070  1.2070  0.9055
  0.9055  0.9459

 Free energy of the ion-electron system (eV)
  ---------------------------------------------------
  alpha Z        PSCENC =        91.34886789
  Ewald energy   TEWEN  =    120449.95222525
  -Hartree energ DENC   =   -131535.75667828
  -exchange      EXHF   =         0.00000000
  -V(xc)+E(xc)   XCENC  =      1280.60654237
  PAW double counting   =     41460.95869715   -41525.17114111
  entropy T*S    EENTRO =        -0.09063450
  eigenvalues    EBANDS =     -4588.48403341
  atomic energy  EATOM  =     13537.65479391
  Solvation  Ediel_sol  =         0.00000000
  ---------------------------------------------------
  free energy    TOTEN  =      -828.98136075 eV

  energy without entropy =     -828.89072624  energy(sigma->0) =     -828.93604350


--------------------------------------------------------------------------------------------------------




--------------------------------------- Iteration      1(  18)  ---------------------------------------


    POTLOK:  cpu time      0.3203: real time      0.3204
    SETDIJ:  cpu time      0.0401: real time      0.0401
     EDDAV:  cpu time     10.4064: real time     10.4100
       DOS:  cpu time      0.0007: real time      0.0007
    CHARGE:  cpu time      1.1555: real time      1.1572
    MIXING:  cpu time      0.3612: real time      0.3613
    --------------------------------------------
      LOOP:  cpu time     12.2843: real time     12.2898

 eigenvalue-minimisations  :  1616
 total energy-change (2. order) :-0.2543936E-02  (-0.1167948E-04)
 number of electron     367.9999995 magnetization 
 augmentation part        9.1567779 magnetization 

 Broyden mixing:
  rms(total) = 0.69652E-03    rms(broyden)= 0.69644E-03
  rms(prec ) = 0.90294E-03
  weight for this iteration     100.00

 eigenvalues of (default mixing * dielectric matrix)
  average eigenvalue GAMMA=   2.3728
  8.8094  5.0001  2.8564  2.5573  1.8112  1.8112  1.4563  1.4563  1.1502  1.1502
  0.9041  0.9041  0.9796

 Free energy of the ion-electron system (eV)
  ---------------------------------------------------
  alpha Z        PSCENC =        91.34886789
  Ewald energy   TEWEN  =    120449.95222525
  -Hartree energ DENC   =   -131537.06064428
  -exchange      EXHF   =         0.00000000
  -V(xc)+E(xc)   XCENC  =      1280.61119531
  PAW double counting   =     41464.28796599   -41528.50116770
  entropy T*S    EENTRO =        -0.09066239
  eigenvalues    EBANDS =     -4587.18647867
  atomic energy  EATOM  =     13537.65479391
  Solvation  Ediel_sol  =         0.00000000
  ---------------------------------------------------
  free energy    TOTEN  =      -828.98390468 eV

  energy without entropy =     -828.89324230  energy(sigma->0) =     -828.93857349


--------------------------------------------------------------------------------------------------------




--------------------------------------- Iteration      1(  19)  ---------------------------------------


    POTLOK:  cpu time      0.3207: real time      0.3208
    SETDIJ:  cpu time      0.0402: real time      0.0403
     EDDAV:  cpu time      9.3809: real time      9.3843
       DOS:  cpu time      0.0007: real time      0.0007
    CHARGE:  cpu time      1.1533: real time      1.1558
    MIXING:  cpu time      0.3739: real time      0.3738
    --------------------------------------------
      LOOP:  cpu time     11.2697: real time     11.2758

 eigenvalue-minimisations  :  1408
 total energy-change (2. order) :-0.1237105E-02  (-0.4677469E-05)
 number of electron     367.9999995 magnetization 
 augmentation part        9.1568380 magnetization 

 Broyden mixing:
  rms(total) = 0.40693E-03    rms(broyden)= 0.40691E-03
  rms(prec ) = 0.50618E-03
  weight for this iteration     100.00

 eigenvalues of (default mixing * dielectric matrix)
  average eigenvalue GAMMA=   2.3926
  8.9349  5.5518  3.1457  2.3891  2.3891  1.9284  1.4682  1.4682  1.2140  1.2140
  0.9060  0.9060  0.9424  1.0381

 Free energy of the ion-electron system (eV)
  ---------------------------------------------------
  alpha Z        PSCENC =        91.34886789
  Ewald energy   TEWEN  =    120449.95222525
  -Hartree energ DENC   =   -131537.35339783
  -exchange      EXHF   =         0.00000000
  -V(xc)+E(xc)   XCENC  =      1280.60595747
  PAW double counting   =     41461.35112187   -41525.56217649
  entropy T*S    EENTRO =        -0.09065198
  eigenvalues    EBANDS =     -4586.89188187
  atomic energy  EATOM  =     13537.65479391
  Solvation  Ediel_sol  =         0.00000000
  ---------------------------------------------------
  free energy    TOTEN  =      -828.98514179 eV

  energy without entropy =     -828.89448981  energy(sigma->0) =     -828.93981580


--------------------------------------------------------------------------------------------------------




--------------------------------------- Iteration      1(  20)  ---------------------------------------


    POTLOK:  cpu time      0.3208: real time      0.3208
    SETDIJ:  cpu time      0.0402: real time      0.0402
     EDDAV:  cpu time      9.2815: real time      9.2849
       DOS:  cpu time      0.0008: real time      0.0008
    CHARGE:  cpu time      1.1566: real time      1.1566
    MIXING:  cpu time      0.3832: real time      0.3844
    --------------------------------------------
      LOOP:  cpu time     11.1831: real time     11.1877

 eigenvalue-minimisations  :  1384
 total energy-change (2. order) :-0.4716521E-03  (-0.9003191E-06)
 number of electron     367.9999995 magnetization 
 augmentation part        9.1567918 magnetization 

 Broyden mixing:
  rms(total) = 0.21850E-03    rms(broyden)= 0.21848E-03
  rms(prec ) = 0.27331E-03
  weight for this iteration     100.00

 eigenvalues of (default mixing * dielectric matrix)
  average eigenvalue GAMMA=   2.4341
  9.2357  5.8987  3.7572  2.6085  2.3357  1.9912  1.5034  1.5034  1.4420  0.9053
  0.9053  1.2280  1.1541  1.0214  1.0214

 Free energy of the ion-electron system (eV)
  ---------------------------------------------------
  alpha Z        PSCENC =        91.34886789
  Ewald energy   TEWEN  =    120449.95222525
  -Hartree energ DENC   =   -131537.59745784
  -exchange      EXHF   =         0.00000000
  -V(xc)+E(xc)   XCENC  =      1280.60724765
  PAW double counting   =     41462.24000953   -41526.45213728
  entropy T*S    EENTRO =        -0.09065531
  eigenvalues    EBANDS =     -4586.64850723
  atomic energy  EATOM  =     13537.65479391
  Solvation  Ediel_sol  =         0.00000000
  ---------------------------------------------------
  free energy    TOTEN  =      -828.98561344 eV

  energy without entropy =     -828.89495813  energy(sigma->0) =     -828.94028578


--------------------------------------------------------------------------------------------------------




--------------------------------------- Iteration      1(  21)  ---------------------------------------


    POTLOK:  cpu time      0.3208: real time      0.3209
    SETDIJ:  cpu time      0.0401: real time      0.0401
     EDDAV:  cpu time      8.7893: real time      8.7924
       DOS:  cpu time      0.0008: real time      0.0008
    CHARGE:  cpu time      1.1676: real time      1.1695
    MIXING:  cpu time      0.3975: real time      0.3975
    --------------------------------------------
      LOOP:  cpu time     10.7162: real time     10.7212

 eigenvalue-minimisations  :  1288
 total energy-change (2. order) :-0.2393073E-03  (-0.3409803E-06)
 number of electron     367.9999995 magnetization 
 augmentation part        9.1567927 magnetization 

 Broyden mixing:
  rms(total) = 0.10868E-03    rms(broyden)= 0.10868E-03
  rms(prec ) = 0.13345E-03
  weight for this iteration     100.00

 eigenvalues of (default mixing * dielectric matrix)
  average eigenvalue GAMMA=   2.4138
  9.2084  6.2177  3.8959  2.6388  2.4123  2.1057  1.8877  1.5112  1.5112  1.2082
  1.2082  0.9064  0.9064  1.0667  0.9677  0.9677

 Free energy of the ion-electron system (eV)
  ---------------------------------------------------
  alpha Z        PSCENC =        91.34886789
  Ewald energy   TEWEN  =    120449.95222525
  -Hartree energ DENC   =   -131537.69303575
  -exchange      EXHF   =         0.00000000
  -V(xc)+E(xc)   XCENC  =      1280.60636783
  PAW double counting   =     41460.85450231   -41525.06698312
  entropy T*S    EENTRO =        -0.09065516
  eigenvalues    EBANDS =     -4586.55193590
  atomic energy  EATOM  =     13537.65479391
  Solvation  Ediel_sol  =         0.00000000
  ---------------------------------------------------
  free energy    TOTEN  =      -828.98585275 eV

  energy without entropy =     -828.89519759  energy(sigma->0) =     -828.94052517


[...]
   0.284E+02 -.129E+02 -.109E+03   -.289E+02 0.130E+02 0.109E+03   -.365E+00 -.136E+01 0.347E+00   -.845E-05 -.130E-05 -.860E-06
   0.148E+02 0.501E+01 -.110E+03   -.139E+02 -.541E+01 0.110E+03   0.436E+00 -.117E+01 0.205E+00   0.652E-06 -.231E-05 0.181E-06
   0.160E+02 0.827E+01 -.122E+03   -.163E+02 -.801E+01 0.122E+03   -.937E+00 -.757E-01 0.288E-01   -.685E-06 -.110E-05 0.721E-06
   0.969E+01 0.281E+02 -.168E+03   -.932E+01 -.299E+02 0.169E+03   0.476E+00 -.110E+01 -.181E+01   0.610E-05 -.384E-05 0.942E-06
   0.273E+02 -.142E+02 -.165E+03   -.285E+02 0.145E+02 0.165E+03   0.166E-01 -.823E+00 -.278E+00   0.671E-05 -.220E-05 0.110E-05
   0.172E+02 -.108E+01 -.526E+02   -.185E+02 0.395E+00 0.518E+02   0.176E-01 -.891E+00 0.205E+01   0.874E-05 -.109E-05 -.840E-06
   -.458E+01 0.926E+01 -.154E+03   0.681E+01 -.877E+01 0.154E+03   0.795E+00 0.203E+01 0.814E+00   0.112E-04 -.246E-05 0.420E-06
   0.510E+00 0.903E+01 -.129E+03   -.380E+00 -.820E+01 0.130E+03   0.591E+00 0.642E+00 -.775E+00   0.132E-04 -.268E-05 -.226E-05
   0.819E+01 -.704E+01 -.202E+03   -.936E+01 0.624E+01 0.203E+03   -.148E+01 -.793E+00 -.106E+01   0.121E-04 0.611E-07 -.202E-05
   -.835E+00 -.115E+02 -.662E+02   0.458E+00 0.120E+02 0.661E+02   0.460E+00 -.977E-01 -.260E-01   0.132E-04 -.144E-05 -.265E-05
   -.143E+02 0.941E+01 -.197E+03   0.153E+02 -.949E+01 0.197E+03   -.103E+00 0.876E-01 -.299E+00   0.122E-04 0.357E-05 -.344E-05
   0.121E+01 0.314E+01 -.234E+02   -.143E+01 -.210E+01 0.230E+02   0.860E+00 0.118E+01 0.185E+01   0.861E-05 -.191E-05 -.105E-05
   -.211E+02 -.648E+01 -.150E+03   0.214E+02 0.619E+01 0.150E+03   -.136E+00 0.594E+00 -.794E+00   0.948E-05 -.137E-05 -.466E-05
   -.857E+01 -.613E+01 -.389E+02   0.906E+01 0.526E+01 0.391E+02   -.470E+00 -.177E+01 -.139E+01   0.319E-05 0.692E-06 -.966E-06
   -.158E+02 0.125E+02 -.131E+03   0.152E+02 -.130E+02 0.131E+03   0.340E+00 -.217E+00 0.769E+00   0.625E-05 0.197E-05 -.245E-05
   0.206E+01 0.453E+01 -.508E+01   -.236E+01 -.359E+01 0.506E+01   -.926E+00 0.581E+00 0.728E+00   -.238E-05 0.174E-05 0.191E-05
   -.242E+02 -.107E+02 -.919E+02   0.249E+02 0.105E+02 0.918E+02   0.374E+00 -.103E+00 -.978E+00   -.345E-05 -.111E-05 -.314E-06
   0.144E+02 -.173E+01 0.572E+02   -.145E+02 0.324E+00 -.580E+02   0.106E+00 -.390E+00 0.213E+01   -.881E-05 0.111E-05 0.361E-05
   -.189E+02 0.132E+02 -.684E+02   0.187E+02 -.141E+02 0.688E+02   -.202E+00 -.179E+00 -.307E+00   -.798E-05 0.434E-05 0.223E-05
   0.145E+02 -.204E+01 0.649E+02   -.141E+02 0.330E+01 -.650E+02   0.392E-01 0.714E+00 0.257E+00   -.994E-05 -.418E-06 0.305E-05
   -.746E+01 -.109E+02 -.268E+02   0.717E+01 0.106E+02 0.266E+02   -.301E+00 -.443E+00 -.252E+00   -.867E-05 0.255E-05 0.310E-05
   0.208E+02 -.753E+01 0.100E+03   -.212E+02 0.708E+01 -.100E+03   -.104E+00 -.228E+00 0.837E-01   -.807E-05 0.518E-06 0.291E-05
   -.833E+01 0.839E+01 -.228E+02   0.830E+01 -.879E+01 0.235E+02   -.114E+01 0.615E+00 -.138E+01   -.676E-05 0.309E-05 0.301E-05
   0.261E+02 0.308E+01 0.158E+03   -.265E+02 -.253E+01 -.158E+03   0.381E+00 0.106E+01 0.656E+00   -.223E-05 0.296E-06 0.128E-05
   0.139E+02 -.162E+02 0.132E+03   -.139E+02 0.164E+02 -.133E+03   0.744E+00 0.458E+00 0.228E+01   -.251E-05 0.316E-05 0.195E-05
   -.762E+01 -.378E+01 0.139E+03   0.848E+01 0.347E+01 -.139E+03   0.937E+00 0.427E-01 -.133E+01   -.286E-05 0.272E-05 0.203E-05
   -.720E+01 0.280E+01 0.455E+02   0.736E+01 -.372E+01 -.445E+02   0.615E+00 0.584E+00 -.191E+01   -.175E-05 -.695E-06 0.251E-05
   -.326E+01 0.541E+02 0.177E+03   0.512E+00 -.534E+02 -.178E+03   0.230E+01 0.110E+01 0.513E+00   0.912E-05 0.554E-05 0.253E-05
   0.215E+00 -.571E+02 0.122E+03   -.478E+01 0.576E+02 -.123E+03   0.160E+00 -.262E+01 0.122E+01   0.122E-04 -.230E-05 0.310E-05
   0.260E+02 0.627E+02 0.174E+03   -.252E+02 -.629E+02 -.176E+03   -.150E+01 0.191E+01 0.160E+01   0.115E-04 0.427E-06 0.137E-05
   0.256E+02 -.586E+02 0.217E+03   -.235E+02 0.586E+02 -.218E+03   -.132E+01 -.188E+01 0.111E+01   0.974E-05 -.366E-05 0.209E-05
   0.472E+01 0.580E+01 0.857E+02   -.435E+01 -.637E+01 -.845E+02   -.101E+01 -.615E+00 -.141E+01   0.255E-05 0.268E-05 0.586E-06
   0.106E+01 -.513E+00 0.186E+03   -.931E+00 0.189E+01 -.187E+03   -.862E+00 -.567E-01 -.172E-01   0.479E-05 -.588E-06 0.353E-05
   -.311E+01 0.114E+02 0.107E+03   0.289E+01 -.111E+02 -.108E+03   -.781E+00 -.359E+00 0.821E+00   -.137E-06 -.182E-06 0.139E-05
   -.341E+01 -.131E+02 0.125E+03   0.348E+01 0.128E+02 -.125E+03   0.721E-01 -.101E+01 -.110E+01   0.179E-05 -.338E-06 0.147E-05
   0.296E+01 -.385E+00 0.296E+02   -.246E+01 -.592E+00 -.290E+02   0.435E+00 -.146E+00 0.998E-01   0.185E-05 -.251E-05 -.327E-06
   -.238E+02 0.128E+02 0.153E+03   0.245E+02 -.133E+02 -.154E+03   -.865E+00 0.650E+00 0.187E+00   0.182E-05 0.342E-05 0.148E-05
   0.479E+01 0.112E+02 0.118E+02   -.516E+01 -.125E+02 -.117E+02   0.514E+00 -.637E+00 -.238E+00   -.168E-05 0.163E-05 -.249E-05
   -.860E+01 -.132E+02 0.903E+02   0.836E+01 0.142E+02 -.910E+02   -.101E+01 0.487E+00 0.470E-01   -.169E-05 -.521E-06 -.458E-06
   0.679E+01 -.899E+01 -.142E+02   -.681E+01 0.898E+01 0.143E+02   0.430E+00 -.341E+00 0.516E+00   -.768E-05 -.217E-05 -.268E-05
   -.705E+01 0.787E+01 0.481E+02   0.765E+01 -.773E+01 -.477E+02   0.674E+00 -.258E+00 -.134E+01   -.920E-05 0.175E-05 -.358E-05
   -.818E+01 0.100E+02 0.732E+02   0.796E+01 -.951E+01 -.737E+02   -.139E+00 0.680E+00 0.124E+01   -.105E-04 -.537E-06 -.298E-05
   -.361E+01 -.308E+01 0.578E+02   0.264E+01 0.232E+01 -.581E+02   -.353E+00 -.526E+00 -.370E+00   -.103E-04 0.280E-06 -.286E-05
   -.276E+01 0.882E+00 0.218E+02   0.259E+01 -.220E+01 -.215E+02   -.261E+00 -.399E+00 0.880E+00   -.129E-04 0.515E-06 -.377E-05
   -.138E+02 0.705E+01 0.466E+02   0.151E+02 -.693E+01 -.463E+02   0.447E+00 0.696E+00 0.112E+00   -.110E-04 -.602E-06 -.367E-05
   0.137E+02 0.371E+01 0.284E+01   -.151E+02 -.280E+01 -.361E+01   -.249E-02 0.300E+00 -.192E+00   -.904E-05 0.710E-06 -.261E-05
   0.862E+00 -.903E+01 0.384E+02   -.170E+01 0.912E+01 -.391E+02   -.160E+01 -.499E+00 0.462E+00   -.812E-05 0.183E-05 -.293E-05
   0.898E+01 -.967E+01 -.703E+02   -.776E+01 0.934E+01 0.713E+02   0.188E+01 -.887E+00 -.353E+00   -.311E-05 0.153E-05 -.301E-06
   0.203E+01 -.307E+01 -.541E+02   -.173E+01 0.376E+01 0.546E+02   -.301E+00 -.536E+00 -.123E+01   0.122E-05 0.257E-05 0.237E-06
   -.126E+02 0.170E+02 -.281E+02   0.134E+02 -.182E+02 0.278E+02   -.174E+00 0.860E+00 0.131E+01   0.697E-05 0.253E-05 0.283E-06
   -.131E+01 -.117E+02 -.205E+02   0.210E+01 0.123E+02 0.205E+02   0.682E+00 0.867E+00 0.359E+00   0.762E-05 0.490E-05 0.500E-06
   0.125E+02 -.198E+02 -.118E+03   -.130E+02 0.202E+02 0.119E+03   -.512E+00 0.875E+00 -.209E+01   0.119E-04 0.131E-05 0.520E-06
   0.606E+01 -.265E+01 -.375E+02   -.717E+01 0.347E+01 0.375E+02   -.287E+00 0.811E+00 -.203E-01   0.921E-05 -.302E-07 0.289E-06
   -.239E+01 0.114E+02 -.542E+02   0.237E+01 -.121E+02 0.535E+02   -.387E+00 0.343E+00 0.205E+01   0.135E-04 0.146E-05 -.293E-06
   -.282E+01 -.625E+01 -.732E+02   0.383E+01 0.683E+01 0.737E+02   0.681E+00 0.423E+00 -.101E+01   0.112E-04 0.171E-05 -.279E-06
   -.324E+01 -.171E+02 -.153E+03   0.290E+01 0.177E+02 0.153E+03   -.985E-01 0.989E-01 -.540E+00   0.137E-04 -.165E-05 -.237E-05
   -.428E+01 0.188E+02 -.691E+02   0.414E+01 -.206E+02 0.689E+02   -.188E+00 -.872E+00 -.188E+00   0.106E-04 0.399E-05 -.144E-05
   -.172E+02 0.241E+01 -.157E+03   0.176E+02 -.251E+01 0.157E+03   -.439E-01 0.108E+01 -.317E+00   0.890E-05 0.280E-06 -.301E-05
   -.927E+01 -.628E+01 -.675E+02   0.950E+01 0.696E+01 0.674E+02   0.352E-01 0.112E+01 -.213E+00   0.869E-05 -.251E-05 -.152E-05
   -.391E+02 -.168E+02 -.188E+03   0.401E+02 0.178E+02 0.189E+03   -.801E+00 0.347E+00 -.138E+01   0.354E-05 -.174E-05 -.402E-05
   0.329E+01 0.131E+02 -.135E+02   -.380E+01 -.132E+02 0.129E+02   0.556E+00 -.555E+00 0.183E+01   0.670E-05 0.308E-06 -.910E-07
   -.175E+02 0.154E+02 -.123E+03   0.166E+02 -.171E+02 0.123E+03   -.488E+00 -.120E+01 0.372E+00   0.409E-07 0.397E-05 -.160E-05
   -.177E+02 -.155E+02 -.106E+03   0.171E+02 0.171E+02 0.107E+03   0.244E+00 0.221E+00 -.760E+00   -.236E-05 -.587E-05 -.313E-07
   -.188E+02 -.118E+02 -.499E+02   0.197E+02 0.127E+02 0.496E+02   0.110E+01 0.328E+00 0.990E+00   -.997E-05 -.162E-05 0.300E-05
   -.257E+02 0.570E+01 -.100E+03   0.259E+02 -.525E+01 0.101E+03   -.790E-01 0.551E-01 -.247E+01   -.963E-05 -.150E-05 0.141E-05
   -.212E+02 0.147E+02 -.574E+02   0.216E+02 -.153E+02 0.576E+02   -.312E+00 -.319E+00 -.943E+00   -.995E-05 -.160E-05 0.260E-05
   -.841E+01 -.278E+01 -.283E+02   0.781E+01 0.201E+01 0.286E+02   0.371E+00 -.891E+00 0.691E+00   -.849E-05 -.145E-07 0.315E-05
   0.315E+01 -.131E+02 -.656E+01   -.434E+01 0.139E+02 0.704E+01   -.744E+00 0.438E+00 0.604E+00   -.741E-05 -.380E-05 0.304E-05
   0.436E+01 0.164E+02 0.475E+02   -.418E+01 -.162E+02 -.476E+02   0.169E+00 0.547E+00 -.518E+00   -.105E-04 -.529E-06 0.364E-05
   0.486E+01 0.502E+01 0.689E+02   -.429E+01 -.438E+01 -.693E+02   0.367E-01 0.311E+00 0.102E+01   -.546E-05 -.447E-05 0.227E-05
   0.144E+02 0.249E+00 0.974E+02   -.148E+02 -.142E+01 -.973E+02   0.595E-01 -.894E+00 0.205E+00   -.604E-05 -.432E-06 0.173E-05
   -.264E+02 -.244E+01 0.267E+02   0.259E+02 0.285E+01 -.261E+02   -.617E+00 0.994E+00 -.634E+00   -.358E-05 -.573E-05 0.327E-05
   -.534E+01 0.105E+02 0.146E+03   0.585E+01 -.105E+02 -.147E+03   0.895E+00 0.227E+00 0.907E+00   -.158E-05 0.299E-05 0.160E-05
   -.157E+02 0.650E+02 0.765E+02   0.147E+02 -.671E+02 -.765E+02   0.204E+01 -.410E+00 -.550E-01   0.812E-05 -.106E-05 0.359E-06
   -.102E+02 -.705E+02 0.128E+03   0.786E+01 0.729E+02 -.128E+03   0.720E+00 -.133E+01 -.652E+00   0.795E-05 -.183E-06 0.324E-06
 -----------------------------------------------------------------------------------------------
   -.106E+01 0.801E+00 0.448E+00   -.135E-12 0.426E-13 -.384E-12   0.981E+00 -.823E+00 -.436E+00   0.880E-05 0.131E-06 0.124E-05
 
 
 POSITION                                       TOTAL-FORCE (eV/Angst)
 -----------------------------------------------------------------------------------
      0.11938      0.81310     15.24780         1.907100      3.932106      1.084195
      0.10584      2.28783     15.55030         4.194974     -3.146825     -1.680456
      1.37690      0.28515     15.12830         0.310906     -2.013905      0.050594
      1.32629      2.92660     15.49680         0.890615      0.310683      0.923344
      2.64392      0.92493     15.32800        -0.303807     -0.883354     -0.321244
      2.61392      2.25605     15.55750        -0.307031      0.530255      0.435286
      3.89393      0.22776     15.38960         1.459301      1.809986      1.028113
      3.82561      2.89013     15.93290        -0.824060      2.026117     -0.433975
      5.10900      0.90705     15.82890        -0.101590     -0.190967      0.668706
      5.03615      2.24158     16.22320        -1.047931     -0.881188     -0.522925
      6.34069      0.24759     16.15660        -1.099859     -0.254896      0.678844
      6.15481      2.90434     16.74030         1.255037     -0.151460     -1.273791
      7.45656      0.87101     16.77610         0.369472     -2.057217     -1.192661
      7.38755      2.19090     16.96710        -1.462318      2.226159      0.559889
      8.70789      0.20496     16.98330        -0.921383      0.116287      0.544894
      8.55711      2.84676     17.26860         2.723143      3.042851     -0.537863
      9.85173      0.86735     17.50250        -1.431888     -0.176386     -0.428610
      9.81571      2.24645     17.57130        -0.802324     -1.294112      0.352876
     11.03770      0.21122     17.75080         1.296914     -1.572351      0.125697
     11.04230      2.87870     17.81780        -1.284843      0.178008      0.105983
     12.23740      0.86393     18.07830         0.851180     -2.877758     -1.046997
     12.24560      2.20975     18.11750        -1.236351     -0.552150     -0.031354
     13.50690      0.16298     17.94770        -1.297707     -1.574914      1.224506
     13.48130      2.75999     18.21830         3.025666      2.521476      0.927845
     14.73440      0.76106     18.15670         0.721652      1.474723     -0.112536
     14.78280      2.14083     18.36980        -2.648971     -1.598807     -0.691007
     15.96080      0.10489     17.96210         0.084017      0.411035     -0.150990
     16.00310      2.78249     18.34730         0.874208      0.010082     -0.030656
     17.17780      0.76409     17.80270         0.638433      2.216848      1.423210
     17.23200      2.11726     18.11290         0.186682      0.306420     -0.566850
     18.41950      0.18118     17.59930         0.022844     -2.638485     -1.177046
     18.47610      2.81079     17.93410        -0.267345     -0.763136      0.650981
     19.64030      0.81628     17.30880        -1.220460      1.518340      0.704770
     19.66250      2.17604     17.55100         1.074427     -0.236807     -1.099653
     20.79760      0.18050     16.89710        -0.037045     -1.795770      1.347916
     20.88000      2.85897     17.22490        -0.310950     -1.078910      0.068815
     21.96980      0.81988     16.53220         0.425513      1.965962      0.167095
     22.05110      2.19963     16.75980        -0.586271     -0.737712     -0.451852
     23.13100      0.17485     16.10580        -0.471913     -0.681293      0.074978
     23.26530      2.83319     16.41910        -1.168235      0.211028     -0.682353
     24.28930      0.81715     15.69170        -0.056550      1.612932      0.249428
     24.34360      2.18409     15.81050         0.702919      0.656129      1.155762
     25.49140      0.19096     15.46550         1.796786     -0.269740     -1.351871
     25.58740      2.87281     15.74430         0.778579     -0.339031     -0.933546
     26.69800      0.84830     15.26360        -0.451596      1.775222      0.157243
     26.78140      2.25379     15.43340        -4.400626     -2.139518      0.362219
      0.23794      4.95223     15.17370        -0.685391      1.660799      0.439862
      0.21128      6.34407     15.03020         0.771741     -1.881633      0.242812
      1.42338      4.31979     15.40450        -0.637105     -1.185505     -0.158758
      1.44378      6.97817     15.08580        -0.736668      1.318695     -0.330812
      2.66895      4.97132     15.47510        -0.990866     -0.000870      0.280848
      2.67736      6.34477     15.34210         0.149823     -1.253697     -0.795082
      3.82502      4.29998     15.85840         0.934636     -1.123843      0.648516
      3.94081      6.96284     15.46420        -0.230829      0.130033      0.047953
      5.04405      4.96826     16.10620         0.141581     -1.920525     -0.074696
      5.13474      6.29879     15.89110        -1.256246      1.487810     -0.617089
      6.21792      4.27093     16.47740         0.407909     -0.351525      0.641163
      6.31548      6.97100     16.21150         1.276563     -0.110476     -0.947505
      7.49271      4.88886     16.53510        -0.360163      1.215230      0.757331
      7.53740      6.29351     16.50210        -1.325705     -1.285128     -0.641293
      8.66079      4.23604     16.94050        -0.435127     -1.713539      1.168191
      8.72138      6.92903     16.81610         1.740704      0.820028      0.368507
      9.88712      4.88149     17.21230        -1.368172      1.208596     -0.960119
      9.96168      6.26886     17.12800        -2.437804     -0.407009     -0.271239
     11.00710      4.23035     17.61690         3.103853     -1.215682      0.552629
     11.09900      6.92844     17.55250         0.006852      0.154492     -0.656598
     12.28410      4.82256     17.71640         0.648622     -0.282384      0.934628
     12.28650      6.18484     17.66380         1.474400      1.468002      0.402311
     13.52330      4.12474     18.07430        -1.012985      1.338033     -1.523338
     13.52980      6.84252     17.83730        -1.392136      1.637427     -0.041827
     14.77070      4.79073     18.00890        -0.403322     -0.399109      1.312698
     14.72600      6.15930     17.96520         1.692132      1.000609     -0.576855
     16.01490      4.14482     18.23570        -0.445320      0.677869     -0.025402
     15.97730      6.86049     17.94680        -0.327530     -2.693302     -0.348506
     17.25110      4.79837     18.13860         0.430057      0.977508     -0.254046
     17.21740      6.15574     17.88980         0.261118      1.794474     -0.281301
     18.51590      4.17097     18.05640         0.195252      1.372914     -0.876357
     18.41840      6.88638     17.59530         0.045370     -0.616632      1.311468
     19.71770      4.90381     17.66450        -1.347033     -2.885047      0.824048
     19.68430      6.24171     17.57500        -0.361991      1.814492     -0.475052
     20.86400      4.21846     17.24170         2.074197      1.251292      0.666032
     20.86850      6.92414     17.22760         0.115026      0.508758     -2.181177
     22.08970      4.89795     16.88490         0.051514     -0.921454     -0.669669
     22.05080      6.28324     16.79190        -0.232248     -1.658445      0.938832
     23.28620      4.20406     16.42550        -1.941974      1.265818      1.084803
     23.16720      6.90833     16.25020         0.351217      0.777907     -0.673292
     24.41200      4.88683     15.96930         0.613778      0.955467      0.603881
     24.35770      6.27607     15.85100        -0.272384     -2.067299      0.363441
     25.65420      4.23662     15.79450        -1.034130      1.400263     -0.065184
     25.52300      6.92725     15.47790         1.403227      0.287280     -0.010543
     26.78280      4.98475     15.48630         1.076501     -2.594638     -0.131060
     26.78250      6.31144     15.33550        -1.580258      1.097994     -0.358104
 -----------------------------------------------------------------------------------
    total drift:                               -0.078851     -0.021746      0.012068


--------------------------------------------------------------------------------------------------------



  FREE ENERGIE OF THE ION-ELECTRON SYSTEM (eV)
  ---------------------------------------------------
  free  energy   TOTEN  =      -828.98597552 eV

  energy  without entropy=     -828.89532066  energy(sigma->0) =     -828.94064809
 


--------------------------------------------------------------------------------------------------------


    POTLOK:  cpu time      0.4537: real time      0.4537


--------------------------------------------------------------------------------------------------------


     LOOP+:  cpu time    334.7325: real time    334.9261
    4ORBIT:  cpu time      0.0000: real time      0.0000

 total amount of memory used by VASP MPI-rank0  2294508. kBytes
=======================================================================

   base                                    :      30000. kBytes
   nonlr-proj                              :      15074. kBytes
   fftplans                                :     436558. kBytes
   grid                                    :     732614. kBytes
   one-center                              :        282. kBytes
   wavefun                                 :    1079980. kBytes
 
  
  
 General timing and accounting informations for this job:
 ========================================================
  
                  Total CPU time used (sec):      368.145
                            User time (sec):      359.777
                          System time (sec):        8.368
                         Elapsed time (sec):      368.433
  
                   Maximum memory used (kb):     3730300.
                   Average memory used (kb):          N/A
  
                          Minor page faults:      3178812
                          Major page faults:         5098
                 Voluntary context switches:         9731
