<?xml version="1.0" encoding="ISO-8859-1"?>
<modeling>
 <generator>
  <i name="program" type="string">vasp </i>
  <i name="version" type="string">6.5.0  </i>
  <i name="subversion" type="string">16Dec24 (build Feb 19 2025 19:45:31) complex                          parallel </i>
  <i name="platform" type="string">LinuxNV </i>
  <i name="date" type="string">2025 10 25 </i>
  <i name="time" type="string">14:25:25 </i>
 </generator>
 <incar>
  <i type="int" name="ISTART">     0</i>
  <i type="string" name="PREC">Accurate   (Precision level)</i>
  <i type="string" name="ALGO">Normal</i>
  <i type="int" name="ISPIN">     1</i>
  <i type="int" name="ICHARG">     2</i>
  <i type="int" name="NELM">   150</i>
  <i type="int" name="IBRION">    -1</i>
  <i name="EDIFF">      0.00000100</i>
  <i type="int" name="NSW">     0</i>
  <i name="ENCUT">    500.00000000</i>
  <i type="string" name="LREAL">Auto         (Projection operators: automatic)</i>
  <i type="int" name="ISMEAR">     0</i>
  <i type="logical" name="KGAMMA"> T  </i>
  <i type="logical" name="LWAVE"> F  </i>
  <i type="logical" name="LCHARG"> F  </i>
 </incar>
 <primitive_cell>
  <structure name="primitive_cell" >
   <crystal>
    <varray name="basis" >
     <v>      28.05000000       0.00000000       0.00000000 </v>
     <v>       0.00000000       8.10000000       0.00000000 </v>
     <v>       0.00000000       0.00000000      33.50000000 </v>
    </varray>
    <i name="volume">   7611.36750000 </i>
    <varray name="rec_basis" >
     <v>       0.03565062       0.00000000       0.00000000 </v>
     <v>       0.00000000       0.12345679       0.00000000 </v>
     <v>       0.00000000       0.00000000       0.02985075 </v>
    </varray>
   </crystal>
   <varray name="positions" >
    <v>       0.00425586       0.10038284       0.45515821 </v>
    <v>       0.00377312       0.28244815       0.46418806 </v>
    <v>       0.04908734       0.03520333       0.45159104 </v>
    <v>       0.04728307       0.36130864       0.46259104 </v>
    <v>       0.09425740       0.11418901       0.45755224 </v>
    <v>       0.09318788       0.27852469       0.46440299 </v>
    <v>       0.13882103       0.02811864       0.45939104 </v>
    <v>       0.13638538       0.35680617       0.47560896 </v>
    <v>       0.18213904       0.11198185       0.47250448 </v>
    <v>       0.17954189       0.27673827       0.48427463 </v>
    <v>       0.22604955       0.03056654       0.48228657 </v>
    <v>       0.21942282       0.35856049       0.49971045 </v>
    <v>       0.26583102       0.10753235       0.50077910 </v>
    <v>       0.26337077       0.27048148       0.50648060 </v>
    <v>       0.31044171       0.02530370       0.50696418 </v>
    <v>       0.30506631       0.35145185       0.51548060 </v>
    <v>       0.35122032       0.10708012       0.52246269 </v>
    <v>       0.34993619       0.27733951       0.52451642 </v>
    <v>       0.39350089       0.02607716       0.52987463 </v>
    <v>       0.39366488       0.35539506       0.53187463 </v>
    <v>       0.43627094       0.10665864       0.53965075 </v>
    <v>       0.43656328       0.27280864       0.54082090 </v>
    <v>       0.48152941       0.02012037       0.53575224 </v>
    <v>       0.48061676       0.34073951       0.54382985 </v>
    <v>       0.52529055       0.09395852       0.54199104 </v>
    <v>       0.52701604       0.26430000       0.54835224 </v>
    <v>       0.56901248       0.01294877       0.53618209 </v>
    <v>       0.57052050       0.34351728       0.54768060 </v>
    <v>       0.61239929       0.09433148       0.53142388 </v>
    <v>       0.61433155       0.26139012       0.54068358 </v>
    <v>       0.65666667       0.02236753       0.52535224 </v>
    <v>       0.65868449       0.34701111       0.53534627 </v>
    <v>       0.70018895       0.10077543       0.51668060 </v>
    <v>       0.70098039       0.26864691       0.52391045 </v>
    <v>       0.74144742       0.02228407       0.50439104 </v>
    <v>       0.74438503       0.35295926       0.51417612 </v>
    <v>       0.78323708       0.10121975       0.49349851 </v>
    <v>       0.78613547       0.27155926       0.50029254 </v>
    <v>       0.82463458       0.02158667       0.48077015 </v>
    <v>       0.82942246       0.34977654       0.49012239 </v>
    <v>       0.86592870       0.10088321       0.46840896 </v>
    <v>       0.86786453       0.26964074       0.47195522 </v>
    <v>       0.90878431       0.02357494       0.46165672 </v>
    <v>       0.91220677       0.35466790       0.46997910 </v>
    <v>       0.95180036       0.10472827       0.45562985 </v>
    <v>       0.95477362       0.27824568       0.46069851 </v>
    <v>       0.00848275       0.61138642       0.45294627 </v>
    <v>       0.00753230       0.78321852       0.44866269 </v>
    <v>       0.05074439       0.53330741       0.45983582 </v>
    <v>       0.05147166       0.86150247       0.45032239 </v>
    <v>       0.09514973       0.61374321       0.46194328 </v>
    <v>       0.09544955       0.78330494       0.45797313 </v>
    <v>       0.13636435       0.53086173       0.47338507 </v>
    <v>       0.14049234       0.85960988       0.46161791 </v>
    <v>       0.17982353       0.61336543       0.48078209 </v>
    <v>       0.18305668       0.77762840       0.47436119 </v>
    <v>       0.22167273       0.52727531       0.49186269 </v>
    <v>       0.22515080       0.86061728       0.48392537 </v>
    <v>       0.26711979       0.60356296       0.49358507 </v>
    <v>       0.26871301       0.77697654       0.49260000 </v>
    <v>       0.30876257       0.52296790       0.50568657 </v>
    <v>       0.31092264       0.85543580       0.50197313 </v>
    <v>       0.35248200       0.60265309       0.51380000 </v>
    <v>       0.35514011       0.77393333       0.51128358 </v>
    <v>       0.39240998       0.52226543       0.52587761 </v>
    <v>       0.39568627       0.85536296       0.52395522 </v>
    <v>       0.43793583       0.59537778       0.52884776 </v>
    <v>       0.43802139       0.76356049       0.52727761 </v>
    <v>       0.48211408       0.50922716       0.53953134 </v>
    <v>       0.48234581       0.84475556       0.53245672 </v>
    <v>       0.52658467       0.59144815       0.53757910 </v>
    <v>       0.52499109       0.76040741       0.53627463 </v>
    <v>       0.57094118       0.51170617       0.54434925 </v>
    <v>       0.56960071       0.84697407       0.53572537 </v>
    <v>       0.61501248       0.59239136       0.54145075 </v>
    <v>       0.61381105       0.75996790       0.53402388 </v>
    <v>       0.66010339       0.51493457       0.53899701 </v>
    <v>       0.65662745       0.85017037       0.52523284 </v>
    <v>       0.70294831       0.60540864       0.52729851 </v>
    <v>       0.70175758       0.77058148       0.52462687 </v>
    <v>       0.74381462       0.52079753       0.51467761 </v>
    <v>       0.74397504       0.85483210       0.51425672 </v>
    <v>       0.78751159       0.60468519       0.50402687 </v>
    <v>       0.78612478       0.77570864       0.50125075 </v>
    <v>       0.83016756       0.51901975       0.49031343 </v>
    <v>       0.82592513       0.85288025       0.48508060 </v>
    <v>       0.87030303       0.60331235       0.47669552 </v>
    <v>       0.86836720       0.77482346       0.47316418 </v>
    <v>       0.91458824       0.52303951       0.47147761 </v>
    <v>       0.90991087       0.85521605       0.46202687 </v>
    <v>       0.95482353       0.61540123       0.46227761 </v>
    <v>       0.95481283       0.77919012       0.45777612 </v>
   </varray>
  </structure>
  <varray name="primitive_index" >
   <v type="int" >        1 </v>
   <v type="int" >        2 </v>
   <v type="int" >        3 </v>
   <v type="int" >        4 </v>
   <v type="int" >        5 </v>
   <v type="int" >        6 </v>
   <v type="int" >        7 </v>
   <v type="int" >        8 </v>
   <v type="int" >        9 </v>
   <v type="int" >       10 </v>
   <v type="int" >       11 </v>
   <v type="int" >       12 </v>
   <v type="int" >       13 </v>
   <v type="int" >       14 </v>
   <v type="int" >       15 </v>
   <v type="int" >       16 </v>
   <v type="int" >       17 </v>
   <v type="int" >       18 </v>
   <v type="int" >       19 </v>
   <v type="int" >       20 </v>
   <v type="int" >       21 </v>
   <v type="int" >       22 </v>
   <v type="int" >       23 </v>
   <v type="int" >       24 </v>
   <v type="int" >       25 </v>
   <v type="int" >       26 </v>
   <v type="int" >       27 </v>
   <v type="int" >       28 </v>
   <v type="int" >       29 </v>
   <v type="int" >       30 </v>
   <v type="int" >       31 </v>
   <v type="int" >       32 </v>
   <v type="int" >       33 </v>
   <v type="int" >       34 </v>
   <v type="int" >       35 </v>
   <v type="int" >       36 </v>
   <v type="int" >       37 </v>
   <v type="int" >       38 </v>
   <v type="int" >       39 </v>
   <v type="int" >       40 </v>
   <v type="int" >       41 </v>
   <v type="int" >       42 </v>
   <v type="int" >       43 </v>
   <v type="int" >       44 </v>
   <v type="int" >       45 </v>
   <v type="int" >       46 </v>
   <v type="int" >       47 </v>
   <v type="int" >       48 </v>
   <v type="int" >       49 </v>
   <v type="int" >       50 </v>
   <v type="int" >       51 </v>
   <v type="int" >       52 </v>
   <v type="int" >       53 </v>
   <v type="int" >       54 </v>
   <v type="int" >       55 </v>
   <v type="int" >       56 </v>
   <v type="int" >       57 </v>
   <v type="int" >       58 </v>
   <v type="int" >       59 </v>
   <v type="int" >       60 </v>
   <v type="int" >       61 </v>
   <v type="int" >       62 </v>
   <v type="int" >       63 </v>
   <v type="int" >       64 </v>
   <v type="int" >       65 </v>
   <v type="int" >       66 </v>
   <v type="int" >       67 </v>
   <v type="int" >       68 </v>
   <v type="int" >       69 </v>
   <v type="int" >       70 </v>
   <v type="int" >       71 </v>
   <v type="int" >       72 </v>
   <v type="int" >       73 </v>
   <v type="int" >       74 </v>
   <v type="int" >       75 </v>
   <v type="int" >       76 </v>
   <v type="int" >       77 </v>
   <v type="int" >       78 </v>
   <v type="int" >       79 </v>
   <v type="int" >       80 </v>
   <v type="int" >       81 </v>
   <v type="int" >       82 </v>
   <v type="int" >       83 </v>
   <v type="int" >       84 </v>
   <v type="int" >       85 </v>
   <v type="int" >       86 </v>
   <v type="int" >       87 </v>
   <v type="int" >       88 </v>
   <v type="int" >       89 </v>
   <v type="int" >       90 </v>
   <v type="int" >       91 </v>
   <v type="int" >       92 </v>
  </varray>
 </primitive_cell>
 <kpoints>
  <generation param="Gamma">
   <v type="int" name="divisions">       1        4        1 </v>
   <v name="usershift">      0.00000000       0.00000000       0.00000000 </v>
   <v name="genvec1">      1.00000000       0.00000000       0.00000000 </v>
   <v name="genvec2">      0.00000000       0.25000000       0.00000000 </v>
   <v name="genvec3">      0.00000000       0.00000000       1.00000000 </v>
   <v name="shift">      0.00000000       0.00000000       0.00000000 </v>
  </generation>
  <varray name="kpointlist" >
   <v>       0.00000000       0.00000000       0.00000000 </v>
   <v>       0.00000000       0.25000000       0.00000000 </v>
   <v>       0.00000000       0.50000000       0.00000000 </v>
  </varray>
  <varray name="weights" >
   <v>       0.25000000 </v>
   <v>       0.50000000 </v>
   <v>       0.25000000 </v>
  </varray>
 </kpoints>
 <parameters>
  <separator name="general" >
   <i type="string" name="SYSTEM">unknown system</i>
   <i type="logical" name="LCOMPAT"> F  </i>
  </separator>
  <separator name="electronic" >
   <i type="string" name="PREC">accura</i>
   <i name="ENMAX">    500.00000000</i>
   <i name="ENAUG">    644.87300000</i>
   <i name="EDIFF">      0.00000100</i>
   <i type="int" name="IALGO">    38</i>
   <i type="int" name="IWAVPR">    10</i>
   <i type="int" name="NBANDS">   232</i>
   <i type="int" name="NBANDSLOW">    -1</i>
   <i type="int" name="NBANDSHIGH">    -1</i>
   <i name="NELECT">    368.00000000</i>
   <i type="int" name="TURBO">     0</i>
   <i type="int" name="IRESTART">     0</i>
   <i type="int" name="NREBOOT">     0</i>
   <i type="int" name="NMIN">     0</i>
   <i name="EREF">      0.00000000</i>
   <separator name="electronic smearing" >
    <i type="int" name="ISMEAR">     0</i>
    <i name="SIGMA">      0.20000000</i>
    <i name="KSPACING">      0.50000000</i>
    <i type="logical" name="KGAMMA"> T  </i>
    <i type="logical" name="KBLOWUP"> T  </i>
   </separator>
   <separator name="electronic projectors" >
    <i type="logical" name="LREAL"> T  </i>
    <v name="ROPT">     -0.00025000</v>
    <i type="int" name="LMAXPAW">  -100</i>
    <i type="int" name="LMAXMIX">     2</i>
    <i type="logical" name="NLSPLINE"> F  </i>
   </separator>
   <separator name="electronic startup" >
    <i type="int" name="ISTART">     0</i>
    <i type="int" name="ICHARG">     2</i>
    <i type="int" name="INIWAV">     1</i>
   </separator>
   <separator name="electronic spin" >
    <i type="int" name="ISPIN">     1</i>
    <i type="logical" name="LNONCOLLINEAR"> F  </i>
    <v name="MAGMOM">      1.00000000      1.00000000      1.00000000      1.00000000      1.00000000      1.00000000      1.00000000      1.00000000      1.00000000      1.00000000      1.00000000      1.00000000      1.00000000      1.00000000      1.00000000      1.00000000      1.00000000      1.00000000      1.00000000      1.00000000
      1.00000000      1.00000000      1.00000000      1.00000000      1.00000000      1.00000000      1.00000000      1.00000000      1.00000000      1.00000000      1.00000000      1.00000000      1.00000000      1.00000000      1.00000000      1.00000000      1.00000000      1.00000000      1.00000000      1.00000000
      1.00000000      1.00000000      1.00000000      1.00000000      1.00000000      1.00000000      1.00000000      1.00000000      1.00000000      1.00000000      1.00000000      1.00000000      1.00000000      1.00000000      1.00000000      1.00000000      1.00000000      1.00000000      1.00000000      1.00000000
      1.00000000      1.00000000      1.00000000      1.00000000      1.00000000      1.00000000      1.00000000      1.00000000      1.00000000      1.00000000      1.00000000      1.00000000      1.00000000      1.00000000      1.00000000      1.00000000      1.00000000      1.00000000      1.00000000      1.00000000
      1.00000000      1.00000000      1.00000000      1.00000000      1.00000000      1.00000000      1.00000000      1.00000000      1.00000000      1.00000000      1.00000000      1.00000000</v>
    <i name="NUPDOWN">     -1.00000000</i>
    <i type="logical" name="LSORBIT"> F  </i>
    <v name="SAXIS">      0.00000000      0.00000000      1.00000000</v>
    <i type="logical" name="LSPIRAL"> F  </i>
    <v name="QSPIRAL">      0.00000000      0.00000000      0.00000000</v>
    <i type="logical" name="LZEROZ"> F  </i>
   </separator>
   <separator name="electronic exchange-correlation" >
    <i type="logical" name="LASPH"> F  </i>
   </separator>
   <separator name="electronic convergence" >
    <i type="int" name="NELM">   150</i>
    <i type="int" name="NELMDL">    -5</i>
    <i type="int" name="NELMIN">     2</i>
    <i name="ENINI">    500.00000000</i>
    <separator name="electronic convergence detail" >
     <i type="logical" name="LDIAG"> T  </i>
     <i type="logical" name="LSUBROT"> F  </i>
     <i name="WEIMIN">      0.00000000</i>
     <i name="EBREAK">      0.00000000</i>
     <i name="DEPER">      0.30000000</i>
     <i type="int" name="NRMM">     4</i>
     <i name="TIME">      0.40000000</i>
    </separator>
   </separator>
   <separator name="electronic mixer" >
    <i name="AMIX">      0.40000000</i>
    <i name="BMIX">      1.00000000</i>
    <i name="AMIN">      0.10000000</i>
    <i name="AMIX_MAG">      1.60000000</i>
    <i name="BMIX_MAG">      1.00000000</i>
    <separator name="electronic mixer details" >
     <i type="int" name="IMIX">     4</i>
     <i type="logical" name="MIXFIRST"> F  </i>
     <i type="int" name="MAXMIX">   -45</i>
     <i name="WC">    100.00000000</i>
     <i type="int" name="INIMIX">     1</i>
     <i type="int" name="MIXPRE">     1</i>
     <i type="int" name="MREMOVE">     5</i>
    </separator>
   </separator>
   <separator name="electronic dipolcorrection" >
    <i type="logical" name="LDIPOL"> F  </i>
    <i type="logical" name="LMONO"> F  </i>
    <i type="int" name="IDIPOL">     0</i>
    <i name="EPSILON">      1.00000000</i>
    <v name="DIPOL">   -100.00000000   -100.00000000   -100.00000000</v>
    <i name="EFIELD">      0.00000000</i>
    <i type="logical" name="LVACPOTAV"> F  </i>
   </separator>
  </separator>
  <separator name="grids" >
   <i type="int" name="NGX">   210</i>
   <i type="int" name="NGY">    60</i>
   <i type="int" name="NGZ">   250</i>
   <i type="int" name="NGXF">   420</i>
   <i type="int" name="NGYF">   120</i>
   <i type="int" name="NGZF">   500</i>
   <i type="logical" name="ADDGRID"> F  </i>
  </separator>
  <separator name="ionic" >
   <i type="int" name="NSW">     0</i>
   <i type="int" name="IBRION">    -1</i>
   <i type="int" name="MDALGO">     0</i>
   <i type="int" name="ISIF">     2</i>
   <i name="PSTRESS">      0.00000000</i>
   <i name="EDIFFG">      0.00001000</i>
   <i type="int" name="NFREE">     0</i>
   <i name="POTIM">      0.50000000</i>
   <i name="SMASS">     -3.00000000</i>
   <i name="SCALEE">      1.00000000</i>
  </separator>
  <separator name="ionic md" >
   <i name="TEBEG">      0.00010000</i>
   <i name="TEEND">      0.00010000</i>
   <i type="int" name="NBLOCK">     1</i>
   <i type="int" name="KBLOCK">     1</i>
   <i type="int" name="NPACO">   256</i>
   <i name="APACO">     10.00000000</i>
  </separator>
  <separator name="symmetry" >
   <i type="int" name="ISYM">     2</i>
   <i name="SYMPREC">      0.00001000</i>
  </separator>
  <separator name="dos" >
   <i type="int" name="LORBIT">     0</i>
   <v name="RWIGS">     -1.00000000</v>
   <i type="int" name="NEDOS">   301</i>
   <i name="EMIN">     10.00000000</i>
   <i name="EMAX">    -10.00000000</i>
   <i name="EFERMI">      0.00000000</i>
  </separator>
  <separator name="writing" >
   <i type="int" name="NWRITE">     2</i>
   <i type="logical" name="LWAVE"> F  </i>
   <i type="logical" name="LDOWNSAMPLE"> F  </i>
   <i type="logical" name="LCHARG"> F  </i>
   <i type="logical" name="LPARD"> F  </i>
   <i type="logical" name="LVTOT"> F  </i>
   <i type="logical" name="LVHAR"> F  </i>
   <i type="logical" name="LELF"> F  </i>
   <i type="logical" name="LOPTICS"> F  </i>
   <v name="STM">      0.00000000      0.00000000      0.00000000      0.00000000      0.00000000      0.00000000      0.00000000</v>
  </separator>
  <separator name="performance" >
   <i type="int" name="NPAR">     2</i>
   <i type="int" name="NSIM">     4</i>
   <i type="int" name="NBLK">    -1</i>
   <i type="logical" name="LPLANE"> T  </i>
   <i type="logical" name="LSCALAPACK"> T  </i>
   <i type="logical" name="LSCAAWARE"> F  </i>
   <i type="logical" name="LSCALU"> F  </i>
   <i type="logical" name="LASYNC"> F  </i>
   <i type="logical" name="LORBITALREAL"> F  </i>
  </separator>
  <separator name="miscellaneous" >
   <i type="int" name="IDIOT">     3</i>
   <i type="int" name="PHON_NSTRUCT">    -1</i>
   <i type="logical" name="LMUSIC"> F  </i>
   <v name="POMASS">     12.01100000</v>
   <v name="DARWINR">      0.00000000</v>
   <v name="DARWINV">      1.00000000</v>
   <i type="logical" name="LCORR"> T  </i>
  </separator>
  <i type="logical" name="GGA_COMPAT"> T  </i>
  <i type="logical" name="LBERRY"> F  </i>
  <i type="int" name="ICORELEVEL">     0</i>
  <i type="logical" name="LDAU"> F  </i>
  <i type="int" name="I_CONSTRAINED_M">     0</i>
  <separator name="electronic exchange-correlation" >
   <i type="string" name="GGA    ">PE</i>
   <i type="string" name="XC_C">1</i>
   <i type="int" name="VOSKOWN">     0</i>
   <i type="logical" name="LHFCALC"> F  </i>
   <i type="string" name="PRECFOCK"></i>
   <i type="logical" name="LSYMGRAD"> F  </i>
   <i type="logical" name="LHFONE"> F  </i>
   <i type="logical" name="LRHFCALC"> F  </i>
   <i type="logical" name="LTHOMAS"> F  </i>
   <i type="logical" name="LMODELHF"> F  </i>
   <i type="logical" name="LFOCKACE"> F  </i>
   <i name="ENCUT4O">     -1.00000000</i>
   <i type="int" name="EXXOEP">     0</i>
   <i type="int" name="FOURORBIT">     0</i>
   <i name="AEXX">      0.00000000</i>
   <i name="HFALPHA">      0.00000000</i>
   <i name="MCALPHA">      0.00000000</i>
   <i name="ALDAX">      1.00000000</i>
   <i name="AGGAX">      1.00000000</i>
   <i name="AMGGAX">      1.00000000</i>
   <i name="ALDAC">      1.00000000</i>
   <i name="AGGAC">      1.00000000</i>
   <i name="AMGGAC">      1.00000000</i>
   <i type="int" name="NKREDX">     1</i>
   <i type="int" name="NKREDY">     1</i>
   <i type="int" name="NKREDZ">     1</i>
   <i type="logical" name="SHIFTRED"> F  </i>
   <i type="logical" name="ODDONLY"> F  </i>
   <i type="logical" name="EVENONLY"> F  </i>
   <i type="int" name="LMAXFOCK">     0</i>
   <i type="int" name="NMAXFOCKAE">     0</i>
   <i type="logical" name="LFOCKAEDFT"> F  </i>
   <i name="HFSCREEN">      0.00000000</i>
   <i name="HFSCREENC">      0.00000000</i>
   <i type="int" name="NBANDSGWLOW">     0</i>
  </separator>
  <separator name="vdW DFT" >
   <i type="logical" name="LUSE_VDW"> F  </i>
   <i type="int" name="IVDW_NL">    -1</i>
   <i type="logical" name="LSPIN_VDW"> F  </i>
   <i name="ZAB_VDW">     -0.84910000</i>
   <i name="GAMMA_VDW">      1.39626340</i>
   <i name="ALPHA_VDW">      0.00000000</i>
   <i name="PARAM1">      0.12340000</i>
   <i name="PARAM2">      1.00000000</i>
   <i name="BPARAM">      6.30000000</i>
   <i name="CPARAM">      0.00930000</i>
  </separator>
  <separator name="model GW" >
   <i type="int" name="MODEL_GW">     0</i>
   <i name="MODEL_EPS0">     49.63935326</i>
   <i name="MODEL_ALPHA">      1.00000000</i>
  </separator>
  <separator name="linear response parameters" >
   <i type="logical" name="LEPSILON"> F  </i>
   <i type="logical" name="LRPA"> F  </i>
   <i type="logical" name="LNABLA"> F  </i>
   <i type="logical" name="LVEL"> F  </i>
   <i name="CSHIFT">      0.10000000</i>
   <i name="OMEGAMAX">     -1.00000000</i>
   <i name="DEG_THRESHOLD">      0.00200000</i>
   <i name="RTIME">     -0.10000000</i>
   <i name="WPLASMAI">      0.00000000</i>
   <v name="DFIELD">      0.00000000      0.00000000      0.00000000</v>
   <v name="WPLASMA">      0.00000000      0.00000000      0.00000000      0.00000000      0.00000000      0.00000000      0.00000000      0.00000000      0.00000000</v>
  </separator>
  <separator name="orbital magnetization" >
   <i type="logical" name="NUCIND"> F  </i>
   <v name="MAGPOS">      0.00000000      0.00000000      0.00000000</v>
   <i type="logical" name="LNICSALL"> T  </i>
   <i type="logical" name="ORBITALMAG"> F  </i>
   <i type="logical" name="LMAGBLOCH"> F  </i>
   <i type="logical" name="LCHIMAG"> F  </i>
   <i type="logical" name="LGAUGE"> T  </i>
   <i type="int" name="MAGATOM">     0</i>
   <v name="MAGDIPOL">      0.00000000      0.00000000      0.00000000</v>
   <v name="AVECCONST">      0.00000000      0.00000000      0.00000000</v>
  </separator>
  <separator name="response functions" >
   <i type="logical" name="LALL_IN_ONE"> F  </i>
   <i type="int" name="IALL_IN_ONE">    -1</i>
   <i type="int" name="NBANDS_WAVE">    -1</i>
   <i type="logical" name="LFINITE_TEMPERATURE"> F  </i>
   <i type="logical" name="LADDER"> F  </i>
   <i type="logical" name="LRPAFORCE"> F  </i>
   <i type="logical" name="LFXC"> F  </i>
   <i type="logical" name="LHARTREE"> T  </i>
   <i type="int" name="IBSE">     2</i>
   <v type="int" name="KPOINT">    -1     0     0     0</v>
   <i type="logical" name="LTCTC"> F  </i>
   <i type="logical" name="LTCTE"> F  </i>
   <i type="logical" name="LTETE"> F  </i>
   <i type="logical" name="LTRIPLET"> F  </i>
   <i type="logical" name="LFXCEPS"> F  </i>
   <i type="logical" name="LFXHEG"> F  </i>
   <i type="int" name="NATURALO">     2</i>
   <i type="logical" name="LHOLEGF"> F  </i>
   <i type="logical" name="L2ORDER"> F  </i>
   <i type="logical" name="LDMP1"> F  </i>
   <i type="logical" name="LMP2LT"> F  </i>
   <i type="logical" name="LSMP2LT"> F  </i>
   <i type="logical" name="LGWLF"> F  </i>
   <i name="ENCUTGW">     -1.60000002</i>
   <i name="ENCUTGWSOFT">     -1.60000002</i>
   <i name="ENCUTLF">     -1.00000000</i>
   <i type="logical" name="ESF_SPLINES"> F  </i>
   <i name="ESF_CONV">      0.01000000</i>
   <i type="int" name="ESF_NINTER">    15</i>
   <i type="int" name="LMAXMP2">    -1</i>
   <i name="SCISSOR">      0.00000000</i>
   <i type="int" name="NOMEGA">     0</i>
   <i type="int" name="NOMEGAR">     0</i>
   <i type="int" name="NBANDSGW">    -1</i>
   <i type="int" name="NBANDSO">    -1</i>
   <i type="int" name="NBANDSV">    -1</i>
   <i type="int" name="NELMGW">     1</i>
   <i type="int" name="NELMHF">     1</i>
   <i type="int" name="DIM">     3</i>
   <i type="int" name="IESPILON">     4</i>
   <i type="int" name="ANTIRES">     0</i>
   <i name="OMEGAMAX">    -30.00000000</i>
   <i name="OMEGAMIN">    -30.00000000</i>
   <i name="OMEGATL">   -200.00000000</i>
   <i type="int" name="OMEGAGRID">     0</i>
   <i name="CSHIFT">     -0.10000000</i>
   <i type="logical" name="LSELFENERGY"> F  </i>
   <i type="logical" name="LSPECTRAL"> F  </i>
   <i type="logical" name="LSPECTRALGW"> F  </i>
   <i type="logical" name="LSINGLES"> F  </i>
   <i type="logical" name="LFERMIGW"> F  </i>
   <i type="logical" name="ODDONLYGW"> F  </i>
   <i type="logical" name="EVENONLYGW"> F  </i>
   <i type="int" name="NKREDLFX">     1</i>
   <i type="int" name="NKREDLFY">     1</i>
   <i type="int" name="NKREDLFZ">     1</i>
   <i type="int" name="MAXMEM">  2800</i>
   <i type="int" name="TELESCOPE">     0</i>
   <i type="int" name="NTAUPAR">    -1</i>
   <i type="int" name="NOMEGAPAR">    -1</i>
   <i name="DAMP_NEWTON">      0.80000001</i>
   <i name="LAMBDA">      1.00000000</i>
  </separator>
  <separator name="External order field" >
   <i name="OFIELD_KAPPA">      0.00000000</i>
   <v name="OFIELD_K">      0.00000000      0.00000000      0.00000000</v>
   <i name="OFIELD_Q6_NEAR">      0.00000000</i>
   <i name="OFIELD_Q6_FAR">      0.00000000</i>
   <i name="OFIELD_A">      0.00000000</i>
  </separator>
  <separator name="optional k-points parameters" >
   <i type="int" name="KPOINTS_OPT_MODE">     1</i>
   <i type="logical" name="LKPOINTS_OPT"> F  </i>
  </separator>
 </parameters>
 <atominfo>
  <atoms>      92 </atoms>
  <types>       1 </types>
  <array name="atoms" >
   <dimension dim="1">ion</dimension>
   <field type="string">element</field>
   <field type="int">atomtype</field>
   <set>
    <rc><c>C </c><c>   1</c></rc>
    <rc><c>C </c><c>   1</c></rc>
    <rc><c>C </c><c>   1</c></rc>
    <rc><c>C </c><c>   1</c></rc>
    <rc><c>C </c><c>   1</c></rc>
    <rc><c>C </c><c>   1</c></rc>
    <rc><c>C </c><c>   1</c></rc>
    <rc><c>C </c><c>   1</c></rc>
    <rc><c>C </c><c>   1</c></rc>
    <rc><c>C </c><c>   1</c></rc>
    <rc><c>C </c><c>   1</c></rc>
    <rc><c>C </c><c>   1</c></rc>
    <rc><c>C </c><c>   1</c></rc>
    <rc><c>C </c><c>   1</c></rc>
    <rc><c>C </c><c>   1</c></rc>
    <rc><c>C </c><c>   1</c></rc>
    <rc><c>C </c><c>   1</c></rc>
    <rc><c>C </c><c>   1</c></rc>
    <rc><c>C </c><c>   1</c></rc>
    <rc><c>C </c><c>   1</c></rc>
    <rc><c>C </c><c>   1</c></rc>
    <rc><c>C </c><c>   1</c></rc>
    <rc><c>C </c><c>   1</c></rc>
    <rc><c>C </c><c>   1</c></rc>
    <rc><c>C </c><c>   1</c></rc>
    <rc><c>C </c><c>   1</c></rc>
    <rc><c>C </c><c>   1</c></rc>
    <rc><c>C </c><c>   1</c></rc>
    <rc><c>C </c><c>   1</c></rc>
    <rc><c>C </c><c>   1</c></rc>
    <rc><c>C </c><c>   1</c></rc>
    <rc><c>C </c><c>   1</c></rc>
    <rc><c>C </c><c>   1</c></rc>
    <rc><c>C </c><c>   1</c></rc>
    <rc><c>C </c><c>   1</c></rc>
    <rc><c>C </c><c>   1</c></rc>
    <rc><c>C </c><c>   1</c></rc>
    <rc><c>C </c><c>   1</c></rc>
    <rc><c>C </c><c>   1</c></rc>
    <rc><c>C </c><c>   1</c></rc>
    <rc><c>C </c><c>   1</c></rc>
    <rc><c>C </c><c>   1</c></rc>
    <rc><c>C </c><c>   1</c></rc>
    <rc><c>C </c><c>   1</c></rc>
    <rc><c>C </c><c>   1</c></rc>
    <rc><c>C </c><c>   1</c></rc>
    <rc><c>C </c><c>   1</c></rc>
    <rc><c>C </c><c>   1</c></rc>
    <rc><c>C </c><c>   1</c></rc>
    <rc><c>C </c><c>   1</c></rc>
    <rc><c>C </c><c>   1</c></rc>
    <rc><c>C </c><c>   1</c></rc>
    <rc><c>C </c><c>   1</c></rc>
    <rc><c>C </c><c>   1</c></rc>
    <rc><c>C </c><c>   1</c></rc>
    <rc><c>C </c><c>   1</c></rc>
    <rc><c>C </c><c>   1</c></rc>
    <rc><c>C </c><c>   1</c></rc>
    <rc><c>C </c><c>   1</c></rc>
    <rc><c>C </c><c>   1</c></rc>
    <rc><c>C </c><c>   1</c></rc>
    <rc><c>C </c><c>   1</c></rc>
    <rc><c>C </c><c>   1</c></rc>
    <rc><c>C </c><c>   1</c></rc>
    <rc><c>C </c><c>   1</c></rc>
    <rc><c>C </c><c>   1</c></rc>
    <rc><c>C </c><c>   1</c></rc>
    <rc><c>C </c><c>   1</c></rc>
    <rc><c>C </c><c>   1</c></rc>
    <rc><c>C </c><c>   1</c></rc>
    <rc><c>C </c><c>   1</c></rc>
    <rc><c>C </c><c>   1</c></rc>
    <rc><c>C </c><c>   1</c></rc>
    <rc><c>C </c><c>   1</c></rc>
    <rc><c>C </c><c>   1</c></rc>
    <rc><c>C </c><c>   1</c></rc>
    <rc><c>C </c><c>   1</c></rc>
    <rc><c>C </c><c>   1</c></rc>
    <rc><c>C </c><c>   1</c></rc>
    <rc><c>C </c><c>   1</c></rc>
    <rc><c>C </c><c>   1</c></rc>
    <rc><c>C </c><c>   1</c></rc>
    <rc><c>C </c><c>   1</c></rc>
    <rc><c>C </c><c>   1</c></rc>
    <rc><c>C </c><c>   1</c></rc>
    <rc><c>C </c><c>   1</c></rc>
    <rc><c>C </c><c>   1</c></rc>
    <rc><c>C </c><c>   1</c></rc>
    <rc><c>C </c><c>   1</c></rc>
    <rc><c>C </c><c>   1</c></rc>
    <rc><c>C </c><c>   1</c></rc>
    <rc><c>C </c><c>   1</c></rc>
   </set>
  </array>
  <array name="atomtypes" >
   <dimension dim="1">type</dimension>
   <field type="int">atomspertype</field>
   <field type="string">element</field>
   <field>mass</field>
   <field>valence</field>
   <field type="string">pseudopotential</field>
   <set>
    <rc><c>  92</c><c>C </c><c>     12.01100000</c><c>      4.00000000</c><c>  PAW_PBE C 08Apr2002                   </c></rc>
   </set>
  </array>
 </atominfo>
 <structure name="initialpos" >
  <crystal>
   <varray name="basis" >
    <v>      28.05000000       0.00000000       0.00000000 </v>
    <v>       0.00000000       8.10000000       0.00000000 </v>
    <v>       0.00000000       0.00000000      33.50000000 </v>
   </varray>
   <i name="volume">   7611.36750000 </i>
   <varray name="rec_basis" >
    <v>       0.03565062       0.00000000       0.00000000 </v>
    <v>       0.00000000       0.12345679       0.00000000 </v>
    <v>       0.00000000       0.00000000       0.02985075 </v>
   </varray>
  </crystal>
  <varray name="positions" >
   <v>       0.00425586       0.10038284       0.45515821 </v>
   <v>       0.00377312       0.28244815       0.46418806 </v>
   <v>       0.04908734       0.03520333       0.45159104 </v>
   <v>       0.04728307       0.36130864       0.46259104 </v>
   <v>       0.09425740       0.11418901       0.45755224 </v>
   <v>       0.09318788       0.27852469       0.46440299 </v>
   <v>       0.13882103       0.02811864       0.45939104 </v>
   <v>       0.13638538       0.35680617       0.47560896 </v>
   <v>       0.18213904       0.11198185       0.47250448 </v>
   <v>       0.17954189       0.27673827       0.48427463 </v>
   <v>       0.22604955       0.03056654       0.48228657 </v>
   <v>       0.21942282       0.35856049       0.49971045 </v>
   <v>       0.26583102       0.10753235       0.50077910 </v>
   <v>       0.26337077       0.27048148       0.50648060 </v>
   <v>       0.31044171       0.02530370       0.50696418 </v>
   <v>       0.30506631       0.35145185       0.51548060 </v>
   <v>       0.35122032       0.10708012       0.52246269 </v>
   <v>       0.34993619       0.27733951       0.52451642 </v>
   <v>       0.39350089       0.02607716       0.52987463 </v>
   <v>       0.39366488       0.35539506       0.53187463 </v>
   <v>       0.43627094       0.10665864       0.53965075 </v>
   <v>       0.43656328       0.27280864       0.54082090 </v>
   <v>       0.48152941       0.02012037       0.53575224 </v>
   <v>       0.48061676       0.34073951       0.54382985 </v>
   <v>       0.52529055       0.09395852       0.54199104 </v>
   <v>       0.52701604       0.26430000       0.54835224 </v>
   <v>       0.56901248       0.01294877       0.53618209 </v>
   <v>       0.57052050       0.34351728       0.54768060 </v>
   <v>       0.61239929       0.09433148       0.53142388 </v>
   <v>       0.61433155       0.26139012       0.54068358 </v>
   <v>       0.65666667       0.02236753       0.52535224 </v>
   <v>       0.65868449       0.34701111       0.53534627 </v>
   <v>       0.70018895       0.10077543       0.51668060 </v>
   <v>       0.70098039       0.26864691       0.52391045 </v>
   <v>       0.74144742       0.02228407       0.50439104 </v>
   <v>       0.74438503       0.35295926       0.51417612 </v>
   <v>       0.78323708       0.10121975       0.49349851 </v>
   <v>       0.78613547       0.27155926       0.50029254 </v>
   <v>       0.82463458       0.02158667       0.48077015 </v>
   <v>       0.82942246       0.34977654       0.49012239 </v>
   <v>       0.86592870       0.10088321       0.46840896 </v>
   <v>       0.86786453       0.26964074       0.47195522 </v>
   <v>       0.90878431       0.02357494       0.46165672 </v>
   <v>       0.91220677       0.35466790       0.46997910 </v>
   <v>       0.95180036       0.10472827       0.45562985 </v>
   <v>       0.95477362       0.27824568       0.46069851 </v>
   <v>       0.00848275       0.61138642       0.45294627 </v>
   <v>       0.00753230       0.78321852       0.44866269 </v>
   <v>       0.05074439       0.53330741       0.45983582 </v>
   <v>       0.05147166       0.86150247       0.45032239 </v>
   <v>       0.09514973       0.61374321       0.46194328 </v>
   <v>       0.09544955       0.78330494       0.45797313 </v>
   <v>       0.13636435       0.53086173       0.47338507 </v>
   <v>       0.14049234       0.85960988       0.46161791 </v>
   <v>       0.17982353       0.61336543       0.48078209 </v>
   <v>       0.18305668       0.77762840       0.47436119 </v>
   <v>       0.22167273       0.52727531       0.49186269 </v>
   <v>       0.22515080       0.86061728       0.48392537 </v>
   <v>       0.26711979       0.60356296       0.49358507 </v>
   <v>       0.26871301       0.77697654       0.49260000 </v>
   <v>       0.30876257       0.52296790       0.50568657 </v>
   <v>       0.31092264       0.85543580       0.50197313 </v>
   <v>       0.35248200       0.60265309       0.51380000 </v>
   <v>       0.35514011       0.77393333       0.51128358 </v>
   <v>       0.39240998       0.52226543       0.52587761 </v>
   <v>       0.39568627       0.85536296       0.52395522 </v>
   <v>       0.43793583       0.59537778       0.52884776 </v>
   <v>       0.43802139       0.76356049       0.52727761 </v>
   <v>       0.48211408       0.50922716       0.53953134 </v>
   <v>       0.48234581       0.84475556       0.53245672 </v>
   <v>       0.52658467       0.59144815       0.53757910 </v>
   <v>       0.52499109       0.76040741       0.53627463 </v>
   <v>       0.57094118       0.51170617       0.54434925 </v>
   <v>       0.56960071       0.84697407       0.53572537 </v>
   <v>       0.61501248       0.59239136       0.54145075 </v>
   <v>       0.61381105       0.75996790       0.53402388 </v>
   <v>       0.66010339       0.51493457       0.53899701 </v>
   <v>       0.65662745       0.85017037       0.52523284 </v>
   <v>       0.70294831       0.60540864       0.52729851 </v>
   <v>       0.70175758       0.77058148       0.52462687 </v>
   <v>       0.74381462       0.52079753       0.51467761 </v>
   <v>       0.74397504       0.85483210       0.51425672 </v>
   <v>       0.78751159       0.60468519       0.50402687 </v>
   <v>       0.78612478       0.77570864       0.50125075 </v>
   <v>       0.83016756       0.51901975       0.49031343 </v>
   <v>       0.82592513       0.85288025       0.48508060 </v>
   <v>       0.87030303       0.60331235       0.47669552 </v>
   <v>       0.86836720       0.77482346       0.47316418 </v>
   <v>       0.91458824       0.52303951       0.47147761 </v>
   <v>       0.90991087       0.85521605       0.46202687 </v>
   <v>       0.95482353       0.61540123       0.46227761 </v>
   <v>       0.95481283       0.77919012       0.45777612 </v>
  </varray>
 </structure>
 <calculation>
  <scstep>
   <time name="dav">   11.06   11.07</time>
   <time name="total">   11.52   11.56</time>
   <energy>
    <i name="alphaZ">     91.34886789 </i>
    <i name="ewald"> 120449.95222525 </i>
    <i name="hartreedc">-129755.82250725 </i>
    <i name="XCdc">   1222.88283601 </i>
    <i name="pawpsdc">   9984.02826696 </i>
    <i name="pawaedc"> -10036.41360137 </i>
    <i name="eentropy">     -0.89036897 </i>
    <i name="bandstr">  -1771.48101601 </i>
    <i name="atom">  13537.65479391 </i>
    <i name="e_fr_energy">   3721.25949642 </i>
    <i name="e_wo_entrp">   3722.14986539 </i>
    <i name="e_0_energy">   3721.70468090 </i>
   </energy>
  </scstep>
  <scstep>
   <time name="dav">   13.12   13.12</time>
   <time name="total">   13.12   13.12</time>
   <energy>
    <i name="e_fr_energy">    186.34370103 </i>
    <i name="e_wo_entrp">    186.57183399 </i>
    <i name="e_0_energy">    186.45776751 </i>
   </energy>
  </scstep>
  <scstep>
   <time name="dav">   11.34   11.35</time>
   <time name="total">   11.34   11.35</time>
   <energy>
    <i name="e_fr_energy">   -834.97110006 </i>
    <i name="e_wo_entrp">   -834.91607939 </i>
    <i name="e_0_energy">   -834.94358972 </i>
   </energy>
  </scstep>
  <scstep>
   <time name="dav">   10.89   10.89</time>
   <time name="total">   10.89   10.89</time>
   <energy>
    <i name="e_fr_energy">   -897.00401548 </i>
    <i name="e_wo_entrp">   -896.93548816 </i>
    <i name="e_0_energy">   -896.96975182 </i>
   </energy>
  </scstep>
  <scstep>
   <time name="dav">   11.32   11.32</time>
   <time name="total">   12.80   12.81</time>
   <energy>
    <i name="e_fr_energy">   -898.53509143 </i>
    <i name="e_wo_entrp">   -898.46618093 </i>
    <i name="e_0_energy">   -898.50063618 </i>
   </energy>
  </scstep>
  <scstep>
   <time name="dav">   10.27   10.28</time>
   <time name="total">   12.07   12.08</time>
   <energy>
    <i name="e_fr_energy">   -848.20871991 </i>
    <i name="e_wo_entrp">   -848.12355455 </i>
    <i name="e_0_energy">   -848.16613723 </i>
   </energy>
  </scstep>
  <scstep>
   <time name="dav">   10.10   10.10</time>
   <time name="total">   11.90   11.90</time>
   <energy>
    <i name="e_fr_energy">   -829.40001439 </i>
    <i name="e_wo_entrp">   -829.30850310 </i>
    <i name="e_0_energy">   -829.35425875 </i>
   </energy>
  </scstep>
  <scstep>
   <time name="dav">   10.31   10.31</time>
   <time name="total">   12.10   12.11</time>
   <energy>
    <i name="e_fr_energy">   -829.10369081 </i>
    <i name="e_wo_entrp">   -829.01171850 </i>
    <i name="e_0_energy">   -829.05770466 </i>
   </energy>
  </scstep>
  <scstep>
   <time name="dav">   10.72   10.72</time>
   <time name="total">   12.52   12.52</time>
   <energy>
    <i name="e_fr_energy">   -828.99816812 </i>
    <i name="e_wo_entrp">   -828.90797560 </i>
    <i name="e_0_energy">   -828.95307186 </i>
   </energy>
  </scstep>
  <scstep>
   <time name="dav">   11.02   11.02</time>
   <time name="total">   12.83   12.83</time>
   <energy>
    <i name="e_fr_energy">   -828.95790543 </i>
    <i name="e_wo_entrp">   -828.86739510 </i>
    <i name="e_0_energy">   -828.91265027 </i>
   </energy>
  </scstep>
  <scstep>
   <time name="dav">   10.13   10.14</time>
   <time name="total">   11.96   11.97</time>
   <energy>
    <i name="e_fr_energy">   -828.92356833 </i>
    <i name="e_wo_entrp">   -828.83276778 </i>
    <i name="e_0_energy">   -828.87816806 </i>
   </energy>
  </scstep>
  <scstep>
   <time name="dav">   10.08   10.09</time>
   <time name="total">   11.91   11.91</time>
   <energy>
    <i name="e_fr_energy">   -828.91733431 </i>
    <i name="e_wo_entrp">   -828.82687193 </i>
    <i name="e_0_energy">   -828.87210312 </i>
   </energy>
  </scstep>
  <scstep>
   <time name="dav">   10.00   10.01</time>
   <time name="total">   11.83   11.84</time>
   <energy>
    <i name="e_fr_energy">   -828.92870750 </i>
    <i name="e_wo_entrp">   -828.83791156 </i>
    <i name="e_0_energy">   -828.88330953 </i>
   </energy>
  </scstep>
  <scstep>
   <time name="dav">   10.34   10.34</time>
   <time name="total">   12.17   12.18</time>
   <energy>
    <i name="e_fr_energy">   -828.94493244 </i>
    <i name="e_wo_entrp">   -828.85434548 </i>
    <i name="e_0_energy">   -828.89963896 </i>
   </energy>
  </scstep>
  <scstep>
   <time name="dav">   10.16   10.17</time>
   <time name="total">   12.01   12.02</time>
   <energy>
    <i name="e_fr_energy">   -828.96595222 </i>
    <i name="e_wo_entrp">   -828.87530156 </i>
    <i name="e_0_energy">   -828.92062689 </i>
   </energy>
  </scstep>
  <scstep>
   <time name="dav">   10.42   10.42</time>
   <time name="total">   12.29   12.29</time>
   <energy>
    <i name="e_fr_energy">   -828.97627830 </i>
    <i name="e_wo_entrp">   -828.88563700 </i>
    <i name="e_0_energy">   -828.93095765 </i>
   </energy>
  </scstep>
  <scstep>
   <time name="dav">   10.29   10.30</time>
   <time name="total">   12.16   12.16</time>
   <energy>
    <i name="e_fr_energy">   -828.98136075 </i>
    <i name="e_wo_entrp">   -828.89072624 </i>
    <i name="e_0_energy">   -828.93604350 </i>
   </energy>
  </scstep>
  <scstep>
   <time name="dav">   10.41   10.41</time>
   <time name="total">   12.28   12.29</time>
   <energy>
    <i name="e_fr_energy">   -828.98390468 </i>
    <i name="e_wo_entrp">   -828.89324230 </i>
    <i name="e_0_energy">   -828.93857349 </i>
   </energy>
  </scstep>
  <scstep>
   <time name="dav">    9.38    9.38</time>
   <time name="total">   11.27   11.28</time>
   <energy>
    <i name="e_fr_energy">   -828.98514179 </i>
    <i name="e_wo_entrp">   -828.89448981 </i>
    <i name="e_0_energy">   -828.93981580 </i>
   </energy>
  </scstep>
  <scstep>
   <time name="dav">    9.28    9.28</time>
   <time name="total">   11.18   11.19</time>
   <energy>
    <i name="e_fr_energy">   -828.98561344 </i>
    <i name="e_wo_entrp">   -828.89495813 </i>
    <i name="e_0_energy">   -828.94028578 </i>
   </energy>
  </scstep>
  <scstep>
   <time name="dav">    8.79    8.79</time>
   <time name="total">   10.72   10.72</time>
   <energy>
    <i name="e_fr_energy">   -828.98585275 </i>
    <i name="e_wo_entrp">   -828.89519759 </i>
    <i name="e_0_energy">   -828.94052517 </i>
   </energy>
  </scstep>
  <scstep>
   <time name="dav">    7.64    7.64</time>
   <time name="total">    9.57    9.57</time>
   <energy>
    <i name="e_fr_energy">   -828.98591357 </i>
    <i name="e_wo_entrp">   -828.89525901 </i>
    <i name="e_0_energy">   -828.94058629 </i>
   </energy>
  </scstep>
  <scstep>
   <time name="dav">    7.13    7.14</time>
   <time name="total">    9.07    9.08</time>
   <energy>
    <i name="e_fr_energy">   -828.98594703 </i>
    <i name="e_wo_entrp">   -828.89529213 </i>
    <i name="e_0_energy">   -828.94061958 </i>
   </energy>
  </scstep>
  <scstep>
   <time name="dav">    7.14    7.14</time>
   <time name="total">    9.09    9.09</time>
   <energy>
    <i name="e_fr_energy">   -828.98596443 </i>
    <i name="e_wo_entrp">   -828.89530968 </i>
    <i name="e_0_energy">   -828.94063705 </i>
   </energy>
  </scstep>
  <scstep>
   <time name="dav">    7.49    7.49</time>
   <time name="total">    9.46    9.46</time>
   <energy>
    <i name="e_fr_energy">   -828.98596781 </i>
    <i name="e_wo_entrp">   -828.89531293 </i>
    <i name="e_0_energy">   -828.94064037 </i>
   </energy>
  </scstep>
  <scstep>
   <time name="dav">    7.02    7.02</time>
   <time name="total">    9.02    9.02</time>
   <energy>
    <i name="e_fr_energy">   -828.98597186 </i>
    <i name="e_wo_entrp">   -828.89531697 </i>
    <i name="e_0_energy">   -828.94064442 </i>
   </energy>
  </scstep>
  <scstep>
   <time name="dav">    7.40    7.40</time>
   <time name="total">    9.40    9.40</time>
   <energy>
    <i name="e_fr_energy">   -828.98597295 </i>
    <i name="e_wo_entrp">   -828.89531812 </i>
    <i name="e_0_energy">   -828.94064554 </i>
   </energy>
  </scstep>
  <scstep>
   <time name="dav">    7.11    7.11</time>
   <time name="total">    9.12    9.13</time>
   <energy>
    <i name="e_fr_energy">   -828.98597488 </i>
    <i name="e_wo_entrp">   -828.89532001 </i>
    <i name="e_0_energy">   -828.94064744 </i>
   </energy>
  </scstep>
  <scstep>
   <time name="dav">    7.27    7.27</time>
   <time name="total">    7.63    7.63</time>
   <energy>
    <i name="alphaZ">     91.34886789 </i>
    <i name="ewald"> 120449.95222525 </i>
    <i name="hartreedc">-131537.79719086 </i>
    <i name="XCdc">   1280.60663182 </i>
    <i name="pawpsdc">  41461.40447462 </i>
    <i name="pawaedc"> -41525.61687658 </i>
    <i name="eentropy">     -0.09065486 </i>
    <i name="bandstr">  -4586.44824670 </i>
    <i name="atom">  13537.65479391 </i>
    <i name="e_fr_energy">   -828.98597552 </i>
    <i name="e_wo_entrp">   -828.89532066 </i>
    <i name="e_0_energy">   -828.94064809 </i>
   </energy>
  </scstep>
  <structure>
   <crystal>
    <varray name="basis" >
     <v>      28.05000000       0.00000000       0.00000000 </v>
     <v>       0.00000000       8.10000000       0.00000000 </v>
     <v>       0.00000000       0.00000000      33.50000000 </v>
    </varray>
    <i name="volume">   7611.36750000 </i>
    <varray name="rec_basis" >
     <v>       0.03565062       0.00000000       0.00000000 </v>
     <v>       0.00000000       0.12345679       0.00000000 </v>
     <v>       0.00000000       0.00000000       0.02985075 </v>
    </varray>
   </crystal>
   <varray name="positions" >
    <v>       0.00425586       0.10038284       0.45515821 </v>
    <v>       0.00377312       0.28244815       0.46418806 </v>
    <v>       0.04908734       0.03520333       0.45159104 </v>
    <v>       0.04728307       0.36130864       0.46259104 </v>
    <v>       0.09425740       0.11418901       0.45755224 </v>
    <v>       0.09318788       0.27852469       0.46440299 </v>
    <v>       0.13882103       0.02811864       0.45939104 </v>
    <v>       0.13638538       0.35680617       0.47560896 </v>
    <v>       0.18213904       0.11198185       0.47250448 </v>
    <v>       0.17954189       0.27673827       0.48427463 </v>
    <v>       0.22604955       0.03056654       0.48228657 </v>
    <v>       0.21942282       0.35856049       0.49971045 </v>
    <v>       0.26583102       0.10753235       0.50077910 </v>
    <v>       0.26337077       0.27048148       0.50648060 </v>
    <v>       0.31044171       0.02530370       0.50696418 </v>
    <v>       0.30506631       0.35145185       0.51548060 </v>
    <v>       0.35122032       0.10708012       0.52246269 </v>
    <v>       0.34993619       0.27733951       0.52451642 </v>
    <v>       0.39350089       0.02607716       0.52987463 </v>
    <v>       0.39366488       0.35539506       0.53187463 </v>
    <v>       0.43627094       0.10665864       0.53965075 </v>
    <v>       0.43656328       0.27280864       0.54082090 </v>
    <v>       0.48152941       0.02012037       0.53575224 </v>
    <v>       0.48061676       0.34073951       0.54382985 </v>
    <v>       0.52529055       0.09395852       0.54199104 </v>
    <v>       0.52701604       0.26430000       0.54835224 </v>
    <v>       0.56901248       0.01294877       0.53618209 </v>
    <v>       0.57052050       0.34351728       0.54768060 </v>
    <v>       0.61239929       0.09433148       0.53142388 </v>
    <v>       0.61433155       0.26139012       0.54068358 </v>
    <v>       0.65666667       0.02236753       0.52535224 </v>
    <v>       0.65868449       0.34701111       0.53534627 </v>
    <v>       0.70018895       0.10077543       0.51668060 </v>
    <v>       0.70098039       0.26864691       0.52391045 </v>
    <v>       0.74144742       0.02228407       0.50439104 </v>
    <v>       0.74438503       0.35295926       0.51417612 </v>
    <v>       0.78323708       0.10121975       0.49349851 </v>
    <v>       0.78613547       0.27155926       0.50029254 </v>
    <v>       0.82463458       0.02158667       0.48077015 </v>
    <v>       0.82942246       0.34977654       0.49012239 </v>
    <v>       0.86592870       0.10088321       0.46840896 </v>
    <v>       0.86786453       0.26964074       0.47195522 </v>
    <v>       0.90878431       0.02357494       0.46165672 </v>
    <v>       0.91220677       0.35466790       0.46997910 </v>
    <v>       0.95180036       0.10472827       0.45562985 </v>
    <v>       0.95477362       0.27824568       0.46069851 </v>
    <v>       0.00848275       0.61138642       0.45294627 </v>
    <v>       0.00753230       0.78321852       0.44866269 </v>
    <v>       0.05074439       0.53330741       0.45983582 </v>
    <v>       0.05147166       0.86150247       0.45032239 </v>
    <v>       0.09514973       0.61374321       0.46194328 </v>
    <v>       0.09544955       0.78330494       0.45797313 </v>
    <v>       0.13636435       0.53086173       0.47338507 </v>
    <v>       0.14049234       0.85960988       0.46161791 </v>
    <v>       0.17982353       0.61336543       0.48078209 </v>
    <v>       0.18305668       0.77762840       0.47436119 </v>
    <v>       0.22167273       0.52727531       0.49186269 </v>
    <v>       0.22515080       0.86061728       0.48392537 </v>
    <v>       0.26711979       0.60356296       0.49358507 </v>
    <v>       0.26871301       0.77697654       0.49260000 </v>
    <v>       0.30876257       0.52296790       0.50568657 </v>
    <v>       0.31092264       0.85543580       0.50197313 </v>
    <v>       0.35248200       0.60265309       0.51380000 </v>
    <v>       0.35514011       0.77393333       0.51128358 </v>
    <v>       0.39240998       0.52226543       0.52587761 </v>
    <v>       0.39568627       0.85536296       0.52395522 </v>
    <v>       0.43793583       0.59537778       0.52884776 </v>
    <v>       0.43802139       0.76356049       0.52727761 </v>
    <v>       0.48211408       0.50922716       0.53953134 </v>
    <v>       0.48234581       0.84475556       0.53245672 </v>
    <v>       0.52658467       0.59144815       0.53757910 </v>
    <v>       0.52499109       0.76040741       0.53627463 </v>
    <v>       0.57094118       0.51170617       0.54434925 </v>
    <v>       0.56960071       0.84697407       0.53572537 </v>
    <v>       0.61501248       0.59239136       0.54145075 </v>
    <v>       0.61381105       0.75996790       0.53402388 </v>
    <v>       0.66010339       0.51493457       0.53899701 </v>
    <v>       0.65662745       0.85017037       0.52523284 </v>
    <v>       0.70294831       0.60540864       0.52729851 </v>
    <v>       0.70175758       0.77058148       0.52462687 </v>
    <v>       0.74381462       0.52079753       0.51467761 </v>
    <v>       0.74397504       0.85483210       0.51425672 </v>
    <v>       0.78751159       0.60468519       0.50402687 </v>
    <v>       0.78612478       0.77570864       0.50125075 </v>
    <v>       0.83016756       0.51901975       0.49031343 </v>
    <v>       0.82592513       0.85288025       0.48508060 </v>
    <v>       0.87030303       0.60331235       0.47669552 </v>
    <v>       0.86836720       0.77482346       0.47316418 </v>
    <v>       0.91458824       0.52303951       0.47147761 </v>
    <v>       0.90991087       0.85521605       0.46202687 </v>
    <v>       0.95482353       0.61540123       0.46227761 </v>
    <v>       0.95481283       0.77919012       0.45777612 </v>
   </varray>
  </structure>
  <varray name="forces" >
   <v>       1.90709972       3.93210562       1.08419531 </v>
   <v>       4.19497358      -3.14682501      -1.68045580 </v>
   <v>       0.31090611      -2.01390545       0.05059445 </v>
   <v>       0.89061529       0.31068252       0.92334355 </v>
   <v>      -0.30380719      -0.88335412      -0.32124359 </v>
   <v>      -0.30703106       0.53025462       0.43528612 </v>
   <v>       1.45930099       1.80998558       1.02811291 </v>
   <v>      -0.82405956       2.02611674      -0.43397515 </v>
   <v>      -0.10159013      -0.19096654       0.66870641 </v>
   <v>      -1.04793080      -0.88118752      -0.52292529 </v>
   <v>      -1.09985950      -0.25489645       0.67884359 </v>
   <v>       1.25503706      -0.15146015      -1.27379100 </v>
   <v>       0.36947191      -2.05721736      -1.19266150 </v>
   <v>      -1.46231823       2.22615893       0.55988911 </v>
   <v>      -0.92138281       0.11628725       0.54489366 </v>
   <v>       2.72314255       3.04285120      -0.53786300 </v>
   <v>      -1.43188773      -0.17638616      -0.42860991 </v>
   <v>      -0.80232372      -1.29411176       0.35287602 </v>
   <v>       1.29691392      -1.57235122       0.12569702 </v>
   <v>      -1.28484312       0.17800813       0.10598286 </v>
   <v>       0.85118014      -2.87775838      -1.04699718 </v>
   <v>      -1.23635144      -0.55215000      -0.03135396 </v>
   <v>      -1.29770674      -1.57491404       1.22450562 </v>
   <v>       3.02566565       2.52147645       0.92784528 </v>
   <v>       0.72165154       1.47472280      -0.11253591 </v>
   <v>      -2.64897106      -1.59880740      -0.69100736 </v>
   <v>       0.08401681       0.41103467      -0.15098956 </v>
   <v>       0.87420841       0.01008186      -0.03065626 </v>
   <v>       0.63843322       2.21684792       1.42320984 </v>
   <v>       0.18668242       0.30642020      -0.56684968 </v>
   <v>       0.02284403      -2.63848522      -1.17704647 </v>
   <v>      -0.26734513      -0.76313584       0.65098086 </v>
   <v>      -1.22045992       1.51834020       0.70476977 </v>
   <v>       1.07442693      -0.23680719      -1.09965338 </v>
   <v>      -0.03704500      -1.79577003       1.34791568 </v>
   <v>      -0.31094989      -1.07891019       0.06881460 </v>
   <v>       0.42551322       1.96596190       0.16709488 </v>
   <v>      -0.58627063      -0.73771241      -0.45185176 </v>
   <v>      -0.47191314      -0.68129278       0.07497807 </v>
   <v>      -1.16823547       0.21102761      -0.68235298 </v>
   <v>      -0.05654962       1.61293187       0.24942795 </v>
   <v>       0.70291910       0.65612861       1.15576233 </v>
   <v>       1.79678647      -0.26974008      -1.35187093 </v>
   <v>       0.77857893      -0.33903089      -0.93354581 </v>
   <v>      -0.45159632       1.77522248       0.15724304 </v>
   <v>      -4.40062559      -2.13951821       0.36221908 </v>
   <v>      -0.68539105       1.66079929       0.43986195 </v>
   <v>       0.77174052      -1.88163269       0.24281184 </v>
   <v>      -0.63710452      -1.18550517      -0.15875788 </v>
   <v>      -0.73666797       1.31869486      -0.33081169 </v>
   <v>      -0.99086552      -0.00087049       0.28084791 </v>
   <v>       0.14982344      -1.25369744      -0.79508195 </v>
   <v>       0.93463623      -1.12384250       0.64851599 </v>
   <v>      -0.23082879       0.13003326       0.04795315 </v>
   <v>       0.14158134      -1.92052531      -0.07469579 </v>
   <v>      -1.25624633       1.48781014      -0.61708902 </v>
   <v>       0.40790915      -0.35152510       0.64116276 </v>
   <v>       1.27656320      -0.11047551      -0.94750484 </v>
   <v>      -0.36016349       1.21523035       0.75733105 </v>
   <v>      -1.32570485      -1.28512785      -0.64129305 </v>
   <v>      -0.43512682      -1.71353870       1.16819129 </v>
   <v>       1.74070370       0.82002767       0.36850707 </v>
   <v>      -1.36817194       1.20859576      -0.96011929 </v>
   <v>      -2.43780436      -0.40700934      -0.27123903 </v>
   <v>       3.10385289      -1.21568192       0.55262910 </v>
   <v>       0.00685209       0.15449210      -0.65659829 </v>
   <v>       0.64862233      -0.28238365       0.93462812 </v>
   <v>       1.47440002       1.46800178       0.40231059 </v>
   <v>      -1.01298528       1.33803333      -1.52333804 </v>
   <v>      -1.39213608       1.63742663      -0.04182735 </v>
   <v>      -0.40332153      -0.39910911       1.31269822 </v>
   <v>       1.69213214       1.00060873      -0.57685469 </v>
   <v>      -0.44532037       0.67786868      -0.02540165 </v>
   <v>      -0.32752984      -2.69330241      -0.34850581 </v>
   <v>       0.43005673       0.97750773      -0.25404598 </v>
   <v>       0.26111844       1.79447404      -0.28130089 </v>
   <v>       0.19525168       1.37291412      -0.87635748 </v>
   <v>       0.04536997      -0.61663240       1.31146786 </v>
   <v>      -1.34703337      -2.88504653       0.82404801 </v>
   <v>      -0.36199092       1.81449166      -0.47505231 </v>
   <v>       2.07419697       1.25129184       0.66603183 </v>
   <v>       0.11502578       0.50875805      -2.18117700 </v>
   <v>       0.05151351      -0.92145379      -0.66966939 </v>
   <v>      -0.23224794      -1.65844518       0.93883152 </v>
   <v>      -1.94197377       1.26581763       1.08480330 </v>
   <v>       0.35121699       0.77790745      -0.67329217 </v>
   <v>       0.61377752       0.95546721       0.60388065 </v>
   <v>      -0.27238427      -2.06729890       0.36344104 </v>
   <v>      -1.03412958       1.40026286      -0.06518413 </v>
   <v>       1.40322685       0.28727969      -0.01054295 </v>
   <v>       1.07650108      -2.59463806      -0.13106032 </v>
   <v>      -1.58025814       1.09799446      -0.35810382 </v>
  </varray>
  <varray name="stress" >
   <v>       2.84340586       0.16116129      -0.07677400 </v>
   <v>       0.16116130      53.58032813       0.50497921 </v>
   <v>      -0.07677399       0.50497921      -0.71379571 </v>
  </varray>
  <energy>
   <i name="e_fr_energy">   -828.98597552 </i>
   <i name="e_wo_entrp">   -828.89532066 </i>
   <i name="e_0_energy">   -828.94064809 </i>
  </energy>
  <time name="totalsc">  334.73  334.93</time>
  <eigenvalues>
   <array>
    <dimension dim="1">band</dimension>
    <dimension dim="2">kpoint</dimension>
    <dimension dim="3">spin</dimension>
    <field>eigene</field>
    <field>occ</field>
    <set>
     <set comment="spin 1">
      <set comment="kpoint 1">
       <r>  -23.1893    1.0000 </r>
       <r>  -23.0912    1.0000 </r>
       <r>  -23.0000    1.0000 </r>
       <r>  -22.6778    1.0000 </r>
       <r>  -22.6406    1.0000 </r>
       <r>  -22.1202    1.0000 </r>
       <r>  -22.0344    1.0000 </r>
       <r>  -22.0206    1.0000 </r>
       <r>  -21.6006    1.0000 </r>
       <r>  -21.5450    1.0000 </r>
       <r>  -21.4105    1.0000 </r>
       <r>  -21.3978    1.0000 </r>
       <r>  -21.2865    1.0000 </r>
       <r>  -21.2325    1.0000 </r>
       <r>  -21.1846    1.0000 </r>
       <r>  -21.0772    1.0000 </r>
       <r>  -21.0385    1.0000 </r>
       <r>  -21.0173    1.0000 </r>
       <r>  -20.7778    1.0000 </r>
       <r>  -20.5877    1.0000 </r>
       <r>  -20.4472    1.0000 </r>
       <r>  -20.4062    1.0000 </r>
       <r>  -20.1697    1.0000 </r>
       <r>  -20.0415    1.0000 </r>
       <r>  -19.9807    1.0000 </r>
       <r>  -19.7373    1.0000 </r>
       <r>  -19.5310    1.0000 </r>
       <r>  -19.4920    1.0000 </r>
       <r>  -19.2295    1.0000 </r>
       <r>  -18.8811    1.0000 </r>
       <r>  -18.7325    1.0000 </r>
       <r>  -18.6920    1.0000 </r>
       <r>  -18.5305    1.0000 </r>
       <r>  -18.3844    1.0000 </r>
       <r>  -18.1856    1.0000 </r>
       <r>  -17.5703    1.0000 </r>
       <r>  -17.3976    1.0000 </r>
       <r>  -17.2267    1.0000 </r>
       <r>  -17.0942    1.0000 </r>
       <r>  -16.9700    1.0000 </r>
       <r>  -16.8857    1.0000 </r>
       <r>  -16.7225    1.0000 </r>
       <r>  -16.7051    1.0000 </r>
       <r>  -16.6616    1.0000 </r>
       <r>  -16.5791    1.0000 </r>
       <r>  -16.5680    1.0000 </r>
       <r>  -16.5244    1.0000 </r>
       <r>  -16.4775    1.0000 </r>
       <r>  -16.3715    1.0000 </r>
       <r>  -16.3600    1.0000 </r>
       <r>  -16.2731    1.0000 </r>
       <r>  -16.1621    1.0000 </r>
       <r>  -16.1433    1.0000 </r>
       <r>  -16.0162    1.0000 </r>
       <r>  -15.8863    1.0000 </r>
       <r>  -15.6219    1.0000 </r>
       <r>  -15.4991    1.0000 </r>
       <r>  -15.3505    1.0000 </r>
       <r>  -15.2843    1.0000 </r>
       <r>  -15.1880    1.0000 </r>
       <r>  -15.1469    1.0000 </r>
       <r>  -14.9894    1.0000 </r>
       <r>  -14.4059    1.0000 </r>
       <r>  -14.2377    1.0000 </r>
       <r>  -14.1330    1.0000 </r>
       <r>  -14.0468    1.0000 </r>
       <r>  -13.9684    1.0000 </r>
       <r>  -13.8127    1.0000 </r>
       <r>  -13.6994    1.0000 </r>
       <r>  -13.6406    1.0000 </r>
       <r>  -13.4902    1.0000 </r>
       <r>  -13.4304    1.0000 </r>
       <r>  -13.2991    1.0000 </r>
       <r>  -13.2391    1.0000 </r>
       <r>  -13.0042    1.0000 </r>
       <r>  -12.9482    1.0000 </r>
       <r>  -12.6416    1.0000 </r>
       <r>  -12.4236    1.0000 </r>
       <r>  -12.1859    1.0000 </r>
       <r>  -12.1452    1.0000 </r>
       <r>  -12.0720    1.0000 </r>
       <r>  -11.9960    1.0000 </r>
       <r>  -11.9662    1.0000 </r>
       <r>  -11.8443    1.0000 </r>
       <r>  -11.7093    1.0000 </r>
       <r>  -11.5342    1.0000 </r>
       <r>  -11.3447    1.0000 </r>
       <r>  -11.1989    1.0000 </r>
       <r>  -11.1108    1.0000 </r>
       <r>  -11.0416    1.0000 </r>
       <r>  -11.0078    1.0000 </r>
       <r>  -10.8875    1.0000 </r>
       <r>  -10.8179    1.0000 </r>
       <r>  -10.7358    1.0000 </r>
       <r>  -10.6913    1.0000 </r>
       <r>  -10.6379    1.0000 </r>
       <r>  -10.5821    1.0000 </r>
       <r>  -10.5170    1.0000 </r>
       <r>  -10.4612    1.0000 </r>
       <r>  -10.4443    1.0000 </r>
       <r>  -10.3966    1.0000 </r>
       <r>  -10.3256    1.0000 </r>
       <r>  -10.2672    1.0000 </r>
       <r>  -10.1416    1.0000 </r>
       <r>  -10.1129    1.0000 </r>
       <r>   -9.9828    1.0000 </r>
       <r>   -9.9077    1.0000 </r>
       <r>   -9.7947    1.0000 </r>
       <r>   -9.7907    1.0000 </r>
       <r>   -9.7460    1.0000 </r>
       <r>   -9.6784    1.0000 </r>
       <r>   -9.6552    1.0000 </r>
       <r>   -9.6180    1.0000 </r>
       <r>   -9.6082    1.0000 </r>
       <r>   -9.5674    1.0000 </r>
       <r>   -9.5261    1.0000 </r>
       <r>   -9.5220    1.0000 </r>
       <r>   -9.4914    1.0000 </r>
       <r>   -9.4636    1.0000 </r>
       <r>   -9.4134    1.0000 </r>
       <r>   -9.4104    1.0000 </r>
       <r>   -9.3906    1.0000 </r>
       <r>   -9.3513    1.0000 </r>
       <r>   -9.2927    1.0000 </r>
       <r>   -9.2690    1.0000 </r>
       <r>   -9.2099    1.0000 </r>
       <r>   -9.1817    1.0000 </r>
       <r>   -9.1447    1.0000 </r>
       <r>   -9.1222    1.0000 </r>
       <r>   -9.1002    1.0000 </r>
       <r>   -9.0622    1.0000 </r>
       <r>   -8.9973    1.0000 </r>
       <r>   -8.9728    1.0000 </r>
       <r>   -8.9593    1.0000 </r>
       <r>   -8.9308    1.0000 </r>
       <r>   -8.8769    1.0000 </r>
       <r>   -8.8489    1.0000 </r>
       <r>   -8.7908    1.0000 </r>
       <r>   -8.7209    1.0000 </r>
       <r>   -8.6679    1.0000 </r>
       <r>   -8.6227    1.0000 </r>
       <r>   -8.6109    1.0000 </r>
       <r>   -8.5764    1.0000 </r>
       <r>   -8.5231    1.0000 </r>
       <r>   -8.3805    1.0000 </r>
       <r>   -8.2720    1.0000 </r>
       <r>   -8.0451    1.0000 </r>
       <r>   -8.0328    1.0000 </r>
       <r>   -7.8749    1.0000 </r>
       <r>   -7.7849    1.0000 </r>
       <r>   -7.7229    1.0000 </r>
       <r>   -7.6474    1.0000 </r>
       <r>   -7.5637    1.0000 </r>
       <r>   -7.4639    1.0000 </r>
       <r>   -7.3947    1.0000 </r>
       <r>   -7.3484    1.0000 </r>
       <r>   -7.1624    1.0000 </r>
       <r>   -7.1094    1.0000 </r>
       <r>   -7.0405    1.0000 </r>
       <r>   -6.9332    1.0000 </r>
       <r>   -6.7837    1.0000 </r>
       <r>   -6.7589    1.0000 </r>
       <r>   -6.6071    1.0000 </r>
       <r>   -6.5040    1.0000 </r>
       <r>   -6.4032    1.0000 </r>
       <r>   -6.2300    1.0000 </r>
       <r>   -6.1865    1.0000 </r>
       <r>   -6.0470    1.0000 </r>
       <r>   -5.9995    1.0000 </r>
       <r>   -5.9153    1.0000 </r>
       <r>   -5.8805    1.0000 </r>
       <r>   -5.8182    1.0000 </r>
       <r>   -5.6741    1.0000 </r>
       <r>   -5.1124    1.0000 </r>
       <r>   -4.9910    1.0000 </r>
       <r>   -4.8638    1.0000 </r>
       <r>   -4.6629    1.0000 </r>
       <r>   -4.5502    1.0000 </r>
       <r>   -4.4821    1.0000 </r>
       <r>   -4.3913    1.0000 </r>
       <r>   -4.3710    1.0000 </r>
       <r>   -3.8346    1.0000 </r>
       <r>   -3.6961    1.0000 </r>
       <r>   -3.0751    0.4116 </r>
       <r>   -3.0343    0.3045 </r>
       <r>   -2.8150    0.0196 </r>
       <r>   -2.6807    0.0013 </r>
       <r>   -2.4737    0.0000 </r>
       <r>   -2.1397    0.0000 </r>
       <r>   -2.0283    0.0000 </r>
       <r>   -1.6530    0.0000 </r>
       <r>   -1.5632    0.0000 </r>
       <r>   -1.5116    0.0000 </r>
       <r>   -1.4702    0.0000 </r>
       <r>   -1.4324    0.0000 </r>
       <r>   -1.4195    0.0000 </r>
       <r>   -1.3094    0.0000 </r>
       <r>   -0.9603    0.0000 </r>
       <r>   -0.7931    0.0000 </r>
       <r>   -0.6528    0.0000 </r>
       <r>   -0.4982    0.0000 </r>
       <r>   -0.4162    0.0000 </r>
       <r>   -0.0462    0.0000 </r>
       <r>    0.0815    0.0000 </r>
       <r>    0.1168    0.0000 </r>
       <r>    0.1300    0.0000 </r>
       <r>    0.2535    0.0000 </r>
       <r>    0.5999    0.0000 </r>
       <r>    0.6796    0.0000 </r>
       <r>    0.7000    0.0000 </r>
       <r>    0.7816    0.0000 </r>
       <r>    0.8724    0.0000 </r>
       <r>    0.9030    0.0000 </r>
       <r>    0.9148    0.0000 </r>
       <r>    0.9617    0.0000 </r>
       <r>    0.9813    0.0000 </r>
       <r>    1.1068    0.0000 </r>
       <r>    1.1515    0.0000 </r>
       <r>    1.1574    0.0000 </r>
       <r>    1.2160    0.0000 </r>
       <r>    1.3054    0.0000 </r>
       <r>    1.3207    0.0000 </r>
       <r>    1.3342    0.0000 </r>
       <r>    1.4023    0.0000 </r>
       <r>    1.4573    0.0000 </r>
       <r>    1.5399    0.0000 </r>
       <r>    1.5649    0.0000 </r>
       <r>    1.6415    0.0000 </r>
       <r>    1.7174    0.0000 </r>
       <r>    1.7291    0.0000 </r>
       <r>    1.7298    0.0000 </r>
       <r>    1.8591    0.0000 </r>
      </set>
      <set comment="kpoint 2">
       <r>  -23.0911    1.0000 </r>
       <r>  -22.9967    1.0000 </r>
       <r>  -22.9023    1.0000 </r>
       <r>  -22.5819    1.0000 </r>
       <r>  -22.5522    1.0000 </r>
       <r>  -22.3548    1.0000 </r>
       <r>  -22.2352    1.0000 </r>
       <r>  -22.1074    1.0000 </r>
       <r>  -21.9571    1.0000 </r>
       <r>  -21.9315    1.0000 </r>
       <r>  -21.8185    1.0000 </r>
       <r>  -21.7368    1.0000 </r>
       <r>  -21.2704    1.0000 </r>
       <r>  -21.1540    1.0000 </r>
       <r>  -21.1019    1.0000 </r>
       <r>  -20.9833    1.0000 </r>
       <r>  -20.6770    1.0000 </r>
       <r>  -20.5421    1.0000 </r>
       <r>  -20.4854    1.0000 </r>
       <r>  -20.3246    1.0000 </r>
       <r>  -20.2277    1.0000 </r>
       <r>  -20.1622    1.0000 </r>
       <r>  -20.0526    1.0000 </r>
       <r>  -19.9137    1.0000 </r>
       <r>  -19.8596    1.0000 </r>
       <r>  -19.5603    1.0000 </r>
       <r>  -19.5071    1.0000 </r>
       <r>  -19.1432    1.0000 </r>
       <r>  -19.0444    1.0000 </r>
       <r>  -18.8447    1.0000 </r>
       <r>  -18.6861    1.0000 </r>
       <r>  -18.6022    1.0000 </r>
       <r>  -18.5586    1.0000 </r>
       <r>  -18.3123    1.0000 </r>
       <r>  -18.1989    1.0000 </r>
       <r>  -18.1135    1.0000 </r>
       <r>  -18.0454    1.0000 </r>
       <r>  -17.9913    1.0000 </r>
       <r>  -17.8672    1.0000 </r>
       <r>  -17.7179    1.0000 </r>
       <r>  -17.4872    1.0000 </r>
       <r>  -17.3975    1.0000 </r>
       <r>  -17.3258    1.0000 </r>
       <r>  -17.1683    1.0000 </r>
       <r>  -16.9874    1.0000 </r>
       <r>  -16.6598    1.0000 </r>
       <r>  -16.3596    1.0000 </r>
       <r>  -16.1735    1.0000 </r>
       <r>  -16.1186    1.0000 </r>
       <r>  -15.9041    1.0000 </r>
       <r>  -15.8318    1.0000 </r>
       <r>  -15.6871    1.0000 </r>
       <r>  -15.5828    1.0000 </r>
       <r>  -15.4133    1.0000 </r>
       <r>  -15.3065    1.0000 </r>
       <r>  -15.2277    1.0000 </r>
       <r>  -15.1492    1.0000 </r>
       <r>  -15.1116    1.0000 </r>
       <r>  -15.0258    1.0000 </r>
       <r>  -14.9797    1.0000 </r>
       <r>  -14.9144    1.0000 </r>
       <r>  -14.7496    1.0000 </r>
       <r>  -14.5832    1.0000 </r>
       <r>  -14.4039    1.0000 </r>
       <r>  -14.2826    1.0000 </r>
       <r>  -14.1621    1.0000 </r>
       <r>  -14.0167    1.0000 </r>
       <r>  -13.8353    1.0000 </r>
       <r>  -13.3766    1.0000 </r>
       <r>  -13.2570    1.0000 </r>
       <r>  -13.2124    1.0000 </r>
       <r>  -13.1679    1.0000 </r>
       <r>  -12.9536    1.0000 </r>
       <r>  -12.8753    1.0000 </r>
       <r>  -12.8153    1.0000 </r>
       <r>  -12.7551    1.0000 </r>
       <r>  -12.6691    1.0000 </r>
       <r>  -12.5434    1.0000 </r>
       <r>  -12.3828    1.0000 </r>
       <r>  -12.2966    1.0000 </r>
       <r>  -12.1564    1.0000 </r>
       <r>  -12.0874    1.0000 </r>
       <r>  -12.0156    1.0000 </r>
       <r>  -11.9753    1.0000 </r>
       <r>  -11.6723    1.0000 </r>
       <r>  -11.6297    1.0000 </r>
       <r>  -11.5374    1.0000 </r>
       <r>  -11.3610    1.0000 </r>
       <r>  -11.2557    1.0000 </r>
       <r>  -11.2196    1.0000 </r>
       <r>  -11.0895    1.0000 </r>
       <r>  -11.0567    1.0000 </r>
       <r>  -11.0113    1.0000 </r>
       <r>  -10.9681    1.0000 </r>
       <r>  -10.9466    1.0000 </r>
       <r>  -10.8874    1.0000 </r>
       <r>  -10.8559    1.0000 </r>
       <r>  -10.8077    1.0000 </r>
       <r>  -10.7420    1.0000 </r>
       <r>  -10.6854    1.0000 </r>
       <r>  -10.5978    1.0000 </r>
       <r>  -10.5296    1.0000 </r>
       <r>  -10.4633    1.0000 </r>
       <r>  -10.4228    1.0000 </r>
       <r>  -10.3735    1.0000 </r>
       <r>  -10.3394    1.0000 </r>
       <r>  -10.2462    1.0000 </r>
       <r>  -10.1157    1.0000 </r>
       <r>  -10.0876    1.0000 </r>
       <r>  -10.0067    1.0000 </r>
       <r>   -9.9929    1.0000 </r>
       <r>   -9.9380    1.0000 </r>
       <r>   -9.8711    1.0000 </r>
       <r>   -9.7699    1.0000 </r>
       <r>   -9.7387    1.0000 </r>
       <r>   -9.6902    1.0000 </r>
       <r>   -9.6667    1.0000 </r>
       <r>   -9.6325    1.0000 </r>
       <r>   -9.5722    1.0000 </r>
       <r>   -9.5530    1.0000 </r>
       <r>   -9.5205    1.0000 </r>
       <r>   -9.4465    1.0000 </r>
       <r>   -9.3844    1.0000 </r>
       <r>   -9.3364    1.0000 </r>
       <r>   -9.2729    1.0000 </r>
       <r>   -9.1920    1.0000 </r>
       <r>   -9.0160    1.0000 </r>
       <r>   -8.8880    1.0000 </r>
       <r>   -8.8380    1.0000 </r>
       <r>   -8.8021    1.0000 </r>
       <r>   -8.7475    1.0000 </r>
       <r>   -8.7274    1.0000 </r>
       <r>   -8.6700    1.0000 </r>
       <r>   -8.6411    1.0000 </r>
       <r>   -8.5989    1.0000 </r>
       <r>   -8.5645    1.0000 </r>
       <r>   -8.5046    1.0000 </r>
       <r>   -8.4232    1.0000 </r>
       <r>   -8.3781    1.0000 </r>
       <r>   -8.2915    1.0000 </r>
       <r>   -8.2682    1.0000 </r>
       <r>   -8.2303    1.0000 </r>
       <r>   -8.1410    1.0000 </r>
       <r>   -8.0891    1.0000 </r>
       <r>   -8.0044    1.0000 </r>
       <r>   -7.9113    1.0000 </r>
       <r>   -7.8685    1.0000 </r>
       <r>   -7.8513    1.0000 </r>
       <r>   -7.7197    1.0000 </r>
       <r>   -7.6936    1.0000 </r>
       <r>   -7.6480    1.0000 </r>
       <r>   -7.5207    1.0000 </r>
       <r>   -7.4406    1.0000 </r>
       <r>   -7.3867    1.0000 </r>
       <r>   -7.3203    1.0000 </r>
       <r>   -7.2804    1.0000 </r>
       <r>   -7.0843    1.0000 </r>
       <r>   -6.9775    1.0000 </r>
       <r>   -6.9034    1.0000 </r>
       <r>   -6.8822    1.0000 </r>
       <r>   -6.8573    1.0000 </r>
       <r>   -6.6604    1.0000 </r>
       <r>   -6.6006    1.0000 </r>
       <r>   -6.5233    1.0000 </r>
       <r>   -6.4609    1.0000 </r>
       <r>   -6.3084    1.0000 </r>
       <r>   -6.1312    1.0000 </r>
       <r>   -6.0763    1.0000 </r>
       <r>   -5.9838    1.0000 </r>
       <r>   -5.9166    1.0000 </r>
       <r>   -5.8251    1.0000 </r>
       <r>   -5.7614    1.0000 </r>
       <r>   -5.7015    1.0000 </r>
       <r>   -5.6859    1.0000 </r>
       <r>   -5.5553    1.0000 </r>
       <r>   -5.4253    1.0000 </r>
       <r>   -5.2039    1.0000 </r>
       <r>   -5.1004    1.0000 </r>
       <r>   -4.7075    1.0000 </r>
       <r>   -4.6713    1.0000 </r>
       <r>   -4.5686    1.0000 </r>
       <r>   -4.4686    1.0000 </r>
       <r>   -4.3940    1.0000 </r>
       <r>   -3.4802    0.9959 </r>
       <r>   -2.9424    0.1227 </r>
       <r>   -2.4730    0.0000 </r>
       <r>   -2.1433    0.0000 </r>
       <r>   -2.0342    0.0000 </r>
       <r>   -1.6201    0.0000 </r>
       <r>   -1.4900    0.0000 </r>
       <r>   -1.4456    0.0000 </r>
       <r>   -1.3724    0.0000 </r>
       <r>   -1.3288    0.0000 </r>
       <r>   -1.2332    0.0000 </r>
       <r>   -1.1133    0.0000 </r>
       <r>   -1.0324    0.0000 </r>
       <r>   -0.9160    0.0000 </r>
       <r>   -0.8231    0.0000 </r>
       <r>   -0.7213    0.0000 </r>
       <r>   -0.4109    0.0000 </r>
       <r>   -0.2163    0.0000 </r>
       <r>   -0.1126    0.0000 </r>
       <r>   -0.0320    0.0000 </r>
       <r>    0.0137    0.0000 </r>
       <r>    0.1224    0.0000 </r>
       <r>    0.2135    0.0000 </r>
       <r>    0.2611    0.0000 </r>
       <r>    0.3309    0.0000 </r>
       <r>    0.3370    0.0000 </r>
       <r>    0.7892    0.0000 </r>
       <r>    0.8104    0.0000 </r>
       <r>    0.8417    0.0000 </r>
       <r>    1.0460    0.0000 </r>
       <r>    1.0526    0.0000 </r>
       <r>    1.1014    0.0000 </r>
       <r>    1.1233    0.0000 </r>
       <r>    1.1674    0.0000 </r>
       <r>    1.2450    0.0000 </r>
       <r>    1.2924    0.0000 </r>
       <r>    1.2988    0.0000 </r>
       <r>    1.3444    0.0000 </r>
       <r>    1.3612    0.0000 </r>
       <r>    1.4057    0.0000 </r>
       <r>    1.4354    0.0000 </r>
       <r>    1.4609    0.0000 </r>
       <r>    1.4708    0.0000 </r>
       <r>    1.5439    0.0000 </r>
       <r>    1.5625    0.0000 </r>
       <r>    1.6003    0.0000 </r>
       <r>    1.6718    0.0000 </r>
       <r>    1.6987    0.0000 </r>
       <r>    1.7578    0.0000 </r>
      </set>
      <set comment="kpoint 3">
       <r>  -22.8388    1.0000 </r>
       <r>  -22.7981    1.0000 </r>
       <r>  -22.7186    1.0000 </r>
       <r>  -22.6731    1.0000 </r>
       <r>  -22.6150    1.0000 </r>
       <r>  -22.5840    1.0000 </r>
       <r>  -22.3093    1.0000 </r>
       <r>  -22.2858    1.0000 </r>
       <r>  -22.2567    1.0000 </r>
       <r>  -22.2052    1.0000 </r>
       <r>  -21.6951    1.0000 </r>
       <r>  -21.6692    1.0000 </r>
       <r>  -21.6343    1.0000 </r>
       <r>  -21.5868    1.0000 </r>
       <r>  -20.8950    1.0000 </r>
       <r>  -20.8389    1.0000 </r>
       <r>  -20.7170    1.0000 </r>
       <r>  -20.6767    1.0000 </r>
       <r>  -19.9182    1.0000 </r>
       <r>  -19.8758    1.0000 </r>
       <r>  -19.6422    1.0000 </r>
       <r>  -19.6112    1.0000 </r>
       <r>  -19.5695    1.0000 </r>
       <r>  -19.5253    1.0000 </r>
       <r>  -19.4705    1.0000 </r>
       <r>  -19.4141    1.0000 </r>
       <r>  -19.2849    1.0000 </r>
       <r>  -19.2743    1.0000 </r>
       <r>  -19.1084    1.0000 </r>
       <r>  -19.0889    1.0000 </r>
       <r>  -18.9592    1.0000 </r>
       <r>  -18.9210    1.0000 </r>
       <r>  -18.6278    1.0000 </r>
       <r>  -18.5887    1.0000 </r>
       <r>  -18.5167    1.0000 </r>
       <r>  -18.5044    1.0000 </r>
       <r>  -18.3453    1.0000 </r>
       <r>  -18.2987    1.0000 </r>
       <r>  -18.1576    1.0000 </r>
       <r>  -18.0825    1.0000 </r>
       <r>  -17.7440    1.0000 </r>
       <r>  -17.6730    1.0000 </r>
       <r>  -17.6479    1.0000 </r>
       <r>  -17.6027    1.0000 </r>
       <r>  -16.9376    1.0000 </r>
       <r>  -16.7861    1.0000 </r>
       <r>  -16.3169    1.0000 </r>
       <r>  -16.2658    1.0000 </r>
       <r>  -16.0898    1.0000 </r>
       <r>  -16.0747    1.0000 </r>
       <r>  -16.0195    1.0000 </r>
       <r>  -15.9039    1.0000 </r>
       <r>  -15.3247    1.0000 </r>
       <r>  -15.2334    1.0000 </r>
       <r>  -15.1413    1.0000 </r>
       <r>  -15.0882    1.0000 </r>
       <r>  -14.8996    1.0000 </r>
       <r>  -14.8631    1.0000 </r>
       <r>  -14.7875    1.0000 </r>
       <r>  -14.6041    1.0000 </r>
       <r>  -14.0062    1.0000 </r>
       <r>  -13.9342    1.0000 </r>
       <r>  -13.8049    1.0000 </r>
       <r>  -13.7430    1.0000 </r>
       <r>  -13.7157    1.0000 </r>
       <r>  -13.6974    1.0000 </r>
       <r>  -13.6596    1.0000 </r>
       <r>  -13.5993    1.0000 </r>
       <r>  -13.5709    1.0000 </r>
       <r>  -13.5424    1.0000 </r>
       <r>  -13.5170    1.0000 </r>
       <r>  -13.4878    1.0000 </r>
       <r>  -13.4525    1.0000 </r>
       <r>  -13.3069    1.0000 </r>
       <r>  -13.0986    1.0000 </r>
       <r>  -12.9895    1.0000 </r>
       <r>  -12.3885    1.0000 </r>
       <r>  -12.3428    1.0000 </r>
       <r>  -12.2513    1.0000 </r>
       <r>  -12.1828    1.0000 </r>
       <r>  -12.1232    1.0000 </r>
       <r>  -12.0691    1.0000 </r>
       <r>  -12.0052    1.0000 </r>
       <r>  -11.9514    1.0000 </r>
       <r>  -11.8962    1.0000 </r>
       <r>  -11.8286    1.0000 </r>
       <r>  -11.7972    1.0000 </r>
       <r>  -11.7715    1.0000 </r>
       <r>  -11.6378    1.0000 </r>
       <r>  -11.6100    1.0000 </r>
       <r>  -11.3495    1.0000 </r>
       <r>  -11.2823    1.0000 </r>
       <r>  -11.1823    1.0000 </r>
       <r>  -11.1725    1.0000 </r>
       <r>  -11.0606    1.0000 </r>
       <r>  -10.9862    1.0000 </r>
       <r>  -10.7970    1.0000 </r>
       <r>  -10.7407    1.0000 </r>
       <r>  -10.7087    1.0000 </r>
       <r>  -10.6681    1.0000 </r>
       <r>  -10.5815    1.0000 </r>
       <r>  -10.5266    1.0000 </r>
       <r>  -10.5165    1.0000 </r>
       <r>  -10.4925    1.0000 </r>
       <r>  -10.4521    1.0000 </r>
       <r>  -10.4245    1.0000 </r>
       <r>  -10.3906    1.0000 </r>
       <r>  -10.3253    1.0000 </r>
       <r>  -10.2984    1.0000 </r>
       <r>  -10.2849    1.0000 </r>
       <r>  -10.2375    1.0000 </r>
       <r>  -10.1626    1.0000 </r>
       <r>  -10.1242    1.0000 </r>
       <r>  -10.0941    1.0000 </r>
       <r>  -10.0409    1.0000 </r>
[...]
       <r>   -22.6718    14.7111     7.0949 </r>
       <r>   -22.5750    15.4667     8.5925 </r>
       <r>   -22.4782    14.3444     9.9814 </r>
       <r>   -22.3813    13.1783    11.2575 </r>
       <r>   -22.2845    13.8375    12.5973 </r>
       <r>   -22.1877    15.1701    14.0662 </r>
       <r>   -22.0908    15.6303    15.5797 </r>
       <r>   -21.9940    15.2999    17.0612 </r>
       <r>   -21.8972    14.6518    18.4799 </r>
       <r>   -21.8004    14.0907    19.8442 </r>
       <r>   -21.7035    13.8055    21.1810 </r>
       <r>   -21.6067    13.1022    22.4497 </r>
       <r>   -21.5099    11.5887    23.5718 </r>
       <r>   -21.4130    10.5892    24.5971 </r>
       <r>   -21.3162    11.6045    25.7208 </r>
       <r>   -21.2194    14.1657    27.0924 </r>
       <r>   -21.1226    16.2628    28.6671 </r>
       <r>   -21.0257    16.2693    30.2424 </r>
       <r>   -20.9289    14.3650    31.6334 </r>
       <r>   -20.8321    12.4377    32.8377 </r>
       <r>   -20.7352    12.0970    34.0090 </r>
       <r>   -20.6384    13.0176    35.2695 </r>
       <r>   -20.5416    13.8322    36.6088 </r>
       <r>   -20.4448    13.7887    37.9440 </r>
       <r>   -20.3479    13.2540    39.2274 </r>
       <r>   -20.2511    13.1500    40.5006 </r>
       <r>   -20.1543    13.7652    41.8335 </r>
       <r>   -20.0574    14.6114    43.2483 </r>
       <r>   -19.9606    15.1089    44.7113 </r>
       <r>   -19.8638    14.6139    46.1263 </r>
       <r>   -19.7670    13.4445    47.4281 </r>
       <r>   -19.6701    13.6737    48.7521 </r>
       <r>   -19.5733    15.9061    50.2923 </r>
       <r>   -19.4765    17.1297    51.9509 </r>
       <r>   -19.3797    15.3102    53.4334 </r>
       <r>   -19.2828    12.7880    54.6716 </r>
       <r>   -19.1860    12.1896    55.8519 </r>
       <r>   -19.0892    12.9187    57.1028 </r>
       <r>   -18.9923    13.2903    58.3897 </r>
       <r>   -18.8955    13.1891    59.6668 </r>
       <r>   -18.7987    13.7792    61.0010 </r>
       <r>   -18.7019    15.7788    62.5288 </r>
       <r>   -18.6050    18.0110    64.2728 </r>
       <r>   -18.5082    18.2731    66.0421 </r>
       <r>   -18.4114    16.6433    67.6537 </r>
       <r>   -18.3145    15.5733    69.1616 </r>
       <r>   -18.2177    16.1215    70.7226 </r>
       <r>   -18.1209    16.8373    72.3530 </r>
       <r>   -18.0241    15.9949    73.9017 </r>
       <r>   -17.9272    13.6958    75.2279 </r>
       <r>   -17.8304    11.8264    76.3730 </r>
       <r>   -17.7336    11.6566    77.5017 </r>
       <r>   -17.6367    12.3896    78.7013 </r>
       <r>   -17.5399    12.8367    79.9443 </r>
       <r>   -17.4431    12.8924    81.1926 </r>
       <r>   -17.3463    12.5860    82.4113 </r>
       <r>   -17.2494    11.7509    83.5491 </r>
       <r>   -17.1526    10.8720    84.6019 </r>
       <r>   -17.0558    10.5912    85.6274 </r>
       <r>   -16.9589    10.7543    86.6687 </r>
       <r>   -16.8621    10.9578    87.7297 </r>
       <r>   -16.7653    11.5652    88.8496 </r>
       <r>   -16.6685    12.7366    90.0828 </r>
       <r>   -16.5716    13.5591    91.3957 </r>
       <r>   -16.4748    13.8673    92.7385 </r>
       <r>   -16.3780    14.7495    94.1667 </r>
       <r>   -16.2811    16.4946    95.7638 </r>
       <r>   -16.1843    18.1652    97.5227 </r>
       <r>   -16.0875    18.6876    99.3322 </r>
       <r>   -15.9907    17.6642   101.0426 </r>
       <r>   -15.8938    15.6980   102.5626 </r>
       <r>   -15.7970    13.5615   103.8758 </r>
       <r>   -15.7002    11.8957   105.0276 </r>
       <r>   -15.6033    11.2579   106.1177 </r>
       <r>   -15.5065    11.8209   107.2623 </r>
       <r>   -15.4097    13.9553   108.6135 </r>
       <r>   -15.3129    17.7530   110.3325 </r>
       <r>   -15.2160    21.7755   112.4410 </r>
       <r>   -15.1192    23.9125   114.7564 </r>
       <r>   -15.0224    23.2285   117.0056 </r>
       <r>   -14.9255    20.3270   118.9738 </r>
       <r>   -14.8287    16.4232   120.5641 </r>
       <r>   -14.7319    12.7492   121.7985 </r>
       <r>   -14.6351    10.2321   122.7893 </r>
       <r>   -14.5382     9.1092   123.6713 </r>
       <r>   -14.4414     9.1637   124.5586 </r>
       <r>   -14.3446    10.0604   125.5328 </r>
       <r>   -14.2478    11.3369   126.6305 </r>
       <r>   -14.1509    12.6562   127.8560 </r>
       <r>   -14.0541    13.8618   129.1982 </r>
       <r>   -13.9573    14.8047   130.6317 </r>
       <r>   -13.8604    15.6826   132.1502 </r>
       <r>   -13.7636    16.8880   133.7854 </r>
       <r>   -13.6668    18.1243   135.5404 </r>
       <r>   -13.5700    18.7807   137.3589 </r>
       <r>   -13.4731    18.8556   139.1846 </r>
       <r>   -13.3763    18.7965   141.0047 </r>
       <r>   -13.2795    18.7212   142.8174 </r>
       <r>   -13.1826    17.9866   144.5590 </r>
       <r>   -13.0858    16.5159   146.1582 </r>
       <r>   -12.9890    15.5868   147.6675 </r>
       <r>   -12.8922    15.5931   149.1773 </r>
       <r>   -12.7953    15.3432   150.6630 </r>
       <r>   -12.6985    14.1785   152.0359 </r>
       <r>   -12.6017    12.7448   153.2699 </r>
       <r>   -12.5048    12.2822   154.4592 </r>
       <r>   -12.4080    13.6356   155.7795 </r>
       <r>   -12.3112    16.5087   157.3780 </r>
       <r>   -12.2144    20.1870   159.3327 </r>
       <r>   -12.1175    23.8876   161.6457 </r>
       <r>   -12.0207    25.7880   164.1427 </r>
       <r>   -11.9239    24.3875   166.5041 </r>
       <r>   -11.8270    21.0978   168.5470 </r>
       <r>   -11.7302    18.7596   170.3634 </r>
       <r>   -11.6334    17.8058   172.0875 </r>
       <r>   -11.5366    16.6587   173.7006 </r>
       <r>   -11.4397    15.5890   175.2100 </r>
       <r>   -11.3429    16.7193   176.8289 </r>
       <r>   -11.2461    20.3982   178.8040 </r>
       <r>   -11.1492    25.0124   181.2259 </r>
       <r>   -11.0524    29.1827   184.0517 </r>
       <r>   -10.9556    31.9237   187.1428 </r>
       <r>   -10.8588    32.9368   190.3320 </r>
       <r>   -10.7619    33.2083   193.5475 </r>
       <r>   -10.6651    33.9514   196.8349 </r>
       <r>   -10.5683    35.8108   200.3024 </r>
       <r>   -10.4714    38.1528   203.9967 </r>
       <r>   -10.3746    38.7048   207.7444 </r>
       <r>   -10.2778    36.3968   211.2687 </r>
       <r>   -10.1810    33.5893   214.5211 </r>
       <r>   -10.0841    32.7802   217.6951 </r>
       <r>    -9.9873    33.1029   220.9004 </r>
       <r>    -9.8905    33.0255   224.0982 </r>
       <r>    -9.7937    33.8159   227.3725 </r>
       <r>    -9.6968    36.7772   230.9336 </r>
       <r>    -9.6000    40.0801   234.8145 </r>
       <r>    -9.5032    41.4142   238.8246 </r>
       <r>    -9.4063    40.6678   242.7624 </r>
       <r>    -9.3095    38.5185   246.4921 </r>
       <r>    -9.2127    35.2542   249.9057 </r>
       <r>    -9.1159    31.7830   252.9832 </r>
       <r>    -9.0190    29.9132   255.8796 </r>
       <r>    -8.9222    30.6868   258.8510 </r>
       <r>    -8.8254    33.3969   262.0847 </r>
       <r>    -8.7285    36.4408   265.6132 </r>
       <r>    -8.6317    37.8546   269.2786 </r>
       <r>    -8.5349    36.2954   272.7930 </r>
       <r>    -8.4381    33.0107   275.9894 </r>
       <r>    -8.3412    30.5321   278.9458 </r>
       <r>    -8.2444    29.1342   281.7668 </r>
       <r>    -8.1476    27.5329   284.4328 </r>
       <r>    -8.0507    25.8543   286.9362 </r>
       <r>    -7.9539    25.3353   289.3894 </r>
       <r>    -7.8571    26.4450   291.9500 </r>
       <r>    -7.7603    28.1401   294.6747 </r>
       <r>    -7.6634    28.8336   297.4666 </r>
       <r>    -7.5666    28.3571   300.2124 </r>
       <r>    -7.4698    27.9531   302.9191 </r>
       <r>    -7.3729    27.9102   305.6216 </r>
       <r>    -7.2761    27.3195   308.2669 </r>
       <r>    -7.1793    26.2520   310.8088 </r>
       <r>    -7.0825    25.8037   313.3073 </r>
       <r>    -6.9856    26.1734   315.8417 </r>
       <r>    -6.8888    26.2251   318.3810 </r>
       <r>    -6.7920    25.2144   320.8225 </r>
       <r>    -6.6951    24.0408   323.1503 </r>
       <r>    -6.5983    23.6203   325.4374 </r>
       <r>    -6.5015    23.1939   327.6832 </r>
       <r>    -6.4047    21.6788   329.7824 </r>
       <r>    -6.3078    19.4989   331.6704 </r>
       <r>    -6.2110    18.2215   333.4348 </r>
       <r>    -6.1142    19.1051   335.2847 </r>
       <r>    -6.0173    22.0948   337.4241 </r>
       <r>    -5.9205    25.6587   339.9086 </r>
       <r>    -5.8237    27.8221   342.6025 </r>
       <r>    -5.7269    27.3114   345.2470 </r>
       <r>    -5.6300    23.7974   347.5513 </r>
       <r>    -5.5332    18.2850   349.3218 </r>
       <r>    -5.4364    13.1274   350.5929 </r>
       <r>    -5.3395    10.6590   351.6250 </r>
       <r>    -5.2427    11.4312   352.7319 </r>
       <r>    -5.1459    13.1041   354.0007 </r>
       <r>    -5.0491    12.5088   355.2119 </r>
       <r>    -4.9522     9.7191   356.1530 </r>
       <r>    -4.8554     7.8087   356.9091 </r>
       <r>    -4.7586     8.8281   357.7639 </r>
       <r>    -4.6618    11.8753   358.9138 </r>
       <r>    -4.5649    14.6159   360.3290 </r>
       <r>    -4.4681    15.4390   361.8239 </r>
       <r>    -4.3713    13.7512   363.1554 </r>
       <r>    -4.2744     9.9465   364.1185 </r>
       <r>    -4.1776     5.7380   364.6741 </r>
       <r>    -4.0808     2.9763   364.9623 </r>
       <r>    -3.9840     2.2799   365.1831 </r>
       <r>    -3.8871     2.9565   365.4694 </r>
       <r>    -3.7903     3.7004   365.8277 </r>
       <r>    -3.6935     3.8135   366.1969 </r>
       <r>    -3.5966     3.6629   366.5516 </r>
       <r>    -3.4998     3.5827   366.8985 </r>
       <r>    -3.4030     3.1671   367.2052 </r>
       <r>    -3.3062     2.3617   367.4339 </r>
       <r>    -3.2093     2.1756   367.6445 </r>
       <r>    -3.1125     3.4019   367.9739 </r>
       <r>    -3.0157     5.4441   368.5011 </r>
       <r>    -2.9188     6.9043   369.1696 </r>
       <r>    -2.8220     6.9759   369.8451 </r>
       <r>    -2.7252     6.0735   370.4331 </r>
       <r>    -2.6284     5.4041   370.9564 </r>
       <r>    -2.5315     5.7417   371.5124 </r>
       <r>    -2.4347     6.3480   372.1270 </r>
       <r>    -2.3379     6.2280   372.7301 </r>
       <r>    -2.2410     6.1967   373.3301 </r>
       <r>    -2.1442     7.2553   374.0326 </r>
       <r>    -2.0474     8.1029   374.8172 </r>
       <r>    -1.9506     7.2290   375.5172 </r>
       <r>    -1.8537     5.9999   376.0981 </r>
       <r>    -1.7569     7.3175   376.8067 </r>
       <r>    -1.6601    12.1101   377.9793 </r>
       <r>    -1.5632    18.2309   379.7445 </r>
       <r>    -1.4664    22.3525   381.9089 </r>
       <r>    -1.3696    22.6929   384.1062 </r>
       <r>    -1.2728    20.3945   386.0810 </r>
       <r>    -1.1759    18.2782   387.8508 </r>
       <r>    -1.0791    17.5942   389.5544 </r>
       <r>    -0.9823    17.1198   391.2121 </r>
       <r>    -0.8854    16.0100   392.7623 </r>
       <r>    -0.7886    14.8151   394.1969 </r>
       <r>    -0.6918    13.7601   395.5292 </r>
       <r>    -0.5950    12.7585   396.7646 </r>
       <r>    -0.4981    12.0187   397.9284 </r>
       <r>    -0.4013    11.4281   399.0349 </r>
       <r>    -0.3045    11.2599   400.1252 </r>
       <r>    -0.2076    12.8823   401.3726 </r>
       <r>    -0.1108    16.5379   402.9739 </r>
       <r>    -0.0140    20.0954   404.9197 </r>
       <r>     0.0828    21.7442   407.0252 </r>
       <r>     0.1797    22.0052   409.1559 </r>
       <r>     0.2765    21.7335   411.2603 </r>
       <r>     0.3733    20.4401   413.2395 </r>
       <r>     0.4701    18.2907   415.0106 </r>
       <r>     0.5670    17.5022   416.7053 </r>
       <r>     0.6638    20.0227   418.6440 </r>
       <r>     0.7606    24.9920   421.0640 </r>
       <r>     0.8575    29.5861   423.9287 </r>
       <r>     0.9543    32.6700   427.0921 </r>
       <r>     1.0511    36.0184   430.5797 </r>
       <r>     1.1479    40.9294   434.5428 </r>
       <r>     1.2448    46.3462   439.0305 </r>
       <r>     1.3416    50.4246   443.9130 </r>
       <r>     1.4384    51.5457   448.9041 </r>
       <r>     1.5353    48.4605   453.5964 </r>
       <r>     1.6321    41.0398   457.5702 </r>
       <r>     1.7289    30.7377   460.5465 </r>
       <r>     1.8257    19.7222   462.4562 </r>
       <r>     1.9226    10.2780   463.4514 </r>
       <r>     2.0194     4.1250   463.8508 </r>
       <r>     2.1162     1.2298   463.9699 </r>
       <r>     2.2131     0.2658   463.9956 </r>
       <r>     2.3099     0.0407   463.9996 </r>
       <r>     2.4067     0.0043   464.0000 </r>
       <r>     2.5035     0.0003   464.0000 </r>
       <r>     2.6004     0.0000   464.0000 </r>
       <r>     2.6972     0.0000   464.0000 </r>
       <r>     2.7940     0.0000   464.0000 </r>
       <r>     2.8909     0.0000   464.0000 </r>
       <r>     2.9877     0.0000   464.0000 </r>
       <r>     3.0845     0.0000   464.0000 </r>
       <r>     3.1813     0.0000   464.0000 </r>
       <r>     3.2782     0.0000   464.0000 </r>
       <r>     3.3750     0.0000   464.0000 </r>
       <r>     3.4718     0.0000   464.0000 </r>
       <r>     3.5687     0.0000   464.0000 </r>
       <r>     3.6655     0.0000   464.0000 </r>
       <r>     3.7623     0.0000   464.0000 </r>
       <r>     3.8591     0.0000   464.0000 </r>
      </set>
     </set>
    </array>
   </total>
  </dos>
 </calculation>
 <structure name="finalpos" >
  <crystal>
   <varray name="basis" >
    <v>      28.05000000       0.00000000       0.00000000 </v>
    <v>       0.00000000       8.10000000       0.00000000 </v>
    <v>       0.00000000       0.00000000      33.50000000 </v>
   </varray>
   <i name="volume">   7611.36750000 </i>
   <varray name="rec_basis" >
    <v>       0.03565062       0.00000000       0.00000000 </v>
    <v>       0.00000000       0.12345679       0.00000000 </v>
    <v>       0.00000000       0.00000000       0.02985075 </v>
   </varray>
  </crystal>
  <varray name="positions" >
   <v>       0.00425586       0.10038284       0.45515821 </v>
   <v>       0.00377312       0.28244815       0.46418806 </v>
   <v>       0.04908734       0.03520333       0.45159104 </v>
   <v>       0.04728307       0.36130864       0.46259104 </v>
   <v>       0.09425740       0.11418901       0.45755224 </v>
   <v>       0.09318788       0.27852469       0.46440299 </v>
   <v>       0.13882103       0.02811864       0.45939104 </v>
   <v>       0.13638538       0.35680617       0.47560896 </v>
   <v>       0.18213904       0.11198185       0.47250448 </v>
   <v>       0.17954189       0.27673827       0.48427463 </v>
   <v>       0.22604955       0.03056654       0.48228657 </v>
   <v>       0.21942282       0.35856049       0.49971045 </v>
   <v>       0.26583102       0.10753235       0.50077910 </v>
   <v>       0.26337077       0.27048148       0.50648060 </v>
   <v>       0.31044171       0.02530370       0.50696418 </v>
   <v>       0.30506631       0.35145185       0.51548060 </v>
   <v>       0.35122032       0.10708012       0.52246269 </v>
   <v>       0.34993619       0.27733951       0.52451642 </v>
   <v>       0.39350089       0.02607716       0.52987463 </v>
   <v>       0.39366488       0.35539506       0.53187463 </v>
   <v>       0.43627094       0.10665864       0.53965075 </v>
   <v>       0.43656328       0.27280864       0.54082090 </v>
   <v>       0.48152941       0.02012037       0.53575224 </v>
   <v>       0.48061676       0.34073951       0.54382985 </v>
   <v>       0.52529055       0.09395852       0.54199104 </v>
   <v>       0.52701604       0.26430000       0.54835224 </v>
   <v>       0.56901248       0.01294877       0.53618209 </v>
   <v>       0.57052050       0.34351728       0.54768060 </v>
   <v>       0.61239929       0.09433148       0.53142388 </v>
   <v>       0.61433155       0.26139012       0.54068358 </v>
   <v>       0.65666667       0.02236753       0.52535224 </v>
   <v>       0.65868449       0.34701111       0.53534627 </v>
   <v>       0.70018895       0.10077543       0.51668060 </v>
   <v>       0.70098039       0.26864691       0.52391045 </v>
   <v>       0.74144742       0.02228407       0.50439104 </v>
   <v>       0.74438503       0.35295926       0.51417612 </v>
   <v>       0.78323708       0.10121975       0.49349851 </v>
   <v>       0.78613547       0.27155926       0.50029254 </v>
   <v>       0.82463458       0.02158667       0.48077015 </v>
   <v>       0.82942246       0.34977654       0.49012239 </v>
   <v>       0.86592870       0.10088321       0.46840896 </v>
   <v>       0.86786453       0.26964074       0.47195522 </v>
   <v>       0.90878431       0.02357494       0.46165672 </v>
   <v>       0.91220677       0.35466790       0.46997910 </v>
   <v>       0.95180036       0.10472827       0.45562985 </v>
   <v>       0.95477362       0.27824568       0.46069851 </v>
   <v>       0.00848275       0.61138642       0.45294627 </v>
   <v>       0.00753230       0.78321852       0.44866269 </v>
   <v>       0.05074439       0.53330741       0.45983582 </v>
   <v>       0.05147166       0.86150247       0.45032239 </v>
   <v>       0.09514973       0.61374321       0.46194328 </v>
   <v>       0.09544955       0.78330494       0.45797313 </v>
   <v>       0.13636435       0.53086173       0.47338507 </v>
   <v>       0.14049234       0.85960988       0.46161791 </v>
   <v>       0.17982353       0.61336543       0.48078209 </v>
   <v>       0.18305668       0.77762840       0.47436119 </v>
   <v>       0.22167273       0.52727531       0.49186269 </v>
   <v>       0.22515080       0.86061728       0.48392537 </v>
   <v>       0.26711979       0.60356296       0.49358507 </v>
   <v>       0.26871301       0.77697654       0.49260000 </v>
   <v>       0.30876257       0.52296790       0.50568657 </v>
   <v>       0.31092264       0.85543580       0.50197313 </v>
   <v>       0.35248200       0.60265309       0.51380000 </v>
   <v>       0.35514011       0.77393333       0.51128358 </v>
   <v>       0.39240998       0.52226543       0.52587761 </v>
   <v>       0.39568627       0.85536296       0.52395522 </v>
   <v>       0.43793583       0.59537778       0.52884776 </v>
   <v>       0.43802139       0.76356049       0.52727761 </v>
   <v>       0.48211408       0.50922716       0.53953134 </v>
   <v>       0.48234581       0.84475556       0.53245672 </v>
   <v>       0.52658467       0.59144815       0.53757910 </v>
   <v>       0.52499109       0.76040741       0.53627463 </v>
   <v>       0.57094118       0.51170617       0.54434925 </v>
   <v>       0.56960071       0.84697407       0.53572537 </v>
   <v>       0.61501248       0.59239136       0.54145075 </v>
   <v>       0.61381105       0.75996790       0.53402388 </v>
   <v>       0.66010339       0.51493457       0.53899701 </v>
   <v>       0.65662745       0.85017037       0.52523284 </v>
   <v>       0.70294831       0.60540864       0.52729851 </v>
   <v>       0.70175758       0.77058148       0.52462687 </v>
   <v>       0.74381462       0.52079753       0.51467761 </v>
   <v>       0.74397504       0.85483210       0.51425672 </v>
   <v>       0.78751159       0.60468519       0.50402687 </v>
   <v>       0.78612478       0.77570864       0.50125075 </v>
   <v>       0.83016756       0.51901975       0.49031343 </v>
   <v>       0.82592513       0.85288025       0.48508060 </v>
   <v>       0.87030303       0.60331235       0.47669552 </v>
   <v>       0.86836720       0.77482346       0.47316418 </v>
   <v>       0.91458824       0.52303951       0.47147761 </v>
   <v>       0.90991087       0.85521605       0.46202687 </v>
   <v>       0.95482353       0.61540123       0.46227761 </v>
   <v>       0.95481283       0.77919012       0.45777612 </v>
  </varray>
 </structure>
</modeling>
