unknown system                          
            1
    28.050000    0.000000    0.000000
     0.000000    8.100000    0.000000
     0.000000    0.000000   33.500000
   C 
    92
Direct configuration=     1
   0.00425586  0.10038284  0.45515821
   0.00377312  0.28244815  0.46418806
   0.04908734  0.03520333  0.45159104
   0.04728307  0.36130864  0.46259104
   0.09425740  0.11418901  0.45755224
   0.09318788  0.27852469  0.46440299
   0.13882103  0.02811864  0.45939104
   0.13638538  0.35680617  0.47560896
   0.18213904  0.11198185  0.47250448
   0.17954189  0.27673827  0.48427463
   0.22604955  0.03056654  0.48228657
   0.21942282  0.35856049  0.49971045
   0.26583102  0.10753235  0.50077910
   0.26337077  0.27048148  0.50648060
   0.31044171  0.02530370  0.50696418
   0.30506631  0.35145185  0.51548060
   0.35122032  0.10708012  0.52246269
   0.34993619  0.27733951  0.52451642
   0.39350089  0.02607716  0.52987463
   0.39366488  0.35539506  0.53187463
   0.43627094  0.10665864  0.53965075
   0.43656328  0.27280864  0.54082090
   0.48152941  0.02012037  0.53575224
   0.48061676  0.34073951  0.54382985
   0.52529055  0.09395852  0.54199104
   0.52701604  0.26430000  0.54835224
   0.56901248  0.01294877  0.53618209
   0.57052050  0.34351728  0.54768060
   0.61239929  0.09433148  0.53142388
   0.61433155  0.26139012  0.54068358
   0.65666667  0.02236753  0.52535224
   0.65868449  0.34701111  0.53534627
   0.70018895  0.10077543  0.51668060
   0.70098039  0.26864691  0.52391045
   0.74144742  0.02228407  0.50439104
   0.74438503  0.35295926  0.51417612
   0.78323708  0.10121975  0.49349851
   0.78613547  0.27155926  0.50029254
   0.82463458  0.02158667  0.48077015
   0.82942246  0.34977654  0.49012239
   0.86592870  0.10088321  0.46840896
   0.86786453  0.26964074  0.47195522
   0.90878431  0.02357494  0.46165672
   0.91220677  0.35466790  0.46997910
   0.95180036  0.10472827  0.45562985
   0.95477362  0.27824568  0.46069851
   0.00848275  0.61138642  0.45294627
   0.00753230  0.78321852  0.44866269
   0.05074439  0.53330741  0.45983582
   0.05147166  0.86150247  0.45032239
   0.09514973  0.61374321  0.46194328
   0.09544955  0.78330494  0.45797313
   0.13636435  0.53086173  0.47338507
   0.14049234  0.85960988  0.46161791
   0.17982353  0.61336543  0.48078209
   0.18305668  0.77762840  0.47436119
   0.22167273  0.52727531  0.49186269
   0.22515080  0.86061728  0.48392537
   0.26711979  0.60356296  0.49358507
   0.26871301  0.77697654  0.49260000
   0.30876257  0.52296790  0.50568657
   0.31092264  0.85543580  0.50197313
   0.35248200  0.60265309  0.51380000
   0.35514011  0.77393333  0.51128358
   0.39240998  0.52226543  0.52587761
   0.39568627  0.85536296  0.52395522
   0.43793583  0.59537778  0.52884776
   0.43802139  0.76356049  0.52727761
   0.48211408  0.50922716  0.53953134
   0.48234581  0.84475556  0.53245672
   0.52658467  0.59144815  0.53757910
   0.52499109  0.76040741  0.53627463
   0.57094118  0.51170617  0.54434925
   0.56960071  0.84697407  0.53572537
   0.61501248  0.59239136  0.54145075
   0.61381105  0.75996790  0.53402388
   0.66010339  0.51493457  0.53899701
   0.65662745  0.85017037  0.52523284
   0.70294831  0.60540864  0.52729851
   0.70175758  0.77058148  0.52462687
   0.74381462  0.52079753  0.51467761
   0.74397504  0.85483210  0.51425672
   0.78751159  0.60468519  0.50402687
   0.78612478  0.77570864  0.50125075
   0.83016756  0.51901975  0.49031343
   0.82592513  0.85288025  0.48508060
   0.87030303  0.60331235  0.47669552
   0.86836720  0.77482346  0.47316418
   0.91458824  0.52303951  0.47147761
   0.90991087  0.85521605  0.46202687
   0.95482353  0.61540123  0.46227761
   0.95481283  0.77919012  0.45777612
