       N       E                     dE             d eps       ncg     rms          rms(c)
DAV:   1     0.369508186709E+04    0.36951E+04   -0.11893E+05  1712   0.105E+03
DAV:   2     0.179888718122E+03   -0.35152E+04   -0.32590E+04  2144   0.238E+02
DAV:   3    -0.832908921825E+03   -0.10128E+04   -0.99011E+03  1776   0.135E+02
DAV:   4    -0.895557145331E+03   -0.62648E+02   -0.61570E+02  1712   0.430E+01
DAV:   5    -0.897166774261E+03   -0.16096E+01   -0.15834E+01  1760   0.668E+00    0.453E+01
DAV:   6    -0.848130256534E+03    0.49037E+02   -0.46684E+01  1584   0.124E+01    0.266E+01
DAV:   7    -0.829816959466E+03    0.18313E+02   -0.64843E+01  1560   0.143E+01    0.726E+00
DAV:   8    -0.829525800500E+03    0.29116E+00   -0.23877E+00  1584   0.329E+00    0.962E-01
DAV:   9    -0.829420697949E+03    0.10510E+00   -0.26731E-01  1640   0.977E-01    0.565E-01
DAV:  10    -0.829381869928E+03    0.38828E-01   -0.45521E-02  1744   0.419E-01    0.354E-01
DAV:  11    -0.829353650546E+03    0.28219E-01   -0.22443E-02  1568   0.238E-01    0.237E-01
DAV:  12    -0.829350716528E+03    0.29340E-02   -0.21235E-02  1560   0.217E-01    0.148E-01
DAV:  13    -0.829363357369E+03   -0.12641E-01   -0.91266E-03  1560   0.141E-01    0.822E-02
DAV:  14    -0.829381955366E+03   -0.18598E-01   -0.11980E-03  1584   0.635E-02    0.525E-02
DAV:  15    -0.829402814035E+03   -0.20859E-01   -0.19173E-03  1576   0.638E-02    0.291E-02
DAV:  16    -0.829409858398E+03   -0.70444E-02   -0.38173E-04  1616   0.340E-02    0.204E-02
DAV:  17    -0.829414335691E+03   -0.44773E-02   -0.26080E-04  1576   0.222E-02    0.102E-02
DAV:  18    -0.829416385065E+03   -0.20494E-02   -0.92232E-05  1608   0.131E-02    0.584E-03
DAV:  19    -0.829417228187E+03   -0.84312E-03   -0.26410E-05  1432   0.766E-03    0.366E-03
DAV:  20    -0.829417510376E+03   -0.28219E-03   -0.39305E-06  1336   0.329E-03    0.230E-03
DAV:  21    -0.829417721374E+03   -0.21100E-03   -0.26498E-06  1256   0.280E-03    0.111E-03
DAV:  22    -0.829417770047E+03   -0.48673E-04   -0.26391E-07  1056   0.109E-03    0.789E-04
DAV:  23    -0.829417804619E+03   -0.34572E-04   -0.28381E-07   952   0.107E-03    0.529E-04
DAV:  24    -0.829417818146E+03   -0.13527E-04   -0.10613E-07   960   0.605E-04    0.430E-04
DAV:  25    -0.829417822683E+03   -0.45366E-05   -0.35383E-08   920   0.561E-04    0.157E-04
DAV:  26    -0.829417827051E+03   -0.43687E-05   -0.40597E-08   904   0.347E-04    0.265E-04
DAV:  27    -0.829417828390E+03   -0.13383E-05   -0.90623E-09   984   0.283E-04    0.828E-05
DAV:  28    -0.829417830542E+03   -0.21523E-05   -0.99944E-09   944   0.190E-04    0.128E-04
DAV:  29    -0.829417831019E+03   -0.47707E-06   -0.24483E-09   944   0.123E-04
   1 F= -.82941783E+03 E0= -.82937520E+03  d E =-.852659E-01
