92
Lattice="28.050000000 0.000000000 0.000000000 0.000000000 8.100000000 0.000000000 0.000000000 0.000000000 33.500000000" Energy=-829.334848210 Properties=species:S:1:pos:R:3:force:R:3 Virial="-4.94134000 3.98593000 -5.47426000 3.98593000 254.52618000 -3.41124000 -5.47426000 -3.41124000 -3.89920000" pbc="T T T" Config_type=activate-learning-55 weight=1.0
C      0.21857000      0.88677000     15.04250000      2.68116500     -2.02244400      0.19381200
C      0.22801000      2.25505000     14.88350000      1.76466500     -1.31334900      0.06516300
C      1.39601000      0.17341000     15.33120000      1.10782400      2.35358400     -0.41347300
C      1.49265000      2.85288000     15.02260000     -0.72900600      0.75391500     -0.44635200
C      2.72778000      0.84429000     15.35280000     -2.15252000     -1.68380300      0.02251600
C      2.75292000      2.19306000     15.19980000     -0.60425300      0.86837000     -0.40979600
C      3.88480000      0.15171000     15.76490000      0.30469500      1.98003600      0.11262400
C      3.95756000      2.88986000     15.52960000      0.41137000     -0.25985000      0.62753800
C      5.09106000      0.82600000     16.07480000      1.35003500      0.49416600      0.29016800
C      5.10514000      2.20695000     15.98300000      0.90296100      1.13428900      1.01842500
C      6.28807000      0.21159000     16.61030000     -1.65360200      0.15702500     -0.87166700
C      6.21994000      2.93354000     16.63750000     -0.07516000     -3.48754600     -1.49810300
C      7.49568000      0.89989000     16.83550000      0.04718800     -2.18151200      0.77062600
C      7.42546000      2.23781000     16.95130000      0.66420400      2.44043800      0.11544100
C      8.66805000      0.22203000     17.28470000      0.34522700      0.72588100      0.16812900
C      8.57460000      2.92931000     17.43950000      0.70681300      0.19126200      0.70471300
C      9.87276000      0.91875000     17.57370000     -0.37533600     -0.39622400      0.37961000
C      9.81898000      2.29853000     17.73480000      0.20411600     -1.28142500     -0.51110200
C     11.07160000      0.22969000     17.88760000     -0.19383100     -1.14044600      0.71005400
C     11.04570000      2.89608000     18.13390000     -0.21564600      0.27821200      0.60206200
C     12.30480000      0.84818000     18.15240000      0.38292100     -0.00961300     -0.18802500
C     12.30500000      2.19595000     18.35750000     -0.67850000      1.48599100     -1.27732100
C     13.54690000      0.16247000     18.14230000     -0.41375400     -0.63898400     -0.16429400
C     13.56500000      2.86726000     18.40590000     -0.05043900     -0.34292300     -0.04518600
C     14.78270000      0.81145000     17.95340000     -1.12100700      1.03025300      0.19902800
C     14.80620000      2.20215000     18.09820000     -1.71623800     -0.40338100      0.59674800
C     15.95540000      0.12386000     17.68110000      2.30597300      1.01856700     -0.12258400
C     16.02400000      2.86982000     18.01590000      0.10605100     -1.22920400     -0.21621300
C     17.17580000      0.81001000     17.36570000     -1.39536800      1.63804000      0.71040300
C     17.17240000      2.20793000     17.61340000      2.22935700     -1.51936000     -1.07236300
C     18.37160000      0.16112000     17.07090000     -0.00356000     -0.89198700      0.66837900
C     18.42000000      2.88200000     17.38490000     -1.13454200     -3.54636900     -0.78239800
C     19.55610000      0.83526000     16.72270000     -1.15949800     -2.49029000     -0.88118600
C     19.49840000      2.16737000     16.76010000      0.26009900      2.74470000      0.33089700
C     20.72710000      0.14169000     16.35410000      1.14334200      0.03003600      0.60623600
C     20.66580000      2.83227000     16.38380000      1.83409200      0.40794200      0.26149600
C     21.93740000      0.83481000     16.07920000     -0.42082100     -1.12562000     -0.24242500
C     21.90610000      2.19393000     16.00110000     -1.75757300      0.19354000      0.76525200
C     23.18710000      0.20533000     15.97510000      0.25962400     -0.95060000     -1.07858400
C     23.11390000      2.83847000     15.87910000      2.00307300      0.84555800     -1.06445900
C     24.40530000      0.86004000     15.63450000     -0.26962600     -1.57996400      0.32413200
C     24.38180000      2.20912000     15.57930000     -0.65148200     -0.02911700     -0.47733100
C     25.63620000      0.15059000     15.49070000     -0.00778700      1.30467600     -0.28846900
C     25.60120000      2.82734000     15.27290000      0.52976100      2.43113200      0.30021200
C     26.80690000      0.77961000     15.11510000     -0.83866100      1.32882400      0.02559900
C     26.80550000      2.16371000     15.01080000     -2.81669600      0.93057000     -0.04249700
C      0.26901000      4.87662000     15.44860000      1.86138500     -1.06128800     -1.12794000
C      0.19808000      6.23816000     15.54880000      1.49326600     -0.22743800      0.43938200
C      1.49686000      4.22366000     15.21000000     -0.70569900      0.11308800      0.57945000
C      1.34734000      6.92637000     15.56730000      1.37298600      0.68188800      0.42612800
C      2.73398000      4.87161000     15.50060000     -2.95356400      2.32612600      0.90174500
C      2.54438000      6.23959000     15.78470000      3.65346900     -0.21910800     -0.44380900
C      3.93439000      4.25501000     15.77010000      1.04709400     -0.13071900      0.45447400
C      3.81060000      6.93959000     16.01440000     -0.44474400     -2.28942500      0.64229700
C      5.02865000      4.93743000     16.42400000      0.03325900     -1.41066700     -0.86952000
C      5.02129000      6.30109000     16.47000000     -1.45670900      0.05959900     -0.12293700
C      6.22197000      4.25907000     16.79570000     -0.36761200      2.06848600      0.03562500
C      6.20851000      6.95627000     16.84080000      0.80856000      0.67199700     -0.72999600
C      7.42157000      4.94206000     17.21900000     -3.25565300      1.00471400     -0.31058100
C      7.42358000      6.31609000     17.17430000     -0.10025000     -0.46800200      1.11468000
C      8.52870000      4.31423000     17.64600000      2.53241700     -2.40799800     -0.26440500
C      8.64058000      6.96368000     17.55230000     -2.51861800      1.81758800     -1.96138000
C      9.74679000      4.96675000     17.94220000      1.40827600     -1.50150800      0.92116500
C      9.79626000      6.33202000     17.89510000      1.28158300     -1.31538000      0.72295300
C     10.99460000      4.27617000     18.22830000     -0.05394700     -0.32771000     -0.36778800
C     11.03670000      6.94762000     18.09060000      1.34426100      0.93337500     -1.05115800
C     12.25850000      4.89968000     18.36460000      0.97094700     -0.70970300      0.81196800
C     12.30910000      6.24792000     18.24680000     -2.63061500      0.91137500      0.22992400
C     13.54620000      4.25025000     18.52010000      0.13660600     -0.74524100     -0.86656300
C     13.52300000      6.87200000     18.22750000      3.51016800      1.53584000     -0.03888500
C     14.84100000      4.87651000     18.40620000     -0.18045200     -0.34602000      0.38281800
C     14.86130000      6.23153000     18.28980000     -1.58193000      1.11592100     -0.49885500
C     16.09740000      4.20235000     18.21330000     -0.93648400      1.70404700      1.12249700
C     16.08680000      6.90121000     17.97210000     -1.28523900     -1.25948100      0.49430400
C     17.34080000      4.86699000     18.08000000     -0.80919700      0.49183100     -0.53497900
C     17.34940000      6.24598000     17.91520000     -1.42436600      0.15782400     -0.25965100
C     18.47260000      4.20255000     17.59960000      0.12179200      0.91409000      0.18031600
C     18.45490000      6.89773000     17.35950000     -0.06351800      0.98920200      0.05106400
C     19.59170000      4.85777000     17.12760000      2.48993500      1.06769400      0.45799600
C     19.65790000      6.25334000     17.10060000     -0.08134900     -1.63943900     -0.40168100
C     20.76690000      4.16687000     16.69190000     -0.85055000      0.57016600     -0.28013000
C     20.81350000      6.86981000     16.58770000     -0.19210300      1.09763600      0.70765300
C     21.98660000      4.81609000     16.46890000      0.72210200      1.80039700     -0.18449600
C     22.05690000      6.21926000     16.49300000     -0.76442900      0.25876000     -1.43535100
C     23.15210000      4.19968000     16.03030000      1.82269300     -0.18596700      0.71369000
C     23.20820000      6.92328000     16.01830000     -0.24204300     -1.17111400      1.88569900
C     24.45950000      4.85302000     15.94180000     -2.81059700      0.48260700     -0.85346600
C     24.43260000      6.22494000     15.91330000      0.28996700      0.75522400      0.27415000
C     25.61230000      4.24816000     15.48680000      1.76085300     -3.64965300     -0.17759700
C     25.65250000      6.90856000     15.71760000      0.03104600     -0.85301900      0.21779100
C     26.84750000      4.84121000     15.46150000     -1.79687200      1.82870700      0.79731100
C     26.84430000      6.24326000     15.64590000     -2.29578100     -1.68229700     -0.25934800
92
Lattice="28.050000000 0.000000000 0.000000000 0.000000000 8.100000000 0.000000000 0.000000000 0.000000000 33.500000000" Energy=-829.202326320 Properties=species:S:1:pos:R:3:force:R:3 Virial="5.11620000 -2.48322000 -2.78664000 -2.48322000 258.38382000 -2.80807000 -2.78664000 -2.80807000 -5.26479000" pbc="T T T" Config_type=activate-learning-78 weight=1.0
C      8.74502000      4.14436000      0.67605000      1.54958800      0.11590200      2.10003400
C      8.71129000      5.50227000      0.87959000      1.97056700      0.67877600     -1.05700800
C      9.99937000      3.47832000      0.78036000     -2.63412700      1.28331500     -1.11193400
C      9.93287000      6.20330000      0.74985000     -0.52834000     -0.75923800      1.04044200
C     11.20790000      4.16569000      0.72021000      0.05173500      0.34211900      1.20976500
C     11.18280000      5.54637000      0.85400000     -0.49731600     -0.98859200     -0.69181800
C     12.43380000      3.51602000      0.48519000     -1.21666200     -1.42076400     -0.07797200
C     12.41000000      6.16582000      0.67150000      1.47170000      2.30723400     -0.49712600
C     13.62770000      4.14180000      0.26900000      1.65776200      1.59758700      0.67674100
C     13.64340000      5.52690000      0.42595000      1.41024400      0.16947500     -1.16732700
C     14.81550000      3.47801000     33.38038000      0.26461100     -0.07740800     -0.64504600
C     14.84460000      6.21442000     33.39983000     -1.40372600     -1.10296400      0.92152700
C     16.01870000      4.12386000     33.04443000      1.41911700      1.01444000      0.13424200
C     16.01180000      5.52836000     33.02711000      0.35805800     -0.88348400     -0.68268300
C     17.25680000      3.46079000     32.63851000     -2.44064100     -0.11910200      1.15698800
C     17.11880000      6.16226000     32.39693000      0.74480600     -1.07332200      0.41005000
C     18.42520000      4.08928000     32.28569000      2.12196200      0.55844100     -0.21998200
C     18.37710000      5.46755000     32.13935000     -1.90840400      0.70171000      0.03112500
C     19.67140000      3.37934000     31.91798000     -4.04777500      1.59407300     -0.00201600
C     19.48250000      6.16805000     31.64133000      0.42928200     -2.02733300      0.13941000
C     20.73340000      4.13107000     31.49505000      2.66572300     -1.14884600      0.39512100
C     20.69590000      5.49900000     31.47365000      1.75982900      0.17594400      0.18634700
C     21.99290000      3.42488000     31.25138000     -3.04175700      0.25574100     -0.33876900
C     21.96290000      6.17560000     31.33351000     -1.36808200     -1.56633000     -0.72021700
C     23.18120000      4.07441000     31.33085000      1.46475000      1.38246500      0.05489900
C     23.16980000      5.46008000     31.34108000      0.66988000      0.82475500      0.56944700
C     24.42700000      3.42518000     31.35490000      0.42933000      0.54923300     -0.05045900
C     24.41080000      6.16130000     31.35239000     -1.14412200     -1.71802600      0.06944900
C     25.62930000      4.11245000     31.63726000     -0.24493600      0.84588900      0.45744700
C     25.61100000      5.50662000     31.61386000     -1.08574100     -1.85605400     -0.29807400
C     26.86970000      3.50567000     31.88880000     -1.42900000     -2.57361400     -1.67092200
C     26.80690000      6.13339000     31.67293000      3.72887100      2.66659700      0.22699400
C      0.00368000      4.14536000     32.16248000      1.61597400      0.87382900      0.10320900
C      0.01648000      5.51431000     31.96970000     -0.72796900     -0.38394500      0.97035700
C      1.23769000      3.48970000     32.46404000      0.05293900      1.54346400      0.10585400
C      1.21781000      6.18217000     32.27647000      1.60361400      0.18161600     -0.04475700
C      2.43295000      4.18973000     32.82328000      0.17125800     -0.85288800      0.07222800
C      2.43926000      5.54809000     32.71470000     -0.01501900      0.98670100      0.40019500
C      3.65853000      3.54532000     33.16930000     -0.88334300     -0.72510200     -1.23307400
C      3.64538000      6.23931000     33.08771000      0.98111000     -0.01387500      0.25749100
C      4.87213000      4.20033000     33.37825000      0.79283100      0.84183900      1.07944800
C      4.88068000      5.59686000     33.45757000     -0.53154400     -1.84445600     -0.40599800
C      6.09724000      3.49971000      0.11832000      0.97554100      2.22480900      0.62383200
C      6.13191000      6.21656000      0.25641000     -1.78927400      1.43289500     -0.56196600
C      7.26912000      4.13812000      0.52922000     -1.78493600      0.95337100     -0.36311300
C      7.24343000      5.53187000      0.65340000     -0.28308100     -0.68088700     -0.33536400
C      8.68351000      0.03787000      0.37960000      3.70563400      2.90348400     -0.77802800
C      8.74962000      1.46256000      0.31526000      2.30650400     -0.54769900      1.33454300
C      9.92042000      7.54999000      0.47468000      0.24884900     -1.30534000      0.42749800
C      9.93115000      2.14442000      0.56988000     -0.13841800     -1.69800400     -1.28294700
C     11.19210000      0.10656000      0.37109000     -1.56163100      0.12659400      0.41531700
C     11.14660000      1.47600000      0.36551000      1.22389400      0.07168500      0.39825500
C     12.42760000      7.56335000      0.44916000     -0.43751100     -1.84759200     -0.45889900
C     12.39240000      2.14205000      0.30878000     -0.35904500     -0.00473100     -0.32570600
C     13.59910000      0.08929000      0.00627000     -1.20756500      0.96285200      0.72747000
C     13.57020000      1.46041000     33.45941000      0.19214700      0.51308500     -0.49516600
C     14.77830000      7.57007000     33.19457000      1.73896200     -0.67411900     -1.29594500
C     14.77030000      2.12156000     33.12757000     -0.63220800      1.01016900      1.04407700
C     15.89390000      0.13891000     32.56630000     -0.15838900     -1.46309700      0.98747000
C     15.94970000      1.51173000     32.71866000     -0.95349000     -2.14053400     -0.30055600
C     17.05320000      7.51892000     32.15717000     -0.48765000     -0.09815300      0.11949800
C     17.17300000      2.08946000     32.53692000      1.71356800      0.75841200     -1.28204900
C     18.22170000      0.06057000     31.71066000      0.87746300     -0.23413500      0.04419200
C     18.28800000      1.39909000     31.97263000      1.05122900      1.08321800     -0.39209600
C     19.45780000      7.48440000     31.38580000     -1.13359500      2.17884500     -0.15231100
C     19.54440000      2.03801000     31.66808000     -0.23770800      0.03142400      0.25490800
C     20.65850000      0.05257000     31.03429000      0.79609800     -0.92518400      0.52966800
C     20.69470000      1.41296000     31.13302000     -0.65293800      0.32436100     -0.35728900
C     21.94040000      7.50888000     31.04744000      0.35042500      0.25642300     -0.78226200
C     21.92130000      2.08111000     30.94048000      1.31652100      0.24106300      0.92238000
C     23.22170000      0.03266000     30.84784000     -2.28899500      1.65772100      0.45377900
C     23.19790000      1.43837000     30.83964000      0.40635500     -0.89401100     -0.07120500
C     24.41570000      7.48317000     31.08554000      1.24438700      1.16542900     -0.32491600
C     24.45600000      2.08665000     31.08124000     -0.40127700     -0.18840100     -0.18954700
C     25.66540000      0.06571000     31.16976000      0.80410900      0.04386200      0.30089400
C     25.71500000      1.43486000     31.20854000     -0.17922000      1.14319600     -0.21439900
C     26.87510000      7.53858000     31.50076000      0.34269600     -1.51293800      0.10005300
C     26.92380000      2.13755000     31.56402000      0.53761800     -0.53004000      1.70738100
C      0.05445000      0.10865000     31.79114000      1.67375900     -1.17833300      0.73189200
C      0.11327000      1.45834000     31.94258000     -1.94642000      1.61987900     -1.59418700
C      1.28943000      7.54430000     32.18652000     -0.11481900      0.60398400      0.20632700
C      1.29883000      2.14540000     32.35269000     -1.14327000     -1.44910900      0.53352500
C      2.52306000      0.11873000     32.63197000     -1.87523600     -0.23127000     -0.05147900
C      2.45925000      1.47350000     32.76030000      1.48382800      1.18615300     -1.01960400
C      3.71159000      7.62915000     33.08265000     -1.12412800     -2.03527300     -0.98786400
C      3.69690000      2.16143000     33.03724000     -1.38893900      0.53715300      0.46208100
C      4.93868000      0.18188000     33.32012000     -2.51789000     -0.84818400     -0.95812200
C      4.91549000      1.52313000     33.23728000      1.40866800      0.51905600      0.80788700
C      6.10572000      7.61414000      0.01735000      1.96292600     -2.91002600      1.50928700
C      6.16928000      2.15460000      0.05983000     -2.36555100      0.19535300     -1.21963900
C      7.28768000      0.14198000      0.18856000     -1.85618300     -0.02837200     -0.24245900
C      7.33593000      1.51326000      0.21631000     -1.57885300     -0.67485100     -0.45872000
92
Lattice="28.050000000 0.000000000 0.000000000 0.000000000 8.100000000 0.000000000 0.000000000 0.000000000 33.500000000" Energy=-829.122659310 Properties=species:S:1:pos:R:3:force:R:3 Virial="-30.73805000 -4.49809000 3.22113000 -4.49809000 242.10358000 -0.45407000 3.22113000 -0.45407000 -6.17790000" pbc="T T T" Config_type=activate-learning-47 weight=1.0
C      0.13320000      0.78517000     15.13760000      2.08885300      1.32922600     -0.76095000
C      0.14787000      2.20911000     15.18510000      2.12335500     -2.26926000     -0.79518600
C      1.37913000      0.09470000     14.94860000     -1.93548400      3.54612800     -0.24497500
C      1.39166000      2.81383000     15.08970000     -1.15692100      2.95199700      0.15939400
C      2.59851000      0.81792000     14.73210000      0.47599200     -0.78038400      0.54881400
C      2.60752000      2.19339000     14.78370000      0.75399400     -0.48356500      0.37638500
C      3.86569000      0.15443000     14.88890000     -0.22808400      1.38250700     -1.02510200
C      3.88267000      2.85874000     14.93520000     -1.54893800      0.58707600      0.15779400
C      5.11033000      0.82673000     14.96670000      0.85095700      1.33339500      0.88780100
C      5.09715000      2.21893000     15.13790000      1.49205800     -0.71545200     -1.30530500
C      6.37196000      0.22680000     15.25580000     -0.17152100     -1.34605800     -0.38606000
C      6.34580000      2.90647000     15.41680000     -0.86425900     -0.37554000      0.64663100
C      7.58662000      0.88046000     15.59710000      0.63757900      0.28840300     -0.38271300
C      7.58778000      2.27711000     15.67750000      0.38943600     -1.47335800     -0.47170200
C      8.79328000      0.17366000     15.97800000     -0.35644500      2.14638100     -0.01592600
C      8.79275000      2.90509000     16.14960000     -2.06371500      0.01892500      0.24342700
C      9.97756000      0.82852000     16.39500000      0.25204500      0.82693800      0.64350200
C      9.94504000      2.20435000     16.54250000     -0.25810300      1.39240900      0.72919200
C     11.07620000      0.18471000     17.02180000     -0.34175200      0.05450700     -0.48205400
C     10.95580000      2.91960000     17.29340000      0.94117000     -3.02736700     -1.90420700
C     12.25180000      0.87377000     17.40250000      0.12923200     -0.48837500      0.23626500
C     12.20660000      2.23573000     17.43700000      0.93923800      1.50433800      0.35208400
C     13.44040000      0.25630000     17.90240000     -1.25887500     -1.90571300     -1.04290900
C     13.45160000      2.91001000     17.74000000     -2.63647900     -1.39703700      0.90965600
C     14.69050000      0.85191000     17.96980000     -0.85317400      0.55626600      0.53451900
C     14.64650000      2.21811000     17.97030000      0.97525500      0.81181000     -0.60739500
C     15.89260000      0.18223000     18.18780000      0.54585200      0.17205200      0.31809700
C     15.87370000      2.87966000     18.14300000     -1.50045200     -0.17134700     -0.33397400
C     17.12520000      0.86234000     18.13960000      0.64162500     -2.57138200     -0.48656800
C     17.06990000      2.19867000     18.03470000      2.39487300      1.82739100     -0.30052300
C     18.40120000      0.14337000     18.11870000     -0.66995500      4.61104000     -0.59211400
C     18.32080000      2.90940000     17.88870000      0.42966900     -3.25660000      0.25277600
C     19.62990000      0.82108000     17.82050000     -1.85144000      0.57122200     -0.01117800
C     19.56900000      2.20735000     17.66730000      0.49468000      0.10953600      0.29780000
C     20.82720000      0.13178000     17.72760000      2.76973900      1.34262500     -1.33932100
C     20.84050000      2.88312000     17.55390000     -1.94574300     -1.12382000     -0.03632200
C     22.05160000      0.83229000     17.29280000      0.09832900     -1.58076400      0.44866600
C     22.03090000      2.21475000     17.22050000      1.43409800     -0.28956500     -0.22444300
C     23.32420000      0.11995000     17.11300000     -1.10929400      2.34494900     -0.07309400
C     23.29070000      2.89509000     17.00280000     -0.34679800     -1.23209300      0.29704600
C     24.51340000      0.78663000     16.63370000     -1.72033500      2.08989100     -0.05361600
C     24.51590000      2.20074000     16.63210000     -2.28380300     -1.64962100      0.28563900
C     25.66530000      0.16126000     16.19650000      1.29233000     -0.25441300     -0.19228900
C     25.70300000      2.81768000     16.30840000      1.64371400      0.57465600     -1.70021600
C     26.78910000      0.83987000     15.64530000     -2.12782700     -0.38165700      0.22105200
C     26.80230000      2.23390000     15.63790000     -2.16058000     -1.73005800      1.46352900
C      0.21689000      4.85541000     15.72810000      2.36947300      0.39527300     -0.27096300
C      0.22377000      6.23820000     15.68040000      1.90018000     -0.02429300     -0.67868300
C      1.40013000      4.21428000     15.37820000     -0.19872000     -1.84431500      0.22266100
C      1.39922000      6.88343000     15.22720000     -1.44944900     -1.08700400      1.67955200
C      2.63757000      4.89046000     15.34820000     -1.14062300     -0.51962000     -0.73502000
C      2.62711000      6.26086000     15.33660000      1.32616500     -0.32674100     -1.19646400
C      3.83577000      4.23107000     15.09300000      1.24588200     -0.29574000      1.46304100
C      3.86898000      6.91472000     15.07580000     -0.06444300     -0.72596200      0.77341100
C      5.05504000      4.89559000     15.38010000      0.22787200      0.80175000     -0.56340200
C      5.11766000      6.27939000     15.25510000     -0.39186000     -0.40400800     -0.02528600
C      6.26741000      4.27000000     15.62830000      0.53005900     -1.18547500     -0.32806700
C      6.36995000      6.93324000     15.31070000      1.13390300     -0.33786700      2.09025300
C      7.45415000      4.91340000     16.04320000      0.08783700     -0.14713200      0.20874900
C      7.55396000      6.26404000     15.93850000     -2.53895200      1.90135600     -1.63881600
C      8.61771000      4.24936000     16.45700000      0.75585400     -1.00669600      0.57623500
C      8.72201000      6.96394000     16.27500000      0.07700500     -2.83652400      0.58585300
C      9.68617000      4.89830000     17.10850000      0.45775200      0.53066900     -0.61582400
C      9.78570000      6.25979000     16.95300000     -0.64427100      1.61082300     -0.58437800
C     10.87840000      4.25283000     17.49470000      0.61460000      0.93123000     -0.02273100
C     10.97690000      6.93959000     17.26420000      1.50276600     -0.40590300      0.43950400
C     12.11910000      4.92273000     17.77810000     -0.58751600      0.23475200      0.80398400
C     12.18980000      6.31329000     17.72890000     -1.54392600     -0.71403500      0.53823900
C     13.30400000      4.23040000     18.04260000      3.24403600      1.44436600     -0.85736100
C     13.37880000      6.98023000     18.08830000      0.24674500     -0.21558500     -0.29182700
C     14.61310000      4.91767000     18.22020000     -2.70445900     -0.50281400      1.22996000
C     14.58420000      6.27865000     18.39590000      0.84437200      0.50236400     -1.02814100
C     15.82500000      4.23744000     18.31060000      1.39985600      0.28929300     -0.26435200
C     15.87820000      6.92080000     18.39620000     -1.88539500      0.59364500      0.17488900
C     17.08580000      4.87344000     18.42000000      0.32694600      1.14682700     -0.20476000
C     17.08280000      6.27374000     18.43790000      3.26690400     -1.16982800      0.34671000
C     18.33370000      4.20366000     18.21340000      0.69122000      2.52685200      0.30290400
C     18.41240000      6.95346000     18.31700000     -1.04461900     -4.71843800      0.81547700
C     19.62400000      4.87162000     18.21130000     -0.82615900     -1.18252400      0.03358400
C     19.67540000      6.22881000     18.28190000     -0.66467300      1.35651500     -0.78224600
C     20.82410000      4.20392000     17.88580000      1.53878600      0.95506900     -0.34049600
C     20.90460000      6.86833000     17.90630000     -0.70143200      0.52795800      1.76588100
C     22.09740000      4.86362000     17.74570000      0.22594900     -0.40935500      0.14014500
C     22.16090000      6.22618000     17.85320000      0.57662000      1.04277600     -1.11395800
C     23.28890000      4.24424000     17.28260000      1.37094600     -0.62025300     -0.33094300
C     23.38270000      6.90434000     17.42820000     -0.28876600     -1.21130200      0.30508600
C     24.55510000      4.88000000     17.01060000      1.01958500     -0.73382300      0.04158100
C     24.62620000      6.25061000     17.11280000     -1.20619000     -0.50120300     -0.52497700
C     25.76600000      4.16517000     16.48420000     -1.92335600      2.36018600      1.57481400
C     25.71130000      6.89821000     16.47400000      1.66961600      0.84626500      0.20904100
C     26.91470000      4.85553000     16.24720000     -1.24947900      1.50212300      0.38588500
C     26.91790000      6.28226000     16.21600000     -2.00073300     -2.24389400      0.44932700
92
Lattice="28.050000000 0.000000000 0.000000000 0.000000000 8.100000000 0.000000000 0.000000000 0.000000000 33.500000000" Energy=-829.458229960 Properties=species:S:1:pos:R:3:force:R:3 Virial="9.01283000 1.18318000 -0.27092000 1.18318000 233.05722000 2.05241000 -0.27092000 2.05241000 -2.97543000" pbc="T T T" Config_type=activate-learning-21 weight=1.0
C      0.29400000      0.77095000     15.43070000     -0.50277300      3.62554600      0.65771500
C      0.28446000      2.21983000     15.32750000      2.46920200     -2.30046200      0.01139600
C      1.28018000      0.18836000     16.15720000      1.00892500      2.69591900     -0.90626100
C      1.45545000      2.84833000     15.59130000      0.61198400      2.04606400      0.11191600
C      2.50112000      0.91018000     16.40860000      0.94434700     -2.60640800      0.90123100
C      2.64085000      2.19661000     16.07320000     -0.81712100      1.78985000      0.16659900
C      3.68835000      0.20090000     16.85760000     -0.76578700      0.90092900     -0.59467100
C      3.84485000      2.90891000     16.39780000     -0.36848900     -2.28530000     -1.10543900
C      4.91616000      0.86429000     17.03420000      1.39181300     -0.58190800      0.80898100
C      5.01116000      2.20078000     16.74060000      1.04333600      1.35935300      0.46148100
C      6.12805000      0.17266000     17.46450000     -1.39268100      0.01068200     -0.37950800
C      6.30008000      2.88110000     16.90230000     -2.88988800     -2.11508900      0.11676600
C      7.33138000      0.81302000     17.78850000     -0.08173100      1.65185200     -1.00745900
C      7.35086000      2.18916000     17.46510000      3.06098800     -0.42341500      0.36045000
C      8.56296000      0.15782000     18.04010000     -0.21152700     -0.25925700      0.79752800