       N       E                     dE             d eps       ncg     rms          rms(c)
DAV:   1     0.374189414154E+04    0.37419E+04   -0.11852E+05  1696   0.105E+03
DAV:   2     0.190162621730E+03   -0.35517E+04   -0.32930E+04  2144   0.239E+02
DAV:   3    -0.833509283662E+03   -0.10237E+04   -0.10016E+04  1800   0.136E+02
DAV:   4    -0.895713164040E+03   -0.62204E+02   -0.61168E+02  1720   0.432E+01
DAV:   5    -0.897283560284E+03   -0.15704E+01   -0.15459E+01  1784   0.662E+00    0.455E+01
DAV:   6    -0.847791230440E+03    0.49492E+02   -0.47120E+01  1584   0.125E+01    0.267E+01
DAV:   7    -0.829304552986E+03    0.18487E+02   -0.65286E+01  1552   0.144E+01    0.730E+00
DAV:   8    -0.829013857613E+03    0.29070E+00   -0.23819E+00  1600   0.331E+00    0.995E-01
DAV:   9    -0.828906949146E+03    0.10691E+00   -0.25301E-01  1656   0.964E-01    0.573E-01
DAV:  10    -0.828868219446E+03    0.38730E-01   -0.44073E-02  1760   0.419E-01    0.368E-01
DAV:  11    -0.828836835130E+03    0.31384E-01   -0.22060E-02  1536   0.242E-01    0.242E-01
DAV:  12    -0.828832028294E+03    0.48068E-02   -0.23308E-02  1560   0.226E-01    0.153E-01
DAV:  13    -0.828843895316E+03   -0.11867E-01   -0.92650E-03  1560   0.146E-01    0.857E-02
DAV:  14    -0.828860216886E+03   -0.16322E-01   -0.10406E-03  1584   0.629E-02    0.581E-02
DAV:  15    -0.828882111783E+03   -0.21895E-01   -0.20076E-03  1560   0.671E-02    0.312E-02
DAV:  16    -0.828890940410E+03   -0.88286E-02   -0.50522E-04  1600   0.368E-02    0.221E-02
DAV:  17    -0.828895893707E+03   -0.49533E-02   -0.30650E-04  1568   0.226E-02    0.106E-02
DAV:  18    -0.828897825965E+03   -0.19323E-02   -0.73164E-05  1632   0.119E-02    0.592E-03
DAV:  19    -0.828898951084E+03   -0.11251E-02   -0.40937E-05  1360   0.821E-03    0.378E-03
DAV:  20    -0.828899289576E+03   -0.33849E-03   -0.50407E-06  1376   0.332E-03    0.225E-03
DAV:  21    -0.828899515619E+03   -0.22604E-03   -0.30075E-06  1256   0.238E-03    0.101E-03
DAV:  22    -0.828899564107E+03   -0.48488E-04   -0.19409E-07  1080   0.913E-04    0.636E-04
DAV:  23    -0.828899599881E+03   -0.35774E-04   -0.28888E-07   936   0.818E-04    0.422E-04
DAV:  24    -0.828899611702E+03   -0.11821E-04   -0.77075E-08   968   0.499E-04    0.196E-04
DAV:  25    -0.828899617325E+03   -0.56227E-05   -0.40274E-08   928   0.364E-04    0.176E-04
DAV:  26    -0.828899620630E+03   -0.33055E-05   -0.19388E-08   944   0.237E-04    0.995E-05
DAV:  27    -0.828899622547E+03   -0.19169E-05   -0.84267E-09   984   0.177E-04    0.700E-05
DAV:  28    -0.828899624048E+03   -0.15004E-05   -0.58053E-09   952   0.130E-04    0.521E-05
DAV:  29    -0.828899624343E+03   -0.29494E-06   -0.19487E-09   944   0.738E-05
   1 F= -.82889962E+03 E0= -.82886548E+03  d E =-.682942E-01
