  92  92   0   0
  0.8273226E+02  0.2805000E-08  0.8100000E-09  0.3350000E-08  0.5000000E-15
   1.0000000000000000E-004
  CAR 
 unknown system                          
      3.89849992    -25.19418534  301     -3.16124124      1.00000000
    -25.194  0.0000E+00  0.0000E+00
    -25.097  0.0000E+00  0.0000E+00
    -25.000  0.0000E+00  0.0000E+00
    -24.903  0.0000E+00  0.0000E+00
    -24.806  0.0000E+00  0.0000E+00
    -24.709  0.0000E+00  0.0000E+00
    -24.612  0.0000E+00  0.0000E+00
    -24.515  0.0000E+00  0.0000E+00
    -24.418  0.0000E+00  0.0000E+00
    -24.321  0.4007E-14  0.3886E-15
    -24.224  0.8412E-12  0.8196E-13
    -24.127  0.1088E-09  0.1063E-10
    -24.030  0.8894E-08  0.8732E-09
    -23.934  0.4617E-06  0.4564E-07
    -23.837  0.1527E-04  0.1526E-05
    -23.740  0.3236E-03  0.3290E-04
    -23.643  0.4422E-02  0.4617E-03
    -23.546  0.3931E-01  0.4274E-02
    -23.449  0.2300E+00  0.2658E-01
    -23.352  0.9006E+00  0.1139E+00
    -23.255  0.2433E+01  0.3499E+00
    -23.158  0.4807E+01  0.8160E+00
    -23.061  0.7611E+01  0.1554E+01
    -22.964  0.1043E+02  0.2566E+01
    -22.867  0.1244E+02  0.3772E+01
    -22.770  0.1310E+02  0.5043E+01
    -22.673  0.1404E+02  0.6405E+01
    -22.576  0.1629E+02  0.7984E+01
    -22.479  0.1725E+02  0.9657E+01
    -22.382  0.1506E+02  0.1112E+02
    -22.285  0.1227E+02  0.1231E+02
    -22.188  0.1184E+02  0.1346E+02
    -22.091  0.1337E+02  0.1475E+02
    -21.994  0.1484E+02  0.1619E+02
    -21.897  0.1499E+02  0.1764E+02
    -21.800  0.1409E+02  0.1901E+02
    -21.703  0.1310E+02  0.2028E+02
    -21.606  0.1221E+02  0.2147E+02
    -21.509  0.1129E+02  0.2256E+02
    -21.412  0.1097E+02  0.2362E+02
    -21.315  0.1192E+02  0.2478E+02
    -21.218  0.1404E+02  0.2614E+02
    -21.121  0.1643E+02  0.2774E+02
    -21.024  0.1752E+02  0.2943E+02
    -20.927  0.1623E+02  0.3101E+02
    -20.830  0.1337E+02  0.3230E+02
    -20.733  0.1114E+02  0.3339E+02
    -20.636  0.1094E+02  0.3445E+02
    -20.539  0.1219E+02  0.3563E+02
    -20.442  0.1351E+02  0.3694E+02
    -20.345  0.1414E+02  0.3831E+02
    -20.248  0.1448E+02  0.3971E+02
    -20.151  0.1532E+02  0.4120E+02
    -20.054  0.1657E+02  0.4281E+02
    -19.958  0.1705E+02  0.4446E+02
    -19.861  0.1562E+02  0.4598E+02
    -19.764  0.1287E+02  0.4722E+02
    -19.667  0.1115E+02  0.4830E+02
    -19.570  0.1209E+02  0.4948E+02
    -19.473  0.1468E+02  0.5090E+02
    -19.376  0.1627E+02  0.5248E+02
    -19.279  0.1570E+02  0.5400E+02
    -19.182  0.1448E+02  0.5541E+02
    -19.085  0.1409E+02  0.5677E+02
    -18.988  0.1429E+02  0.5816E+02
    -18.891  0.1416E+02  0.5953E+02
    -18.794  0.1385E+02  0.6087E+02
    -18.697  0.1480E+02  0.6231E+02
    -18.600  0.1692E+02  0.6395E+02
    -18.503  0.1757E+02  0.6565E+02
    -18.406  0.1570E+02  0.6718E+02
    -18.309  0.1389E+02  0.6852E+02
    -18.212  0.1481E+02  0.6996E+02
    -18.115  0.1724E+02  0.7163E+02
    -18.018  0.1761E+02  0.7334E+02
    -17.921  0.1533E+02  0.7483E+02
    -17.824  0.1351E+02  0.7614E+02
    -17.727  0.1373E+02  0.7747E+02
    -17.630  0.1406E+02  0.7883E+02
    -17.533  0.1329E+02  0.8012E+02
    -17.436  0.1238E+02  0.8132E+02
    -17.339  0.1173E+02  0.8246E+02
    -17.242  0.1091E+02  0.8352E+02
    -17.145  0.9946E+01  0.8448E+02
    -17.048  0.9404E+01  0.8539E+02
    -16.951  0.9511E+01  0.8632E+02
    -16.854  0.9765E+01  0.8726E+02
    -16.757  0.1002E+02  0.8823E+02
    -16.660  0.1109E+02  0.8931E+02
    -16.563  0.1339E+02  0.9061E+02
    -16.466  0.1589E+02  0.9215E+02
    -16.369  0.1745E+02  0.9384E+02
    -16.272  0.1789E+02  0.9558E+02
    -16.175  0.1752E+02  0.9727E+02
    -16.078  0.1682E+02  0.9891E+02
    -15.982  0.1637E+02  0.1005E+03
    -15.885  0.1630E+02  0.1021E+03
    -15.788  0.1583E+02  0.1036E+03
    -15.691  0.1408E+02  0.1050E+03
    -15.594  0.1162E+02  0.1061E+03
    -15.497  0.1022E+02  0.1071E+03
    -15.400  0.1131E+02  0.1082E+03
    -15.303  0.1470E+02  0.1096E+03
    -15.206  0.1893E+02  0.1115E+03
    -15.109  0.2259E+02  0.1136E+03
    -15.012  0.2459E+02  0.1160E+03
    -14.915  0.2419E+02  0.1184E+03
    -14.818  0.2113E+02  0.1204E+03
    -14.721  0.1608E+02  0.1220E+03
    -14.624  0.1121E+02  0.1231E+03
    -14.527  0.8636E+01  0.1239E+03
    -14.430  0.8402E+01  0.1247E+03
    -14.333  0.9199E+01  0.1256E+03
    -14.236  0.1031E+02  0.1266E+03
    -14.139  0.1181E+02  0.1278E+03
    -14.042  0.1353E+02  0.1291E+03
    -13.945  0.1486E+02  0.1305E+03
    -13.848  0.1535E+02  0.1320E+03
    -13.751  0.1514E+02  0.1335E+03
    -13.654  0.1531E+02  0.1350E+03
    -13.557  0.1691E+02  0.1366E+03
    -13.460  0.1931E+02  0.1385E+03
    -13.363  0.2070E+02  0.1405E+03
    -13.266  0.2052E+02  0.1425E+03
    -13.169  0.1981E+02  0.1444E+03
    -13.072  0.1914E+02  0.1462E+03
    -12.975  0.1796E+02  0.1480E+03
    -12.878  0.1627E+02  0.1496E+03
    -12.781  0.1491E+02  0.1510E+03
    -12.684  0.1394E+02  0.1524E+03
    -12.587  0.1270E+02  0.1536E+03
    -12.490  0.1140E+02  0.1547E+03
    -12.393  0.1141E+02  0.1558E+03
    -12.296  0.1396E+02  0.1572E+03
    -12.199  0.1862E+02  0.1590E+03
    -12.102  0.2306E+02  0.1612E+03
    -12.006  0.2490E+02  0.1636E+03
    -11.909  0.2401E+02  0.1659E+03
    -11.812  0.2258E+02  0.1681E+03
    -11.715  0.2203E+02  0.1703E+03
    -11.618  0.2121E+02  0.1723E+03
    -11.521  0.1867E+02  0.1741E+03
    -11.424  0.1594E+02  0.1757E+03
    -11.327  0.1590E+02  0.1772E+03
    -11.230  0.1893E+02  0.1791E+03
    -11.133  0.2319E+02  0.1813E+03
    -11.036  0.2725E+02  0.1839E+03
    -10.939  0.3051E+02  0.1869E+03
    -10.842  0.3283E+02  0.1901E+03
    -10.745  0.3479E+02  0.1935E+03
    -10.648  0.3659E+02  0.1970E+03
    -10.551  0.3770E+02  0.2007E+03
    -10.454  0.3767E+02  0.2043E+03
    -10.357  0.3621E+02  0.2078E+03
    -10.260  0.3380E+02  0.2111E+03
    -10.163  0.3261E+02  0.2143E+03
    -10.066  0.3365E+02  0.2175E+03
     -9.969  0.3477E+02  0.2209E+03
     -9.872  0.3423E+02  0.2242E+03
     -9.775  0.3317E+02  0.2274E+03
     -9.678  0.3325E+02  0.2307E+03
     -9.581  0.3499E+02  0.2341E+03
     -9.484  0.3806E+02  0.2378E+03
     -9.387  0.4066E+02  0.2417E+03
     -9.290  0.4060E+02  0.2456E+03
     -9.193  0.3768E+02  0.2493E+03
     -9.096  0.3378E+02  0.2526E+03
     -8.999  0.3151E+02  0.2556E+03
     -8.902  0.3233E+02  0.2588E+03
     -8.805  0.3478E+02  0.2621E+03
     -8.708  0.3601E+02  0.2656E+03
     -8.611  0.3472E+02  0.2690E+03
     -8.514  0.3215E+02  0.2721E+03
     -8.417  0.3060E+02  0.2751E+03
     -8.320  0.3065E+02  0.2780E+03
     -8.223  0.3097E+02  0.2810E+03
     -8.126  0.3079E+02  0.2840E+03
     -8.030  0.3047E+02  0.2870E+03
     -7.933  0.2970E+02  0.2899E+03
     -7.836  0.2802E+02  0.2926E+03
     -7.739  0.2655E+02  0.2952E+03
     -7.642  0.2655E+02  0.2977E+03
     -7.545  0.2769E+02  0.3004E+03
     -7.448  0.2874E+02  0.3032E+03
     -7.351  0.2877E+02  0.3060E+03
     -7.254  0.2802E+02  0.3087E+03
     -7.157  0.2789E+02  0.3114E+03
     -7.060  0.2879E+02  0.3142E+03
     -6.963  0.2898E+02  0.3170E+03
     -6.866  0.2724E+02  0.3197E+03
     -6.769  0.2456E+02  0.3220E+03
     -6.672  0.2261E+02  0.3242E+03
     -6.575  0.2164E+02  0.3263E+03
     -6.478  0.2081E+02  0.3284E+03
     -6.381  0.1980E+02  0.3303E+03
     -6.284  0.1949E+02  0.3322E+03
     -6.187  0.2097E+02  0.3342E+03
     -6.090  0.2396E+02  0.3365E+03
     -5.993  0.2674E+02  0.3391E+03
     -5.896  0.2745E+02  0.3418E+03
     -5.799  0.2580E+02  0.3443E+03
     -5.702  0.2301E+02  0.3465E+03
     -5.605  0.1974E+02  0.3484E+03
     -5.508  0.1579E+02  0.3500E+03
     -5.411  0.1194E+02  0.3511E+03
     -5.314  0.1016E+02  0.3521E+03
     -5.217  0.1103E+02  0.3532E+03
     -5.120  0.1209E+02  0.3543E+03
     -5.023  0.1121E+02  0.3554E+03
     -4.926  0.9380E+01  0.3563E+03
     -4.829  0.8855E+01  0.3572E+03
     -4.732  0.1038E+02  0.3582E+03
     -4.635  0.1307E+02  0.3595E+03
     -4.538  0.1533E+02  0.3610E+03
     -4.441  0.1529E+02  0.3624E+03
     -4.344  0.1220E+02  0.3636E+03
     -4.247  0.7832E+01  0.3644E+03
     -4.150  0.4670E+01  0.3648E+03
     -4.054  0.3170E+01  0.3651E+03
     -3.957  0.2490E+01  0.3654E+03
     -3.860  0.2367E+01  0.3656E+03
     -3.763  0.3011E+01  0.3659E+03
     -3.666  0.4063E+01  0.3663E+03
     -3.569  0.4611E+01  0.3667E+03
     -3.472  0.4075E+01  0.3671E+03
     -3.375  0.2938E+01  0.3674E+03
     -3.278  0.2396E+01  0.3677E+03
     -3.181  0.2878E+01  0.3679E+03
     -3.084  0.3693E+01  0.3683E+03
     -2.987  0.4406E+01  0.3687E+03
     -2.890  0.5321E+01  0.3692E+03
     -2.793  0.6635E+01  0.3699E+03
     -2.696  0.8060E+01  0.3707E+03
     -2.599  0.8759E+01  0.3715E+03
     -2.502  0.7854E+01  0.3723E+03
     -2.405  0.5869E+01  0.3728E+03
     -2.308  0.4736E+01  0.3733E+03
     -2.211  0.5571E+01  0.3738E+03
     -2.114  0.7200E+01  0.3745E+03
     -2.017  0.7422E+01  0.3753E+03
     -1.920  0.6151E+01  0.3759E+03
     -1.823  0.6180E+01  0.3765E+03
     -1.726  0.9713E+01  0.3774E+03
     -1.629  0.1566E+02  0.3789E+03
     -1.532  0.2082E+02  0.3809E+03
     -1.435  0.2277E+02  0.3831E+03
     -1.338  0.2167E+02  0.3852E+03
     -1.241  0.1979E+02  0.3872E+03
     -1.144  0.1866E+02  0.3890E+03
     -1.047  0.1755E+02  0.3907E+03
     -0.950  0.1583E+02  0.3922E+03
     -0.853  0.1436E+02  0.3936E+03
     -0.756  0.1368E+02  0.3949E+03
     -0.659  0.1324E+02  0.3962E+03
     -0.562  0.1241E+02  0.3974E+03
     -0.465  0.1137E+02  0.3985E+03
     -0.368  0.1119E+02  0.3996E+03
     -0.271  0.1290E+02  0.4009E+03
     -0.174  0.1587E+02  0.4024E+03
     -0.078  0.1843E+02  0.4042E+03
      0.019  0.2007E+02  0.4061E+03
      0.116  0.2145E+02  0.4082E+03
      0.213  0.2213E+02  0.4104E+03
      0.310  0.2091E+02  0.4124E+03
      0.407  0.1849E+02  0.4142E+03
      0.504  0.1736E+02  0.4159E+03
      0.601  0.1919E+02  0.4177E+03
      0.698  0.2336E+02  0.4200E+03
      0.795  0.2772E+02  0.4227E+03
      0.892  0.3064E+02  0.4256E+03
      0.989  0.3316E+02  0.4289E+03
      1.086  0.3734E+02  0.4325E+03
      1.183  0.4298E+02  0.4366E+03
      1.280  0.4795E+02  0.4413E+03
      1.377  0.5016E+02  0.4462E+03
      1.474  0.4886E+02  0.4509E+03
      1.571  0.4435E+02  0.4552E+03
      1.668  0.3676E+02  0.4588E+03
      1.765  0.2658E+02  0.4613E+03
      1.862  0.1588E+02  0.4629E+03
      1.959  0.7570E+01  0.4636E+03
      2.056  0.2862E+01  0.4639E+03
      2.153  0.8602E+00  0.4640E+03
      2.250  0.1993E+00  0.4640E+03
      2.347  0.3348E-01  0.4640E+03
      2.444  0.3843E-02  0.4640E+03
      2.541  0.2900E-03  0.4640E+03
      2.638  0.1409E-04  0.4640E+03
      2.735  0.4361E-06  0.4640E+03
      2.832  0.8550E-08  0.4640E+03
      2.929  0.1059E-09  0.4640E+03
      3.026  0.8260E-12  0.4640E+03
      3.123  0.4007E-14  0.4640E+03
      3.220  0.0000E+00  0.4640E+03
      3.317  0.0000E+00  0.4640E+03
      3.414  0.0000E+00  0.4640E+03
      3.511  0.0000E+00  0.4640E+03
      3.608  0.0000E+00  0.4640E+03
      3.705  0.0000E+00  0.4640E+03
      3.802  0.0000E+00  0.4640E+03
      3.898  0.0000E+00  0.4640E+03
