<?xml version="1.0" encoding="ISO-8859-1"?>
<modeling>
 <generator>
  <i name="program" type="string">vasp </i>
  <i name="version" type="string">6.5.0  </i>
  <i name="subversion" type="string">16Dec24 (build Feb 19 2025 19:45:31) complex                          parallel </i>
  <i name="platform" type="string">LinuxNV </i>
  <i name="date" type="string">2025 10 25 </i>
  <i name="time" type="string">17:55:31 </i>
 </generator>
 <incar>
  <i type="int" name="ISTART">     0</i>
  <i type="string" name="PREC">Accurate   (Precision level)</i>
  <i type="string" name="ALGO">Normal</i>
  <i type="int" name="ISPIN">     1</i>
  <i type="int" name="ICHARG">     2</i>
  <i type="int" name="NELM">   150</i>
  <i type="int" name="IBRION">    -1</i>
  <i name="EDIFF">      0.00000100</i>
  <i type="int" name="NSW">     0</i>
  <i name="ENCUT">    500.00000000</i>
  <i type="string" name="LREAL">Auto         (Projection operators: automatic)</i>
  <i type="int" name="ISMEAR">     0</i>
  <i type="logical" name="KGAMMA"> T  </i>
  <i type="logical" name="LWAVE"> F  </i>
  <i type="logical" name="LCHARG"> F  </i>
 </incar>
 <primitive_cell>
  <structure name="primitive_cell" >
   <crystal>
    <varray name="basis" >
     <v>      28.05000000       0.00000000       0.00000000 </v>
     <v>       0.00000000       8.10000000       0.00000000 </v>
     <v>       0.00000000       0.00000000      33.50000000 </v>
    </varray>
    <i name="volume">   7611.36750000 </i>
    <varray name="rec_basis" >
     <v>       0.03565062       0.00000000       0.00000000 </v>
     <v>       0.00000000       0.12345679       0.00000000 </v>
     <v>       0.00000000       0.00000000       0.02985075 </v>
    </varray>
   </crystal>
   <varray name="positions" >
    <v>       0.02546275       0.12160383       0.44184776 </v>
    <v>       0.02642645       0.29578272       0.44462687 </v>
    <v>       0.07043529       0.05627728       0.44976418 </v>
    <v>       0.06368984       0.38144568       0.46475522 </v>
    <v>       0.10886275       0.13167284       0.46911940 </v>
    <v>       0.10628485       0.30166173       0.47606866 </v>
    <v>       0.15077041       0.05241407       0.48205373 </v>
    <v>       0.14697968       0.38129136       0.49080299 </v>
    <v>       0.19202567       0.13406790       0.49842985 </v>
    <v>       0.19032157       0.30972222       0.50242687 </v>
    <v>       0.23623886       0.04965877       0.50602985 </v>
    <v>       0.23404955       0.38470494       0.51118507 </v>
    <v>       0.27849447       0.13151728       0.51750746 </v>
    <v>       0.27866203       0.29984321       0.51727164 </v>
    <v>       0.32369340       0.05323370       0.51788060 </v>
    <v>       0.32488449       0.37766543       0.52340597 </v>
    <v>       0.36930125       0.12621481       0.51965672 </v>
    <v>       0.36940820       0.29598272       0.52245672 </v>
    <v>       0.41489483       0.04375457       0.51563284 </v>
    <v>       0.41384670       0.37440988       0.52078507 </v>
    <v>       0.45896257       0.12456049       0.51487463 </v>
    <v>       0.45982175       0.29319136       0.51717015 </v>
    <v>       0.50301961       0.04484790       0.50456119 </v>
    <v>       0.50473440       0.37385802       0.50533731 </v>
    <v>       0.54442424       0.12092630       0.48995522 </v>
    <v>       0.54612834       0.29257284       0.49386866 </v>
    <v>       0.58430660       0.03434926       0.47262687 </v>
    <v>       0.58950089       0.37071728       0.48453731 </v>
    <v>       0.62681283       0.12093667       0.46373433 </v>
    <v>       0.63220321       0.29122840       0.47017015 </v>
    <v>       0.66880927       0.04112840       0.44773433 </v>
    <v>       0.67506239       0.36823210       0.46095224 </v>
    <v>       0.71337255       0.12830123       0.43689851 </v>
    <v>       0.71652763       0.28849383       0.44700299 </v>
    <v>       0.75737968       0.05163321       0.42641791 </v>
    <v>       0.76079857       0.37057654       0.43786269 </v>
    <v>       0.80155080       0.12314889       0.42130448 </v>
    <v>       0.80259537       0.29494444       0.42328955 </v>
    <v>       0.84576827       0.03860716       0.41462388 </v>
    <v>       0.84640285       0.37600123       0.41830746 </v>
    <v>       0.89167558       0.12458148       0.41547164 </v>
    <v>       0.89018895       0.28961975       0.41937313 </v>
    <v>       0.93460606       0.04690938       0.42042985 </v>
    <v>       0.93445276       0.37594815       0.42233433 </v>
    <v>       0.97691979       0.12711235       0.42806567 </v>
    <v>       0.97660606       0.30247778       0.43080597 </v>
    <v>       0.02574435       0.63536543       0.44304776 </v>
    <v>       0.02591340       0.80414074       0.43743284 </v>
    <v>       0.06389875       0.55305802       0.46077015 </v>
    <v>       0.06773048       0.88244074       0.44969552 </v>
    <v>       0.10522282       0.63859383       0.47509254 </v>
    <v>       0.10873084       0.79913333       0.46609254 </v>
    <v>       0.14639822       0.55525926       0.48949552 </v>
    <v>       0.15218966       0.88553580       0.47589851 </v>
    <v>       0.18953832       0.63970741       0.49663881 </v>
    <v>       0.19379929       0.80392593       0.49164179 </v>
    <v>       0.23453119       0.55482840       0.50801791 </v>
    <v>       0.23772157       0.87810247       0.50297910 </v>
    <v>       0.28106774       0.63020617       0.50950149 </v>
    <v>       0.28083066       0.79761111       0.50857313 </v>
    <v>       0.32440285       0.54684074       0.52098507 </v>
    <v>       0.32561996       0.88240123       0.51443284 </v>
    <v>       0.36868449       0.62163580       0.51838806 </v>
    <v>       0.36905882       0.79707531       0.51585075 </v>
    <v>       0.41527629       0.54629877       0.52057313 </v>
    <v>       0.41337611       0.87578025       0.51316119 </v>
    <v>       0.45880214       0.62455802       0.51317313 </v>
    <v>       0.45844563       0.79317778       0.51250149 </v>
    <v>       0.50447059       0.54509136       0.50720000 </v>
    <v>       0.50336542       0.87746790       0.50467463 </v>
    <v>       0.54915865       0.62078642       0.49759403 </v>
    <v>       0.54656328       0.79105309       0.49527761 </v>
    <v>       0.59131194       0.54109136       0.48768358 </v>
    <v>       0.58732977       0.86417531       0.47977015 </v>
    <v>       0.63303743       0.62407778       0.47235522 </v>
    <v>       0.63036720       0.79536543       0.46783881 </v>
    <v>       0.67468449       0.53858395       0.46166866 </v>
    <v>       0.66972906       0.87002593       0.45064776 </v>
    <v>       0.71743316       0.62007284       0.44611940 </v>
    <v>       0.71439572       0.78853951       0.43855224 </v>
    <v>       0.75853119       0.53634321       0.43303881 </v>
    <v>       0.75498039       0.87712716       0.42520896 </v>
    <v>       0.79976471       0.62325926       0.42022388 </v>
    <v>       0.80086275       0.78946420       0.41386866 </v>
    <v>       0.84385740       0.54236049       0.41481194 </v>
    <v>       0.84461676       0.87207901       0.41158507 </v>
    <v>       0.88864528       0.62315679       0.41601791 </v>
    <v>       0.88968627       0.79283827       0.41399701 </v>
    <v>       0.93318360       0.54354321       0.42146567 </v>
    <v>       0.93522638       0.87660617       0.41940597 </v>
    <v>       0.97465597       0.62335679       0.42974030 </v>
    <v>       0.97665241       0.79421975       0.42635821 </v>
   </varray>
  </structure>
  <varray name="primitive_index" >
   <v type="int" >        1 </v>
   <v type="int" >        2 </v>
   <v type="int" >        3 </v>
   <v type="int" >        4 </v>
   <v type="int" >        5 </v>
   <v type="int" >        6 </v>
   <v type="int" >        7 </v>
   <v type="int" >        8 </v>
   <v type="int" >        9 </v>
   <v type="int" >       10 </v>
   <v type="int" >       11 </v>
   <v type="int" >       12 </v>
   <v type="int" >       13 </v>
   <v type="int" >       14 </v>
   <v type="int" >       15 </v>
   <v type="int" >       16 </v>
   <v type="int" >       17 </v>
   <v type="int" >       18 </v>
   <v type="int" >       19 </v>
   <v type="int" >       20 </v>
   <v type="int" >       21 </v>
   <v type="int" >       22 </v>
   <v type="int" >       23 </v>
   <v type="int" >       24 </v>
   <v type="int" >       25 </v>
   <v type="int" >       26 </v>
   <v type="int" >       27 </v>
   <v type="int" >       28 </v>
   <v type="int" >       29 </v>
   <v type="int" >       30 </v>
   <v type="int" >       31 </v>
   <v type="int" >       32 </v>
   <v type="int" >       33 </v>
   <v type="int" >       34 </v>
   <v type="int" >       35 </v>
   <v type="int" >       36 </v>
   <v type="int" >       37 </v>
   <v type="int" >       38 </v>
   <v type="int" >       39 </v>
   <v type="int" >       40 </v>
   <v type="int" >       41 </v>
   <v type="int" >       42 </v>
   <v type="int" >       43 </v>
   <v type="int" >       44 </v>
   <v type="int" >       45 </v>
   <v type="int" >       46 </v>
   <v type="int" >       47 </v>
   <v type="int" >       48 </v>
   <v type="int" >       49 </v>
   <v type="int" >       50 </v>
   <v type="int" >       51 </v>
   <v type="int" >       52 </v>
   <v type="int" >       53 </v>
   <v type="int" >       54 </v>
   <v type="int" >       55 </v>
   <v type="int" >       56 </v>
   <v type="int" >       57 </v>
   <v type="int" >       58 </v>
   <v type="int" >       59 </v>
   <v type="int" >       60 </v>
   <v type="int" >       61 </v>
   <v type="int" >       62 </v>
   <v type="int" >       63 </v>
   <v type="int" >       64 </v>
   <v type="int" >       65 </v>
   <v type="int" >       66 </v>
   <v type="int" >       67 </v>
   <v type="int" >       68 </v>
   <v type="int" >       69 </v>
   <v type="int" >       70 </v>
   <v type="int" >       71 </v>
   <v type="int" >       72 </v>
   <v type="int" >       73 </v>
   <v type="int" >       74 </v>
   <v type="int" >       75 </v>
   <v type="int" >       76 </v>
   <v type="int" >       77 </v>
   <v type="int" >       78 </v>
   <v type="int" >       79 </v>
   <v type="int" >       80 </v>
   <v type="int" >       81 </v>
   <v type="int" >       82 </v>
   <v type="int" >       83 </v>
   <v type="int" >       84 </v>
   <v type="int" >       85 </v>
   <v type="int" >       86 </v>
   <v type="int" >       87 </v>
   <v type="int" >       88 </v>
   <v type="int" >       89 </v>
   <v type="int" >       90 </v>
   <v type="int" >       91 </v>
   <v type="int" >       92 </v>
  </varray>
 </primitive_cell>
 <kpoints>
  <generation param="Gamma">
   <v type="int" name="divisions">       1        4        1 </v>
   <v name="usershift">      0.00000000       0.00000000       0.00000000 </v>
   <v name="genvec1">      1.00000000       0.00000000       0.00000000 </v>
   <v name="genvec2">      0.00000000       0.25000000       0.00000000 </v>
   <v name="genvec3">      0.00000000       0.00000000       1.00000000 </v>
   <v name="shift">      0.00000000       0.00000000       0.00000000 </v>
  </generation>
  <varray name="kpointlist" >
   <v>       0.00000000       0.00000000       0.00000000 </v>
   <v>       0.00000000       0.25000000       0.00000000 </v>
   <v>       0.00000000       0.50000000       0.00000000 </v>
  </varray>
  <varray name="weights" >
   <v>       0.25000000 </v>
   <v>       0.50000000 </v>
   <v>       0.25000000 </v>
  </varray>
 </kpoints>
 <parameters>
  <separator name="general" >
   <i type="string" name="SYSTEM">unknown system</i>
   <i type="logical" name="LCOMPAT"> F  </i>
  </separator>
  <separator name="electronic" >
   <i type="string" name="PREC">accura</i>
   <i name="ENMAX">    500.00000000</i>
   <i name="ENAUG">    644.87300000</i>
   <i name="EDIFF">      0.00000100</i>
   <i type="int" name="IALGO">    38</i>
   <i type="int" name="IWAVPR">    10</i>
   <i type="int" name="NBANDS">   232</i>
   <i type="int" name="NBANDSLOW">    -1</i>
   <i type="int" name="NBANDSHIGH">    -1</i>
   <i name="NELECT">    368.00000000</i>
   <i type="int" name="TURBO">     0</i>
   <i type="int" name="IRESTART">     0</i>
   <i type="int" name="NREBOOT">     0</i>
   <i type="int" name="NMIN">     0</i>
   <i name="EREF">      0.00000000</i>
   <separator name="electronic smearing" >
    <i type="int" name="ISMEAR">     0</i>
    <i name="SIGMA">      0.20000000</i>
    <i name="KSPACING">      0.50000000</i>
    <i type="logical" name="KGAMMA"> T  </i>
    <i type="logical" name="KBLOWUP"> T  </i>
   </separator>
   <separator name="electronic projectors" >
    <i type="logical" name="LREAL"> T  </i>
    <v name="ROPT">     -0.00025000</v>
    <i type="int" name="LMAXPAW">  -100</i>
    <i type="int" name="LMAXMIX">     2</i>
    <i type="logical" name="NLSPLINE"> F  </i>
   </separator>
   <separator name="electronic startup" >
    <i type="int" name="ISTART">     0</i>
    <i type="int" name="ICHARG">     2</i>
    <i type="int" name="INIWAV">     1</i>
   </separator>
   <separator name="electronic spin" >
    <i type="int" name="ISPIN">     1</i>
    <i type="logical" name="LNONCOLLINEAR"> F  </i>
    <v name="MAGMOM">      1.00000000      1.00000000      1.00000000      1.00000000      1.00000000      1.00000000      1.00000000      1.00000000      1.00000000      1.00000000      1.00000000      1.00000000      1.00000000      1.00000000      1.00000000      1.00000000      1.00000000      1.00000000      1.00000000      1.00000000
      1.00000000      1.00000000      1.00000000      1.00000000      1.00000000      1.00000000      1.00000000      1.00000000      1.00000000      1.00000000      1.00000000      1.00000000      1.00000000      1.00000000      1.00000000      1.00000000      1.00000000      1.00000000      1.00000000      1.00000000
      1.00000000      1.00000000      1.00000000      1.00000000      1.00000000      1.00000000      1.00000000      1.00000000      1.00000000      1.00000000      1.00000000      1.00000000      1.00000000      1.00000000      1.00000000      1.00000000      1.00000000      1.00000000      1.00000000      1.00000000
      1.00000000      1.00000000      1.00000000      1.00000000      1.00000000      1.00000000      1.00000000      1.00000000      1.00000000      1.00000000      1.00000000      1.00000000      1.00000000      1.00000000      1.00000000      1.00000000      1.00000000      1.00000000      1.00000000      1.00000000
      1.00000000      1.00000000      1.00000000      1.00000000      1.00000000      1.00000000      1.00000000      1.00000000      1.00000000      1.00000000      1.00000000      1.00000000</v>
    <i name="NUPDOWN">     -1.00000000</i>
    <i type="logical" name="LSORBIT"> F  </i>
    <v name="SAXIS">      0.00000000      0.00000000      1.00000000</v>
    <i type="logical" name="LSPIRAL"> F  </i>
    <v name="QSPIRAL">      0.00000000      0.00000000      0.00000000</v>
    <i type="logical" name="LZEROZ"> F  </i>
   </separator>
   <separator name="electronic exchange-correlation" >
    <i type="logical" name="LASPH"> F  </i>
   </separator>
   <separator name="electronic convergence" >
    <i type="int" name="NELM">   150</i>
    <i type="int" name="NELMDL">    -5</i>
    <i type="int" name="NELMIN">     2</i>
    <i name="ENINI">    500.00000000</i>
    <separator name="electronic convergence detail" >
     <i type="logical" name="LDIAG"> T  </i>
     <i type="logical" name="LSUBROT"> F  </i>
     <i name="WEIMIN">      0.00000000</i>
     <i name="EBREAK">      0.00000000</i>
     <i name="DEPER">      0.30000000</i>
     <i type="int" name="NRMM">     4</i>
     <i name="TIME">      0.40000000</i>
    </separator>
   </separator>
   <separator name="electronic mixer" >
    <i name="AMIX">      0.40000000</i>
    <i name="BMIX">      1.00000000</i>
    <i name="AMIN">      0.10000000</i>
    <i name="AMIX_MAG">      1.60000000</i>
    <i name="BMIX_MAG">      1.00000000</i>
    <separator name="electronic mixer details" >
     <i type="int" name="IMIX">     4</i>
     <i type="logical" name="MIXFIRST"> F  </i>
     <i type="int" name="MAXMIX">   -45</i>
     <i name="WC">    100.00000000</i>
     <i type="int" name="INIMIX">     1</i>
     <i type="int" name="MIXPRE">     1</i>
     <i type="int" name="MREMOVE">     5</i>
    </separator>
   </separator>
   <separator name="electronic dipolcorrection" >
    <i type="logical" name="LDIPOL"> F  </i>
    <i type="logical" name="LMONO"> F  </i>
    <i type="int" name="IDIPOL">     0</i>
    <i name="EPSILON">      1.00000000</i>
    <v name="DIPOL">   -100.00000000   -100.00000000   -100.00000000</v>
    <i name="EFIELD">      0.00000000</i>
    <i type="logical" name="LVACPOTAV"> F  </i>
   </separator>
  </separator>
  <separator name="grids" >
   <i type="int" name="NGX">   210</i>
   <i type="int" name="NGY">    60</i>
   <i type="int" name="NGZ">   250</i>
   <i type="int" name="NGXF">   420</i>
   <i type="int" name="NGYF">   120</i>
   <i type="int" name="NGZF">   500</i>
   <i type="logical" name="ADDGRID"> F  </i>
  </separator>
  <separator name="ionic" >
   <i type="int" name="NSW">     0</i>
   <i type="int" name="IBRION">    -1</i>
   <i type="int" name="MDALGO">     0</i>
   <i type="int" name="ISIF">     2</i>
   <i name="PSTRESS">      0.00000000</i>
   <i name="EDIFFG">      0.00001000</i>
   <i type="int" name="NFREE">     0</i>
   <i name="POTIM">      0.50000000</i>
   <i name="SMASS">     -3.00000000</i>
   <i name="SCALEE">      1.00000000</i>
  </separator>
  <separator name="ionic md" >
   <i name="TEBEG">      0.00010000</i>
   <i name="TEEND">      0.00010000</i>
   <i type="int" name="NBLOCK">     1</i>
   <i type="int" name="KBLOCK">     1</i>
   <i type="int" name="NPACO">   256</i>
   <i name="APACO">     10.00000000</i>
  </separator>
  <separator name="symmetry" >
   <i type="int" name="ISYM">     2</i>
   <i name="SYMPREC">      0.00001000</i>
  </separator>
  <separator name="dos" >
   <i type="int" name="LORBIT">     0</i>
   <v name="RWIGS">     -1.00000000</v>
   <i type="int" name="NEDOS">   301</i>
   <i name="EMIN">     10.00000000</i>
   <i name="EMAX">    -10.00000000</i>
   <i name="EFERMI">      0.00000000</i>
  </separator>
  <separator name="writing" >
   <i type="int" name="NWRITE">     2</i>
   <i type="logical" name="LWAVE"> F  </i>
   <i type="logical" name="LDOWNSAMPLE"> F  </i>
   <i type="logical" name="LCHARG"> F  </i>
   <i type="logical" name="LPARD"> F  </i>
   <i type="logical" name="LVTOT"> F  </i>
   <i type="logical" name="LVHAR"> F  </i>
   <i type="logical" name="LELF"> F  </i>
   <i type="logical" name="LOPTICS"> F  </i>
   <v name="STM">      0.00000000      0.00000000      0.00000000      0.00000000      0.00000000      0.00000000      0.00000000</v>
  </separator>
  <separator name="performance" >
   <i type="int" name="NPAR">     2</i>
   <i type="int" name="NSIM">     4</i>
   <i type="int" name="NBLK">    -1</i>
   <i type="logical" name="LPLANE"> T  </i>
   <i type="logical" name="LSCALAPACK"> T  </i>
   <i type="logical" name="LSCAAWARE"> F  </i>
   <i type="logical" name="LSCALU"> F  </i>
   <i type="logical" name="LASYNC"> F  </i>
   <i type="logical" name="LORBITALREAL"> F  </i>
  </separator>
  <separator name="miscellaneous" >
   <i type="int" name="IDIOT">     3</i>
   <i type="int" name="PHON_NSTRUCT">    -1</i>
   <i type="logical" name="LMUSIC"> F  </i>
   <v name="POMASS">     12.01100000</v>
   <v name="DARWINR">      0.00000000</v>
   <v name="DARWINV">      1.00000000</v>
   <i type="logical" name="LCORR"> T  </i>
  </separator>
  <i type="logical" name="GGA_COMPAT"> T  </i>
  <i type="logical" name="LBERRY"> F  </i>
  <i type="int" name="ICORELEVEL">     0</i>
  <i type="logical" name="LDAU"> F  </i>
  <i type="int" name="I_CONSTRAINED_M">     0</i>
  <separator name="electronic exchange-correlation" >
   <i type="string" name="GGA    ">PE</i>
   <i type="string" name="XC_C">1</i>
   <i type="int" name="VOSKOWN">     0</i>
   <i type="logical" name="LHFCALC"> F  </i>
   <i type="string" name="PRECFOCK"></i>
   <i type="logical" name="LSYMGRAD"> F  </i>
   <i type="logical" name="LHFONE"> F  </i>
   <i type="logical" name="LRHFCALC"> F  </i>
   <i type="logical" name="LTHOMAS"> F  </i>
   <i type="logical" name="LMODELHF"> F  </i>
   <i type="logical" name="LFOCKACE"> F  </i>
   <i name="ENCUT4O">     -1.00000000</i>
   <i type="int" name="EXXOEP">     0</i>
   <i type="int" name="FOURORBIT">     0</i>
   <i name="AEXX">      0.00000000</i>
   <i name="HFALPHA">      0.00000000</i>
   <i name="MCALPHA">      0.00000000</i>
   <i name="ALDAX">      1.00000000</i>
   <i name="AGGAX">      1.00000000</i>
   <i name="AMGGAX">      1.00000000</i>
   <i name="ALDAC">      1.00000000</i>
   <i name="AGGAC">      1.00000000</i>
   <i name="AMGGAC">      1.00000000</i>
   <i type="int" name="NKREDX">     1</i>
   <i type="int" name="NKREDY">     1</i>
   <i type="int" name="NKREDZ">     1</i>
   <i type="logical" name="SHIFTRED"> F  </i>
   <i type="logical" name="ODDONLY"> F  </i>
   <i type="logical" name="EVENONLY"> F  </i>
   <i type="int" name="LMAXFOCK">     0</i>
   <i type="int" name="NMAXFOCKAE">     0</i>
   <i type="logical" name="LFOCKAEDFT"> F  </i>
   <i name="HFSCREEN">      0.00000000</i>
   <i name="HFSCREENC">      0.00000000</i>
   <i type="int" name="NBANDSGWLOW">     0</i>
  </separator>
  <separator name="vdW DFT" >
   <i type="logical" name="LUSE_VDW"> F  </i>
   <i type="int" name="IVDW_NL">    -1</i>
   <i type="logical" name="LSPIN_VDW"> F  </i>
   <i name="ZAB_VDW">     -0.84910000</i>
   <i name="GAMMA_VDW">      1.39626340</i>
   <i name="ALPHA_VDW">      0.00000000</i>
   <i name="PARAM1">      0.12340000</i>
   <i name="PARAM2">      1.00000000</i>
   <i name="BPARAM">      6.30000000</i>
   <i name="CPARAM">      0.00930000</i>
  </separator>
  <separator name="model GW" >
   <i type="int" name="MODEL_GW">     0</i>
   <i name="MODEL_EPS0">     49.63935326</i>
   <i name="MODEL_ALPHA">      1.00000000</i>
  </separator>
  <separator name="linear response parameters" >
   <i type="logical" name="LEPSILON"> F  </i>
   <i type="logical" name="LRPA"> F  </i>
   <i type="logical" name="LNABLA"> F  </i>
   <i type="logical" name="LVEL"> F  </i>
   <i name="CSHIFT">      0.10000000</i>
   <i name="OMEGAMAX">     -1.00000000</i>
   <i name="DEG_THRESHOLD">      0.00200000</i>
   <i name="RTIME">     -0.10000000</i>
   <i name="WPLASMAI">      0.00000000</i>
   <v name="DFIELD">      0.00000000      0.00000000      0.00000000</v>
   <v name="WPLASMA">      0.00000000      0.00000000      0.00000000      0.00000000      0.00000000      0.00000000      0.00000000      0.00000000      0.00000000</v>
  </separator>
  <separator name="orbital magnetization" >
   <i type="logical" name="NUCIND"> F  </i>
   <v name="MAGPOS">      0.00000000      0.00000000      0.00000000</v>
   <i type="logical" name="LNICSALL"> T  </i>
   <i type="logical" name="ORBITALMAG"> F  </i>
   <i type="logical" name="LMAGBLOCH"> F  </i>
   <i type="logical" name="LCHIMAG"> F  </i>
   <i type="logical" name="LGAUGE"> T  </i>
   <i type="int" name="MAGATOM">     0</i>
   <v name="MAGDIPOL">      0.00000000      0.00000000      0.00000000</v>
   <v name="AVECCONST">      0.00000000      0.00000000      0.00000000</v>
  </separator>
  <separator name="response functions" >
   <i type="logical" name="LALL_IN_ONE"> F  </i>
   <i type="int" name="IALL_IN_ONE">    -1</i>
   <i type="int" name="NBANDS_WAVE">    -1</i>
   <i type="logical" name="LFINITE_TEMPERATURE"> F  </i>
   <i type="logical" name="LADDER"> F  </i>
   <i type="logical" name="LRPAFORCE"> F  </i>
   <i type="logical" name="LFXC"> F  </i>
   <i type="logical" name="LHARTREE"> T  </i>
   <i type="int" name="IBSE">     2</i>
   <v type="int" name="KPOINT">    -1     0     0     0</v>
   <i type="logical" name="LTCTC"> F  </i>
   <i type="logical" name="LTCTE"> F  </i>
   <i type="logical" name="LTETE"> F  </i>
   <i type="logical" name="LTRIPLET"> F  </i>
   <i type="logical" name="LFXCEPS"> F  </i>
   <i type="logical" name="LFXHEG"> F  </i>
   <i type="int" name="NATURALO">     2</i>
   <i type="logical" name="LHOLEGF"> F  </i>
   <i type="logical" name="L2ORDER"> F  </i>
   <i type="logical" name="LDMP1"> F  </i>
   <i type="logical" name="LMP2LT"> F  </i>
   <i type="logical" name="LSMP2LT"> F  </i>
   <i type="logical" name="LGWLF"> F  </i>
   <i name="ENCUTGW">     -1.60000002</i>
   <i name="ENCUTGWSOFT">     -1.60000002</i>
   <i name="ENCUTLF">     -1.00000000</i>
   <i type="logical" name="ESF_SPLINES"> F  </i>
   <i name="ESF_CONV">      0.01000000</i>
   <i type="int" name="ESF_NINTER">    15</i>
   <i type="int" name="LMAXMP2">    -1</i>
   <i name="SCISSOR">      0.00000000</i>
   <i type="int" name="NOMEGA">     0</i>
   <i type="int" name="NOMEGAR">     0</i>
   <i type="int" name="NBANDSGW">    -1</i>
   <i type="int" name="NBANDSO">    -1</i>
   <i type="int" name="NBANDSV">    -1</i>
   <i type="int" name="NELMGW">     1</i>
   <i type="int" name="NELMHF">     1</i>
   <i type="int" name="DIM">     3</i>
   <i type="int" name="IESPILON">     4</i>
   <i type="int" name="ANTIRES">     0</i>
   <i name="OMEGAMAX">    -30.00000000</i>
   <i name="OMEGAMIN">    -30.00000000</i>
   <i name="OMEGATL">   -200.00000000</i>
   <i type="int" name="OMEGAGRID">     0</i>
   <i name="CSHIFT">     -0.10000000</i>
   <i type="logical" name="LSELFENERGY"> F  </i>
   <i type="logical" name="LSPECTRAL"> F  </i>
   <i type="logical" name="LSPECTRALGW"> F  </i>
   <i type="logical" name="LSINGLES"> F  </i>
   <i type="logical" name="LFERMIGW"> F  </i>
   <i type="logical" name="ODDONLYGW"> F  </i>
   <i type="logical" name="EVENONLYGW"> F  </i>
   <i type="int" name="NKREDLFX">     1</i>
   <i type="int" name="NKREDLFY">     1</i>
   <i type="int" name="NKREDLFZ">     1</i>
   <i type="int" name="MAXMEM">  2800</i>
   <i type="int" name="TELESCOPE">     0</i>
   <i type="int" name="NTAUPAR">    -1</i>
   <i type="int" name="NOMEGAPAR">    -1</i>
   <i name="DAMP_NEWTON">      0.80000001</i>
   <i name="LAMBDA">      1.00000000</i>
  </separator>
  <separator name="External order field" >
   <i name="OFIELD_KAPPA">      0.00000000</i>
   <v name="OFIELD_K">      0.00000000      0.00000000      0.00000000</v>
   <i name="OFIELD_Q6_NEAR">      0.00000000</i>
   <i name="OFIELD_Q6_FAR">      0.00000000</i>
   <i name="OFIELD_A">      0.00000000</i>
  </separator>
  <separator name="optional k-points parameters" >
   <i type="int" name="KPOINTS_OPT_MODE">     1</i>
   <i type="logical" name="LKPOINTS_OPT"> F  </i>
  </separator>
 </parameters>
 <atominfo>
  <atoms>      92 </atoms>
  <types>       1 </types>
  <array name="atoms" >
   <dimension dim="1">ion</dimension>
   <field type="string">element</field>
   <field type="int">atomtype</field>
   <set>
    <rc><c>C </c><c>   1</c></rc>
    <rc><c>C </c><c>   1</c></rc>
    <rc><c>C </c><c>   1</c></rc>
    <rc><c>C </c><c>   1</c></rc>
    <rc><c>C </c><c>   1</c></rc>
    <rc><c>C </c><c>   1</c></rc>
    <rc><c>C </c><c>   1</c></rc>
    <rc><c>C </c><c>   1</c></rc>
    <rc><c>C </c><c>   1</c></rc>
    <rc><c>C </c><c>   1</c></rc>
    <rc><c>C </c><c>   1</c></rc>
    <rc><c>C </c><c>   1</c></rc>
    <rc><c>C </c><c>   1</c></rc>
    <rc><c>C </c><c>   1</c></rc>
    <rc><c>C </c><c>   1</c></rc>
    <rc><c>C </c><c>   1</c></rc>
    <rc><c>C </c><c>   1</c></rc>
    <rc><c>C </c><c>   1</c></rc>
    <rc><c>C </c><c>   1</c></rc>
    <rc><c>C </c><c>   1</c></rc>
    <rc><c>C </c><c>   1</c></rc>
    <rc><c>C </c><c>   1</c></rc>
    <rc><c>C </c><c>   1</c></rc>
    <rc><c>C </c><c>   1</c></rc>
    <rc><c>C </c><c>   1</c></rc>
    <rc><c>C </c><c>   1</c></rc>
    <rc><c>C </c><c>   1</c></rc>
    <rc><c>C </c><c>   1</c></rc>
    <rc><c>C </c><c>   1</c></rc>
    <rc><c>C </c><c>   1</c></rc>
    <rc><c>C </c><c>   1</c></rc>
    <rc><c>C </c><c>   1</c></rc>
    <rc><c>C </c><c>   1</c></rc>
    <rc><c>C </c><c>   1</c></rc>
    <rc><c>C </c><c>   1</c></rc>
    <rc><c>C </c><c>   1</c></rc>
    <rc><c>C </c><c>   1</c></rc>
    <rc><c>C </c><c>   1</c></rc>
    <rc><c>C </c><c>   1</c></rc>
    <rc><c>C </c><c>   1</c></rc>
    <rc><c>C </c><c>   1</c></rc>
    <rc><c>C </c><c>   1</c></rc>
    <rc><c>C </c><c>   1</c></rc>
    <rc><c>C </c><c>   1</c></rc>
    <rc><c>C </c><c>   1</c></rc>
    <rc><c>C </c><c>   1</c></rc>
    <rc><c>C </c><c>   1</c></rc>
    <rc><c>C </c><c>   1</c></rc>
    <rc><c>C </c><c>   1</c></rc>
    <rc><c>C </c><c>   1</c></rc>
    <rc><c>C </c><c>   1</c></rc>
    <rc><c>C </c><c>   1</c></rc>
    <rc><c>C </c><c>   1</c></rc>
    <rc><c>C </c><c>   1</c></rc>
    <rc><c>C </c><c>   1</c></rc>
    <rc><c>C </c><c>   1</c></rc>
    <rc><c>C </c><c>   1</c></rc>
    <rc><c>C </c><c>   1</c></rc>
    <rc><c>C </c><c>   1</c></rc>
    <rc><c>C </c><c>   1</c></rc>
    <rc><c>C </c><c>   1</c></rc>
    <rc><c>C </c><c>   1</c></rc>
    <rc><c>C </c><c>   1</c></rc>
    <rc><c>C </c><c>   1</c></rc>
    <rc><c>C </c><c>   1</c></rc>
    <rc><c>C </c><c>   1</c></rc>
    <rc><c>C </c><c>   1</c></rc>
    <rc><c>C </c><c>   1</c></rc>
    <rc><c>C </c><c>   1</c></rc>
    <rc><c>C </c><c>   1</c></rc>
    <rc><c>C </c><c>   1</c></rc>
    <rc><c>C </c><c>   1</c></rc>
    <rc><c>C </c><c>   1</c></rc>
    <rc><c>C </c><c>   1</c></rc>
    <rc><c>C </c><c>   1</c></rc>
    <rc><c>C </c><c>   1</c></rc>
    <rc><c>C </c><c>   1</c></rc>
    <rc><c>C </c><c>   1</c></rc>
    <rc><c>C </c><c>   1</c></rc>
    <rc><c>C </c><c>   1</c></rc>
    <rc><c>C </c><c>   1</c></rc>
    <rc><c>C </c><c>   1</c></rc>
    <rc><c>C </c><c>   1</c></rc>
    <rc><c>C </c><c>   1</c></rc>
    <rc><c>C </c><c>   1</c></rc>
    <rc><c>C </c><c>   1</c></rc>
    <rc><c>C </c><c>   1</c></rc>
    <rc><c>C </c><c>   1</c></rc>
    <rc><c>C </c><c>   1</c></rc>
    <rc><c>C </c><c>   1</c></rc>
    <rc><c>C </c><c>   1</c></rc>
    <rc><c>C </c><c>   1</c></rc>
   </set>
  </array>
  <array name="atomtypes" >
   <dimension dim="1">type</dimension>
   <field type="int">atomspertype</field>
   <field type="string">element</field>
   <field>mass</field>
   <field>valence</field>
   <field type="string">pseudopotential</field>
   <set>
    <rc><c>  92</c><c>C </c><c>     12.01100000</c><c>      4.00000000</c><c>  PAW_PBE C 08Apr2002                   </c></rc>
   </set>
  </array>
 </atominfo>
 <structure name="initialpos" >
  <crystal>
   <varray name="basis" >
    <v>      28.05000000       0.00000000       0.00000000 </v>
    <v>       0.00000000       8.10000000       0.00000000 </v>
    <v>       0.00000000       0.00000000      33.50000000 </v>
   </varray>
   <i name="volume">   7611.36750000 </i>
   <varray name="rec_basis" >
    <v>       0.03565062       0.00000000       0.00000000 </v>
    <v>       0.00000000       0.12345679       0.00000000 </v>
    <v>       0.00000000       0.00000000       0.02985075 </v>
   </varray>
  </crystal>
  <varray name="positions" >
   <v>       0.02546275       0.12160383       0.44184776 </v>
   <v>       0.02642645       0.29578272       0.44462687 </v>
   <v>       0.07043529       0.05627728       0.44976418 </v>
   <v>       0.06368984       0.38144568       0.46475522 </v>
   <v>       0.10886275       0.13167284       0.46911940 </v>
   <v>       0.10628485       0.30166173       0.47606866 </v>
   <v>       0.15077041       0.05241407       0.48205373 </v>
   <v>       0.14697968       0.38129136       0.49080299 </v>
   <v>       0.19202567       0.13406790       0.49842985 </v>
   <v>       0.19032157       0.30972222       0.50242687 </v>
   <v>       0.23623886       0.04965877       0.50602985 </v>
   <v>       0.23404955       0.38470494       0.51118507 </v>
   <v>       0.27849447       0.13151728       0.51750746 </v>
   <v>       0.27866203       0.29984321       0.51727164 </v>
   <v>       0.32369340       0.05323370       0.51788060 </v>
   <v>       0.32488449       0.37766543       0.52340597 </v>
   <v>       0.36930125       0.12621481       0.51965672 </v>
   <v>       0.36940820       0.29598272       0.52245672 </v>
   <v>       0.41489483       0.04375457       0.51563284 </v>
   <v>       0.41384670       0.37440988       0.52078507 </v>
   <v>       0.45896257       0.12456049       0.51487463 </v>
   <v>       0.45982175       0.29319136       0.51717015 </v>
   <v>       0.50301961       0.04484790       0.50456119 </v>
   <v>       0.50473440       0.37385802       0.50533731 </v>
   <v>       0.54442424       0.12092630       0.48995522 </v>
   <v>       0.54612834       0.29257284       0.49386866 </v>
   <v>       0.58430660       0.03434926       0.47262687 </v>
   <v>       0.58950089       0.37071728       0.48453731 </v>
   <v>       0.62681283       0.12093667       0.46373433 </v>
   <v>       0.63220321       0.29122840       0.47017015 </v>
   <v>       0.66880927       0.04112840       0.44773433 </v>
   <v>       0.67506239       0.36823210       0.46095224 </v>
   <v>       0.71337255       0.12830123       0.43689851 </v>
   <v>       0.71652763       0.28849383       0.44700299 </v>
   <v>       0.75737968       0.05163321       0.42641791 </v>
   <v>       0.76079857       0.37057654       0.43786269 </v>
   <v>       0.80155080       0.12314889       0.42130448 </v>
   <v>       0.80259537       0.29494444       0.42328955 </v>
   <v>       0.84576827       0.03860716       0.41462388 </v>
   <v>       0.84640285       0.37600123       0.41830746 </v>
   <v>       0.89167558       0.12458148       0.41547164 </v>
   <v>       0.89018895       0.28961975       0.41937313 </v>
   <v>       0.93460606       0.04690938       0.42042985 </v>
   <v>       0.93445276       0.37594815       0.42233433 </v>
   <v>       0.97691979       0.12711235       0.42806567 </v>
   <v>       0.97660606       0.30247778       0.43080597 </v>
   <v>       0.02574435       0.63536543       0.44304776 </v>
   <v>       0.02591340       0.80414074       0.43743284 </v>
   <v>       0.06389875       0.55305802       0.46077015 </v>
   <v>       0.06773048       0.88244074       0.44969552 </v>
   <v>       0.10522282       0.63859383       0.47509254 </v>
   <v>       0.10873084       0.79913333       0.46609254 </v>
   <v>       0.14639822       0.55525926       0.48949552 </v>
   <v>       0.15218966       0.88553580       0.47589851 </v>
   <v>       0.18953832       0.63970741       0.49663881 </v>
   <v>       0.19379929       0.80392593       0.49164179 </v>
   <v>       0.23453119       0.55482840       0.50801791 </v>
   <v>       0.23772157       0.87810247       0.50297910 </v>
   <v>       0.28106774       0.63020617       0.50950149 </v>
   <v>       0.28083066       0.79761111       0.50857313 </v>
   <v>       0.32440285       0.54684074       0.52098507 </v>
   <v>       0.32561996       0.88240123       0.51443284 </v>
   <v>       0.36868449       0.62163580       0.51838806 </v>
   <v>       0.36905882       0.79707531       0.51585075 </v>
   <v>       0.41527629       0.54629877       0.52057313 </v>
   <v>       0.41337611       0.87578025       0.51316119 </v>
   <v>       0.45880214       0.62455802       0.51317313 </v>
   <v>       0.45844563       0.79317778       0.51250149 </v>
   <v>       0.50447059       0.54509136       0.50720000 </v>
   <v>       0.50336542       0.87746790       0.50467463 </v>
   <v>       0.54915865       0.62078642       0.49759403 </v>
   <v>       0.54656328       0.79105309       0.49527761 </v>
   <v>       0.59131194       0.54109136       0.48768358 </v>
   <v>       0.58732977       0.86417531       0.47977015 </v>
   <v>       0.63303743       0.62407778       0.47235522 </v>
   <v>       0.63036720       0.79536543       0.46783881 </v>
   <v>       0.67468449       0.53858395       0.46166866 </v>
   <v>       0.66972906       0.87002593       0.45064776 </v>
   <v>       0.71743316       0.62007284       0.44611940 </v>
   <v>       0.71439572       0.78853951       0.43855224 </v>
   <v>       0.75853119       0.53634321       0.43303881 </v>
   <v>       0.75498039       0.87712716       0.42520896 </v>
   <v>       0.79976471       0.62325926       0.42022388 </v>
   <v>       0.80086275       0.78946420       0.41386866 </v>
   <v>       0.84385740       0.54236049       0.41481194 </v>
   <v>       0.84461676       0.87207901       0.41158507 </v>
   <v>       0.88864528       0.62315679       0.41601791 </v>
   <v>       0.88968627       0.79283827       0.41399701 </v>
   <v>       0.93318360       0.54354321       0.42146567 </v>
   <v>       0.93522638       0.87660617       0.41940597 </v>
   <v>       0.97465597       0.62335679       0.42974030 </v>
   <v>       0.97665241       0.79421975       0.42635821 </v>
  </varray>
 </structure>
 <calculation>
  <scstep>
   <time name="dav">   11.09   11.09</time>
   <time name="total">   11.55   11.57</time>
   <energy>
    <i name="alphaZ">     91.34886789 </i>
    <i name="ewald"> 118664.05221717 </i>
    <i name="hartreedc">-128012.18744565 </i>
    <i name="XCdc">   1220.15298002 </i>
    <i name="pawpsdc">   9984.02826696 </i>
    <i name="pawaedc"> -10036.41360137 </i>
    <i name="eentropy">     -0.83887207 </i>
    <i name="bandstr">  -1759.83812395 </i>
    <i name="atom">  13537.65479391 </i>
    <i name="e_fr_energy">   3687.95908293 </i>
    <i name="e_wo_entrp">   3688.79795500 </i>
    <i name="e_0_energy">   3688.37851896 </i>
   </energy>
  </scstep>
  <scstep>
   <time name="dav">   13.14   13.15</time>
   <time name="total">   13.14   13.15</time>
   <energy>
    <i name="e_fr_energy">    185.90388413 </i>
    <i name="e_wo_entrp">    186.18235010 </i>
    <i name="e_0_energy">    186.04311711 </i>
   </energy>
  </scstep>
  <scstep>
   <time name="dav">   11.39   11.40</time>
   <time name="total">   11.39   11.40</time>
   <energy>
    <i name="e_fr_energy">   -830.34471558 </i>
    <i name="e_wo_entrp">   -830.29903937 </i>
    <i name="e_0_energy">   -830.32187747 </i>
   </energy>
  </scstep>
  <scstep>
   <time name="dav">   11.04   11.05</time>
   <time name="total">   11.04   11.05</time>
   <energy>
    <i name="e_fr_energy">   -894.37313832 </i>
    <i name="e_wo_entrp">   -894.31454167 </i>
    <i name="e_0_energy">   -894.34383999 </i>
   </energy>
  </scstep>
  <scstep>
   <time name="dav">   11.43   11.44</time>
   <time name="total">   12.92   12.92</time>
   <energy>
    <i name="e_fr_energy">   -895.97000331 </i>
    <i name="e_wo_entrp">   -895.91015740 </i>
    <i name="e_0_energy">   -895.94008036 </i>
   </energy>
  </scstep>
  <scstep>
   <time name="dav">   10.32   10.33</time>
   <time name="total">   12.12   12.13</time>
   <energy>
    <i name="e_fr_energy">   -847.31536155 </i>
    <i name="e_wo_entrp">   -847.25237196 </i>
    <i name="e_0_energy">   -847.28386676 </i>
   </energy>
  </scstep>
  <scstep>
   <time name="dav">   10.15   10.16</time>
   <time name="total">   11.95   11.95</time>
   <energy>
    <i name="e_fr_energy">   -829.17316896 </i>
    <i name="e_wo_entrp">   -829.10263621 </i>
    <i name="e_0_energy">   -829.13790259 </i>
   </energy>
  </scstep>
  <scstep>
   <time name="dav">   10.27   10.27</time>
   <time name="total">   12.07   12.07</time>
   <energy>
    <i name="e_fr_energy">   -828.88253653 </i>
    <i name="e_wo_entrp">   -828.81270962 </i>
    <i name="e_0_energy">   -828.84762308 </i>
   </energy>
  </scstep>
  <scstep>
   <time name="dav">   10.56   10.56</time>
   <time name="total">   12.35   12.36</time>
   <energy>
    <i name="e_fr_energy">   -828.77879349 </i>
    <i name="e_wo_entrp">   -828.70937720 </i>
    <i name="e_0_energy">   -828.74408535 </i>
   </energy>
  </scstep>
  <scstep>
   <time name="dav">   10.99   10.99</time>
   <time name="total">   12.80   12.80</time>
   <energy>
    <i name="e_fr_energy">   -828.74187361 </i>
    <i name="e_wo_entrp">   -828.67288146 </i>
    <i name="e_0_energy">   -828.70737754 </i>
   </energy>
  </scstep>
  <scstep>
   <time name="dav">   10.10   10.11</time>
   <time name="total">   11.93   11.94</time>
   <energy>
    <i name="e_fr_energy">   -828.71153960 </i>
    <i name="e_wo_entrp">   -828.64244345 </i>
    <i name="e_0_energy">   -828.67699153 </i>
   </energy>
  </scstep>
  <scstep>
   <time name="dav">   10.05   10.06</time>
   <time name="total">   11.87   11.88</time>
   <energy>
    <i name="e_fr_energy">   -828.70736012 </i>
    <i name="e_wo_entrp">   -828.63796919 </i>
    <i name="e_0_energy">   -828.67266466 </i>
   </energy>
  </scstep>
  <scstep>
   <time name="dav">    9.94    9.94</time>
   <time name="total">   11.76   11.77</time>
   <energy>
    <i name="e_fr_energy">   -828.71986051 </i>
    <i name="e_wo_entrp">   -828.65048040 </i>
    <i name="e_0_energy">   -828.68517046 </i>
   </energy>
  </scstep>
  <scstep>
   <time name="dav">   10.34   10.35</time>
   <time name="total">   12.18   12.19</time>
   <energy>
    <i name="e_fr_energy">   -828.73428841 </i>
    <i name="e_wo_entrp">   -828.66495787 </i>
    <i name="e_0_energy">   -828.69962314 </i>
   </energy>
  </scstep>
  <scstep>
   <time name="dav">    9.92    9.93</time>
   <time name="total">   11.77   11.77</time>
   <energy>
    <i name="e_fr_energy">   -828.75583477 </i>
    <i name="e_wo_entrp">   -828.68647480 </i>
    <i name="e_0_energy">   -828.72115479 </i>
   </energy>
  </scstep>
  <scstep>
   <time name="dav">   10.26   10.27</time>
   <time name="total">   12.13   12.14</time>
   <energy>
    <i name="e_fr_energy">   -828.76460139 </i>
    <i name="e_wo_entrp">   -828.69526269 </i>
    <i name="e_0_energy">   -828.72993204 </i>
   </energy>
  </scstep>
  <scstep>
   <time name="dav">   10.25   10.26</time>
   <time name="total">   12.12   12.13</time>
   <energy>
    <i name="e_fr_energy">   -828.77010662 </i>
    <i name="e_wo_entrp">   -828.70076455 </i>
    <i name="e_0_energy">   -828.73543558 </i>
   </energy>
  </scstep>
  <scstep>
   <time name="dav">   10.45   10.46</time>
   <time name="total">   12.33   12.34</time>
   <energy>
    <i name="e_fr_energy">   -828.77238829 </i>
    <i name="e_wo_entrp">   -828.70303124 </i>
    <i name="e_0_energy">   -828.73770976 </i>
   </energy>
  </scstep>
  <scstep>
   <time name="dav">   10.01   10.01</time>
   <time name="total">   11.90   11.91</time>
   <energy>
    <i name="e_fr_energy">   -828.77356331 </i>
    <i name="e_wo_entrp">   -828.70420853 </i>
    <i name="e_0_energy">   -828.73888592 </i>
   </energy>
  </scstep>
  <scstep>
   <time name="dav">    9.16    9.17</time>
   <time name="total">   11.06   11.07</time>
   <energy>
    <i name="e_fr_energy">   -828.77400671 </i>
    <i name="e_wo_entrp">   -828.70465551 </i>
    <i name="e_0_energy">   -828.73933111 </i>
   </energy>
  </scstep>
  <scstep>
   <time name="dav">    8.81    8.81</time>
   <time name="total">   10.73   10.74</time>
   <energy>
    <i name="e_fr_energy">   -828.77423457 </i>
    <i name="e_wo_entrp">   -828.70488446 </i>
    <i name="e_0_energy">   -828.73955952 </i>
   </energy>
  </scstep>
  <scstep>
   <time name="dav">    7.43    7.44</time>
   <time name="total">    9.36    9.37</time>
   <energy>
    <i name="e_fr_energy">   -828.77430410 </i>
    <i name="e_wo_entrp">   -828.70495283 </i>
    <i name="e_0_energy">   -828.73962847 </i>
   </energy>
  </scstep>
  <scstep>
   <time name="dav">    7.27    7.27</time>
   <time name="total">    9.21    9.21</time>
   <energy>
    <i name="e_fr_energy">   -828.77434564 </i>
    <i name="e_wo_entrp">   -828.70499391 </i>
    <i name="e_0_energy">   -828.73966978 </i>
   </energy>
  </scstep>
  <scstep>
   <time name="dav">    7.14    7.14</time>
   <time name="total">    9.10    9.10</time>
   <energy>
    <i name="e_fr_energy">   -828.77436454 </i>
    <i name="e_wo_entrp">   -828.70501265 </i>
    <i name="e_0_energy">   -828.73968859 </i>
   </energy>
  </scstep>
  <scstep>
   <time name="dav">    7.20    7.20</time>
   <time name="total">    9.17    9.17</time>
   <energy>
    <i name="e_fr_energy">   -828.77437039 </i>
    <i name="e_wo_entrp">   -828.70501865 </i>
    <i name="e_0_energy">   -828.73969452 </i>
   </energy>
  </scstep>
  <scstep>
   <time name="dav">    6.87    6.87</time>
   <time name="total">    8.86    8.87</time>
   <energy>
    <i name="e_fr_energy">   -828.77437559 </i>
    <i name="e_wo_entrp">   -828.70502398 </i>
    <i name="e_0_energy">   -828.73969978 </i>
   </energy>
  </scstep>
  <scstep>
   <time name="dav">    6.83    6.84</time>
   <time name="total">    8.84    8.84</time>
   <energy>
    <i name="e_fr_energy">   -828.77437695 </i>
    <i name="e_wo_entrp">   -828.70502535 </i>
    <i name="e_0_energy">   -828.73970115 </i>
   </energy>
  </scstep>
  <scstep>
   <time name="dav">    7.07    7.08</time>
   <time name="total">    9.10    9.10</time>
   <energy>
    <i name="e_fr_energy">   -828.77437931 </i>
    <i name="e_wo_entrp">   -828.70502763 </i>
    <i name="e_0_energy">   -828.73970347 </i>
   </energy>
  </scstep>
  <scstep>
   <time name="dav">    7.16    7.16</time>
   <time name="total">    7.52    7.52</time>
   <energy>
    <i name="alphaZ">     91.34886789 </i>
    <i name="ewald"> 118664.05221717 </i>
    <i name="hartreedc">-129756.35095827 </i>
    <i name="XCdc">   1276.98658578 </i>
    <i name="pawpsdc">  40632.89087794 </i>
    <i name="pawaedc"> -40696.79049866 </i>
    <i name="eentropy">     -0.06935167 </i>
    <i name="bandstr">  -4578.49691427 </i>
    <i name="atom">  13537.65479391 </i>
    <i name="e_fr_energy">   -828.77438019 </i>
    <i name="e_wo_entrp">   -828.70502852 </i>
    <i name="e_0_energy">   -828.73970435 </i>
   </energy>
  </scstep>
  <structure>
   <crystal>
    <varray name="basis" >
     <v>      28.05000000       0.00000000       0.00000000 </v>
     <v>       0.00000000       8.10000000       0.00000000 </v>
     <v>       0.00000000       0.00000000      33.50000000 </v>
    </varray>
    <i name="volume">   7611.36750000 </i>
    <varray name="rec_basis" >
     <v>       0.03565062       0.00000000       0.00000000 </v>
     <v>       0.00000000       0.12345679       0.00000000 </v>
     <v>       0.00000000       0.00000000       0.02985075 </v>
    </varray>
   </crystal>
   <varray name="positions" >
    <v>       0.02546275       0.12160383       0.44184776 </v>
    <v>       0.02642645       0.29578272       0.44462687 </v>
    <v>       0.07043529       0.05627728       0.44976418 </v>
    <v>       0.06368984       0.38144568       0.46475522 </v>
    <v>       0.10886275       0.13167284       0.46911940 </v>
    <v>       0.10628485       0.30166173       0.47606866 </v>
    <v>       0.15077041       0.05241407       0.48205373 </v>
    <v>       0.14697968       0.38129136       0.49080299 </v>
    <v>       0.19202567       0.13406790       0.49842985 </v>
    <v>       0.19032157       0.30972222       0.50242687 </v>
    <v>       0.23623886       0.04965877       0.50602985 </v>
    <v>       0.23404955       0.38470494       0.51118507 </v>
    <v>       0.27849447       0.13151728       0.51750746 </v>
    <v>       0.27866203       0.29984321       0.51727164 </v>
    <v>       0.32369340       0.05323370       0.51788060 </v>
    <v>       0.32488449       0.37766543       0.52340597 </v>
    <v>       0.36930125       0.12621481       0.51965672 </v>
    <v>       0.36940820       0.29598272       0.52245672 </v>
    <v>       0.41489483       0.04375457       0.51563284 </v>
    <v>       0.41384670       0.37440988       0.52078507 </v>
    <v>       0.45896257       0.12456049       0.51487463 </v>
    <v>       0.45982175       0.29319136       0.51717015 </v>
    <v>       0.50301961       0.04484790       0.50456119 </v>
    <v>       0.50473440       0.37385802       0.50533731 </v>
    <v>       0.54442424       0.12092630       0.48995522 </v>
    <v>       0.54612834       0.29257284       0.49386866 </v>
    <v>       0.58430660       0.03434926       0.47262687 </v>
    <v>       0.58950089       0.37071728       0.48453731 </v>
    <v>       0.62681283       0.12093667       0.46373433 </v>
    <v>       0.63220321       0.29122840       0.47017015 </v>
    <v>       0.66880927       0.04112840       0.44773433 </v>
    <v>       0.67506239       0.36823210       0.46095224 </v>
    <v>       0.71337255       0.12830123       0.43689851 </v>
    <v>       0.71652763       0.28849383       0.44700299 </v>
    <v>       0.75737968       0.05163321       0.42641791 </v>
    <v>       0.76079857       0.37057654       0.43786269 </v>
    <v>       0.80155080       0.12314889       0.42130448 </v>
    <v>       0.80259537       0.29494444       0.42328955 </v>
    <v>       0.84576827       0.03860716       0.41462388 </v>
    <v>       0.84640285       0.37600123       0.41830746 </v>
    <v>       0.89167558       0.12458148       0.41547164 </v>
    <v>       0.89018895       0.28961975       0.41937313 </v>
    <v>       0.93460606       0.04690938       0.42042985 </v>
    <v>       0.93445276       0.37594815       0.42233433 </v>
    <v>       0.97691979       0.12711235       0.42806567 </v>
    <v>       0.97660606       0.30247778       0.43080597 </v>
    <v>       0.02574435       0.63536543       0.44304776 </v>
    <v>       0.02591340       0.80414074       0.43743284 </v>
    <v>       0.06389875       0.55305802       0.46077015 </v>
    <v>       0.06773048       0.88244074       0.44969552 </v>
    <v>       0.10522282       0.63859383       0.47509254 </v>
    <v>       0.10873084       0.79913333       0.46609254 </v>
    <v>       0.14639822       0.55525926       0.48949552 </v>
    <v>       0.15218966       0.88553580       0.47589851 </v>
    <v>       0.18953832       0.63970741       0.49663881 </v>
    <v>       0.19379929       0.80392593       0.49164179 </v>
    <v>       0.23453119       0.55482840       0.50801791 </v>
    <v>       0.23772157       0.87810247       0.50297910 </v>
    <v>       0.28106774       0.63020617       0.50950149 </v>
    <v>       0.28083066       0.79761111       0.50857313 </v>
    <v>       0.32440285       0.54684074       0.52098507 </v>
    <v>       0.32561996       0.88240123       0.51443284 </v>
    <v>       0.36868449       0.62163580       0.51838806 </v>
    <v>       0.36905882       0.79707531       0.51585075 </v>
    <v>       0.41527629       0.54629877       0.52057313 </v>
    <v>       0.41337611       0.87578025       0.51316119 </v>
    <v>       0.45880214       0.62455802       0.51317313 </v>
    <v>       0.45844563       0.79317778       0.51250149 </v>
    <v>       0.50447059       0.54509136       0.50720000 </v>
    <v>       0.50336542       0.87746790       0.50467463 </v>
    <v>       0.54915865       0.62078642       0.49759403 </v>
    <v>       0.54656328       0.79105309       0.49527761 </v>
    <v>       0.59131194       0.54109136       0.48768358 </v>
    <v>       0.58732977       0.86417531       0.47977015 </v>
    <v>       0.63303743       0.62407778       0.47235522 </v>
    <v>       0.63036720       0.79536543       0.46783881 </v>
    <v>       0.67468449       0.53858395       0.46166866 </v>
    <v>       0.66972906       0.87002593       0.45064776 </v>
    <v>       0.71743316       0.62007284       0.44611940 </v>
    <v>       0.71439572       0.78853951       0.43855224 </v>
    <v>       0.75853119       0.53634321       0.43303881 </v>
    <v>       0.75498039       0.87712716       0.42520896 </v>
    <v>       0.79976471       0.62325926       0.42022388 </v>
    <v>       0.80086275       0.78946420       0.41386866 </v>
    <v>       0.84385740       0.54236049       0.41481194 </v>
    <v>       0.84461676       0.87207901       0.41158507 </v>
    <v>       0.88864528       0.62315679       0.41601791 </v>
    <v>       0.88968627       0.79283827       0.41399701 </v>
    <v>       0.93318360       0.54354321       0.42146567 </v>
    <v>       0.93522638       0.87660617       0.41940597 </v>
    <v>       0.97465597       0.62335679       0.42974030 </v>
    <v>       0.97665241       0.79421975       0.42635821 </v>
   </varray>
  </structure>
  <varray name="forces" >
   <v>       3.47329877       3.57380798       0.27552591 </v>
   <v>       1.09713946      -0.26732244       1.78631751 </v>
   <v>      -1.73242586      -2.99245443       0.25980448 </v>
   <v>      -1.10389748      -0.09201575      -1.85766211 </v>
   <v>       0.07892982       1.96671960       0.25998540 </v>
   <v>      -0.41632398      -1.32078724       0.07354657 </v>
   <v>       0.73709497       0.46739189      -0.61703784 </v>
   <v>       0.16589393       2.50929988       0.42391809 </v>
   <v>      -0.01092778       0.47568328      -0.13894403 </v>
   <v>       0.00293283      -3.74127545      -0.37226473 </v>
   <v>      -0.94543202      -0.08160350       0.26963503 </v>
   <v>       0.58332425       0.88817458       0.15754429 </v>
   <v>       0.40650342      -0.11136531      -1.03185284 </v>
   <v>       0.42105478       0.87742983       1.01277964 </v>
   <v>       0.88526013      -1.83968376       0.07581457 </v>
   <v>      -1.83817544      -0.18300047      -0.59326118 </v>
   <v>       0.51708698       0.56698744      -0.02219131 </v>
   <v>       0.01643776      -0.42320037       0.39498510 </v>
   <v>      -1.79058487       0.63060973       0.42947045 </v>
   <v>       2.03472485       0.92835101       0.42749937 </v>
   <v>       0.96271503       0.30132235      -0.49365255 </v>
   <v>      -0.09326713       0.63810595      -1.22044730 </v>
   <v>      -0.52892406       0.00713889      -0.42125198 </v>
   <v>      -2.39172720       0.61156019       1.70725424 </v>
   <v>       0.44747165       0.60017243      -0.22083259 </v>
   <v>       0.77698195      -1.41351379      -0.57928261 </v>
   <v>      -0.30595359       1.03919799       2.11646180 </v>
   <v>       1.31084907       0.71507795      -0.15808280 </v>
   <v>       1.74822445       0.37894951      -1.30157979 </v>
   <v>      -2.48081952      -1.75131545       0.30918809 </v>
   <v>       0.72506579       0.31954033       0.02522277 </v>
   <v>       0.19938295       0.87654032       0.23345395 </v>
   <v>      -0.89417892      -1.89903584       1.06667043 </v>
   <v>       0.48572199       1.25540975      -0.26127923 </v>
   <v>      -1.99365875      -3.46350074      -0.10987964 </v>
   <v>      -0.64854270      -0.61536960      -0.96795825 </v>
   <v>       1.56265305       1.10034673      -0.57352900 </v>
   <v>      -0.24931260      -1.51283211       1.08963254 </v>
   <v>      -0.13439167       1.97956982      -0.01463567 </v>
   <v>      -0.69643127      -1.13223493       0.02079736 </v>
   <v>      -3.12248484      -0.80373625       0.55596051 </v>
   <v>       0.59116335       1.83993142      -0.80023286 </v>
   <v>       1.90710019      -1.20431825      -0.23677368 </v>
   <v>      -0.86431967      -0.48272065       0.49841431 </v>
   <v>      -1.80399821       1.65210581      -0.21125753 </v>
   <v>      -0.49997725      -2.93216608      -0.60302620 </v>
   <v>       1.11089238      -1.42542271       0.48794650 </v>
   <v>       2.84671923      -0.81766325       1.17820214 </v>
   <v>      -0.39939067       0.13060577       0.88614992 </v>
   <v>       1.12994633       0.62121772      -0.23913915 </v>
   <v>      -0.05436202      -2.27916434      -0.73684681 </v>
   <v>       0.01807611       2.40562879      -0.59706270 </v>
   <v>       0.05276307      -0.59373388       0.09148479 </v>
   <v>       0.47390078      -0.84741151       1.38129652 </v>
   <v>       2.24812497      -2.70070262       0.82982015 </v>
   <v>      -0.80258158       0.84907589      -0.72185861 </v>
   <v>      -0.07534479       0.14180644      -0.70397093 </v>
   <v>      -1.41482199       1.77758668      -0.93295279 </v>
   <v>      -1.03097032      -1.16297912       1.40124795 </v>
   <v>       1.67624801       0.84421533       0.27086995 </v>
   <v>      -0.64838450      -0.28536675      -1.28813110 </v>
   <v>      -1.66667691      -0.21368878      -0.21352811 </v>
   <v>       1.86721799       2.99867251       0.58246343 </v>
   <v>       0.00359993      -1.49667207      -0.48212879 </v>
   <v>      -1.94604478      -1.40258819      -0.83616787 </v>
   <v>       1.18765761      -0.56795475       0.62931500 </v>
   <v>       1.54122483       0.23132525       0.43708681 </v>
   <v>       0.73917537       0.91682372      -0.84395767 </v>
   <v>       0.00352203      -1.14675613      -0.24114534 </v>
   <v>      -0.82814201      -2.17058840       0.05362018 </v>
   <v>      -2.42488923       1.15047228       0.78867295 </v>
   <v>      -0.27703194      -0.45912397       0.12266828 </v>
   <v>       0.97253529      -0.34288041      -0.90755446 </v>
   <v>      -0.25499185       3.28837622      -1.13502877 </v>
   <v>      -0.57679522      -0.24417642       0.91375537 </v>
   <v>       0.14298767      -3.19098017       0.25919274 </v>
   <v>       1.60351387       1.00841656      -0.51717929 </v>
   <v>       2.00586959       1.27084551      -1.19374782 </v>
   <v>      -1.63693515       0.28837219      -0.40498058 </v>
   <v>      -1.18876401       0.54375405       0.82307211 </v>
   <v>       0.21050611       1.91834921       1.01718187 </v>
   <v>       2.30620454      -0.37143180      -1.09030940 </v>
   <v>       0.50170739      -0.91639962      -0.85675735 </v>
   <v>      -3.34990756       1.64826392       1.90240575 </v>
   <v>       1.07353279       0.45351857       0.89192812 </v>
   <v>       0.91261754      -0.35411734      -0.12325183 </v>
   <v>       0.51982751       1.15804071      -0.64193406 </v>
   <v>       0.84224439      -0.20286442       0.11117506 </v>
   <v>      -0.56456526       0.45006986       0.40294895 </v>
   <v>      -1.80255629      -0.40643661      -0.44943343 </v>
   <v>       0.64985551       1.84275453      -0.41082845 </v>
   <v>      -2.28857134      -0.27506067      -0.55757586 </v>
  </varray>
  <varray name="stress" >
   <v>      -8.26276775      -0.22006910       0.64614542 </v>
   <v>      -0.22006910      53.77909479      -0.52146470 </v>
   <v>       0.64614542      -0.52146470      -1.51568057 </v>
  </varray>
  <energy>
   <i name="e_fr_energy">   -828.77438019 </i>
   <i name="e_wo_entrp">   -828.70502852 </i>
   <i name="e_0_energy">   -828.73970435 </i>
  </energy>
  <time name="totalsc">  333.77  333.97</time>
  <eigenvalues>
   <array>
    <dimension dim="1">band</dimension>
    <dimension dim="2">kpoint</dimension>
    <dimension dim="3">spin</dimension>
    <field>eigene</field>
    <field>occ</field>
    <set>
     <set comment="spin 1">
      <set comment="kpoint 1">
       <r>  -23.1942    1.0000 </r>
       <r>  -22.9933    1.0000 </r>
       <r>  -22.9281    1.0000 </r>
       <r>  -22.6379    1.0000 </r>
       <r>  -22.5694    1.0000 </r>
       <r>  -22.3546    1.0000 </r>
       <r>  -22.0145    1.0000 </r>
       <r>  -21.9578    1.0000 </r>
       <r>  -21.4161    1.0000 </r>
       <r>  -21.3843    1.0000 </r>
       <r>  -21.3478    1.0000 </r>
       <r>  -21.3243    1.0000 </r>
       <r>  -21.2024    1.0000 </r>
       <r>  -21.1690    1.0000 </r>
       <r>  -21.0866    1.0000 </r>
       <r>  -21.0705    1.0000 </r>
       <r>  -20.9545    1.0000 </r>
       <r>  -20.9369    1.0000 </r>
       <r>  -20.7062    1.0000 </r>
       <r>  -20.5183    1.0000 </r>
       <r>  -20.3725    1.0000 </r>
       <r>  -20.3149    1.0000 </r>
       <r>  -20.1707    1.0000 </r>
       <r>  -20.0326    1.0000 </r>
       <r>  -19.9854    1.0000 </r>
       <r>  -19.6740    1.0000 </r>
       <r>  -19.4963    1.0000 </r>
       <r>  -19.4862    1.0000 </r>
       <r>  -19.2068    1.0000 </r>
       <r>  -18.9363    1.0000 </r>
       <r>  -18.7043    1.0000 </r>
       <r>  -18.6476    1.0000 </r>
       <r>  -18.5754    1.0000 </r>
       <r>  -18.4467    1.0000 </r>
       <r>  -18.1691    1.0000 </r>
       <r>  -17.6824    1.0000 </r>
       <r>  -17.4129    1.0000 </r>
       <r>  -17.2654    1.0000 </r>
       <r>  -16.8844    1.0000 </r>
       <r>  -16.8018    1.0000 </r>
       <r>  -16.7678    1.0000 </r>
       <r>  -16.6979    1.0000 </r>
       <r>  -16.6012    1.0000 </r>
       <r>  -16.5567    1.0000 </r>
       <r>  -16.5335    1.0000 </r>
       <r>  -16.4896    1.0000 </r>
       <r>  -16.4724    1.0000 </r>
       <r>  -16.4166    1.0000 </r>
       <r>  -16.3549    1.0000 </r>
       <r>  -16.3155    1.0000 </r>
       <r>  -16.2683    1.0000 </r>
       <r>  -16.1102    1.0000 </r>
       <r>  -16.0637    1.0000 </r>
       <r>  -15.9623    1.0000 </r>
       <r>  -15.8338    1.0000 </r>
       <r>  -15.6715    1.0000 </r>
       <r>  -15.4272    1.0000 </r>
       <r>  -15.2944    1.0000 </r>
       <r>  -15.2546    1.0000 </r>
       <r>  -15.2318    1.0000 </r>
       <r>  -15.0763    1.0000 </r>
       <r>  -15.0130    1.0000 </r>
       <r>  -14.3777    1.0000 </r>
       <r>  -14.1036    1.0000 </r>
       <r>  -14.0743    1.0000 </r>
       <r>  -14.0602    1.0000 </r>
       <r>  -13.8819    1.0000 </r>
       <r>  -13.8121    1.0000 </r>
       <r>  -13.7456    1.0000 </r>
       <r>  -13.6695    1.0000 </r>
       <r>  -13.5017    1.0000 </r>
       <r>  -13.4423    1.0000 </r>
       <r>  -13.2493    1.0000 </r>
       <r>  -13.1342    1.0000 </r>
       <r>  -13.0777    1.0000 </r>
       <r>  -12.9755    1.0000 </r>
       <r>  -12.6516    1.0000 </r>
       <r>  -12.5359    1.0000 </r>
       <r>  -12.2050    1.0000 </r>
       <r>  -12.1496    1.0000 </r>
       <r>  -12.0502    1.0000 </r>
       <r>  -11.9960    1.0000 </r>
       <r>  -11.9796    1.0000 </r>
       <r>  -11.8691    1.0000 </r>
       <r>  -11.7825    1.0000 </r>
       <r>  -11.6164    1.0000 </r>
       <r>  -11.3881    1.0000 </r>
       <r>  -11.1517    1.0000 </r>
       <r>  -11.0800    1.0000 </r>
       <r>  -11.0137    1.0000 </r>
       <r>  -10.9856    1.0000 </r>
       <r>  -10.9481    1.0000 </r>
       <r>  -10.8334    1.0000 </r>
       <r>  -10.7255    1.0000 </r>
       <r>  -10.6981    1.0000 </r>
       <r>  -10.6388    1.0000 </r>
       <r>  -10.6322    1.0000 </r>
       <r>  -10.5699    1.0000 </r>
       <r>  -10.4734    1.0000 </r>
       <r>  -10.4352    1.0000 </r>
       <r>  -10.3753    1.0000 </r>
       <r>  -10.1790    1.0000 </r>
       <r>  -10.1468    1.0000 </r>
       <r>  -10.0954    1.0000 </r>
       <r>  -10.0587    1.0000 </r>
       <r>   -9.9738    1.0000 </r>
       <r>   -9.8656    1.0000 </r>
       <r>   -9.7801    1.0000 </r>
       <r>   -9.6934    1.0000 </r>
       <r>   -9.6320    1.0000 </r>
       <r>   -9.5786    1.0000 </r>
       <r>   -9.5340    1.0000 </r>
       <r>   -9.5188    1.0000 </r>
       <r>   -9.4889    1.0000 </r>
       <r>   -9.4551    1.0000 </r>
       <r>   -9.4510    1.0000 </r>
       <r>   -9.4269    1.0000 </r>
       <r>   -9.4157    1.0000 </r>
       <r>   -9.3758    1.0000 </r>
       <r>   -9.3612    1.0000 </r>
       <r>   -9.3174    1.0000 </r>
       <r>   -9.2552    1.0000 </r>
       <r>   -9.2370    1.0000 </r>
       <r>   -9.1976    1.0000 </r>
       <r>   -9.1794    1.0000 </r>
       <r>   -9.1694    1.0000 </r>
       <r>   -9.1618    1.0000 </r>
       <r>   -9.1317    1.0000 </r>
       <r>   -9.0928    1.0000 </r>
       <r>   -9.0700    1.0000 </r>
       <r>   -9.0301    1.0000 </r>
       <r>   -8.9938    1.0000 </r>
       <r>   -8.9869    1.0000 </r>
       <r>   -8.9494    1.0000 </r>
       <r>   -8.8984    1.0000 </r>
       <r>   -8.8790    1.0000 </r>
       <r>   -8.8557    1.0000 </r>
       <r>   -8.8258    1.0000 </r>
       <r>   -8.7405    1.0000 </r>
       <r>   -8.6486    1.0000 </r>
       <r>   -8.6274    1.0000 </r>
       <r>   -8.5817    1.0000 </r>
       <r>   -8.5753    1.0000 </r>
       <r>   -8.5024    1.0000 </r>
       <r>   -8.3963    1.0000 </r>
       <r>   -8.3470    1.0000 </r>
       <r>   -8.0213    1.0000 </r>
       <r>   -7.9367    1.0000 </r>
       <r>   -7.8890    1.0000 </r>
       <r>   -7.7940    1.0000 </r>
       <r>   -7.7192    1.0000 </r>
       <r>   -7.6840    1.0000 </r>
       <r>   -7.5528    1.0000 </r>
       <r>   -7.4845    1.0000 </r>
       <r>   -7.4567    1.0000 </r>
       <r>   -7.3581    1.0000 </r>
       <r>   -7.3424    1.0000 </r>
       <r>   -7.1314    1.0000 </r>
       <r>   -7.0651    1.0000 </r>
       <r>   -6.9530    1.0000 </r>
       <r>   -6.8446    1.0000 </r>
       <r>   -6.7589    1.0000 </r>
       <r>   -6.7148    1.0000 </r>
       <r>   -6.4648    1.0000 </r>
       <r>   -6.4351    1.0000 </r>
       <r>   -6.2514    1.0000 </r>
       <r>   -6.2275    1.0000 </r>
       <r>   -6.0757    1.0000 </r>
       <r>   -6.0090    1.0000 </r>
       <r>   -5.9696    1.0000 </r>
       <r>   -5.9424    1.0000 </r>
       <r>   -5.7631    1.0000 </r>
       <r>   -5.7437    1.0000 </r>
       <r>   -5.0560    1.0000 </r>
       <r>   -4.9231    1.0000 </r>
       <r>   -4.8910    1.0000 </r>
       <r>   -4.6820    1.0000 </r>
       <r>   -4.5447    1.0000 </r>
       <r>   -4.5009    1.0000 </r>
       <r>   -4.4327    1.0000 </r>
       <r>   -4.3848    1.0000 </r>
       <r>   -3.7547    1.0000 </r>
       <r>   -3.6629    0.9998 </r>
       <r>   -3.1775    0.5456 </r>
       <r>   -3.1186    0.3814 </r>
       <r>   -2.7561    0.0021 </r>
       <r>   -2.6772    0.0003 </r>
       <r>   -2.5135    0.0000 </r>
       <r>   -2.2823    0.0000 </r>
       <r>   -2.0508    0.0000 </r>
       <r>   -1.7483    0.0000 </r>
       <r>   -1.5822    0.0000 </r>
       <r>   -1.5430    0.0000 </r>
       <r>   -1.5055    0.0000 </r>
       <r>   -1.4617    0.0000 </r>
       <r>   -1.3935    0.0000 </r>
       <r>   -1.2208    0.0000 </r>
       <r>   -0.8983    0.0000 </r>
       <r>   -0.8647    0.0000 </r>
       <r>   -0.7590    0.0000 </r>
       <r>   -0.5385    0.0000 </r>
       <r>   -0.4800    0.0000 </r>
       <r>   -0.0891    0.0000 </r>
       <r>    0.0913    0.0000 </r>
       <r>    0.1416    0.0000 </r>
       <r>    0.1717    0.0000 </r>
       <r>    0.2587    0.0000 </r>
       <r>    0.5275    0.0000 </r>
       <r>    0.6290    0.0000 </r>
       <r>    0.6740    0.0000 </r>
       <r>    0.7181    0.0000 </r>
       <r>    0.8337    0.0000 </r>
       <r>    0.8797    0.0000 </r>
       <r>    0.9225    0.0000 </r>
       <r>    0.9330    0.0000 </r>
       <r>    0.9876    0.0000 </r>
       <r>    1.0111    0.0000 </r>
       <r>    1.1454    0.0000 </r>
       <r>    1.1539    0.0000 </r>
       <r>    1.2227    0.0000 </r>
       <r>    1.2825    0.0000 </r>
       <r>    1.2980    0.0000 </r>
       <r>    1.3192    0.0000 </r>
       <r>    1.4095    0.0000 </r>
       <r>    1.4740    0.0000 </r>
       <r>    1.5448    0.0000 </r>
       <r>    1.5627    0.0000 </r>
       <r>    1.7261    0.0000 </r>
       <r>    1.7274    0.0000 </r>
       <r>    1.7332    0.0000 </r>
       <r>    1.7495    0.0000 </r>
       <r>    1.8985    0.0000 </r>
      </set>
      <set comment="kpoint 2">
       <r>  -23.1088    1.0000 </r>
       <r>  -22.8937    1.0000 </r>
       <r>  -22.8302    1.0000 </r>
       <r>  -22.5717    1.0000 </r>
       <r>  -22.5049    1.0000 </r>
       <r>  -22.4700    1.0000 </r>
       <r>  -22.0952    1.0000 </r>
       <r>  -22.0139    1.0000 </r>
       <r>  -21.9293    1.0000 </r>
       <r>  -21.8548    1.0000 </r>
       <r>  -21.7626    1.0000 </r>
       <r>  -21.6535    1.0000 </r>
       <r>  -21.2172    1.0000 </r>
       <r>  -21.1131    1.0000 </r>
       <r>  -21.0345    1.0000 </r>
       <r>  -20.9646    1.0000 </r>
       <r>  -20.5706    1.0000 </r>
       <r>  -20.4596    1.0000 </r>
       <r>  -20.4098    1.0000 </r>
       <r>  -20.2506    1.0000 </r>
       <r>  -20.1800    1.0000 </r>
       <r>  -20.0628    1.0000 </r>
       <r>  -20.0347    1.0000 </r>
       <r>  -19.9190    1.0000 </r>
       <r>  -19.8564    1.0000 </r>
       <r>  -19.4839    1.0000 </r>
       <r>  -19.4348    1.0000 </r>
       <r>  -19.1467    1.0000 </r>
       <r>  -19.0606    1.0000 </r>
       <r>  -18.8965    1.0000 </r>
       <r>  -18.6702    1.0000 </r>
       <r>  -18.5790    1.0000 </r>
       <r>  -18.5090    1.0000 </r>
       <r>  -18.1681    1.0000 </r>
       <r>  -18.1281    1.0000 </r>
       <r>  -18.0747    1.0000 </r>
       <r>  -18.0257    1.0000 </r>
       <r>  -17.9536    1.0000 </r>
       <r>  -17.7708    1.0000 </r>
       <r>  -17.7153    1.0000 </r>
       <r>  -17.4731    1.0000 </r>
       <r>  -17.4261    1.0000 </r>
       <r>  -17.2719    1.0000 </r>
       <r>  -17.1654    1.0000 </r>
       <r>  -16.9932    1.0000 </r>
       <r>  -16.5553    1.0000 </r>
       <r>  -16.3760    1.0000 </r>
       <r>  -16.2243    1.0000 </r>
       <r>  -16.0945    1.0000 </r>
       <r>  -15.8437    1.0000 </r>
       <r>  -15.8162    1.0000 </r>
       <r>  -15.6964    1.0000 </r>
       <r>  -15.5832    1.0000 </r>
       <r>  -15.3623    1.0000 </r>
       <r>  -15.1900    1.0000 </r>
       <r>  -15.1221    1.0000 </r>
       <r>  -15.0835    1.0000 </r>
       <r>  -15.0367    1.0000 </r>
       <r>  -14.9395    1.0000 </r>
       <r>  -14.8929    1.0000 </r>
       <r>  -14.8488    1.0000 </r>
       <r>  -14.7920    1.0000 </r>
       <r>  -14.5751    1.0000 </r>
       <r>  -14.4302    1.0000 </r>
       <r>  -14.2907    1.0000 </r>
       <r>  -14.1752    1.0000 </r>
       <r>  -13.9183    1.0000 </r>
       <r>  -13.8827    1.0000 </r>
       <r>  -13.3282    1.0000 </r>
       <r>  -13.2708    1.0000 </r>
       <r>  -13.1839    1.0000 </r>
       <r>  -13.0978    1.0000 </r>
       <r>  -12.9962    1.0000 </r>
       <r>  -12.8843    1.0000 </r>
       <r>  -12.8099    1.0000 </r>
       <r>  -12.7506    1.0000 </r>
       <r>  -12.6802    1.0000 </r>
       <r>  -12.5557    1.0000 </r>
       <r>  -12.3981    1.0000 </r>
       <r>  -12.2686    1.0000 </r>
       <r>  -12.1461    1.0000 </r>
       <r>  -12.0786    1.0000 </r>
       <r>  -11.9040    1.0000 </r>
       <r>  -11.7881    1.0000 </r>
       <r>  -11.6528    1.0000 </r>
       <r>  -11.6317    1.0000 </r>
       <r>  -11.5571    1.0000 </r>
       <r>  -11.4223    1.0000 </r>
       <r>  -11.2605    1.0000 </r>
       <r>  -11.2041    1.0000 </r>
       <r>  -11.1069    1.0000 </r>
       <r>  -11.0399    1.0000 </r>
       <r>  -10.9856    1.0000 </r>
       <r>  -10.9278    1.0000 </r>
       <r>  -10.8850    1.0000 </r>
       <r>  -10.8491    1.0000 </r>
       <r>  -10.8063    1.0000 </r>
       <r>  -10.7664    1.0000 </r>
       <r>  -10.6964    1.0000 </r>
       <r>  -10.6456    1.0000 </r>
       <r>  -10.5884    1.0000 </r>
       <r>  -10.5216    1.0000 </r>
       <r>  -10.4784    1.0000 </r>
       <r>  -10.3815    1.0000 </r>
       <r>  -10.3396    1.0000 </r>
       <r>  -10.3259    1.0000 </r>
       <r>  -10.2001    1.0000 </r>
       <r>  -10.0958    1.0000 </r>
       <r>  -10.0558    1.0000 </r>
       <r>  -10.0160    1.0000 </r>
       <r>   -9.9432    1.0000 </r>
       <r>   -9.8971    1.0000 </r>
       <r>   -9.8583    1.0000 </r>
       <r>   -9.8113    1.0000 </r>
       <r>   -9.7709    1.0000 </r>
       <r>   -9.7193    1.0000 </r>
       <r>   -9.6856    1.0000 </r>
       <r>   -9.6493    1.0000 </r>
       <r>   -9.5642    1.0000 </r>
       <r>   -9.5316    1.0000 </r>
       <r>   -9.4718    1.0000 </r>
       <r>   -9.4208    1.0000 </r>
       <r>   -9.3845    1.0000 </r>
       <r>   -9.3539    1.0000 </r>
       <r>   -9.2807    1.0000 </r>
       <r>   -9.1480    1.0000 </r>
       <r>   -8.9092    1.0000 </r>
       <r>   -8.8614    1.0000 </r>
       <r>   -8.7830    1.0000 </r>
       <r>   -8.7406    1.0000 </r>
       <r>   -8.7238    1.0000 </r>
       <r>   -8.6810    1.0000 </r>
       <r>   -8.6279    1.0000 </r>
       <r>   -8.5934    1.0000 </r>
       <r>   -8.5407    1.0000 </r>
       <r>   -8.4563    1.0000 </r>
       <r>   -8.4017    1.0000 </r>
       <r>   -8.3820    1.0000 </r>
       <r>   -8.2607    1.0000 </r>
       <r>   -8.2035    1.0000 </r>
       <r>   -8.1886    1.0000 </r>
       <r>   -8.1682    1.0000 </r>
       <r>   -8.1078    1.0000 </r>
       <r>   -8.0623    1.0000 </r>
       <r>   -7.9893    1.0000 </r>
       <r>   -7.9568    1.0000 </r>
       <r>   -7.9190    1.0000 </r>
       <r>   -7.8601    1.0000 </r>
       <r>   -7.7563    1.0000 </r>
       <r>   -7.6899    1.0000 </r>
       <r>   -7.5816    1.0000 </r>
       <r>   -7.5282    1.0000 </r>
       <r>   -7.4763    1.0000 </r>
       <r>   -7.3725    1.0000 </r>
       <r>   -7.3377    1.0000 </r>
       <r>   -7.2932    1.0000 </r>
       <r>   -7.1615    1.0000 </r>
       <r>   -7.0621    1.0000 </r>
       <r>   -6.9916    1.0000 </r>
       <r>   -6.9380    1.0000 </r>
       <r>   -6.8611    1.0000 </r>
       <r>   -6.6639    1.0000 </r>
       <r>   -6.5912    1.0000 </r>
       <r>   -6.5186    1.0000 </r>
       <r>   -6.4482    1.0000 </r>
       <r>   -6.1732    1.0000 </r>
       <r>   -6.1383    1.0000 </r>
       <r>   -6.0901    1.0000 </r>
       <r>   -6.0309    1.0000 </r>
       <r>   -5.9814    1.0000 </r>
       <r>   -5.9182    1.0000 </r>
       <r>   -5.8284    1.0000 </r>
       <r>   -5.7225    1.0000 </r>
       <r>   -5.6520    1.0000 </r>
       <r>   -5.5368    1.0000 </r>
       <r>   -5.4966    1.0000 </r>
       <r>   -5.1955    1.0000 </r>
       <r>   -5.0983    1.0000 </r>
       <r>   -4.7531    1.0000 </r>
       <r>   -4.6719    1.0000 </r>
       <r>   -4.5519    1.0000 </r>
       <r>   -4.4991    1.0000 </r>
       <r>   -4.4194    1.0000 </r>
       <r>   -3.5380    0.9961 </r>
       <r>   -2.9112    0.0385 </r>
       <r>   -2.5859    0.0000 </r>
       <r>   -2.1223    0.0000 </r>
       <r>   -2.0809    0.0000 </r>
       <r>   -1.6264    0.0000 </r>
       <r>   -1.5317    0.0000 </r>
       <r>   -1.4516    0.0000 </r>
       <r>   -1.4224    0.0000 </r>
       <r>   -1.3503    0.0000 </r>
       <r>   -1.2831    0.0000 </r>
       <r>   -1.1416    0.0000 </r>
       <r>   -1.0643    0.0000 </r>
       <r>   -0.9839    0.0000 </r>
       <r>   -0.8372    0.0000 </r>
       <r>   -0.7001    0.0000 </r>
       <r>   -0.3535    0.0000 </r>
       <r>   -0.2380    0.0000 </r>
       <r>   -0.1397    0.0000 </r>
       <r>   -0.0922    0.0000 </r>
       <r>    0.0285    0.0000 </r>
       <r>    0.1068    0.0000 </r>
       <r>    0.1442    0.0000 </r>
       <r>    0.2104    0.0000 </r>
       <r>    0.2763    0.0000 </r>
       <r>    0.3274    0.0000 </r>
       <r>    0.7644    0.0000 </r>
       <r>    0.7770    0.0000 </r>
       <r>    0.8551    0.0000 </r>
       <r>    1.0220    0.0000 </r>
       <r>    1.0599    0.0000 </r>
       <r>    1.0768    0.0000 </r>
       <r>    1.1309    0.0000 </r>
       <r>    1.1578    0.0000 </r>
       <r>    1.2501    0.0000 </r>
       <r>    1.2884    0.0000 </r>
       <r>    1.2978    0.0000 </r>
       <r>    1.3626    0.0000 </r>
       <r>    1.3723    0.0000 </r>
       <r>    1.3827    0.0000 </r>
       <r>    1.4229    0.0000 </r>
       <r>    1.4318    0.0000 </r>
       <r>    1.4619    0.0000 </r>
       <r>    1.5523    0.0000 </r>
       <r>    1.5747    0.0000 </r>
       <r>    1.6165    0.0000 </r>
       <r>    1.6443    0.0000 </r>
       <r>    1.6880    0.0000 </r>
       <r>    1.7181    0.0000 </r>
      </set>
      <set comment="kpoint 3">
       <r>  -22.8907    1.0000 </r>
       <r>  -22.8468    1.0000 </r>
       <r>  -22.6135    1.0000 </r>
       <r>  -22.5954    1.0000 </r>
       <r>  -22.5415    1.0000 </r>
       <r>  -22.4889    1.0000 </r>
       <r>  -22.2636    1.0000 </r>
       <r>  -22.2175    1.0000 </r>
       <r>  -22.1738    1.0000 </r>
       <r>  -22.1560    1.0000 </r>
       <r>  -21.6734    1.0000 </r>
       <r>  -21.6353    1.0000 </r>
       <r>  -21.5426    1.0000 </r>
       <r>  -21.5085    1.0000 </r>
       <r>  -20.8765    1.0000 </r>
       <r>  -20.8260    1.0000 </r>
       <r>  -20.6941    1.0000 </r>
       <r>  -20.6438    1.0000 </r>
       <r>  -19.9022    1.0000 </r>
       <r>  -19.8614    1.0000 </r>
       <r>  -19.6592    1.0000 </r>
       <r>  -19.6385    1.0000 </r>
       <r>  -19.4169    1.0000 </r>
       <r>  -19.3859    1.0000 </r>
       <r>  -19.3592    1.0000 </r>
       <r>  -19.3319    1.0000 </r>
       <r>  -19.2761    1.0000 </r>
       <r>  -19.1858    1.0000 </r>
       <r>  -19.0133    1.0000 </r>
       <r>  -18.9586    1.0000 </r>
       <r>  -18.8987    1.0000 </r>
       <r>  -18.8504    1.0000 </r>
       <r>  -18.6035    1.0000 </r>
       <r>  -18.5821    1.0000 </r>
       <r>  -18.4560    1.0000 </r>
       <r>  -18.4180    1.0000 </r>
       <r>  -18.3249    1.0000 </r>
       <r>  -18.2571    1.0000 </r>
       <r>  -18.1347    1.0000 </r>
       <r>  -18.0703    1.0000 </r>
       <r>  -17.7597    1.0000 </r>
       <r>  -17.6756    1.0000 </r>
       <r>  -17.6632    1.0000 </r>
       <r>  -17.5873    1.0000 </r>
       <r>  -17.0024    1.0000 </r>
       <r>  -16.8812    1.0000 </r>
       <r>  -16.2696    1.0000 </r>
       <r>  -16.2467    1.0000 </r>
       <r>  -16.0742    1.0000 </r>
       <r>  -16.0065    1.0000 </r>
       <r>  -15.9176    1.0000 </r>
       <r>  -15.8530    1.0000 </r>
       <r>  -15.3548    1.0000 </r>
       <r>  -15.2460    1.0000 </r>
       <r>  -15.1109    1.0000 </r>
       <r>  -15.0048    1.0000 </r>
       <r>  -14.9491    1.0000 </r>
       <r>  -14.8663    1.0000 </r>
       <r>  -14.7881    1.0000 </r>
       <r>  -14.7387    1.0000 </r>
       <r>  -14.0621    1.0000 </r>
       <r>  -13.9827    1.0000 </r>
       <r>  -13.7450    1.0000 </r>
       <r>  -13.7019    1.0000 </r>
       <r>  -13.6219    1.0000 </r>
       <r>  -13.5684    1.0000 </r>
       <r>  -13.5351    1.0000 </r>
       <r>  -13.5057    1.0000 </r>
       <r>  -13.4727    1.0000 </r>
       <r>  -13.4640    1.0000 </r>
       <r>  -13.4444    1.0000 </r>
       <r>  -13.4225    1.0000 </r>
       <r>  -13.3784    1.0000 </r>
       <r>  -13.3369    1.0000 </r>
       <r>  -13.0680    1.0000 </r>
       <r>  -13.0285    1.0000 </r>
       <r>  -12.2800    1.0000 </r>
       <r>  -12.2436    1.0000 </r>
       <r>  -12.1483    1.0000 </r>
       <r>  -12.0967    1.0000 </r>
       <r>  -12.0603    1.0000 </r>
       <r>  -12.0395    1.0000 </r>
       <r>  -12.0272    1.0000 </r>
       <r>  -11.9818    1.0000 </r>
       <r>  -11.8835    1.0000 </r>
       <r>  -11.8071    1.0000 </r>
       <r>  -11.7352    1.0000 </r>
       <r>  -11.6809    1.0000 </r>
       <r>  -11.6401    1.0000 </r>
       <r>  -11.6106    1.0000 </r>
       <r>  -11.3039    1.0000 </r>
       <r>  -11.2574    1.0000 </r>
       <r>  -11.2100    1.0000 </r>
       <r>  -11.1712    1.0000 </r>
       <r>  -10.9951    1.0000 </r>
       <r>  -10.9766    1.0000 </r>
       <r>  -10.7930    1.0000 </r>
       <r>  -10.7259    1.0000 </r>
       <r>  -10.6808    1.0000 </r>
       <r>  -10.6470    1.0000 </r>
       <r>  -10.6213    1.0000 </r>
       <r>  -10.5159    1.0000 </r>
       <r>  -10.5010    1.0000 </r>
       <r>  -10.4810    1.0000 </r>
       <r>  -10.4658    1.0000 </r>
       <r>  -10.4080    1.0000 </r>
       <r>  -10.3967    1.0000 </r>
       <r>  -10.3394    1.0000 </r>
       <r>  -10.3129    1.0000 </r>
       <r>  -10.2860    1.0000 </r>
       <r>  -10.2542    1.0000 </r>
       <r>  -10.1845    1.0000 </r>
       <r>  -10.1121    1.0000 </r>
       <r>  -10.0529    1.0000 </r>
       <r>  -10.0213    1.0000 </r>
[...]
       <r>   -22.6728    14.0422     6.4047 </r>
       <r>   -22.5758    16.2900     7.9845 </r>
       <r>   -22.4789    17.2500     9.6573 </r>
       <r>   -22.3819    15.0568    11.1175 </r>
       <r>   -22.2849    12.2735    12.3077 </r>
       <r>   -22.1879    11.8351    13.4554 </r>
       <r>   -22.0910    13.3739    14.7523 </r>
       <r>   -21.9940    14.8412    16.1916 </r>
       <r>   -21.8970    14.9854    17.6448 </r>
       <r>   -21.8000    14.0945    19.0116 </r>
       <r>   -21.7031    13.1035    20.2823 </r>
       <r>   -21.6061    12.2056    21.4660 </r>
       <r>   -21.5091    11.2876    22.5606 </r>
       <r>   -21.4121    10.9711    23.6245 </r>
       <r>   -21.3152    11.9218    24.7807 </r>
       <r>   -21.2182    14.0432    26.1425 </r>
       <r>   -21.1212    16.4283    27.7356 </r>
       <r>   -21.0242    17.5180    29.4345 </r>
       <r>   -20.9273    16.2321    31.0086 </r>
       <r>   -20.8303    13.3657    32.3047 </r>
       <r>   -20.7333    11.1412    33.3852 </r>
       <r>   -20.6363    10.9445    34.4465 </r>
       <r>   -20.5394    12.1944    35.6291 </r>
       <r>   -20.4424    13.5073    36.9389 </r>
       <r>   -20.3454    14.1393    38.3101 </r>
       <r>   -20.2484    14.4835    39.7146 </r>
       <r>   -20.1515    15.3183    41.2002 </r>
       <r>   -20.0545    16.5671    42.8068 </r>
       <r>   -19.9575    17.0515    44.4603 </r>
       <r>   -19.8605    15.6198    45.9751 </r>
       <r>   -19.7636    12.8663    47.2228 </r>
       <r>   -19.6666    11.1459    48.3037 </r>
       <r>   -19.5696    12.0907    49.4762 </r>
       <r>   -19.4726    14.6848    50.9002 </r>
       <r>   -19.3756    16.2715    52.4782 </r>
       <r>   -19.2787    15.7038    54.0011 </r>
       <r>   -19.1817    14.4830    55.4056 </r>
       <r>   -19.0847    14.0931    56.7722 </r>
       <r>   -18.9877    14.2940    58.1584 </r>
       <r>   -18.8908    14.1636    59.5319 </r>
       <r>   -18.7938    13.8477    60.8748 </r>
       <r>   -18.6968    14.8018    62.3102 </r>
       <r>   -18.5998    16.9163    63.9507 </r>
       <r>   -18.5029    17.5702    65.6546 </r>
       <r>   -18.4059    15.7010    67.1772 </r>
       <r>   -18.3089    13.8923    68.5244 </r>
       <r>   -18.2119    14.8110    69.9607 </r>
       <r>   -18.1150    17.2404    71.6326 </r>
       <r>   -18.0180    17.6090    73.3403 </r>
       <r>   -17.9210    15.3272    74.8266 </r>
       <r>   -17.8240    13.5075    76.1365 </r>
       <r>   -17.7271    13.7267    77.4677 </r>
       <r>   -17.6301    14.0643    78.8316 </r>
       <r>   -17.5331    13.2922    80.1206 </r>
       <r>   -17.4361    12.3773    81.3209 </r>
       <r>   -17.3392    11.7322    82.4586 </r>
       <r>   -17.2422    10.9084    83.5165 </r>
       <r>   -17.1452     9.9463    84.4810 </r>
       <r>   -17.0482     9.4045    85.3930 </r>
       <r>   -16.9513     9.5111    86.3154 </r>
       <r>   -16.8543     9.7650    87.2624 </r>
       <r>   -16.7573    10.0154    88.2336 </r>
       <r>   -16.6603    11.0852    89.3086 </r>
       <r>   -16.5634    13.3904    90.6071 </r>
       <r>   -16.4664    15.8949    92.1486 </r>
       <r>   -16.3694    17.4491    93.8407 </r>
       <r>   -16.2724    17.8935    95.5759 </r>
       <r>   -16.1755    17.5177    97.2747 </r>
       <r>   -16.0785    16.8173    98.9056 </r>
       <r>   -15.9815    16.3688   100.4930 </r>
       <r>   -15.8845    16.3040   102.0741 </r>
       <r>   -15.7876    15.8340   103.6096 </r>
       <r>   -15.6906    14.0817   104.9752 </r>
       <r>   -15.5936    11.6241   106.1024 </r>
       <r>   -15.4966    10.2233   107.0938 </r>
       <r>   -15.3996    11.3067   108.1903 </r>
       <r>   -15.3027    14.6960   109.6154 </r>
       <r>   -15.2057    18.9282   111.4510 </r>
       <r>   -15.1087    22.5854   113.6412 </r>
       <r>   -15.0117    24.5925   116.0261 </r>
       <r>   -14.9148    24.1941   118.3724 </r>
       <r>   -14.8178    21.1334   120.4218 </r>
       <r>   -14.7208    16.0823   121.9814 </r>
       <r>   -14.6238    11.2053   123.0680 </r>
       <r>   -14.5269     8.6364   123.9055 </r>
       <r>   -14.4299     8.4024   124.7204 </r>
       <r>   -14.3329     9.1990   125.6124 </r>
       <r>   -14.2359    10.3081   126.6121 </r>
       <r>   -14.1390    11.8061   127.7570 </r>
       <r>   -14.0420    13.5256   129.0686 </r>
       <r>   -13.9450    14.8614   130.5098 </r>
       <r>   -13.8480    15.3465   131.9981 </r>
       <r>   -13.7511    15.1389   133.4662 </r>
       <r>   -13.6541    15.3145   134.9513 </r>
       <r>   -13.5571    16.9095   136.5911 </r>
       <r>   -13.4601    19.3073   138.4634 </r>
       <r>   -13.3632    20.7029   140.4711 </r>
       <r>   -13.2662    20.5182   142.4609 </r>
       <r>   -13.1692    19.8054   144.3815 </r>
       <r>   -13.0722    19.1411   146.2377 </r>
       <r>   -12.9753    17.9624   147.9796 </r>
       <r>   -12.8783    16.2674   149.5572 </r>
       <r>   -12.7813    14.9081   151.0029 </r>
       <r>   -12.6843    13.9372   152.3545 </r>
       <r>   -12.5874    12.6984   153.5859 </r>
       <r>   -12.4904    11.3968   154.6911 </r>
       <r>   -12.3934    11.4060   155.7972 </r>
       <r>   -12.2964    13.9644   157.1514 </r>
       <r>   -12.1995    18.6178   158.9569 </r>
       <r>   -12.1025    23.0643   161.1936 </r>
       <r>   -12.0055    24.9032   163.6086 </r>
       <r>   -11.9085    24.0140   165.9373 </r>
       <r>   -11.8116    22.5755   168.1266 </r>
       <r>   -11.7146    22.0308   170.2631 </r>
       <r>   -11.6176    21.2115   172.3201 </r>
       <r>   -11.5206    18.6742   174.1310 </r>
       <r>   -11.4236    15.9421   175.6770 </r>
       <r>   -11.3267    15.9020   177.2191 </r>
       <r>   -11.2297    18.9302   179.0549 </r>
       <r>   -11.1327    23.1877   181.3035 </r>
       <r>   -11.0357    27.2476   183.9459 </r>
       <r>   -10.9388    30.5054   186.9042 </r>
       <r>   -10.8418    32.8315   190.0880 </r>
       <r>   -10.7448    34.7879   193.4616 </r>
       <r>   -10.6478    36.5940   197.0103 </r>
       <r>   -10.5509    37.6972   200.6660 </r>
       <r>   -10.4539    37.6700   204.3191 </r>
       <r>   -10.3569    36.2085   207.8304 </r>
       <r>   -10.2599    33.8049   211.1087 </r>
       <r>   -10.1630    32.6062   214.2707 </r>
       <r>   -10.0660    33.6479   217.5337 </r>
       <r>    -9.9690    34.7741   220.9060 </r>
       <r>    -9.8720    34.2285   224.2253 </r>
       <r>    -9.7751    33.1728   227.4422 </r>
       <r>    -9.6781    33.2451   230.6662 </r>
       <r>    -9.5811    34.9901   234.0594 </r>
       <r>    -9.4841    38.0571   237.7500 </r>
       <r>    -9.3872    40.6596   241.6930 </r>
       <r>    -9.2902    40.5998   245.6302 </r>
       <r>    -9.1932    37.6768   249.2839 </r>
       <r>    -9.0962    33.7828   252.5600 </r>
       <r>    -8.9993    31.5134   255.6161 </r>
       <r>    -8.9023    32.3291   258.7512 </r>
       <r>    -8.8053    34.7817   262.1242 </r>
       <r>    -8.7083    36.0056   265.6158 </r>
       <r>    -8.6114    34.7202   268.9828 </r>
       <r>    -8.5144    32.1542   272.1010 </r>
       <r>    -8.4174    30.5985   275.0683 </r>
       <r>    -8.3204    30.6541   278.0410 </r>
       <r>    -8.2235    30.9678   281.0442 </r>
       <r>    -8.1265    30.7924   284.0303 </r>
       <r>    -8.0295    30.4694   286.9851 </r>
       <r>    -7.9325    29.6973   289.8650 </r>
       <r>    -7.8355    28.0241   292.5826 </r>
       <r>    -7.7386    26.5484   295.1572 </r>
       <r>    -7.6416    26.5483   297.7317 </r>
       <r>    -7.5446    27.6889   300.4169 </r>
       <r>    -7.4476    28.7377   303.2037 </r>
       <r>    -7.3507    28.7729   305.9940 </r>
       <r>    -7.2537    28.0213   308.7114 </r>
       <r>    -7.1567    27.8929   311.4163 </r>
       <r>    -7.0597    28.7901   314.2083 </r>
       <r>    -6.9628    28.9820   317.0188 </r>
       <r>    -6.8658    27.2365   319.6601 </r>
       <r>    -6.7688    24.5610   322.0419 </r>
       <r>    -6.6718    22.6061   324.2341 </r>
       <r>    -6.5749    21.6362   326.3323 </r>
       <r>    -6.4779    20.8094   328.3503 </r>
       <r>    -6.3809    19.7951   330.2700 </r>
       <r>    -6.2839    19.4886   332.1599 </r>
       <r>    -6.1870    20.9739   334.1938 </r>
       <r>    -6.0900    23.9591   336.5173 </r>
       <r>    -5.9930    26.7367   339.1101 </r>
       <r>    -5.8960    27.4521   341.7723 </r>
       <r>    -5.7991    25.8043   344.2747 </r>
       <r>    -5.7021    23.0137   346.5064 </r>
       <r>    -5.6051    19.7371   348.4204 </r>
       <r>    -5.5081    15.7935   349.9520 </r>
       <r>    -5.4112    11.9371   351.1096 </r>
       <r>    -5.3142    10.1631   352.0952 </r>
       <r>    -5.2172    11.0251   353.1644 </r>
       <r>    -5.1202    12.0911   354.3369 </r>
       <r>    -5.0233    11.2085   355.4239 </r>
       <r>    -4.9263     9.3805   356.3335 </r>
       <r>    -4.8293     8.8550   357.1923 </r>
       <r>    -4.7323    10.3803   358.1989 </r>
       <r>    -4.6354    13.0690   359.4663 </r>
       <r>    -4.5384    15.3251   360.9524 </r>
       <r>    -4.4414    15.2941   362.4356 </r>
       <r>    -4.3444    12.1999   363.6187 </r>
       <r>    -4.2475     7.8320   364.3782 </r>
       <r>    -4.1505     4.6698   364.8311 </r>
       <r>    -4.0535     3.1696   365.1384 </r>
       <r>    -3.9565     2.4899   365.3799 </r>
       <r>    -3.8595     2.3671   365.6094 </r>
       <r>    -3.7626     3.0114   365.9015 </r>
       <r>    -3.6656     4.0626   366.2954 </r>
       <r>    -3.5686     4.6107   366.7426 </r>
       <r>    -3.4716     4.0747   367.1377 </r>
       <r>    -3.3747     2.9381   367.4226 </r>
       <r>    -3.2777     2.3960   367.6550 </r>
       <r>    -3.1807     2.8780   367.9341 </r>
       <r>    -3.0837     3.6931   368.2922 </r>
       <r>    -2.9868     4.4060   368.7195 </r>
       <r>    -2.8898     5.3209   369.2355 </r>
       <r>    -2.7928     6.6347   369.8789 </r>
       <r>    -2.6958     8.0598   370.6605 </r>
       <r>    -2.5989     8.7592   371.5099 </r>
       <r>    -2.5019     7.8544   372.2716 </r>
       <r>    -2.4049     5.8694   372.8408 </r>
       <r>    -2.3079     4.7356   373.3000 </r>
       <r>    -2.2110     5.5711   373.8403 </r>
       <r>    -2.1140     7.2000   374.5385 </r>
       <r>    -2.0170     7.4219   375.2583 </r>
       <r>    -1.9200     6.1508   375.8547 </r>
       <r>    -1.8231     6.1797   376.4540 </r>
       <r>    -1.7261     9.7132   377.3960 </r>
       <r>    -1.6291    15.6571   378.9143 </r>
       <r>    -1.5321    20.8203   380.9334 </r>
       <r>    -1.4352    22.7683   383.1413 </r>
       <r>    -1.3382    21.6702   385.2428 </r>
       <r>    -1.2412    19.7932   387.1623 </r>
       <r>    -1.1442    18.6562   388.9715 </r>
       <r>    -1.0473    17.5471   390.6731 </r>
       <r>    -0.9503    15.8296   392.2082 </r>
       <r>    -0.8533    14.3560   393.6004 </r>
       <r>    -0.7563    13.6811   394.9271 </r>
       <r>    -0.6594    13.2383   396.2109 </r>
       <r>    -0.5624    12.4110   397.4145 </r>
       <r>    -0.4654    11.3659   398.5167 </r>
       <r>    -0.3684    11.1924   399.6021 </r>
       <r>    -0.2715    12.8994   400.8530 </r>
       <r>    -0.1745    15.8731   402.3923 </r>
       <r>    -0.0775    18.4316   404.1797 </r>
       <r>     0.0195    20.0702   406.1260 </r>
       <r>     0.1165    21.4508   408.2063 </r>
       <r>     0.2134    22.1280   410.3521 </r>
       <r>     0.3104    20.9086   412.3798 </r>
       <r>     0.4074    18.4877   414.1726 </r>
       <r>     0.5044    17.3603   415.8561 </r>
       <r>     0.6013    19.1851   417.7166 </r>
       <r>     0.6983    23.3644   419.9824 </r>
       <r>     0.7953    27.7209   422.6706 </r>
       <r>     0.8923    30.6394   425.6419 </r>
       <r>     0.9892    33.1611   428.8577 </r>
       <r>     1.0862    37.3350   432.4783 </r>
       <r>     1.1832    42.9788   436.6462 </r>
       <r>     1.2802    47.9472   441.2959 </r>
       <r>     1.3771    50.1565   446.1599 </r>
       <r>     1.4741    48.8643   450.8985 </r>
       <r>     1.5711    44.3488   455.1993 </r>
       <r>     1.6681    36.7595   458.7641 </r>
       <r>     1.7650    26.5793   461.3416 </r>
       <r>     1.8620    15.8841   462.8820 </r>
       <r>     1.9590     7.5696   463.6160 </r>
       <r>     2.0560     2.8621   463.8936 </r>
       <r>     2.1529     0.8602   463.9770 </r>
       <r>     2.2499     0.1993   463.9964 </r>
       <r>     2.3469     0.0335   463.9996 </r>
       <r>     2.4439     0.0038   464.0000 </r>
       <r>     2.5408     0.0003   464.0000 </r>
       <r>     2.6378     0.0000   464.0000 </r>
       <r>     2.7348     0.0000   464.0000 </r>
       <r>     2.8318     0.0000   464.0000 </r>
       <r>     2.9287     0.0000   464.0000 </r>
       <r>     3.0257     0.0000   464.0000 </r>
       <r>     3.1227     0.0000   464.0000 </r>
       <r>     3.2197     0.0000   464.0000 </r>
       <r>     3.3166     0.0000   464.0000 </r>
       <r>     3.4136     0.0000   464.0000 </r>
       <r>     3.5106     0.0000   464.0000 </r>
       <r>     3.6076     0.0000   464.0000 </r>
       <r>     3.7045     0.0000   464.0000 </r>
       <r>     3.8015     0.0000   464.0000 </r>
       <r>     3.8985     0.0000   464.0000 </r>
      </set>
     </set>
    </array>
   </total>
  </dos>
 </calculation>
 <structure name="finalpos" >
  <crystal>
   <varray name="basis" >
    <v>      28.05000000       0.00000000       0.00000000 </v>
    <v>       0.00000000       8.10000000       0.00000000 </v>
    <v>       0.00000000       0.00000000      33.50000000 </v>
   </varray>
   <i name="volume">   7611.36750000 </i>
   <varray name="rec_basis" >
    <v>       0.03565062       0.00000000       0.00000000 </v>
    <v>       0.00000000       0.12345679       0.00000000 </v>
    <v>       0.00000000       0.00000000       0.02985075 </v>
   </varray>
  </crystal>
  <varray name="positions" >
   <v>       0.02546275       0.12160383       0.44184776 </v>
   <v>       0.02642645       0.29578272       0.44462687 </v>
   <v>       0.07043529       0.05627728       0.44976418 </v>
   <v>       0.06368984       0.38144568       0.46475522 </v>
   <v>       0.10886275       0.13167284       0.46911940 </v>
   <v>       0.10628485       0.30166173       0.47606866 </v>
   <v>       0.15077041       0.05241407       0.48205373 </v>
   <v>       0.14697968       0.38129136       0.49080299 </v>
   <v>       0.19202567       0.13406790       0.49842985 </v>
   <v>       0.19032157       0.30972222       0.50242687 </v>
   <v>       0.23623886       0.04965877       0.50602985 </v>
   <v>       0.23404955       0.38470494       0.51118507 </v>
   <v>       0.27849447       0.13151728       0.51750746 </v>
   <v>       0.27866203       0.29984321       0.51727164 </v>
   <v>       0.32369340       0.05323370       0.51788060 </v>
   <v>       0.32488449       0.37766543       0.52340597 </v>
   <v>       0.36930125       0.12621481       0.51965672 </v>
   <v>       0.36940820       0.29598272       0.52245672 </v>
   <v>       0.41489483       0.04375457       0.51563284 </v>
   <v>       0.41384670       0.37440988       0.52078507 </v>
   <v>       0.45896257       0.12456049       0.51487463 </v>
   <v>       0.45982175       0.29319136       0.51717015 </v>
   <v>       0.50301961       0.04484790       0.50456119 </v>
   <v>       0.50473440       0.37385802       0.50533731 </v>
   <v>       0.54442424       0.12092630       0.48995522 </v>
   <v>       0.54612834       0.29257284       0.49386866 </v>
   <v>       0.58430660       0.03434926       0.47262687 </v>
   <v>       0.58950089       0.37071728       0.48453731 </v>
   <v>       0.62681283       0.12093667       0.46373433 </v>
   <v>       0.63220321       0.29122840       0.47017015 </v>
   <v>       0.66880927       0.04112840       0.44773433 </v>
   <v>       0.67506239       0.36823210       0.46095224 </v>
   <v>       0.71337255       0.12830123       0.43689851 </v>
   <v>       0.71652763       0.28849383       0.44700299 </v>
   <v>       0.75737968       0.05163321       0.42641791 </v>
   <v>       0.76079857       0.37057654       0.43786269 </v>
   <v>       0.80155080       0.12314889       0.42130448 </v>
   <v>       0.80259537       0.29494444       0.42328955 </v>
   <v>       0.84576827       0.03860716       0.41462388 </v>
   <v>       0.84640285       0.37600123       0.41830746 </v>
   <v>       0.89167558       0.12458148       0.41547164 </v>
   <v>       0.89018895       0.28961975       0.41937313 </v>
   <v>       0.93460606       0.04690938       0.42042985 </v>
   <v>       0.93445276       0.37594815       0.42233433 </v>
   <v>       0.97691979       0.12711235       0.42806567 </v>
   <v>       0.97660606       0.30247778       0.43080597 </v>
   <v>       0.02574435       0.63536543       0.44304776 </v>
   <v>       0.02591340       0.80414074       0.43743284 </v>
   <v>       0.06389875       0.55305802       0.46077015 </v>
   <v>       0.06773048       0.88244074       0.44969552 </v>
   <v>       0.10522282       0.63859383       0.47509254 </v>
   <v>       0.10873084       0.79913333       0.46609254 </v>
   <v>       0.14639822       0.55525926       0.48949552 </v>
   <v>       0.15218966       0.88553580       0.47589851 </v>
   <v>       0.18953832       0.63970741       0.49663881 </v>
   <v>       0.19379929       0.80392593       0.49164179 </v>
   <v>       0.23453119       0.55482840       0.50801791 </v>
   <v>       0.23772157       0.87810247       0.50297910 </v>
   <v>       0.28106774       0.63020617       0.50950149 </v>
   <v>       0.28083066       0.79761111       0.50857313 </v>
   <v>       0.32440285       0.54684074       0.52098507 </v>
   <v>       0.32561996       0.88240123       0.51443284 </v>
   <v>       0.36868449       0.62163580       0.51838806 </v>
   <v>       0.36905882       0.79707531       0.51585075 </v>
   <v>       0.41527629       0.54629877       0.52057313 </v>
   <v>       0.41337611       0.87578025       0.51316119 </v>
   <v>       0.45880214       0.62455802       0.51317313 </v>
   <v>       0.45844563       0.79317778       0.51250149 </v>
   <v>       0.50447059       0.54509136       0.50720000 </v>
   <v>       0.50336542       0.87746790       0.50467463 </v>
   <v>       0.54915865       0.62078642       0.49759403 </v>
   <v>       0.54656328       0.79105309       0.49527761 </v>
   <v>       0.59131194       0.54109136       0.48768358 </v>
   <v>       0.58732977       0.86417531       0.47977015 </v>
   <v>       0.63303743       0.62407778       0.47235522 </v>
   <v>       0.63036720       0.79536543       0.46783881 </v>
   <v>       0.67468449       0.53858395       0.46166866 </v>
   <v>       0.66972906       0.87002593       0.45064776 </v>
   <v>       0.71743316       0.62007284       0.44611940 </v>
   <v>       0.71439572       0.78853951       0.43855224 </v>
   <v>       0.75853119       0.53634321       0.43303881 </v>
   <v>       0.75498039       0.87712716       0.42520896 </v>
   <v>       0.79976471       0.62325926       0.42022388 </v>
   <v>       0.80086275       0.78946420       0.41386866 </v>
   <v>       0.84385740       0.54236049       0.41481194 </v>
   <v>       0.84461676       0.87207901       0.41158507 </v>
   <v>       0.88864528       0.62315679       0.41601791 </v>
   <v>       0.88968627       0.79283827       0.41399701 </v>
   <v>       0.93318360       0.54354321       0.42146567 </v>
   <v>       0.93522638       0.87660617       0.41940597 </v>
   <v>       0.97465597       0.62335679       0.42974030 </v>
   <v>       0.97665241       0.79421975       0.42635821 </v>
  </varray>
 </structure>
</modeling>
