unknown system                          
            1
    28.050000    0.000000    0.000000
     0.000000    8.100000    0.000000
     0.000000    0.000000   33.500000
   C 
    92
Direct configuration=     1
   0.02546275  0.12160383  0.44184776
   0.02642645  0.29578272  0.44462687
   0.07043529  0.05627728  0.44976418
   0.06368984  0.38144568  0.46475522
   0.10886275  0.13167284  0.46911940
   0.10628485  0.30166173  0.47606866
   0.15077041  0.05241407  0.48205373
   0.14697968  0.38129136  0.49080299
   0.19202567  0.13406790  0.49842985
   0.19032157  0.30972222  0.50242687
   0.23623886  0.04965877  0.50602985
   0.23404955  0.38470494  0.51118507
   0.27849447  0.13151728  0.51750746
   0.27866203  0.29984321  0.51727164
   0.32369340  0.05323370  0.51788060
   0.32488449  0.37766543  0.52340597
   0.36930125  0.12621481  0.51965672
   0.36940820  0.29598272  0.52245672
   0.41489483  0.04375457  0.51563284
   0.41384670  0.37440988  0.52078507
   0.45896257  0.12456049  0.51487463
   0.45982175  0.29319136  0.51717015
   0.50301961  0.04484790  0.50456119
   0.50473440  0.37385802  0.50533731
   0.54442424  0.12092630  0.48995522
   0.54612834  0.29257284  0.49386866
   0.58430660  0.03434926  0.47262687
   0.58950089  0.37071728  0.48453731
   0.62681283  0.12093667  0.46373433
   0.63220321  0.29122840  0.47017015
   0.66880927  0.04112840  0.44773433
   0.67506239  0.36823210  0.46095224
   0.71337255  0.12830123  0.43689851
   0.71652763  0.28849383  0.44700299
   0.75737968  0.05163321  0.42641791
   0.76079857  0.37057654  0.43786269
   0.80155080  0.12314889  0.42130448
   0.80259537  0.29494444  0.42328955
   0.84576827  0.03860716  0.41462388
   0.84640285  0.37600123  0.41830746
   0.89167558  0.12458148  0.41547164
   0.89018895  0.28961975  0.41937313
   0.93460606  0.04690938  0.42042985
   0.93445276  0.37594815  0.42233433
   0.97691979  0.12711235  0.42806567
   0.97660606  0.30247778  0.43080597
   0.02574435  0.63536543  0.44304776
   0.02591340  0.80414074  0.43743284
   0.06389875  0.55305802  0.46077015
   0.06773048  0.88244074  0.44969552
   0.10522282  0.63859383  0.47509254
   0.10873084  0.79913333  0.46609254
   0.14639822  0.55525926  0.48949552
   0.15218966  0.88553580  0.47589851
   0.18953832  0.63970741  0.49663881
   0.19379929  0.80392593  0.49164179
   0.23453119  0.55482840  0.50801791
   0.23772157  0.87810247  0.50297910
   0.28106774  0.63020617  0.50950149
   0.28083066  0.79761111  0.50857313
   0.32440285  0.54684074  0.52098507
   0.32561996  0.88240123  0.51443284
   0.36868449  0.62163580  0.51838806
   0.36905882  0.79707531  0.51585075
   0.41527629  0.54629877  0.52057313
   0.41337611  0.87578025  0.51316119
   0.45880214  0.62455802  0.51317313
   0.45844563  0.79317778  0.51250149
   0.50447059  0.54509136  0.50720000
   0.50336542  0.87746790  0.50467463
   0.54915865  0.62078642  0.49759403
   0.54656328  0.79105309  0.49527761
   0.59131194  0.54109136  0.48768358
   0.58732977  0.86417531  0.47977015
   0.63303743  0.62407778  0.47235522
   0.63036720  0.79536543  0.46783881
   0.67468449  0.53858395  0.46166866
   0.66972906  0.87002593  0.45064776
   0.71743316  0.62007284  0.44611940
   0.71439572  0.78853951  0.43855224
   0.75853119  0.53634321  0.43303881
   0.75498039  0.87712716  0.42520896
   0.79976471  0.62325926  0.42022388
   0.80086275  0.78946420  0.41386866
   0.84385740  0.54236049  0.41481194
   0.84461676  0.87207901  0.41158507
   0.88864528  0.62315679  0.41601791
   0.88968627  0.79283827  0.41399701
   0.93318360  0.54354321  0.42146567
   0.93522638  0.87660617  0.41940597
   0.97465597  0.62335679  0.42974030
   0.97665241  0.79421975  0.42635821
