unknown system                          
            1
    28.050000    0.000000    0.000000
     0.000000    8.100000    0.000000
     0.000000    0.000000   33.500000
   C 
    92
Direct configuration=     1
   0.01564004  0.11681370  0.44048657
   0.01702749  0.28967284  0.44455821
   0.05846809  0.03693593  0.43221791
   0.05947807  0.37141605  0.43975224
   0.10505668  0.12420617  0.43600000
   0.10381283  0.29606296  0.43945075
   0.14956364  0.04194704  0.43803881
   0.14853226  0.37848519  0.44632239
   0.19507772  0.12625926  0.44101791
   0.19182531  0.29493333  0.44947463
   0.23779857  0.04450840  0.44949851
   0.23548307  0.36747407  0.45993134
   0.28150802  0.12162519  0.45983284
   0.27842246  0.28612593  0.46825672
   0.32595187  0.04079383  0.46588657
   0.32144314  0.36654691  0.48166269
   0.36742246  0.12033086  0.47676119
   0.36551515  0.28418889  0.48803582
   0.40996078  0.03683444  0.48731343
   0.40669162  0.36600370  0.50128358
   0.45165419  0.11606074  0.50211343
   0.45000000  0.28440000  0.50898806
   0.49573619  0.03712963  0.50676119
   0.49219964  0.36401975  0.51742985
   0.53863815  0.11642790  0.52027761
   0.53549020  0.28080494  0.52769254
   0.58286275  0.02881074  0.52465672
   0.57929412  0.37011852  0.53123881
   0.62531551  0.11658457  0.52733731
   0.62337968  0.28680988  0.53123284
   0.66970766  0.04004901  0.52111343
   0.66980749  0.36643210  0.52740896
   0.71322638  0.12294272  0.51626567
   0.71236364  0.28994198  0.51934627
   0.75345098  0.03777210  0.50435522
   0.75458467  0.36948642  0.50645373
   0.79841711  0.12202728  0.49467463
   0.79795722  0.28752099  0.49742388
   0.84007130  0.03995951  0.48015522
   0.84021747  0.37091235  0.48356716
   0.88377897  0.12268975  0.47290149
   0.88036720  0.28995062  0.47414627
   0.92527986  0.03295691  0.45971940
   0.92374688  0.37315062  0.46164776
   0.96610695  0.12294074  0.44917015
   0.96644207  0.29592963  0.45255224
   0.01601070  0.61756296  0.44263284
   0.01677045  0.78739877  0.43914328
   0.05928342  0.53815309  0.43510746
   0.05990945  0.86875062  0.43038806
   0.10367130  0.62049136  0.43726269
   0.10512442  0.78823580  0.43287164
   0.14848021  0.54584815  0.44413731
   0.14881676  0.87222099  0.43752836
   0.19293440  0.62122222  0.45086269
   0.19259501  0.79108395  0.44764478
   0.23560463  0.53647654  0.45854925
   0.23672656  0.87212222  0.44945373
   0.27735330  0.61703951  0.46693433
   0.27736649  0.79147284  0.46352239
   0.32006595  0.53482469  0.48208060
   0.32330838  0.87182222  0.46814925
   0.36206061  0.61924198  0.48905672
   0.36531551  0.78500123  0.48228955
   0.40658467  0.53689259  0.50088657
   0.40913725  0.86668519  0.48762985
   0.44919786  0.61945062  0.51175224
   0.45116934  0.78457531  0.50037015
   0.49067380  0.53532222  0.52158209
   0.49370766  0.86575062  0.50878806
   0.53579323  0.61712840  0.52345373
   0.53739750  0.78143457  0.51533731
   0.57797861  0.53417284  0.52715821
   0.58008913  0.86305556  0.51835522
   0.62308021  0.61501235  0.51919701
   0.62479501  0.78151481  0.51522090
   0.66706595  0.53659630  0.51900299
   0.66708021  0.86907037  0.51481493
   0.70980749  0.61687407  0.50740597
   0.71119430  0.78660741  0.51151343
   0.75403209  0.53690617  0.50203881
   0.75459893  0.87108642  0.50053433
   0.79408913  0.62117160  0.48758209
   0.79442068  0.79127901  0.48523582
   0.83600357  0.54169753  0.47718806
   0.83617469  0.86968272  0.47380299
   0.87716221  0.61881111  0.46401194
   0.87766845  0.78995185  0.46056716
   0.92212121  0.53637160  0.45706866
   0.92282709  0.86647284  0.45553731
   0.96503030  0.61733827  0.44543284
   0.96443850  0.79057160  0.44229254
