  92  92   0   0
  0.8273226E+02  0.2805000E-08  0.8100000E-09  0.3350000E-08  0.5000000E-15
   1.0000000000000000E-004
  CAR 
 unknown system                          
      3.92224596    -25.21620467  301     -3.15768172      1.00000000
    -25.216  0.0000E+00  0.0000E+00
    -25.119  0.0000E+00  0.0000E+00
    -25.022  0.0000E+00  0.0000E+00
    -24.925  0.0000E+00  0.0000E+00
    -24.828  0.0000E+00  0.0000E+00
    -24.731  0.0000E+00  0.0000E+00
    -24.633  0.0000E+00  0.0000E+00
    -24.536  0.0000E+00  0.0000E+00
    -24.439  0.0000E+00  0.0000E+00
    -24.342  0.4286E-14  0.4163E-15
    -24.245  0.9144E-12  0.8923E-13
    -24.148  0.1184E-09  0.1159E-10
    -24.051  0.9696E-08  0.9533E-09
    -23.954  0.5036E-06  0.4987E-07
    -23.856  0.1667E-04  0.1669E-05
    -23.759  0.3535E-03  0.3601E-04
    -23.662  0.4844E-02  0.5064E-03
    -23.565  0.4328E-01  0.4710E-02
    -23.468  0.2557E+00  0.2955E-01
    -23.371  0.1019E+01  0.1285E+00
    -23.274  0.2822E+01  0.4026E+00
    -23.177  0.5700E+01  0.9562E+00
    -23.079  0.8931E+01  0.1824E+01
    -22.982  0.1147E+02  0.2938E+01
    -22.885  0.1265E+02  0.4167E+01
    -22.788  0.1316E+02  0.5445E+01
    -22.691  0.1474E+02  0.6877E+01
    -22.594  0.1694E+02  0.8522E+01
    -22.497  0.1690E+02  0.1016E+02
    -22.399  0.1422E+02  0.1155E+02
    -22.302  0.1193E+02  0.1270E+02
    -22.205  0.1201E+02  0.1387E+02
    -22.108  0.1339E+02  0.1517E+02
    -22.011  0.1432E+02  0.1656E+02
    -21.914  0.1429E+02  0.1795E+02
    -21.817  0.1376E+02  0.1929E+02
    -21.720  0.1313E+02  0.2056E+02
    -21.622  0.1232E+02  0.2176E+02
    -21.525  0.1134E+02  0.2286E+02
    -21.428  0.1089E+02  0.2392E+02
    -21.331  0.1175E+02  0.2506E+02
    -21.234  0.1381E+02  0.2640E+02
    -21.137  0.1605E+02  0.2796E+02
    -21.040  0.1709E+02  0.2962E+02
    -20.943  0.1598E+02  0.3117E+02
    -20.845  0.1334E+02  0.3247E+02
    -20.748  0.1125E+02  0.3356E+02
    -20.651  0.1127E+02  0.3465E+02
    -20.554  0.1283E+02  0.3590E+02
    -20.457  0.1397E+02  0.3725E+02
    -20.360  0.1404E+02  0.3862E+02
    -20.263  0.1421E+02  0.4000E+02
    -20.166  0.1511E+02  0.4147E+02
    -20.068  0.1584E+02  0.4300E+02
    -19.971  0.1568E+02  0.4453E+02
    -19.874  0.1448E+02  0.4593E+02
    -19.777  0.1266E+02  0.4716E+02
    -19.680  0.1210E+02  0.4834E+02
    -19.583  0.1412E+02  0.4971E+02
    -19.486  0.1654E+02  0.5132E+02
    -19.389  0.1650E+02  0.5292E+02
    -19.291  0.1446E+02  0.5432E+02
    -19.194  0.1314E+02  0.5560E+02
    -19.097  0.1378E+02  0.5694E+02
    -19.000  0.1480E+02  0.5838E+02
    -18.903  0.1418E+02  0.5975E+02
    -18.806  0.1294E+02  0.6101E+02
    -18.709  0.1393E+02  0.6236E+02
    -18.611  0.1665E+02  0.6398E+02
    -18.514  0.1749E+02  0.6568E+02
    -18.417  0.1597E+02  0.6723E+02
    -18.320  0.1533E+02  0.6872E+02
    -18.223  0.1681E+02  0.7035E+02
    -18.126  0.1804E+02  0.7210E+02
    -18.029  0.1681E+02  0.7374E+02
    -17.932  0.1401E+02  0.7510E+02
    -17.834  0.1248E+02  0.7631E+02
    -17.737  0.1289E+02  0.7756E+02
    -17.640  0.1312E+02  0.7884E+02
    -17.543  0.1227E+02  0.8003E+02
    -17.446  0.1174E+02  0.8117E+02
    -17.349  0.1184E+02  0.8232E+02
    -17.252  0.1154E+02  0.8344E+02
    -17.155  0.1088E+02  0.8450E+02
    -17.057  0.1058E+02  0.8552E+02
    -16.960  0.1054E+02  0.8655E+02
    -16.863  0.1031E+02  0.8755E+02
    -16.766  0.1037E+02  0.8856E+02
    -16.669  0.1176E+02  0.8970E+02
    -16.572  0.1409E+02  0.9107E+02
    -16.475  0.1581E+02  0.9260E+02
    -16.378  0.1643E+02  0.9420E+02
    -16.280  0.1656E+02  0.9581E+02
    -16.183  0.1675E+02  0.9743E+02
    -16.086  0.1700E+02  0.9909E+02
    -15.989  0.1687E+02  0.1007E+03
    -15.892  0.1600E+02  0.1023E+03
    -15.795  0.1430E+02  0.1037E+03
    -15.698  0.1235E+02  0.1049E+03
    -15.601  0.1096E+02  0.1059E+03
    -15.503  0.1076E+02  0.1070E+03
    -15.406  0.1303E+02  0.1082E+03
    -15.309  0.1781E+02  0.1100E+03
    -15.212  0.2230E+02  0.1121E+03
    -15.115  0.2421E+02  0.1145E+03
    -15.018  0.2370E+02  0.1168E+03
    -14.921  0.2137E+02  0.1189E+03
    -14.823  0.1769E+02  0.1206E+03
    -14.726  0.1363E+02  0.1219E+03
    -14.629  0.1024E+02  0.1229E+03
    -14.532  0.8275E+01  0.1237E+03
    -14.435  0.8281E+01  0.1245E+03
    -14.338  0.9873E+01  0.1255E+03
    -14.241  0.1167E+02  0.1266E+03
    -14.144  0.1295E+02  0.1279E+03
    -14.046  0.1389E+02  0.1292E+03
    -13.949  0.1442E+02  0.1306E+03
    -13.852  0.1477E+02  0.1320E+03
    -13.755  0.1601E+02  0.1336E+03
    -13.658  0.1828E+02  0.1354E+03
    -13.561  0.1995E+02  0.1373E+03
    -13.464  0.2006E+02  0.1393E+03
    -13.367  0.1948E+02  0.1412E+03
    -13.269  0.1905E+02  0.1430E+03
    -13.172  0.1816E+02  0.1448E+03
    -13.075  0.1624E+02  0.1463E+03
    -12.978  0.1454E+02  0.1478E+03
    -12.881  0.1454E+02  0.1492E+03
    -12.784  0.1546E+02  0.1507E+03
    -12.687  0.1522E+02  0.1521E+03
    -12.590  0.1346E+02  0.1535E+03
    -12.492  0.1214E+02  0.1546E+03
    -12.395  0.1290E+02  0.1559E+03
    -12.298  0.1561E+02  0.1574E+03
    -12.201  0.1953E+02  0.1593E+03
    -12.104  0.2350E+02  0.1616E+03
    -12.007  0.2548E+02  0.1641E+03
    -11.910  0.2467E+02  0.1665E+03
    -11.813  0.2264E+02  0.1687E+03
    -11.715  0.2070E+02  0.1707E+03
    -11.618  0.1856E+02  0.1725E+03
    -11.521  0.1624E+02  0.1740E+03
    -11.424  0.1512E+02  0.1755E+03
    -11.327  0.1621E+02  0.1771E+03
    -11.230  0.1916E+02  0.1789E+03
    -11.133  0.2323E+02  0.1812E+03
    -11.035  0.2788E+02  0.1839E+03
    -10.938  0.3202E+02  0.1870E+03
    -10.841  0.3424E+02  0.1903E+03
    -10.744  0.3470E+02  0.1937E+03
    -10.647  0.3523E+02  0.1971E+03
    -10.550  0.3686E+02  0.2007E+03
    -10.453  0.3823E+02  0.2044E+03
    -10.356  0.3784E+02  0.2081E+03
    -10.258  0.3653E+02  0.2117E+03
    -10.161  0.3568E+02  0.2151E+03
    -10.064  0.3491E+02  0.2185E+03
     -9.967  0.3315E+02  0.2217E+03
     -9.870  0.3149E+02  0.2248E+03
     -9.773  0.3252E+02  0.2279E+03
     -9.676  0.3602E+02  0.2314E+03
     -9.579  0.3946E+02  0.2353E+03
     -9.481  0.4189E+02  0.2394E+03
     -9.384  0.4295E+02  0.2435E+03
     -9.287  0.4084E+02  0.2475E+03
     -9.190  0.3545E+02  0.2509E+03
     -9.093  0.3062E+02  0.2539E+03
     -8.996  0.2989E+02  0.2568E+03
     -8.899  0.3252E+02  0.2600E+03
     -8.802  0.3586E+02  0.2635E+03
     -8.704  0.3802E+02  0.2671E+03
     -8.607  0.3762E+02  0.2708E+03
     -8.510  0.3452E+02  0.2742E+03
     -8.413  0.3085E+02  0.2771E+03
     -8.316  0.2894E+02  0.2800E+03
     -8.219  0.2856E+02  0.2827E+03
     -8.122  0.2805E+02  0.2855E+03
     -8.025  0.2695E+02  0.2881E+03
     -7.927  0.2602E+02  0.2906E+03
     -7.830  0.2613E+02  0.2931E+03
     -7.733  0.2735E+02  0.2958E+03
     -7.636  0.2872E+02  0.2986E+03
     -7.539  0.2972E+02  0.3015E+03
     -7.442  0.3048E+02  0.3044E+03
     -7.345  0.3030E+02  0.3074E+03
     -7.247  0.2831E+02  0.3101E+03
     -7.150  0.2557E+02  0.3126E+03
     -7.053  0.2419E+02  0.3150E+03
     -6.956  0.2463E+02  0.3173E+03
     -6.859  0.2583E+02  0.3199E+03
     -6.762  0.2700E+02  0.3225E+03
     -6.665  0.2739E+02  0.3251E+03
     -6.568  0.2539E+02  0.3276E+03
     -6.470  0.2117E+02  0.3297E+03
     -6.373  0.1818E+02  0.3314E+03
     -6.276  0.1874E+02  0.3332E+03
     -6.179  0.2110E+02  0.3353E+03
     -6.082  0.2328E+02  0.3376E+03
     -5.985  0.2515E+02  0.3400E+03
     -5.888  0.2600E+02  0.3425E+03
     -5.791  0.2473E+02  0.3449E+03
     -5.693  0.2173E+02  0.3470E+03
     -5.596  0.1804E+02  0.3488E+03
     -5.499  0.1412E+02  0.3502E+03
     -5.402  0.1075E+02  0.3512E+03
     -5.305  0.9666E+01  0.3521E+03
     -5.208  0.1108E+02  0.3532E+03
     -5.111  0.1218E+02  0.3544E+03
     -5.014  0.1090E+02  0.3555E+03
     -4.916  0.8859E+01  0.3563E+03
     -4.819  0.8531E+01  0.3572E+03
     -4.722  0.1018E+02  0.3581E+03
     -4.625  0.1274E+02  0.3594E+03
     -4.528  0.1518E+02  0.3609E+03
     -4.431  0.1565E+02  0.3624E+03
     -4.334  0.1262E+02  0.3636E+03
     -4.237  0.7816E+01  0.3644E+03
     -4.139  0.4344E+01  0.3648E+03
     -4.042  0.2907E+01  0.3651E+03
     -3.945  0.2467E+01  0.3653E+03
     -3.848  0.2409E+01  0.3655E+03
     -3.751  0.2832E+01  0.3658E+03
     -3.654  0.3693E+01  0.3662E+03
     -3.557  0.4423E+01  0.3666E+03
     -3.459  0.4367E+01  0.3670E+03
     -3.362  0.3570E+01  0.3674E+03
     -3.265  0.2970E+01  0.3677E+03
     -3.168  0.3155E+01  0.3680E+03
     -3.071  0.3667E+01  0.3683E+03
     -2.974  0.4119E+01  0.3687E+03
     -2.877  0.4779E+01  0.3692E+03
     -2.780  0.6196E+01  0.3698E+03
     -2.682  0.8436E+01  0.3706E+03
     -2.585  0.9816E+01  0.3716E+03
     -2.488  0.8462E+01  0.3724E+03
     -2.391  0.5573E+01  0.3729E+03
     -2.294  0.4015E+01  0.3733E+03
     -2.197  0.4822E+01  0.3738E+03
     -2.100  0.6707E+01  0.3744E+03
     -2.003  0.7367E+01  0.3751E+03
     -1.905  0.6057E+01  0.3757E+03
     -1.808  0.5126E+01  0.3762E+03
     -1.711  0.7339E+01  0.3769E+03
     -1.614  0.1284E+02  0.3782E+03
     -1.517  0.1921E+02  0.3801E+03
     -1.420  0.2334E+02  0.3823E+03
     -1.323  0.2353E+02  0.3846E+03
     -1.226  0.2102E+02  0.3867E+03
     -1.128  0.1903E+02  0.3885E+03
     -1.031  0.1878E+02  0.3903E+03
     -0.934  0.1799E+02  0.3921E+03
     -0.837  0.1550E+02  0.3936E+03
     -0.740  0.1313E+02  0.3949E+03
     -0.643  0.1236E+02  0.3961E+03
     -0.546  0.1267E+02  0.3973E+03
     -0.449  0.1254E+02  0.3985E+03
     -0.351  0.1135E+02  0.3996E+03
     -0.254  0.1103E+02  0.4007E+03
     -0.157  0.1343E+02  0.4020E+03
     -0.060  0.1723E+02  0.4037E+03
      0.037  0.2017E+02  0.4056E+03
      0.134  0.2169E+02  0.4077E+03
      0.231  0.2197E+02  0.4099E+03
      0.329  0.2111E+02  0.4119E+03
      0.426  0.1968E+02  0.4138E+03
      0.523  0.1891E+02  0.4157E+03
      0.620  0.2043E+02  0.4176E+03
      0.717  0.2447E+02  0.4200E+03
      0.814  0.2874E+02  0.4228E+03
      0.911  0.3131E+02  0.4258E+03
      1.008  0.3364E+02  0.4291E+03
      1.106  0.3785E+02  0.4328E+03
      1.203  0.4335E+02  0.4370E+03
      1.300  0.4819E+02  0.4417E+03
      1.397  0.5040E+02  0.4466E+03
      1.494  0.4865E+02  0.4513E+03
      1.591  0.4330E+02  0.4555E+03
      1.688  0.3551E+02  0.4590E+03
      1.785  0.2574E+02  0.4615E+03
      1.883  0.1532E+02  0.4629E+03
      1.980  0.7160E+01  0.4636E+03
      2.077  0.2662E+01  0.4639E+03
      2.174  0.8078E+00  0.4640E+03
      2.271  0.1934E+00  0.4640E+03
      2.368  0.3365E-01  0.4640E+03
      2.465  0.3970E-02  0.4640E+03
      2.562  0.3052E-03  0.4640E+03
      2.660  0.1501E-04  0.4640E+03
      2.757  0.4681E-06  0.4640E+03
      2.854  0.9219E-08  0.4640E+03
      2.951  0.1144E-09  0.4640E+03
      3.048  0.8927E-12  0.4640E+03
      3.145  0.4572E-14  0.4640E+03
      3.242  0.0000E+00  0.4640E+03
      3.339  0.0000E+00  0.4640E+03
      3.437  0.0000E+00  0.4640E+03
      3.534  0.0000E+00  0.4640E+03
      3.631  0.0000E+00  0.4640E+03
      3.728  0.0000E+00  0.4640E+03
      3.825  0.0000E+00  0.4640E+03
      3.922  0.0000E+00  0.4640E+03
