       N       E                     dE             d eps       ncg     rms          rms(c)
DAV:   1     0.367886047234E+04    0.36789E+04   -0.11925E+05  1688   0.105E+03
DAV:   2     0.171384758700E+03   -0.35075E+04   -0.32411E+04  2136   0.239E+02
DAV:   3    -0.838401809296E+03   -0.10098E+04   -0.98916E+03  1784   0.135E+02
DAV:   4    -0.898586674164E+03   -0.60185E+02   -0.59262E+02  1720   0.426E+01
DAV:   5    -0.900011361579E+03   -0.14247E+01   -0.14037E+01  1768   0.641E+00    0.456E+01
DAV:   6    -0.850212387047E+03    0.49799E+02   -0.47281E+01  1584   0.125E+01    0.268E+01
DAV:   7    -0.831566184960E+03    0.18646E+02   -0.65862E+01  1560   0.143E+01    0.732E+00
DAV:   8    -0.831265048168E+03    0.30114E+00   -0.23432E+00  1600   0.322E+00    0.935E-01
DAV:   9    -0.831160611201E+03    0.10444E+00   -0.24628E-01  1640   0.924E-01    0.566E-01
DAV:  10    -0.831116923386E+03    0.43688E-01   -0.47110E-02  1720   0.418E-01    0.351E-01
DAV:  11    -0.831087560178E+03    0.29363E-01   -0.24605E-02  1576   0.248E-01    0.234E-01
DAV:  12    -0.831085136467E+03    0.24237E-02   -0.20465E-02  1536   0.216E-01    0.146E-01
DAV:  13    -0.831096655974E+03   -0.11520E-01   -0.82075E-03  1552   0.136E-01    0.853E-02
DAV:  14    -0.831115716925E+03   -0.19061E-01   -0.12534E-03  1584   0.644E-02    0.528E-02
DAV:  15    -0.831136149597E+03   -0.20433E-01   -0.17730E-03  1568   0.625E-02    0.306E-02
DAV:  16    -0.831144432818E+03   -0.82832E-02   -0.47361E-04  1584   0.366E-02    0.198E-02
DAV:  17    -0.831149159405E+03   -0.47266E-02   -0.28877E-04  1576   0.225E-02    0.104E-02
DAV:  18    -0.831151147625E+03   -0.19882E-02   -0.78966E-05  1520   0.124E-02    0.537E-03
DAV:  19    -0.831152171602E+03   -0.10240E-02   -0.36391E-05  1368   0.798E-03    0.373E-03
DAV:  20    -0.831152464783E+03   -0.29318E-03   -0.36459E-06  1336   0.337E-03    0.211E-03
DAV:  21    -0.831152662678E+03   -0.19790E-03   -0.26128E-06  1232   0.251E-03    0.111E-03
DAV:  22    -0.831152711440E+03   -0.48761E-04   -0.18208E-07  1040   0.109E-03    0.641E-04
DAV:  23    -0.831152749029E+03   -0.37589E-04   -0.32854E-07   944   0.915E-04    0.422E-04
DAV:  24    -0.831152760635E+03   -0.11606E-04   -0.72101E-08   952   0.562E-04    0.189E-04
DAV:  25    -0.831152766520E+03   -0.58842E-05   -0.51619E-08   920   0.359E-04    0.159E-04
DAV:  26    -0.831152770134E+03   -0.36147E-05   -0.21311E-08   888   0.268E-04    0.891E-05
DAV:  27    -0.831152771716E+03   -0.15816E-05   -0.76011E-09   944   0.139E-04    0.603E-05
DAV:  28    -0.831152773411E+03   -0.16956E-05   -0.46475E-09   952   0.120E-04    0.372E-05
DAV:  29    -0.831152773959E+03   -0.54724E-06   -0.21849E-09   936   0.730E-05
   1 F= -.83115277E+03 E0= -.83111805E+03  d E =-.694507E-01
