<?xml version="1.0" encoding="ISO-8859-1"?>
<modeling>
 <generator>
  <i name="program" type="string">vasp </i>
  <i name="version" type="string">6.5.0  </i>
  <i name="subversion" type="string">16Dec24 (build Feb 19 2025 19:45:31) complex                          parallel </i>
  <i name="platform" type="string">LinuxNV </i>
  <i name="date" type="string">2025 10 25 </i>
  <i name="time" type="string">19:59:12 </i>
 </generator>
 <incar>
  <i type="int" name="ISTART">     0</i>
  <i type="string" name="PREC">Accurate   (Precision level)</i>
  <i type="string" name="ALGO">Normal</i>
  <i type="int" name="ISPIN">     1</i>
  <i type="int" name="ICHARG">     2</i>
  <i type="int" name="NELM">   150</i>
  <i type="int" name="IBRION">    -1</i>
  <i name="EDIFF">      0.00000100</i>
  <i type="int" name="NSW">     0</i>
  <i name="ENCUT">    500.00000000</i>
  <i type="string" name="LREAL">Auto         (Projection operators: automatic)</i>
  <i type="int" name="ISMEAR">     0</i>
  <i type="logical" name="KGAMMA"> T  </i>
  <i type="logical" name="LWAVE"> F  </i>
  <i type="logical" name="LCHARG"> F  </i>
 </incar>
 <primitive_cell>
  <structure name="primitive_cell" >
   <crystal>
    <varray name="basis" >
     <v>      28.05000000       0.00000000       0.00000000 </v>
     <v>       0.00000000       8.10000000       0.00000000 </v>
     <v>       0.00000000       0.00000000      33.50000000 </v>
    </varray>
    <i name="volume">   7611.36750000 </i>
    <varray name="rec_basis" >
     <v>       0.03565062       0.00000000       0.00000000 </v>
     <v>       0.00000000       0.12345679       0.00000000 </v>
     <v>       0.00000000       0.00000000       0.02985075 </v>
    </varray>
   </crystal>
   <varray name="positions" >
    <v>       0.71477718       0.52186790       0.97450746 </v>
    <v>       0.71411765       0.68540988       0.96540299 </v>
    <v>       0.75713369       0.44159383       0.97376119 </v>
    <v>       0.75609982       0.77517284       0.96382090 </v>
    <v>       0.80077362       0.52284568       0.96373134 </v>
    <v>       0.80053832       0.69253827       0.95910448 </v>
    <v>       0.84562923       0.44226914       0.96373134 </v>
    <v>       0.84460963       0.77548889       0.95674627 </v>
    <v>       0.88748663       0.52214444       0.95152239 </v>
    <v>       0.88680927       0.69014691       0.94946269 </v>
    <v>       0.93089483       0.44180000       0.94328358 </v>
    <v>       0.93058111       0.77065432       0.94200000 </v>
    <v>       0.97258824       0.52113086       0.92782090 </v>
    <v>       0.97331907       0.69059012       0.92764179 </v>
    <v>       0.01628135       0.43585802       0.92068657 </v>
    <v>       0.01628392       0.77337037       0.91785075 </v>
    <v>       0.05718253       0.52244691       0.90397015 </v>
    <v>       0.05754474       0.69046296       0.90232836 </v>
    <v>       0.10013119       0.44175926       0.89755224 </v>
    <v>       0.10166702       0.77440370       0.89602985 </v>
    <v>       0.14496720       0.51987901       0.88853731 </v>
    <v>       0.14563708       0.69102716       0.88677612 </v>
    <v>       0.19033155       0.44038519       0.88298507 </v>
    <v>       0.18850553       0.77618642       0.88241791 </v>
    <v>       0.23395651       0.52366790       0.88065672 </v>
    <v>       0.23320250       0.69452840       0.87850746 </v>
    <v>       0.27966025       0.44555309       0.88116418 </v>
    <v>       0.27928378       0.77421358       0.87931343 </v>
    <v>       0.32413333       0.52268642       0.88402985 </v>
    <v>       0.32368627       0.69395185       0.88411940 </v>
    <v>       0.36734403       0.44209012       0.89364179 </v>
    <v>       0.36660963       0.77932840       0.89176119 </v>
    <v>       0.41149376       0.52670247       0.90116418 </v>
    <v>       0.41089483       0.69429383       0.89943284 </v>
    <v>       0.45130838       0.44228025       0.91617910 </v>
    <v>       0.45409982       0.77636543       0.91119403 </v>
    <v>       0.49321212       0.52042099       0.92871642 </v>
    <v>       0.49535472       0.69254198       0.92474627 </v>
    <v>       0.53236007       0.44542593       0.94874627 </v>
    <v>       0.53618895       0.77554074       0.93946269 </v>
    <v>       0.57608913       0.52755926       0.95800000 </v>
    <v>       0.57835651       0.69184815       0.95149254 </v>
    <v>       0.61885561       0.44360000       0.97068657 </v>
    <v>       0.62189305       0.77935062       0.95814925 </v>
    <v>       0.66222103       0.52626173       0.97626866 </v>
    <v>       0.66377184       0.69688765       0.96835821 </v>
    <v>       0.71372193       0.02710568       0.97301493 </v>
    <v>       0.71393939       0.19660988       0.98023881 </v>
    <v>       0.75549733       0.94318765       0.97110448 </v>
    <v>       0.75820321       0.27208765       0.97853731 </v>
    <v>       0.80159358       0.02222086       0.97391045 </v>
    <v>       0.80258824       0.19273951       0.97522388 </v>
    <v>       0.84648841       0.94069630       0.96626866 </v>
    <v>       0.84645989       0.27701235       0.97026866 </v>
    <v>       0.89083422       0.02200556       0.96062687 </v>
    <v>       0.89126203       0.19189259       0.96205970 </v>
    <v>       0.93325134       0.93697778       0.94934328 </v>
    <v>       0.93323708       0.27518889       0.95110448 </v>
    <v>       0.97684492       0.02040926       0.94238806 </v>
    <v>       0.97777184       0.19181358       0.94450746 </v>
    <v>       0.01735590       0.94066914       0.92453731 </v>
    <v>       0.01803561       0.27339630       0.92850746 </v>
    <v>       0.05947879       0.02529827       0.91202985 </v>
    <v>       0.06145811       0.19346420       0.91752239 </v>
    <v>       0.10149447       0.94342222       0.90068657 </v>
    <v>       0.10385241       0.27297407       0.90379104 </v>
    <v>       0.14581141       0.02178679       0.89573134 </v>
    <v>       0.14624706       0.19381111       0.89635821 </v>
    <v>       0.18912585       0.94273580       0.88635821 </v>
    <v>       0.18961390       0.27291852       0.88808955 </v>
    <v>       0.23450446       0.02545827       0.88313433 </v>
    <v>       0.23417184       0.19624691       0.88408955 </v>
    <v>       0.27765098       0.94298889       0.88271642 </v>
    <v>       0.27858681       0.27507284       0.88107463 </v>
    <v>       0.32140998       0.02325519       0.88913433 </v>
    <v>       0.32134403       0.19373704       0.88907463 </v>
    <v>       0.36575045       0.94347778       0.89510448 </v>
    <v>       0.36521569       0.27690494       0.89973134 </v>
    <v>       0.40854902       0.02947037       0.90659701 </v>
    <v>       0.40712299       0.19709259       0.91319403 </v>
    <v>       0.45147950       0.94382222       0.91501493 </v>
    <v>       0.44871301       0.27924074       0.92591045 </v>
    <v>       0.49278788       0.02646877       0.93020896 </v>
    <v>       0.49027094       0.19566543       0.93743284 </v>
    <v>       0.53474866       0.94284691       0.94152239 </v>
    <v>       0.53187879       0.27648519       0.95146269 </v>
    <v>       0.57737968       0.02623481       0.95185075 </v>
    <v>       0.57459180       0.19004938       0.96035821 </v>
    <v>       0.62036007       0.94598889       0.95889552 </v>
    <v>       0.61774332       0.27428642       0.97211940 </v>
    <v>       0.66205348       0.02275012       0.97191045 </v>
    <v>       0.66147594       0.19495432       0.97832836 </v>
   </varray>
  </structure>
  <varray name="primitive_index" >
   <v type="int" >        1 </v>
   <v type="int" >        2 </v>
   <v type="int" >        3 </v>
   <v type="int" >        4 </v>
   <v type="int" >        5 </v>
   <v type="int" >        6 </v>
   <v type="int" >        7 </v>
   <v type="int" >        8 </v>
   <v type="int" >        9 </v>
   <v type="int" >       10 </v>
   <v type="int" >       11 </v>
   <v type="int" >       12 </v>
   <v type="int" >       13 </v>
   <v type="int" >       14 </v>
   <v type="int" >       15 </v>
   <v type="int" >       16 </v>
   <v type="int" >       17 </v>
   <v type="int" >       18 </v>
   <v type="int" >       19 </v>
   <v type="int" >       20 </v>
   <v type="int" >       21 </v>
   <v type="int" >       22 </v>
   <v type="int" >       23 </v>
   <v type="int" >       24 </v>
   <v type="int" >       25 </v>
   <v type="int" >       26 </v>
   <v type="int" >       27 </v>
   <v type="int" >       28 </v>
   <v type="int" >       29 </v>
   <v type="int" >       30 </v>
   <v type="int" >       31 </v>
   <v type="int" >       32 </v>
   <v type="int" >       33 </v>
   <v type="int" >       34 </v>
   <v type="int" >       35 </v>
   <v type="int" >       36 </v>
   <v type="int" >       37 </v>
   <v type="int" >       38 </v>
   <v type="int" >       39 </v>
   <v type="int" >       40 </v>
   <v type="int" >       41 </v>
   <v type="int" >       42 </v>
   <v type="int" >       43 </v>
   <v type="int" >       44 </v>
   <v type="int" >       45 </v>
   <v type="int" >       46 </v>
   <v type="int" >       47 </v>
   <v type="int" >       48 </v>
   <v type="int" >       49 </v>
   <v type="int" >       50 </v>
   <v type="int" >       51 </v>
   <v type="int" >       52 </v>
   <v type="int" >       53 </v>
   <v type="int" >       54 </v>
   <v type="int" >       55 </v>
   <v type="int" >       56 </v>
   <v type="int" >       57 </v>
   <v type="int" >       58 </v>
   <v type="int" >       59 </v>
   <v type="int" >       60 </v>
   <v type="int" >       61 </v>
   <v type="int" >       62 </v>
   <v type="int" >       63 </v>
   <v type="int" >       64 </v>
   <v type="int" >       65 </v>
   <v type="int" >       66 </v>
   <v type="int" >       67 </v>
   <v type="int" >       68 </v>
   <v type="int" >       69 </v>
   <v type="int" >       70 </v>
   <v type="int" >       71 </v>
   <v type="int" >       72 </v>
   <v type="int" >       73 </v>
   <v type="int" >       74 </v>
   <v type="int" >       75 </v>
   <v type="int" >       76 </v>
   <v type="int" >       77 </v>
   <v type="int" >       78 </v>
   <v type="int" >       79 </v>
   <v type="int" >       80 </v>
   <v type="int" >       81 </v>
   <v type="int" >       82 </v>
   <v type="int" >       83 </v>
   <v type="int" >       84 </v>
   <v type="int" >       85 </v>
   <v type="int" >       86 </v>
   <v type="int" >       87 </v>
   <v type="int" >       88 </v>
   <v type="int" >       89 </v>
   <v type="int" >       90 </v>
   <v type="int" >       91 </v>
   <v type="int" >       92 </v>
  </varray>
 </primitive_cell>
 <kpoints>
  <generation param="Gamma">
   <v type="int" name="divisions">       1        4        1 </v>
   <v name="usershift">      0.00000000       0.00000000       0.00000000 </v>
   <v name="genvec1">      1.00000000       0.00000000       0.00000000 </v>
   <v name="genvec2">      0.00000000       0.25000000       0.00000000 </v>
   <v name="genvec3">      0.00000000       0.00000000       1.00000000 </v>
   <v name="shift">      0.00000000       0.00000000       0.00000000 </v>
  </generation>
  <varray name="kpointlist" >
   <v>       0.00000000       0.00000000       0.00000000 </v>
   <v>       0.00000000       0.25000000       0.00000000 </v>
   <v>       0.00000000       0.50000000       0.00000000 </v>
  </varray>
  <varray name="weights" >
   <v>       0.25000000 </v>
   <v>       0.50000000 </v>
   <v>       0.25000000 </v>
  </varray>
 </kpoints>
 <parameters>
  <separator name="general" >
   <i type="string" name="SYSTEM">unknown system</i>
   <i type="logical" name="LCOMPAT"> F  </i>
  </separator>
  <separator name="electronic" >
   <i type="string" name="PREC">accura</i>
   <i name="ENMAX">    500.00000000</i>
   <i name="ENAUG">    644.87300000</i>
   <i name="EDIFF">      0.00000100</i>
   <i type="int" name="IALGO">    38</i>
   <i type="int" name="IWAVPR">    10</i>
   <i type="int" name="NBANDS">   232</i>
   <i type="int" name="NBANDSLOW">    -1</i>
   <i type="int" name="NBANDSHIGH">    -1</i>
   <i name="NELECT">    368.00000000</i>
   <i type="int" name="TURBO">     0</i>
   <i type="int" name="IRESTART">     0</i>
   <i type="int" name="NREBOOT">     0</i>
   <i type="int" name="NMIN">     0</i>
   <i name="EREF">      0.00000000</i>
   <separator name="electronic smearing" >
    <i type="int" name="ISMEAR">     0</i>
    <i name="SIGMA">      0.20000000</i>
    <i name="KSPACING">      0.50000000</i>
    <i type="logical" name="KGAMMA"> T  </i>
    <i type="logical" name="KBLOWUP"> T  </i>
   </separator>
   <separator name="electronic projectors" >
    <i type="logical" name="LREAL"> T  </i>
    <v name="ROPT">     -0.00025000</v>
    <i type="int" name="LMAXPAW">  -100</i>
    <i type="int" name="LMAXMIX">     2</i>
    <i type="logical" name="NLSPLINE"> F  </i>
   </separator>
   <separator name="electronic startup" >
    <i type="int" name="ISTART">     0</i>
    <i type="int" name="ICHARG">     2</i>
    <i type="int" name="INIWAV">     1</i>
   </separator>
   <separator name="electronic spin" >
    <i type="int" name="ISPIN">     1</i>
    <i type="logical" name="LNONCOLLINEAR"> F  </i>
    <v name="MAGMOM">      1.00000000      1.00000000      1.00000000      1.00000000      1.00000000      1.00000000      1.00000000      1.00000000      1.00000000      1.00000000      1.00000000      1.00000000      1.00000000      1.00000000      1.00000000      1.00000000      1.00000000      1.00000000      1.00000000      1.00000000
      1.00000000      1.00000000      1.00000000      1.00000000      1.00000000      1.00000000      1.00000000      1.00000000      1.00000000      1.00000000      1.00000000      1.00000000      1.00000000      1.00000000      1.00000000      1.00000000      1.00000000      1.00000000      1.00000000      1.00000000
      1.00000000      1.00000000      1.00000000      1.00000000      1.00000000      1.00000000      1.00000000      1.00000000      1.00000000      1.00000000      1.00000000      1.00000000      1.00000000      1.00000000      1.00000000      1.00000000      1.00000000      1.00000000      1.00000000      1.00000000
      1.00000000      1.00000000      1.00000000      1.00000000      1.00000000      1.00000000      1.00000000      1.00000000      1.00000000      1.00000000      1.00000000      1.00000000      1.00000000      1.00000000      1.00000000      1.00000000      1.00000000      1.00000000      1.00000000      1.00000000
      1.00000000      1.00000000      1.00000000      1.00000000      1.00000000      1.00000000      1.00000000      1.00000000      1.00000000      1.00000000      1.00000000      1.00000000</v>
    <i name="NUPDOWN">     -1.00000000</i>
    <i type="logical" name="LSORBIT"> F  </i>
    <v name="SAXIS">      0.00000000      0.00000000      1.00000000</v>
    <i type="logical" name="LSPIRAL"> F  </i>
    <v name="QSPIRAL">      0.00000000      0.00000000      0.00000000</v>
    <i type="logical" name="LZEROZ"> F  </i>
   </separator>
   <separator name="electronic exchange-correlation" >
    <i type="logical" name="LASPH"> F  </i>
   </separator>
   <separator name="electronic convergence" >
    <i type="int" name="NELM">   150</i>
    <i type="int" name="NELMDL">    -5</i>
    <i type="int" name="NELMIN">     2</i>
    <i name="ENINI">    500.00000000</i>
    <separator name="electronic convergence detail" >
     <i type="logical" name="LDIAG"> T  </i>
     <i type="logical" name="LSUBROT"> F  </i>
     <i name="WEIMIN">      0.00000000</i>
     <i name="EBREAK">      0.00000000</i>
     <i name="DEPER">      0.30000000</i>
     <i type="int" name="NRMM">     4</i>
     <i name="TIME">      0.40000000</i>
    </separator>
   </separator>
   <separator name="electronic mixer" >
    <i name="AMIX">      0.40000000</i>
    <i name="BMIX">      1.00000000</i>
    <i name="AMIN">      0.10000000</i>
    <i name="AMIX_MAG">      1.60000000</i>
    <i name="BMIX_MAG">      1.00000000</i>
    <separator name="electronic mixer details" >
     <i type="int" name="IMIX">     4</i>
     <i type="logical" name="MIXFIRST"> F  </i>
     <i type="int" name="MAXMIX">   -45</i>
     <i name="WC">    100.00000000</i>
     <i type="int" name="INIMIX">     1</i>
     <i type="int" name="MIXPRE">     1</i>
     <i type="int" name="MREMOVE">     5</i>
    </separator>
   </separator>
   <separator name="electronic dipolcorrection" >
    <i type="logical" name="LDIPOL"> F  </i>
    <i type="logical" name="LMONO"> F  </i>
    <i type="int" name="IDIPOL">     0</i>
    <i name="EPSILON">      1.00000000</i>
    <v name="DIPOL">   -100.00000000   -100.00000000   -100.00000000</v>
    <i name="EFIELD">      0.00000000</i>
    <i type="logical" name="LVACPOTAV"> F  </i>
   </separator>
  </separator>
  <separator name="grids" >
   <i type="int" name="NGX">   210</i>
   <i type="int" name="NGY">    60</i>
   <i type="int" name="NGZ">   250</i>
   <i type="int" name="NGXF">   420</i>
   <i type="int" name="NGYF">   120</i>
   <i type="int" name="NGZF">   500</i>
   <i type="logical" name="ADDGRID"> F  </i>
  </separator>
  <separator name="ionic" >
   <i type="int" name="NSW">     0</i>
   <i type="int" name="IBRION">    -1</i>
   <i type="int" name="MDALGO">     0</i>
   <i type="int" name="ISIF">     2</i>
   <i name="PSTRESS">      0.00000000</i>
   <i name="EDIFFG">      0.00001000</i>
   <i type="int" name="NFREE">     0</i>
   <i name="POTIM">      0.50000000</i>
   <i name="SMASS">     -3.00000000</i>
   <i name="SCALEE">      1.00000000</i>
  </separator>
  <separator name="ionic md" >
   <i name="TEBEG">      0.00010000</i>
   <i name="TEEND">      0.00010000</i>
   <i type="int" name="NBLOCK">     1</i>
   <i type="int" name="KBLOCK">     1</i>
   <i type="int" name="NPACO">   256</i>
   <i name="APACO">     10.00000000</i>
  </separator>
  <separator name="symmetry" >
   <i type="int" name="ISYM">     2</i>
   <i name="SYMPREC">      0.00001000</i>
  </separator>
  <separator name="dos" >
   <i type="int" name="LORBIT">     0</i>
   <v name="RWIGS">     -1.00000000</v>
   <i type="int" name="NEDOS">   301</i>
   <i name="EMIN">     10.00000000</i>
   <i name="EMAX">    -10.00000000</i>
   <i name="EFERMI">      0.00000000</i>
  </separator>
  <separator name="writing" >
   <i type="int" name="NWRITE">     2</i>
   <i type="logical" name="LWAVE"> F  </i>
   <i type="logical" name="LDOWNSAMPLE"> F  </i>
   <i type="logical" name="LCHARG"> F  </i>
   <i type="logical" name="LPARD"> F  </i>
   <i type="logical" name="LVTOT"> F  </i>
   <i type="logical" name="LVHAR"> F  </i>
   <i type="logical" name="LELF"> F  </i>
   <i type="logical" name="LOPTICS"> F  </i>
   <v name="STM">      0.00000000      0.00000000      0.00000000      0.00000000      0.00000000      0.00000000      0.00000000</v>
  </separator>
  <separator name="performance" >
   <i type="int" name="NPAR">     2</i>
   <i type="int" name="NSIM">     4</i>
   <i type="int" name="NBLK">    -1</i>
   <i type="logical" name="LPLANE"> T  </i>
   <i type="logical" name="LSCALAPACK"> T  </i>
   <i type="logical" name="LSCAAWARE"> F  </i>
   <i type="logical" name="LSCALU"> F  </i>
   <i type="logical" name="LASYNC"> F  </i>
   <i type="logical" name="LORBITALREAL"> F  </i>
  </separator>
  <separator name="miscellaneous" >
   <i type="int" name="IDIOT">     3</i>
   <i type="int" name="PHON_NSTRUCT">    -1</i>
   <i type="logical" name="LMUSIC"> F  </i>
   <v name="POMASS">     12.01100000</v>
   <v name="DARWINR">      0.00000000</v>
   <v name="DARWINV">      1.00000000</v>
   <i type="logical" name="LCORR"> T  </i>
  </separator>
  <i type="logical" name="GGA_COMPAT"> T  </i>
  <i type="logical" name="LBERRY"> F  </i>
  <i type="int" name="ICORELEVEL">     0</i>
  <i type="logical" name="LDAU"> F  </i>
  <i type="int" name="I_CONSTRAINED_M">     0</i>
  <separator name="electronic exchange-correlation" >
   <i type="string" name="GGA    ">PE</i>
   <i type="string" name="XC_C">1</i>
   <i type="int" name="VOSKOWN">     0</i>
   <i type="logical" name="LHFCALC"> F  </i>
   <i type="string" name="PRECFOCK"></i>
   <i type="logical" name="LSYMGRAD"> F  </i>
   <i type="logical" name="LHFONE"> F  </i>
   <i type="logical" name="LRHFCALC"> F  </i>
   <i type="logical" name="LTHOMAS"> F  </i>
   <i type="logical" name="LMODELHF"> F  </i>
   <i type="logical" name="LFOCKACE"> F  </i>
   <i name="ENCUT4O">     -1.00000000</i>
   <i type="int" name="EXXOEP">     0</i>
   <i type="int" name="FOURORBIT">     0</i>
   <i name="AEXX">      0.00000000</i>
   <i name="HFALPHA">      0.00000000</i>
   <i name="MCALPHA">      0.00000000</i>
   <i name="ALDAX">      1.00000000</i>
   <i name="AGGAX">      1.00000000</i>
   <i name="AMGGAX">      1.00000000</i>
   <i name="ALDAC">      1.00000000</i>
   <i name="AGGAC">      1.00000000</i>
   <i name="AMGGAC">      1.00000000</i>
   <i type="int" name="NKREDX">     1</i>
   <i type="int" name="NKREDY">     1</i>
   <i type="int" name="NKREDZ">     1</i>
   <i type="logical" name="SHIFTRED"> F  </i>
   <i type="logical" name="ODDONLY"> F  </i>
   <i type="logical" name="EVENONLY"> F  </i>
   <i type="int" name="LMAXFOCK">     0</i>
   <i type="int" name="NMAXFOCKAE">     0</i>
   <i type="logical" name="LFOCKAEDFT"> F  </i>
   <i name="HFSCREEN">      0.00000000</i>
   <i name="HFSCREENC">      0.00000000</i>
   <i type="int" name="NBANDSGWLOW">     0</i>
  </separator>
  <separator name="vdW DFT" >
   <i type="logical" name="LUSE_VDW"> F  </i>
   <i type="int" name="IVDW_NL">    -1</i>
   <i type="logical" name="LSPIN_VDW"> F  </i>
   <i name="ZAB_VDW">     -0.84910000</i>
   <i name="GAMMA_VDW">      1.39626340</i>
   <i name="ALPHA_VDW">      0.00000000</i>
   <i name="PARAM1">      0.12340000</i>
   <i name="PARAM2">      1.00000000</i>
   <i name="BPARAM">      6.30000000</i>
   <i name="CPARAM">      0.00930000</i>
  </separator>
  <separator name="model GW" >
   <i type="int" name="MODEL_GW">     0</i>
   <i name="MODEL_EPS0">     49.63935326</i>
   <i name="MODEL_ALPHA">      1.00000000</i>
  </separator>
  <separator name="linear response parameters" >
   <i type="logical" name="LEPSILON"> F  </i>
   <i type="logical" name="LRPA"> F  </i>
   <i type="logical" name="LNABLA"> F  </i>
   <i type="logical" name="LVEL"> F  </i>
   <i name="CSHIFT">      0.10000000</i>
   <i name="OMEGAMAX">     -1.00000000</i>
   <i name="DEG_THRESHOLD">      0.00200000</i>
   <i name="RTIME">     -0.10000000</i>
   <i name="WPLASMAI">      0.00000000</i>
   <v name="DFIELD">      0.00000000      0.00000000      0.00000000</v>
   <v name="WPLASMA">      0.00000000      0.00000000      0.00000000      0.00000000      0.00000000      0.00000000      0.00000000      0.00000000      0.00000000</v>
  </separator>
  <separator name="orbital magnetization" >
   <i type="logical" name="NUCIND"> F  </i>
   <v name="MAGPOS">      0.00000000      0.00000000      0.00000000</v>
   <i type="logical" name="LNICSALL"> T  </i>
   <i type="logical" name="ORBITALMAG"> F  </i>
   <i type="logical" name="LMAGBLOCH"> F  </i>
   <i type="logical" name="LCHIMAG"> F  </i>
   <i type="logical" name="LGAUGE"> T  </i>
   <i type="int" name="MAGATOM">     0</i>
   <v name="MAGDIPOL">      0.00000000      0.00000000      0.00000000</v>
   <v name="AVECCONST">      0.00000000      0.00000000      0.00000000</v>
  </separator>
  <separator name="response functions" >
   <i type="logical" name="LALL_IN_ONE"> F  </i>
   <i type="int" name="IALL_IN_ONE">    -1</i>
   <i type="int" name="NBANDS_WAVE">    -1</i>
   <i type="logical" name="LFINITE_TEMPERATURE"> F  </i>
   <i type="logical" name="LADDER"> F  </i>
   <i type="logical" name="LRPAFORCE"> F  </i>
   <i type="logical" name="LFXC"> F  </i>
   <i type="logical" name="LHARTREE"> T  </i>
   <i type="int" name="IBSE">     2</i>
   <v type="int" name="KPOINT">    -1     0     0     0</v>
   <i type="logical" name="LTCTC"> F  </i>
   <i type="logical" name="LTCTE"> F  </i>
   <i type="logical" name="LTETE"> F  </i>
   <i type="logical" name="LTRIPLET"> F  </i>
   <i type="logical" name="LFXCEPS"> F  </i>
   <i type="logical" name="LFXHEG"> F  </i>
   <i type="int" name="NATURALO">     2</i>
   <i type="logical" name="LHOLEGF"> F  </i>
   <i type="logical" name="L2ORDER"> F  </i>
   <i type="logical" name="LDMP1"> F  </i>
   <i type="logical" name="LMP2LT"> F  </i>
   <i type="logical" name="LSMP2LT"> F  </i>
   <i type="logical" name="LGWLF"> F  </i>
   <i name="ENCUTGW">     -1.60000002</i>
   <i name="ENCUTGWSOFT">     -1.60000002</i>
   <i name="ENCUTLF">     -1.00000000</i>
   <i type="logical" name="ESF_SPLINES"> F  </i>
   <i name="ESF_CONV">      0.01000000</i>
   <i type="int" name="ESF_NINTER">    15</i>
   <i type="int" name="LMAXMP2">    -1</i>
   <i name="SCISSOR">      0.00000000</i>
   <i type="int" name="NOMEGA">     0</i>
   <i type="int" name="NOMEGAR">     0</i>
   <i type="int" name="NBANDSGW">    -1</i>
   <i type="int" name="NBANDSO">    -1</i>
   <i type="int" name="NBANDSV">    -1</i>
   <i type="int" name="NELMGW">     1</i>
   <i type="int" name="NELMHF">     1</i>
   <i type="int" name="DIM">     3</i>
   <i type="int" name="IESPILON">     4</i>
   <i type="int" name="ANTIRES">     0</i>
   <i name="OMEGAMAX">    -30.00000000</i>
   <i name="OMEGAMIN">    -30.00000000</i>
   <i name="OMEGATL">   -200.00000000</i>
   <i type="int" name="OMEGAGRID">     0</i>
   <i name="CSHIFT">     -0.10000000</i>
   <i type="logical" name="LSELFENERGY"> F  </i>
   <i type="logical" name="LSPECTRAL"> F  </i>
   <i type="logical" name="LSPECTRALGW"> F  </i>
   <i type="logical" name="LSINGLES"> F  </i>
   <i type="logical" name="LFERMIGW"> F  </i>
   <i type="logical" name="ODDONLYGW"> F  </i>
   <i type="logical" name="EVENONLYGW"> F  </i>
   <i type="int" name="NKREDLFX">     1</i>
   <i type="int" name="NKREDLFY">     1</i>
   <i type="int" name="NKREDLFZ">     1</i>
   <i type="int" name="MAXMEM">  2800</i>
   <i type="int" name="TELESCOPE">     0</i>
   <i type="int" name="NTAUPAR">    -1</i>
   <i type="int" name="NOMEGAPAR">    -1</i>
   <i name="DAMP_NEWTON">      0.80000001</i>
   <i name="LAMBDA">      1.00000000</i>
  </separator>
  <separator name="External order field" >
   <i name="OFIELD_KAPPA">      0.00000000</i>
   <v name="OFIELD_K">      0.00000000      0.00000000      0.00000000</v>
   <i name="OFIELD_Q6_NEAR">      0.00000000</i>
   <i name="OFIELD_Q6_FAR">      0.00000000</i>
   <i name="OFIELD_A">      0.00000000</i>
  </separator>
  <separator name="optional k-points parameters" >
   <i type="int" name="KPOINTS_OPT_MODE">     1</i>
   <i type="logical" name="LKPOINTS_OPT"> F  </i>
  </separator>
 </parameters>
 <atominfo>
  <atoms>      92 </atoms>
  <types>       1 </types>
  <array name="atoms" >
   <dimension dim="1">ion</dimension>
   <field type="string">element</field>
   <field type="int">atomtype</field>
   <set>
    <rc><c>C </c><c>   1</c></rc>
    <rc><c>C </c><c>   1</c></rc>
    <rc><c>C </c><c>   1</c></rc>
    <rc><c>C </c><c>   1</c></rc>
    <rc><c>C </c><c>   1</c></rc>
    <rc><c>C </c><c>   1</c></rc>
    <rc><c>C </c><c>   1</c></rc>
    <rc><c>C </c><c>   1</c></rc>
    <rc><c>C </c><c>   1</c></rc>
    <rc><c>C </c><c>   1</c></rc>
    <rc><c>C </c><c>   1</c></rc>
    <rc><c>C </c><c>   1</c></rc>
    <rc><c>C </c><c>   1</c></rc>
    <rc><c>C </c><c>   1</c></rc>
    <rc><c>C </c><c>   1</c></rc>
    <rc><c>C </c><c>   1</c></rc>
    <rc><c>C </c><c>   1</c></rc>
    <rc><c>C </c><c>   1</c></rc>
    <rc><c>C </c><c>   1</c></rc>
    <rc><c>C </c><c>   1</c></rc>
    <rc><c>C </c><c>   1</c></rc>
    <rc><c>C </c><c>   1</c></rc>
    <rc><c>C </c><c>   1</c></rc>
    <rc><c>C </c><c>   1</c></rc>
    <rc><c>C </c><c>   1</c></rc>
    <rc><c>C </c><c>   1</c></rc>
    <rc><c>C </c><c>   1</c></rc>
    <rc><c>C </c><c>   1</c></rc>
    <rc><c>C </c><c>   1</c></rc>
    <rc><c>C </c><c>   1</c></rc>
    <rc><c>C </c><c>   1</c></rc>
    <rc><c>C </c><c>   1</c></rc>
    <rc><c>C </c><c>   1</c></rc>
    <rc><c>C </c><c>   1</c></rc>
    <rc><c>C </c><c>   1</c></rc>
    <rc><c>C </c><c>   1</c></rc>
    <rc><c>C </c><c>   1</c></rc>
    <rc><c>C </c><c>   1</c></rc>
    <rc><c>C </c><c>   1</c></rc>
    <rc><c>C </c><c>   1</c></rc>
    <rc><c>C </c><c>   1</c></rc>
    <rc><c>C </c><c>   1</c></rc>
    <rc><c>C </c><c>   1</c></rc>
    <rc><c>C </c><c>   1</c></rc>
    <rc><c>C </c><c>   1</c></rc>
    <rc><c>C </c><c>   1</c></rc>
    <rc><c>C </c><c>   1</c></rc>
    <rc><c>C </c><c>   1</c></rc>
    <rc><c>C </c><c>   1</c></rc>
    <rc><c>C </c><c>   1</c></rc>
    <rc><c>C </c><c>   1</c></rc>
    <rc><c>C </c><c>   1</c></rc>
    <rc><c>C </c><c>   1</c></rc>
    <rc><c>C </c><c>   1</c></rc>
    <rc><c>C </c><c>   1</c></rc>
    <rc><c>C </c><c>   1</c></rc>
    <rc><c>C </c><c>   1</c></rc>
    <rc><c>C </c><c>   1</c></rc>
    <rc><c>C </c><c>   1</c></rc>
    <rc><c>C </c><c>   1</c></rc>
    <rc><c>C </c><c>   1</c></rc>
    <rc><c>C </c><c>   1</c></rc>
    <rc><c>C </c><c>   1</c></rc>
    <rc><c>C </c><c>   1</c></rc>
    <rc><c>C </c><c>   1</c></rc>
    <rc><c>C </c><c>   1</c></rc>
    <rc><c>C </c><c>   1</c></rc>
    <rc><c>C </c><c>   1</c></rc>
    <rc><c>C </c><c>   1</c></rc>
    <rc><c>C </c><c>   1</c></rc>
    <rc><c>C </c><c>   1</c></rc>
    <rc><c>C </c><c>   1</c></rc>
    <rc><c>C </c><c>   1</c></rc>
    <rc><c>C </c><c>   1</c></rc>
    <rc><c>C </c><c>   1</c></rc>
    <rc><c>C </c><c>   1</c></rc>
    <rc><c>C </c><c>   1</c></rc>
    <rc><c>C </c><c>   1</c></rc>
    <rc><c>C </c><c>   1</c></rc>
    <rc><c>C </c><c>   1</c></rc>
    <rc><c>C </c><c>   1</c></rc>
    <rc><c>C </c><c>   1</c></rc>
    <rc><c>C </c><c>   1</c></rc>
    <rc><c>C </c><c>   1</c></rc>
    <rc><c>C </c><c>   1</c></rc>
    <rc><c>C </c><c>   1</c></rc>
    <rc><c>C </c><c>   1</c></rc>
    <rc><c>C </c><c>   1</c></rc>
    <rc><c>C </c><c>   1</c></rc>
    <rc><c>C </c><c>   1</c></rc>
    <rc><c>C </c><c>   1</c></rc>
    <rc><c>C </c><c>   1</c></rc>
   </set>
  </array>
  <array name="atomtypes" >
   <dimension dim="1">type</dimension>
   <field type="int">atomspertype</field>
   <field type="string">element</field>
   <field>mass</field>
   <field>valence</field>
   <field type="string">pseudopotential</field>
   <set>
    <rc><c>  92</c><c>C </c><c>     12.01100000</c><c>      4.00000000</c><c>  PAW_PBE C 08Apr2002                   </c></rc>
   </set>
  </array>
 </atominfo>
 <structure name="initialpos" >
  <crystal>
   <varray name="basis" >
    <v>      28.05000000       0.00000000       0.00000000 </v>
    <v>       0.00000000       8.10000000       0.00000000 </v>
    <v>       0.00000000       0.00000000      33.50000000 </v>
   </varray>
   <i name="volume">   7611.36750000 </i>
   <varray name="rec_basis" >
    <v>       0.03565062       0.00000000       0.00000000 </v>
    <v>       0.00000000       0.12345679       0.00000000 </v>
    <v>       0.00000000       0.00000000       0.02985075 </v>
   </varray>
  </crystal>
  <varray name="positions" >
   <v>       0.71477718       0.52186790       0.97450746 </v>
   <v>       0.71411765       0.68540988       0.96540299 </v>
   <v>       0.75713369       0.44159383       0.97376119 </v>
   <v>       0.75609982       0.77517284       0.96382090 </v>
   <v>       0.80077362       0.52284568       0.96373134 </v>
   <v>       0.80053832       0.69253827       0.95910448 </v>
   <v>       0.84562923       0.44226914       0.96373134 </v>
   <v>       0.84460963       0.77548889       0.95674627 </v>
   <v>       0.88748663       0.52214444       0.95152239 </v>
   <v>       0.88680927       0.69014691       0.94946269 </v>
   <v>       0.93089483       0.44180000       0.94328358 </v>
   <v>       0.93058111       0.77065432       0.94200000 </v>
   <v>       0.97258824       0.52113086       0.92782090 </v>
   <v>       0.97331907       0.69059012       0.92764179 </v>
   <v>       0.01628135       0.43585802       0.92068657 </v>
   <v>       0.01628392       0.77337037       0.91785075 </v>
   <v>       0.05718253       0.52244691       0.90397015 </v>
   <v>       0.05754474       0.69046296       0.90232836 </v>
   <v>       0.10013119       0.44175926       0.89755224 </v>
   <v>       0.10166702       0.77440370       0.89602985 </v>
   <v>       0.14496720       0.51987901       0.88853731 </v>
   <v>       0.14563708       0.69102716       0.88677612 </v>
   <v>       0.19033155       0.44038519       0.88298507 </v>
   <v>       0.18850553       0.77618642       0.88241791 </v>
   <v>       0.23395651       0.52366790       0.88065672 </v>
   <v>       0.23320250       0.69452840       0.87850746 </v>
   <v>       0.27966025       0.44555309       0.88116418 </v>
   <v>       0.27928378       0.77421358       0.87931343 </v>
   <v>       0.32413333       0.52268642       0.88402985 </v>
   <v>       0.32368627       0.69395185       0.88411940 </v>
   <v>       0.36734403       0.44209012       0.89364179 </v>
   <v>       0.36660963       0.77932840       0.89176119 </v>
   <v>       0.41149376       0.52670247       0.90116418 </v>
   <v>       0.41089483       0.69429383       0.89943284 </v>
   <v>       0.45130838       0.44228025       0.91617910 </v>
   <v>       0.45409982       0.77636543       0.91119403 </v>
   <v>       0.49321212       0.52042099       0.92871642 </v>
   <v>       0.49535472       0.69254198       0.92474627 </v>
   <v>       0.53236007       0.44542593       0.94874627 </v>
   <v>       0.53618895       0.77554074       0.93946269 </v>
   <v>       0.57608913       0.52755926       0.95800000 </v>
   <v>       0.57835651       0.69184815       0.95149254 </v>
   <v>       0.61885561       0.44360000       0.97068657 </v>
   <v>       0.62189305       0.77935062       0.95814925 </v>
   <v>       0.66222103       0.52626173       0.97626866 </v>
   <v>       0.66377184       0.69688765       0.96835821 </v>
   <v>       0.71372193       0.02710568       0.97301493 </v>
   <v>       0.71393939       0.19660988       0.98023881 </v>
   <v>       0.75549733       0.94318765       0.97110448 </v>
   <v>       0.75820321       0.27208765       0.97853731 </v>
   <v>       0.80159358       0.02222086       0.97391045 </v>
   <v>       0.80258824       0.19273951       0.97522388 </v>
   <v>       0.84648841       0.94069630       0.96626866 </v>
   <v>       0.84645989       0.27701235       0.97026866 </v>
   <v>       0.89083422       0.02200556       0.96062687 </v>
   <v>       0.89126203       0.19189259       0.96205970 </v>
   <v>       0.93325134       0.93697778       0.94934328 </v>
   <v>       0.93323708       0.27518889       0.95110448 </v>
   <v>       0.97684492       0.02040926       0.94238806 </v>
   <v>       0.97777184       0.19181358       0.94450746 </v>
   <v>       0.01735590       0.94066914       0.92453731 </v>
   <v>       0.01803561       0.27339630       0.92850746 </v>
   <v>       0.05947879       0.02529827       0.91202985 </v>
   <v>       0.06145811       0.19346420       0.91752239 </v>
   <v>       0.10149447       0.94342222       0.90068657 </v>
   <v>       0.10385241       0.27297407       0.90379104 </v>
   <v>       0.14581141       0.02178679       0.89573134 </v>
   <v>       0.14624706       0.19381111       0.89635821 </v>
   <v>       0.18912585       0.94273580       0.88635821 </v>
   <v>       0.18961390       0.27291852       0.88808955 </v>
   <v>       0.23450446       0.02545827       0.88313433 </v>
   <v>       0.23417184       0.19624691       0.88408955 </v>
   <v>       0.27765098       0.94298889       0.88271642 </v>
   <v>       0.27858681       0.27507284       0.88107463 </v>
   <v>       0.32140998       0.02325519       0.88913433 </v>
   <v>       0.32134403       0.19373704       0.88907463 </v>
   <v>       0.36575045       0.94347778       0.89510448 </v>
   <v>       0.36521569       0.27690494       0.89973134 </v>
   <v>       0.40854902       0.02947037       0.90659701 </v>
   <v>       0.40712299       0.19709259       0.91319403 </v>
   <v>       0.45147950       0.94382222       0.91501493 </v>
   <v>       0.44871301       0.27924074       0.92591045 </v>
   <v>       0.49278788       0.02646877       0.93020896 </v>
   <v>       0.49027094       0.19566543       0.93743284 </v>
   <v>       0.53474866       0.94284691       0.94152239 </v>
   <v>       0.53187879       0.27648519       0.95146269 </v>
   <v>       0.57737968       0.02623481       0.95185075 </v>
   <v>       0.57459180       0.19004938       0.96035821 </v>
   <v>       0.62036007       0.94598889       0.95889552 </v>
   <v>       0.61774332       0.27428642       0.97211940 </v>
   <v>       0.66205348       0.02275012       0.97191045 </v>
   <v>       0.66147594       0.19495432       0.97832836 </v>
  </varray>
 </structure>
 <calculation>
  <scstep>
   <time name="dav">   10.95   10.95</time>
   <time name="total">   11.42   11.45</time>
   <energy>
    <i name="alphaZ">     91.34886789 </i>
    <i name="ewald"> 119788.05521783 </i>
    <i name="hartreedc">-129105.69533358 </i>
    <i name="XCdc">   1222.05394932 </i>
    <i name="pawpsdc">   9984.02826696 </i>
    <i name="pawaedc"> -10036.41360137 </i>
    <i name="eentropy">     -0.80036009 </i>
    <i name="bandstr">  -1801.37132853 </i>
    <i name="atom">  13537.65479391 </i>
    <i name="e_fr_energy">   3678.86047234 </i>
    <i name="e_wo_entrp">   3679.66083243 </i>
    <i name="e_0_energy">   3679.26065239 </i>
   </energy>
  </scstep>
  <scstep>
   <time name="dav">   13.11   13.11</time>
   <time name="total">   13.11   13.11</time>
   <energy>
    <i name="e_fr_energy">    171.38475870 </i>
    <i name="e_wo_entrp">    171.58614688 </i>
    <i name="e_0_energy">    171.48545279 </i>
   </energy>
  </scstep>
  <scstep>
   <time name="dav">   11.27   11.27</time>
   <time name="total">   11.27   11.27</time>
   <energy>
    <i name="e_fr_energy">   -838.40180930 </i>
    <i name="e_wo_entrp">   -838.35657269 </i>
    <i name="e_0_energy">   -838.37919099 </i>
   </energy>
  </scstep>
  <scstep>
   <time name="dav">   10.94   10.94</time>
   <time name="total">   10.94   10.94</time>
   <energy>
    <i name="e_fr_energy">   -898.58667416 </i>
    <i name="e_wo_entrp">   -898.52662496 </i>
    <i name="e_0_energy">   -898.55664956 </i>
   </energy>
  </scstep>
  <scstep>
   <time name="dav">   11.16   11.16</time>
   <time name="total">   12.64   12.65</time>
   <energy>
    <i name="e_fr_energy">   -900.01136158 </i>
    <i name="e_wo_entrp">   -899.95070388 </i>
    <i name="e_0_energy">   -899.98103273 </i>
   </energy>
  </scstep>
  <scstep>
   <time name="dav">   10.26   10.27</time>
   <time name="total">   12.06   12.07</time>
   <energy>
    <i name="e_fr_energy">   -850.21238705 </i>
    <i name="e_wo_entrp">   -850.14760733 </i>
    <i name="e_0_energy">   -850.17999719 </i>
   </energy>
  </scstep>
  <scstep>
   <time name="dav">   10.14   10.14</time>
   <time name="total">   11.94   11.94</time>
   <energy>
    <i name="e_fr_energy">   -831.56618496 </i>
    <i name="e_wo_entrp">   -831.49440156 </i>
    <i name="e_0_energy">   -831.53029326 </i>
   </energy>
  </scstep>
  <scstep>
   <time name="dav">   10.36   10.36</time>
   <time name="total">   12.15   12.16</time>
   <energy>
    <i name="e_fr_energy">   -831.26504817 </i>
    <i name="e_wo_entrp">   -831.19616739 </i>
    <i name="e_0_energy">   -831.23060778 </i>
   </energy>
  </scstep>
  <scstep>
   <time name="dav">   10.57   10.57</time>
   <time name="total">   12.37   12.38</time>
   <energy>
    <i name="e_fr_energy">   -831.16061120 </i>
    <i name="e_wo_entrp">   -831.09136728 </i>
    <i name="e_0_energy">   -831.12598924 </i>
   </energy>
  </scstep>
  <scstep>
   <time name="dav">   10.96   10.97</time>
   <time name="total">   12.77   12.78</time>
   <energy>
    <i name="e_fr_energy">   -831.11692339 </i>
    <i name="e_wo_entrp">   -831.04757851 </i>
    <i name="e_0_energy">   -831.08225095 </i>
   </energy>
  </scstep>
  <scstep>
   <time name="dav">   10.25   10.25</time>
   <time name="total">   12.07   12.08</time>
   <energy>
    <i name="e_fr_energy">   -831.08756018 </i>
    <i name="e_wo_entrp">   -831.01813114 </i>
    <i name="e_0_energy">   -831.05284566 </i>
   </energy>
  </scstep>
  <scstep>
   <time name="dav">   10.04   10.04</time>
   <time name="total">   11.86   11.87</time>
   <energy>
    <i name="e_fr_energy">   -831.08513647 </i>
    <i name="e_wo_entrp">   -831.01565808 </i>
    <i name="e_0_energy">   -831.05039727 </i>
   </energy>
  </scstep>
  <scstep>
   <time name="dav">   10.12   10.12</time>
   <time name="total">   11.95   11.95</time>
   <energy>
    <i name="e_fr_energy">   -831.09665597 </i>
    <i name="e_wo_entrp">   -831.02724488 </i>
    <i name="e_0_energy">   -831.06195042 </i>
   </energy>
  </scstep>
  <scstep>
   <time name="dav">   10.28   10.28</time>
   <time name="total">   12.11   12.12</time>
   <energy>
    <i name="e_fr_energy">   -831.11571692 </i>
    <i name="e_wo_entrp">   -831.04629345 </i>
    <i name="e_0_energy">   -831.08100519 </i>
   </energy>
  </scstep>
  <scstep>
   <time name="dav">   10.21   10.21</time>
   <time name="total">   12.05   12.06</time>
   <energy>
    <i name="e_fr_energy">   -831.13614960 </i>
    <i name="e_wo_entrp">   -831.06668885 </i>
    <i name="e_0_energy">   -831.10141923 </i>
   </energy>
  </scstep>
  <scstep>
   <time name="dav">   10.29   10.29</time>
   <time name="total">   12.16   12.16</time>
   <energy>
    <i name="e_fr_energy">   -831.14443282 </i>
    <i name="e_wo_entrp">   -831.07498771 </i>
    <i name="e_0_energy">   -831.10971027 </i>
   </energy>
  </scstep>
  <scstep>
   <time name="dav">   10.24   10.25</time>
   <time name="total">   12.11   12.12</time>
   <energy>
    <i name="e_fr_energy">   -831.14915941 </i>
    <i name="e_wo_entrp">   -831.07971143 </i>
    <i name="e_0_energy">   -831.11443542 </i>
   </energy>
  </scstep>
  <scstep>
   <time name="dav">    9.97    9.97</time>
   <time name="total">   11.84   11.85</time>
   <energy>
    <i name="e_fr_energy">   -831.15114762 </i>
    <i name="e_wo_entrp">   -831.08169465 </i>
    <i name="e_0_energy">   -831.11642114 </i>
   </energy>
  </scstep>
  <scstep>
   <time name="dav">    9.22    9.22</time>
   <time name="total">   11.10   11.11</time>
   <energy>
    <i name="e_fr_energy">   -831.15217160 </i>
    <i name="e_wo_entrp">   -831.08272227 </i>
    <i name="e_0_energy">   -831.11744693 </i>
   </energy>
  </scstep>
  <scstep>
   <time name="dav">    9.07    9.07</time>
   <time name="total">   10.98   10.98</time>
   <energy>
    <i name="e_fr_energy">   -831.15246478 </i>
    <i name="e_wo_entrp">   -831.08301487 </i>
    <i name="e_0_energy">   -831.11773983 </i>
   </energy>
  </scstep>
  <scstep>
   <time name="dav">    8.54    8.54</time>
   <time name="total">   10.46   10.47</time>
   <energy>
    <i name="e_fr_energy">   -831.15266268 </i>
    <i name="e_wo_entrp">   -831.08321206 </i>
    <i name="e_0_energy">   -831.11793737 </i>
   </energy>
  </scstep>
  <scstep>
   <time name="dav">    7.62    7.62</time>
   <time name="total">    9.55    9.56</time>
   <energy>
    <i name="e_fr_energy">   -831.15271144 </i>
    <i name="e_wo_entrp">   -831.08326071 </i>
    <i name="e_0_energy">   -831.11798607 </i>
   </energy>
  </scstep>
  <scstep>
   <time name="dav">    7.11    7.12</time>
   <time name="total">    9.06    9.06</time>
   <energy>
    <i name="e_fr_energy">   -831.15274903 </i>
    <i name="e_wo_entrp">   -831.08329811 </i>
    <i name="e_0_energy">   -831.11802357 </i>
   </energy>
  </scstep>
  <scstep>
   <time name="dav">    7.16    7.17</time>
   <time name="total">    9.12    9.13</time>
   <energy>
    <i name="e_fr_energy">   -831.15276064 </i>
    <i name="e_wo_entrp">   -831.08331002 </i>
    <i name="e_0_energy">   -831.11803533 </i>
   </energy>
  </scstep>
  <scstep>
   <time name="dav">    7.00    7.00</time>
   <time name="total">    8.97    8.97</time>
   <energy>
    <i name="e_fr_energy">   -831.15276652 </i>
    <i name="e_wo_entrp">   -831.08331598 </i>
    <i name="e_0_energy">   -831.11804125 </i>
   </energy>
  </scstep>
  <scstep>
   <time name="dav">    6.83    6.84</time>
   <time name="total">    8.82    8.84</time>
   <energy>
    <i name="e_fr_energy">   -831.15277013 </i>
    <i name="e_wo_entrp">   -831.08331946 </i>
    <i name="e_0_energy">   -831.11804480 </i>
   </energy>
  </scstep>
  <scstep>
   <time name="dav">    7.13    7.13</time>
   <time name="total">    9.13    9.14</time>
   <energy>
    <i name="e_fr_energy">   -831.15277172 </i>
    <i name="e_wo_entrp">   -831.08332105 </i>
    <i name="e_0_energy">   -831.11804638 </i>
   </energy>
  </scstep>
  <scstep>
   <time name="dav">    7.17    7.17</time>
   <time name="total">    9.19    9.20</time>
   <energy>
    <i name="e_fr_energy">   -831.15277341 </i>
    <i name="e_wo_entrp">   -831.08332274 </i>
    <i name="e_0_energy">   -831.11804808 </i>
   </energy>
  </scstep>
  <scstep>
   <time name="dav">    7.09    7.09</time>
   <time name="total">    7.45    7.45</time>
   <energy>
    <i name="alphaZ">     91.34886789 </i>
    <i name="ewald"> 119788.05521783 </i>
    <i name="hartreedc">-130876.67390506 </i>
    <i name="XCdc">   1279.62476937 </i>
    <i name="pawpsdc">  41248.69030196 </i>
    <i name="pawaedc"> -41312.81294028 </i>
    <i name="eentropy">     -0.06945067 </i>
    <i name="bandstr">  -4586.97042890 </i>
    <i name="atom">  13537.65479391 </i>
    <i name="e_fr_energy">   -831.15277396 </i>
    <i name="e_wo_entrp">   -831.08332329 </i>
    <i name="e_0_energy">   -831.11804863 </i>
   </energy>
  </scstep>
  <structure>
   <crystal>
    <varray name="basis" >
     <v>      28.05000000       0.00000000       0.00000000 </v>
     <v>       0.00000000       8.10000000       0.00000000 </v>
     <v>       0.00000000       0.00000000      33.50000000 </v>
    </varray>
    <i name="volume">   7611.36750000 </i>
    <varray name="rec_basis" >
     <v>       0.03565062       0.00000000       0.00000000 </v>
     <v>       0.00000000       0.12345679       0.00000000 </v>
     <v>       0.00000000       0.00000000       0.02985075 </v>
    </varray>
   </crystal>
   <varray name="positions" >
    <v>       0.71477718       0.52186790       0.97450746 </v>
    <v>       0.71411765       0.68540988       0.96540299 </v>
    <v>       0.75713369       0.44159383       0.97376119 </v>
    <v>       0.75609982       0.77517284       0.96382090 </v>
    <v>       0.80077362       0.52284568       0.96373134 </v>
    <v>       0.80053832       0.69253827       0.95910448 </v>
    <v>       0.84562923       0.44226914       0.96373134 </v>
    <v>       0.84460963       0.77548889       0.95674627 </v>
    <v>       0.88748663       0.52214444       0.95152239 </v>
    <v>       0.88680927       0.69014691       0.94946269 </v>
    <v>       0.93089483       0.44180000       0.94328358 </v>
    <v>       0.93058111       0.77065432       0.94200000 </v>
    <v>       0.97258824       0.52113086       0.92782090 </v>
    <v>       0.97331907       0.69059012       0.92764179 </v>
    <v>       0.01628135       0.43585802       0.92068657 </v>
    <v>       0.01628392       0.77337037       0.91785075 </v>
    <v>       0.05718253       0.52244691       0.90397015 </v>
    <v>       0.05754474       0.69046296       0.90232836 </v>
    <v>       0.10013119       0.44175926       0.89755224 </v>
    <v>       0.10166702       0.77440370       0.89602985 </v>
    <v>       0.14496720       0.51987901       0.88853731 </v>
    <v>       0.14563708       0.69102716       0.88677612 </v>
    <v>       0.19033155       0.44038519       0.88298507 </v>
    <v>       0.18850553       0.77618642       0.88241791 </v>
    <v>       0.23395651       0.52366790       0.88065672 </v>
    <v>       0.23320250       0.69452840       0.87850746 </v>
    <v>       0.27966025       0.44555309       0.88116418 </v>
    <v>       0.27928378       0.77421358       0.87931343 </v>
    <v>       0.32413333       0.52268642       0.88402985 </v>
    <v>       0.32368627       0.69395185       0.88411940 </v>
    <v>       0.36734403       0.44209012       0.89364179 </v>
    <v>       0.36660963       0.77932840       0.89176119 </v>
    <v>       0.41149376       0.52670247       0.90116418 </v>
    <v>       0.41089483       0.69429383       0.89943284 </v>
    <v>       0.45130838       0.44228025       0.91617910 </v>
    <v>       0.45409982       0.77636543       0.91119403 </v>
    <v>       0.49321212       0.52042099       0.92871642 </v>
    <v>       0.49535472       0.69254198       0.92474627 </v>
    <v>       0.53236007       0.44542593       0.94874627 </v>
    <v>       0.53618895       0.77554074       0.93946269 </v>
    <v>       0.57608913       0.52755926       0.95800000 </v>
    <v>       0.57835651       0.69184815       0.95149254 </v>
    <v>       0.61885561       0.44360000       0.97068657 </v>
    <v>       0.62189305       0.77935062       0.95814925 </v>
    <v>       0.66222103       0.52626173       0.97626866 </v>
    <v>       0.66377184       0.69688765       0.96835821 </v>
    <v>       0.71372193       0.02710568       0.97301493 </v>
    <v>       0.71393939       0.19660988       0.98023881 </v>
    <v>       0.75549733       0.94318765       0.97110448 </v>
    <v>       0.75820321       0.27208765       0.97853731 </v>
    <v>       0.80159358       0.02222086       0.97391045 </v>
    <v>       0.80258824       0.19273951       0.97522388 </v>
    <v>       0.84648841       0.94069630       0.96626866 </v>
    <v>       0.84645989       0.27701235       0.97026866 </v>
    <v>       0.89083422       0.02200556       0.96062687 </v>
    <v>       0.89126203       0.19189259       0.96205970 </v>
    <v>       0.93325134       0.93697778       0.94934328 </v>
    <v>       0.93323708       0.27518889       0.95110448 </v>
    <v>       0.97684492       0.02040926       0.94238806 </v>
    <v>       0.97777184       0.19181358       0.94450746 </v>
    <v>       0.01735590       0.94066914       0.92453731 </v>
    <v>       0.01803561       0.27339630       0.92850746 </v>
    <v>       0.05947879       0.02529827       0.91202985 </v>
    <v>       0.06145811       0.19346420       0.91752239 </v>
    <v>       0.10149447       0.94342222       0.90068657 </v>
    <v>       0.10385241       0.27297407       0.90379104 </v>
    <v>       0.14581141       0.02178679       0.89573134 </v>
    <v>       0.14624706       0.19381111       0.89635821 </v>
    <v>       0.18912585       0.94273580       0.88635821 </v>
    <v>       0.18961390       0.27291852       0.88808955 </v>
    <v>       0.23450446       0.02545827       0.88313433 </v>
    <v>       0.23417184       0.19624691       0.88408955 </v>
    <v>       0.27765098       0.94298889       0.88271642 </v>
    <v>       0.27858681       0.27507284       0.88107463 </v>
    <v>       0.32140998       0.02325519       0.88913433 </v>
    <v>       0.32134403       0.19373704       0.88907463 </v>
    <v>       0.36575045       0.94347778       0.89510448 </v>
    <v>       0.36521569       0.27690494       0.89973134 </v>
    <v>       0.40854902       0.02947037       0.90659701 </v>
    <v>       0.40712299       0.19709259       0.91319403 </v>
    <v>       0.45147950       0.94382222       0.91501493 </v>
    <v>       0.44871301       0.27924074       0.92591045 </v>
    <v>       0.49278788       0.02646877       0.93020896 </v>
    <v>       0.49027094       0.19566543       0.93743284 </v>
    <v>       0.53474866       0.94284691       0.94152239 </v>
    <v>       0.53187879       0.27648519       0.95146269 </v>
    <v>       0.57737968       0.02623481       0.95185075 </v>
    <v>       0.57459180       0.19004938       0.96035821 </v>
    <v>       0.62036007       0.94598889       0.95889552 </v>
    <v>       0.61774332       0.27428642       0.97211940 </v>
    <v>       0.66205348       0.02275012       0.97191045 </v>
    <v>       0.66147594       0.19495432       0.97832836 </v>
   </varray>
  </structure>
  <varray name="forces" >
   <v>       0.44955612       0.02641266      -0.58691950 </v>
   <v>       2.85711876       1.88713190       0.48402569 </v>
   <v>       1.24873058      -0.16176087      -0.02473152 </v>
   <v>       0.11678638      -0.64083818      -0.51730999 </v>
   <v>      -0.18156509       0.33105752       0.48116647 </v>
   <v>      -0.70710292      -0.05407701       0.41069355 </v>
   <v>      -0.65382690       0.50707425      -0.44862197 </v>
   <v>      -0.36944559      -0.08771018       0.55466084 </v>
   <v>       0.27439053      -0.34979846      -0.31346286 </v>
   <v>       0.86124136       0.64668559      -0.64260912 </v>
   <v>       0.56518383      -0.04687307      -0.07530432 </v>
   <v>       1.10494024      -0.09665005      -0.48975011 </v>
   <v>       0.06807044      -0.64782845       0.61555365 </v>
   <v>      -0.85640043       0.34854762       0.29496708 </v>
   <v>      -0.39524292       2.82137205      -1.04707450 </v>
   <v>      -0.38404174      -0.29100850      -0.40523511 </v>
   <v>      -0.97876975      -1.29781479       0.76159311 </v>
   <v>      -0.30892515       1.34312384       0.71052414 </v>
   <v>       2.47163536      -0.58046008      -0.19105263 </v>
   <v>      -0.27232872      -0.79415027      -0.52720651 </v>
   <v>       0.04506782       0.89432079      -0.71408128 </v>
   <v>      -1.75220426      -0.05123797       0.57351582 </v>
   <v>      -1.77216605       0.28112693       1.06100017 </v>
   <v>       1.30307944      -1.03598070      -0.25154549 </v>
   <v>       0.81706592       0.92592416      -0.72845244 </v>
   <v>       0.98999992      -0.43481499       0.14435416 </v>
   <v>      -1.04029796      -0.67202987      -0.25801835 </v>
   <v>      -1.43282142      -0.45784490       0.37790918 </v>
   <v>       0.08085110       1.15142201       0.16207157 </v>
   <v>      -0.24345131      -0.20981533      -0.43580709 </v>
   <v>       0.16379953       1.10020224       0.12600030 </v>
   <v>       1.13063017      -2.67433022      -0.11339292 </v>
   <v>      -1.50596827      -1.09460887      -0.31522320 </v>
   <v>       0.44624544       1.11593330       0.00558322 </v>
   <v>       0.53808382       0.68075126       1.12485612 </v>
   <v>      -0.88603223      -0.81064034      -0.29046384 </v>
   <v>       0.84602105       1.85416083       0.28020505 </v>
   <v>      -0.07613077      -0.50482857       0.21106265 </v>
   <v>       0.34547564       0.13247571      -0.32908141 </v>
   <v>      -0.23096848      -1.12973815      -0.62353480 </v>
   <v>       0.23292252      -1.22522052       0.19670912 </v>
   <v>       0.32178166       1.51730117       0.03445516 </v>
   <v>      -0.23361497       0.90495581       0.33163751 </v>
   <v>      -0.08419063      -2.31240511      -0.13674626 </v>
   <v>      -2.47343664       0.69127074      -0.67501960 </v>
   <v>      -2.96341861      -1.34733701      -0.10032234 </v>
   <v>       1.03742203       0.42916920       1.24143213 </v>
   <v>       1.61755540      -1.49558910      -0.12147389 </v>
   <v>       1.72245218      -0.29299532      -0.59326150 </v>
   <v>      -0.89399276       1.02130835       0.29687110 </v>
   <v>       0.52320378      -0.06578897      -0.57352820 </v>
   <v>       0.00161508      -0.90483835       0.65150540 </v>
   <v>      -0.87940873       0.41173911      -0.56714417 </v>
   <v>       1.19861503      -1.86873124      -0.62383457 </v>
   <v>      -0.12244753      -0.28328137       0.54953942 </v>
   <v>      -1.24988030       0.59354516       0.81613511 </v>
   <v>      -0.22679010       0.78088807       0.06495805 </v>
   <v>       0.97428250      -0.45728477       0.05199962 </v>
   <v>       0.62394242      -0.07796803      -0.60363456 </v>
   <v>      -0.86089443      -0.13547044      -0.62977730 </v>
   <v>       0.11295570       0.54720485      -0.03107306 </v>
   <v>       1.14519429      -1.16640902       0.34658035 </v>
   <v>      -0.35385731      -0.16114330       1.57696249 </v>
   <v>      -0.01968400      -0.51411301      -0.69247402 </v>
   <v>       0.63619212      -0.67071115      -0.24396313 </v>
   <v>      -2.22637279       1.14827620       0.62246378 </v>
   <v>       0.22452760       1.17995067      -0.31050011 </v>
   <v>       0.88880563      -1.46085944      -0.01384786 </v>
   <v>       0.55462834       1.08202171       0.03334939 </v>
   <v>       0.62454724       0.37813242      -0.47657186 </v>
   <v>      -1.86860678       0.20586610       0.50299974 </v>
   <v>      -0.10629075      -1.56589303      -0.29747953 </v>
   <v>       1.20583528      -0.33436854      -0.15165299 </v>
   <v>      -0.12239778       0.87662693       0.93577540 </v>
   <v>       0.45646583       0.87117607      -0.00364182 </v>
   <v>       1.51543214      -0.33909313       0.48478909 </v>
   <v>       0.31950324       2.46296480       0.24198323 </v>
   <v>      -0.65850061      -1.00122764      -0.41787158 </v>
   <v>      -0.44515051      -1.09110858       0.48755529 </v>
   <v>      -0.54535286      -0.77203653      -0.55046213 </v>
   <v>       0.77010403       1.33658767       0.26172644 </v>
   <v>      -0.64092220      -0.90008346      -1.01399029 </v>
   <v>      -0.80120405       0.15948641       0.63931368 </v>
   <v>       0.58167526      -0.69553254       0.12221867 </v>
   <v>       0.30762743       0.90903466      -0.88597487 </v>
   <v>      -0.27232724      -0.73415734      -0.12401901 </v>
   <v>      -0.84598951      -0.02377897       0.86298087 </v>
   <v>       0.84485475       1.56155518       0.18841904 </v>
   <v>       1.58776638       0.73508130       0.15133974 </v>
   <v>       0.33137478      -0.51274077       0.11814984 </v>
   <v>      -1.86231913       2.18319188      -0.48711003 </v>
   <v>      -2.28051591      -1.50005065      -0.53733881 </v>
  </varray>
  <varray name="stress" >
   <v>      -2.29782342      -0.81868350       0.10769358 </v>
   <v>      -0.81868350      54.68113124      -0.34544310 </v>
   <v>       0.10769358      -0.34544311      -1.01462565 </v>
  </varray>
  <energy>
   <i name="e_fr_energy">   -831.15277396 </i>
   <i name="e_wo_entrp">   -831.08332329 </i>
   <i name="e_0_energy">   -831.11804863 </i>
  </energy>
  <time name="totalsc">  332.20  332.39</time>
  <eigenvalues>
   <array>
    <dimension dim="1">band</dimension>
    <dimension dim="2">kpoint</dimension>
    <dimension dim="3">spin</dimension>
    <field>eigene</field>
    <field>occ</field>
    <set>
     <set comment="spin 1">
      <set comment="kpoint 1">
       <r>  -23.2162    1.0000 </r>
       <r>  -23.0667    1.0000 </r>
       <r>  -22.9716    1.0000 </r>
       <r>  -22.6879    1.0000 </r>
       <r>  -22.6044    1.0000 </r>
       <r>  -22.4227    1.0000 </r>
       <r>  -22.0573    1.0000 </r>
       <r>  -21.9692    1.0000 </r>
       <r>  -21.5308    1.0000 </r>
       <r>  -21.4184    1.0000 </r>
       <r>  -21.3926    1.0000 </r>
       <r>  -21.3209    1.0000 </r>
       <r>  -21.2761    1.0000 </r>
       <r>  -21.1966    1.0000 </r>
       <r>  -21.1242    1.0000 </r>
       <r>  -21.0811    1.0000 </r>
       <r>  -21.0180    1.0000 </r>
       <r>  -20.9411    1.0000 </r>
       <r>  -20.7980    1.0000 </r>
       <r>  -20.5074    1.0000 </r>
       <r>  -20.3912    1.0000 </r>
       <r>  -20.3458    1.0000 </r>
       <r>  -20.1582    1.0000 </r>
       <r>  -20.1504    1.0000 </r>
       <r>  -19.9612    1.0000 </r>
       <r>  -19.6990    1.0000 </r>
       <r>  -19.5765    1.0000 </r>
       <r>  -19.4352    1.0000 </r>
       <r>  -19.2482    1.0000 </r>
       <r>  -18.9506    1.0000 </r>
       <r>  -18.6823    1.0000 </r>
       <r>  -18.6659    1.0000 </r>
       <r>  -18.5830    1.0000 </r>
       <r>  -18.3508    1.0000 </r>
       <r>  -18.2555    1.0000 </r>
       <r>  -17.6363    1.0000 </r>
       <r>  -17.3650    1.0000 </r>
       <r>  -17.2427    1.0000 </r>
       <r>  -16.9713    1.0000 </r>
       <r>  -16.8877    1.0000 </r>
       <r>  -16.8120    1.0000 </r>
       <r>  -16.6873    1.0000 </r>
       <r>  -16.6551    1.0000 </r>
       <r>  -16.6164    1.0000 </r>
       <r>  -16.5923    1.0000 </r>
       <r>  -16.5561    1.0000 </r>
       <r>  -16.5030    1.0000 </r>
       <r>  -16.4390    1.0000 </r>
       <r>  -16.4089    1.0000 </r>
       <r>  -16.3912    1.0000 </r>
       <r>  -16.3153    1.0000 </r>
       <r>  -16.1757    1.0000 </r>
       <r>  -16.0835    1.0000 </r>
       <r>  -16.0409    1.0000 </r>
       <r>  -15.8871    1.0000 </r>
       <r>  -15.6217    1.0000 </r>
       <r>  -15.4045    1.0000 </r>
       <r>  -15.3021    1.0000 </r>
       <r>  -15.2899    1.0000 </r>
       <r>  -15.2685    1.0000 </r>
       <r>  -15.1293    1.0000 </r>
       <r>  -15.0302    1.0000 </r>
       <r>  -14.3304    1.0000 </r>
       <r>  -14.1759    1.0000 </r>
       <r>  -14.1035    1.0000 </r>
       <r>  -14.0565    1.0000 </r>
       <r>  -13.9347    1.0000 </r>
       <r>  -13.7521    1.0000 </r>
       <r>  -13.7131    1.0000 </r>
       <r>  -13.6831    1.0000 </r>
       <r>  -13.4830    1.0000 </r>
       <r>  -13.4620    1.0000 </r>
       <r>  -13.2763    1.0000 </r>
       <r>  -13.1844    1.0000 </r>
       <r>  -13.0364    1.0000 </r>
       <r>  -12.9307    1.0000 </r>
       <r>  -12.7039    1.0000 </r>
       <r>  -12.4493    1.0000 </r>
       <r>  -12.1815    1.0000 </r>
       <r>  -12.0817    1.0000 </r>
       <r>  -12.0279    1.0000 </r>
       <r>  -12.0116    1.0000 </r>
       <r>  -11.9398    1.0000 </r>
       <r>  -11.8350    1.0000 </r>
       <r>  -11.7445    1.0000 </r>
       <r>  -11.5835    1.0000 </r>
       <r>  -11.3848    1.0000 </r>
       <r>  -11.1897    1.0000 </r>
       <r>  -11.0850    1.0000 </r>
       <r>  -11.0379    1.0000 </r>
       <r>  -10.9552    1.0000 </r>
       <r>  -10.8829    1.0000 </r>
       <r>  -10.7844    1.0000 </r>
       <r>  -10.7575    1.0000 </r>
       <r>  -10.6911    1.0000 </r>
       <r>  -10.6425    1.0000 </r>
       <r>  -10.6235    1.0000 </r>
       <r>  -10.5219    1.0000 </r>
       <r>  -10.5177    1.0000 </r>
       <r>  -10.4017    1.0000 </r>
       <r>  -10.3760    1.0000 </r>
       <r>  -10.2511    1.0000 </r>
       <r>  -10.2406    1.0000 </r>
       <r>  -10.1660    1.0000 </r>
       <r>  -10.1144    1.0000 </r>
       <r>  -10.0651    1.0000 </r>
       <r>   -9.8388    1.0000 </r>
       <r>   -9.8135    1.0000 </r>
       <r>   -9.7278    1.0000 </r>
       <r>   -9.6728    1.0000 </r>
       <r>   -9.6194    1.0000 </r>
       <r>   -9.5821    1.0000 </r>
       <r>   -9.5781    1.0000 </r>
       <r>   -9.5429    1.0000 </r>
       <r>   -9.5318    1.0000 </r>
       <r>   -9.4964    1.0000 </r>
       <r>   -9.4503    1.0000 </r>
       <r>   -9.4404    1.0000 </r>
       <r>   -9.4309    1.0000 </r>
       <r>   -9.4128    1.0000 </r>
       <r>   -9.3784    1.0000 </r>
       <r>   -9.3413    1.0000 </r>
       <r>   -9.3333    1.0000 </r>
       <r>   -9.3330    1.0000 </r>
       <r>   -9.2704    1.0000 </r>
       <r>   -9.2447    1.0000 </r>
       <r>   -9.1832    1.0000 </r>
       <r>   -9.1749    1.0000 </r>
       <r>   -9.1366    1.0000 </r>
       <r>   -9.0699    1.0000 </r>
       <r>   -9.0506    1.0000 </r>
       <r>   -9.0278    1.0000 </r>
       <r>   -9.0077    1.0000 </r>
       <r>   -8.9658    1.0000 </r>
       <r>   -8.9527    1.0000 </r>
       <r>   -8.9333    1.0000 </r>
       <r>   -8.8748    1.0000 </r>
       <r>   -8.8364    1.0000 </r>
       <r>   -8.7922    1.0000 </r>
       <r>   -8.6885    1.0000 </r>
       <r>   -8.6767    1.0000 </r>
       <r>   -8.6356    1.0000 </r>
       <r>   -8.6024    1.0000 </r>
       <r>   -8.5515    1.0000 </r>
       <r>   -8.5210    1.0000 </r>
       <r>   -8.4135    1.0000 </r>
       <r>   -8.0341    1.0000 </r>
       <r>   -7.9867    1.0000 </r>
       <r>   -7.8924    1.0000 </r>
       <r>   -7.7774    1.0000 </r>
       <r>   -7.7093    1.0000 </r>
       <r>   -7.6439    1.0000 </r>
       <r>   -7.5613    1.0000 </r>
       <r>   -7.5075    1.0000 </r>
       <r>   -7.4430    1.0000 </r>
       <r>   -7.4055    1.0000 </r>
       <r>   -7.3841    1.0000 </r>
       <r>   -7.1213    1.0000 </r>
       <r>   -7.0885    1.0000 </r>
       <r>   -6.9042    1.0000 </r>
       <r>   -6.8309    1.0000 </r>
       <r>   -6.7263    1.0000 </r>
       <r>   -6.6527    1.0000 </r>
       <r>   -6.5920    1.0000 </r>
       <r>   -6.5425    1.0000 </r>
       <r>   -6.2609    1.0000 </r>
       <r>   -6.2396    1.0000 </r>
       <r>   -6.0721    1.0000 </r>
       <r>   -6.0286    1.0000 </r>
       <r>   -5.9918    1.0000 </r>
       <r>   -5.9659    1.0000 </r>
       <r>   -5.9060    1.0000 </r>
       <r>   -5.8622    1.0000 </r>
       <r>   -5.0539    1.0000 </r>
       <r>   -4.8917    1.0000 </r>
       <r>   -4.8714    1.0000 </r>
       <r>   -4.6336    1.0000 </r>
       <r>   -4.5094    1.0000 </r>
       <r>   -4.4917    1.0000 </r>
       <r>   -4.4168    1.0000 </r>
       <r>   -4.3922    1.0000 </r>
       <r>   -3.7296    1.0000 </r>
       <r>   -3.6163    0.9994 </r>
       <r>   -3.1860    0.5794 </r>
       <r>   -3.1094    0.3663 </r>
       <r>   -2.6781    0.0003 </r>
       <r>   -2.5996    0.0000 </r>
       <r>   -2.5707    0.0000 </r>
       <r>   -2.2801    0.0000 </r>
       <r>   -2.0741    0.0000 </r>
       <r>   -1.7054    0.0000 </r>
       <r>   -1.6538    0.0000 </r>
       <r>   -1.4929    0.0000 </r>
       <r>   -1.4346    0.0000 </r>
       <r>   -1.3864    0.0000 </r>
       <r>   -1.3508    0.0000 </r>
       <r>   -1.2653    0.0000 </r>
       <r>   -1.0420    0.0000 </r>
       <r>   -0.7463    0.0000 </r>
       <r>   -0.6718    0.0000 </r>
       <r>   -0.4743    0.0000 </r>
       <r>   -0.4300    0.0000 </r>
       <r>   -0.0506    0.0000 </r>
       <r>    0.1174    0.0000 </r>
       <r>    0.1417    0.0000 </r>
       <r>    0.1570    0.0000 </r>
       <r>    0.3568    0.0000 </r>
       <r>    0.6328    0.0000 </r>
       <r>    0.6488    0.0000 </r>
       <r>    0.7063    0.0000 </r>
       <r>    0.7624    0.0000 </r>
       <r>    0.8754    0.0000 </r>
       <r>    0.9132    0.0000 </r>
       <r>    0.9274    0.0000 </r>
       <r>    0.9785    0.0000 </r>
       <r>    0.9906    0.0000 </r>
       <r>    1.0641    0.0000 </r>
       <r>    1.1506    0.0000 </r>
       <r>    1.1580    0.0000 </r>
       <r>    1.2213    0.0000 </r>
       <r>    1.3087    0.0000 </r>
       <r>    1.3157    0.0000 </r>
       <r>    1.3278    0.0000 </r>
       <r>    1.4081    0.0000 </r>
       <r>    1.4634    0.0000 </r>
       <r>    1.5510    0.0000 </r>
       <r>    1.5732    0.0000 </r>
       <r>    1.7244    0.0000 </r>
       <r>    1.7305    0.0000 </r>
       <r>    1.7311    0.0000 </r>
       <r>    1.7507    0.0000 </r>
       <r>    1.9222    0.0000 </r>
      </set>
      <set comment="kpoint 2">
       <r>  -23.1346    1.0000 </r>
       <r>  -22.9688    1.0000 </r>
       <r>  -22.8711    1.0000 </r>
       <r>  -22.6175    1.0000 </r>
       <r>  -22.5649    1.0000 </r>
       <r>  -22.4964    1.0000 </r>
       <r>  -22.1670    1.0000 </r>
       <r>  -22.0661    1.0000 </r>
       <r>  -21.9708    1.0000 </r>
       <r>  -21.8734    1.0000 </r>
       <r>  -21.8136    1.0000 </r>
       <r>  -21.6904    1.0000 </r>
       <r>  -21.2573    1.0000 </r>
       <r>  -21.1275    1.0000 </r>
       <r>  -21.0611    1.0000 </r>
       <r>  -20.9764    1.0000 </r>
       <r>  -20.5840    1.0000 </r>
       <r>  -20.5380    1.0000 </r>
       <r>  -20.4634    1.0000 </r>
       <r>  -20.2935    1.0000 </r>
       <r>  -20.1928    1.0000 </r>
       <r>  -20.1163    1.0000 </r>
       <r>  -20.0588    1.0000 </r>
       <r>  -19.9047    1.0000 </r>
       <r>  -19.8633    1.0000 </r>
       <r>  -19.5425    1.0000 </r>
       <r>  -19.4901    1.0000 </r>
       <r>  -19.1199    1.0000 </r>
       <r>  -19.0598    1.0000 </r>
       <r>  -18.9146    1.0000 </r>
       <r>  -18.6669    1.0000 </r>
       <r>  -18.5933    1.0000 </r>
       <r>  -18.5543    1.0000 </r>
       <r>  -18.2447    1.0000 </r>
       <r>  -18.1546    1.0000 </r>
       <r>  -18.0918    1.0000 </r>
       <r>  -18.0573    1.0000 </r>
       <r>  -17.9876    1.0000 </r>
       <r>  -17.8144    1.0000 </r>
       <r>  -17.7542    1.0000 </r>
       <r>  -17.4695    1.0000 </r>
       <r>  -17.4069    1.0000 </r>
       <r>  -17.3149    1.0000 </r>
       <r>  -17.1448    1.0000 </r>
       <r>  -17.0625    1.0000 </r>
       <r>  -16.5863    1.0000 </r>
       <r>  -16.3842    1.0000 </r>
       <r>  -16.2006    1.0000 </r>
       <r>  -16.1066    1.0000 </r>
       <r>  -15.8580    1.0000 </r>
       <r>  -15.8315    1.0000 </r>
       <r>  -15.6525    1.0000 </r>
       <r>  -15.5971    1.0000 </r>
       <r>  -15.3416    1.0000 </r>
       <r>  -15.2645    1.0000 </r>
       <r>  -15.2065    1.0000 </r>
       <r>  -15.1277    1.0000 </r>
       <r>  -15.0916    1.0000 </r>
       <r>  -14.9794    1.0000 </r>
       <r>  -14.9542    1.0000 </r>
       <r>  -14.9282    1.0000 </r>
       <r>  -14.7873    1.0000 </r>
       <r>  -14.5786    1.0000 </r>
       <r>  -14.3695    1.0000 </r>
       <r>  -14.3203    1.0000 </r>
       <r>  -14.1744    1.0000 </r>
       <r>  -13.9617    1.0000 </r>
       <r>  -13.8676    1.0000 </r>
       <r>  -13.3355    1.0000 </r>
       <r>  -13.2850    1.0000 </r>
       <r>  -13.1936    1.0000 </r>
       <r>  -13.1785    1.0000 </r>
       <r>  -12.9224    1.0000 </r>
       <r>  -12.8353    1.0000 </r>
       <r>  -12.7774    1.0000 </r>
       <r>  -12.7514    1.0000 </r>
       <r>  -12.6730    1.0000 </r>
       <r>  -12.5507    1.0000 </r>
       <r>  -12.3954    1.0000 </r>
       <r>  -12.3181    1.0000 </r>
       <r>  -12.1706    1.0000 </r>
       <r>  -12.1110    1.0000 </r>
       <r>  -12.0111    1.0000 </r>
       <r>  -11.8902    1.0000 </r>
       <r>  -11.7139    1.0000 </r>
       <r>  -11.6360    1.0000 </r>
       <r>  -11.4845    1.0000 </r>
       <r>  -11.4062    1.0000 </r>
       <r>  -11.2566    1.0000 </r>
       <r>  -11.1916    1.0000 </r>
       <r>  -11.0657    1.0000 </r>
       <r>  -11.0215    1.0000 </r>
       <r>  -10.9900    1.0000 </r>
       <r>  -10.9302    1.0000 </r>
       <r>  -10.9141    1.0000 </r>
       <r>  -10.8689    1.0000 </r>
       <r>  -10.8444    1.0000 </r>
       <r>  -10.8001    1.0000 </r>
       <r>  -10.7357    1.0000 </r>
       <r>  -10.6353    1.0000 </r>
       <r>  -10.5543    1.0000 </r>
       <r>  -10.5135    1.0000 </r>
       <r>  -10.4808    1.0000 </r>
       <r>  -10.4073    1.0000 </r>
       <r>  -10.3851    1.0000 </r>
       <r>  -10.3404    1.0000 </r>
       <r>  -10.2370    1.0000 </r>
       <r>  -10.1108    1.0000 </r>
       <r>  -10.0608    1.0000 </r>
       <r>  -10.0337    1.0000 </r>
       <r>   -9.9587    1.0000 </r>
       <r>   -9.9457    1.0000 </r>
       <r>   -9.8676    1.0000 </r>
       <r>   -9.7910    1.0000 </r>
       <r>   -9.7275    1.0000 </r>
       <r>   -9.7139    1.0000 </r>
       <r>   -9.6972    1.0000 </r>
       <r>   -9.6555    1.0000 </r>
       <r>   -9.6011    1.0000 </r>
       <r>   -9.5563    1.0000 </r>
       <r>   -9.5103    1.0000 </r>
       <r>   -9.4500    1.0000 </r>
       <r>   -9.3985    1.0000 </r>
       <r>   -9.3567    1.0000 </r>
       <r>   -9.3163    1.0000 </r>
       <r>   -9.1966    1.0000 </r>
       <r>   -8.9991    1.0000 </r>
       <r>   -8.9096    1.0000 </r>
       <r>   -8.8379    1.0000 </r>
       <r>   -8.7753    1.0000 </r>
       <r>   -8.7419    1.0000 </r>
       <r>   -8.7185    1.0000 </r>
       <r>   -8.6756    1.0000 </r>
       <r>   -8.6359    1.0000 </r>
       <r>   -8.5837    1.0000 </r>
       <r>   -8.5563    1.0000 </r>
       <r>   -8.5216    1.0000 </r>
       <r>   -8.4694    1.0000 </r>
       <r>   -8.3346    1.0000 </r>
       <r>   -8.2912    1.0000 </r>
       <r>   -8.2409    1.0000 </r>
       <r>   -8.2001    1.0000 </r>
       <r>   -8.1240    1.0000 </r>
       <r>   -8.0892    1.0000 </r>
       <r>   -8.0471    1.0000 </r>
       <r>   -7.9753    1.0000 </r>
       <r>   -7.9538    1.0000 </r>
       <r>   -7.8720    1.0000 </r>
       <r>   -7.7864    1.0000 </r>
       <r>   -7.7106    1.0000 </r>
       <r>   -7.6389    1.0000 </r>
       <r>   -7.5569    1.0000 </r>
       <r>   -7.4846    1.0000 </r>
       <r>   -7.3779    1.0000 </r>
       <r>   -7.3468    1.0000 </r>
       <r>   -7.3065    1.0000 </r>
       <r>   -7.2329    1.0000 </r>
       <r>   -7.0185    1.0000 </r>
       <r>   -6.9418    1.0000 </r>
       <r>   -6.9250    1.0000 </r>
       <r>   -6.8527    1.0000 </r>
       <r>   -6.7022    1.0000 </r>
       <r>   -6.6689    1.0000 </r>
       <r>   -6.5850    1.0000 </r>
       <r>   -6.5262    1.0000 </r>
       <r>   -6.2682    1.0000 </r>
       <r>   -6.2194    1.0000 </r>
       <r>   -6.1289    1.0000 </r>
       <r>   -6.1020    1.0000 </r>
       <r>   -5.9854    1.0000 </r>
       <r>   -5.9301    1.0000 </r>
       <r>   -5.8016    1.0000 </r>
       <r>   -5.7440    1.0000 </r>
       <r>   -5.6763    1.0000 </r>
       <r>   -5.5208    1.0000 </r>
       <r>   -5.5007    1.0000 </r>
       <r>   -5.1527    1.0000 </r>
       <r>   -5.1135    1.0000 </r>
       <r>   -4.7276    1.0000 </r>
       <r>   -4.6974    1.0000 </r>
       <r>   -4.5208    1.0000 </r>
       <r>   -4.4620    1.0000 </r>
       <r>   -4.4318    1.0000 </r>
       <r>   -3.4905    0.9907 </r>
       <r>   -2.9038    0.0363 </r>
       <r>   -2.5883    0.0000 </r>
       <r>   -2.0798    0.0000 </r>
       <r>   -2.0348    0.0000 </r>
       <r>   -1.5342    0.0000 </r>
       <r>   -1.4834    0.0000 </r>
       <r>   -1.4000    0.0000 </r>
       <r>   -1.3632    0.0000 </r>
       <r>   -1.3078    0.0000 </r>
       <r>   -1.2683    0.0000 </r>
       <r>   -1.0437    0.0000 </r>
       <r>   -1.0052    0.0000 </r>
       <r>   -0.9390    0.0000 </r>
       <r>   -0.8872    0.0000 </r>
       <r>   -0.7368    0.0000 </r>
       <r>   -0.4682    0.0000 </r>
       <r>   -0.1806    0.0000 </r>
       <r>   -0.0800    0.0000 </r>
       <r>   -0.0297    0.0000 </r>
       <r>    0.0948    0.0000 </r>
       <r>    0.1319    0.0000 </r>
       <r>    0.2026    0.0000 </r>
       <r>    0.2426    0.0000 </r>
       <r>    0.3205    0.0000 </r>
       <r>    0.3672    0.0000 </r>
       <r>    0.8012    0.0000 </r>
       <r>    0.8075    0.0000 </r>
       <r>    0.8491    0.0000 </r>
       <r>    1.0502    0.0000 </r>
       <r>    1.0572    0.0000 </r>
       <r>    1.0702    0.0000 </r>
       <r>    1.1282    0.0000 </r>
       <r>    1.1688    0.0000 </r>
       <r>    1.2764    0.0000 </r>
       <r>    1.2939    0.0000 </r>
       <r>    1.3009    0.0000 </r>
       <r>    1.3633    0.0000 </r>
       <r>    1.3771    0.0000 </r>
       <r>    1.4105    0.0000 </r>
       <r>    1.4475    0.0000 </r>
       <r>    1.4571    0.0000 </r>
       <r>    1.4702    0.0000 </r>
       <r>    1.5507    0.0000 </r>
       <r>    1.6030    0.0000 </r>
       <r>    1.6573    0.0000 </r>
       <r>    1.6921    0.0000 </r>
       <r>    1.7080    0.0000 </r>
       <r>    1.7255    0.0000 </r>
      </set>
      <set comment="kpoint 3">
       <r>  -22.9570    1.0000 </r>
       <r>  -22.8394    1.0000 </r>
       <r>  -22.7000    1.0000 </r>
       <r>  -22.6391    1.0000 </r>
       <r>  -22.5898    1.0000 </r>
       <r>  -22.5423    1.0000 </r>
       <r>  -22.3326    1.0000 </r>
       <r>  -22.2777    1.0000 </r>
       <r>  -22.2004    1.0000 </r>
       <r>  -22.1852    1.0000 </r>
       <r>  -21.7107    1.0000 </r>
       <r>  -21.6631    1.0000 </r>
       <r>  -21.5911    1.0000 </r>
       <r>  -21.5239    1.0000 </r>
       <r>  -20.8981    1.0000 </r>
       <r>  -20.8550    1.0000 </r>
       <r>  -20.7073    1.0000 </r>
       <r>  -20.6543    1.0000 </r>
       <r>  -19.9257    1.0000 </r>
       <r>  -19.8834    1.0000 </r>
       <r>  -19.6098    1.0000 </r>
       <r>  -19.5946    1.0000 </r>
       <r>  -19.5010    1.0000 </r>
       <r>  -19.4623    1.0000 </r>
       <r>  -19.4079    1.0000 </r>
       <r>  -19.3702    1.0000 </r>
       <r>  -19.2842    1.0000 </r>
       <r>  -19.2795    1.0000 </r>
       <r>  -19.0600    1.0000 </r>
       <r>  -19.0230    1.0000 </r>
       <r>  -18.9812    1.0000 </r>
       <r>  -18.9171    1.0000 </r>
       <r>  -18.6301    1.0000 </r>
       <r>  -18.5966    1.0000 </r>
       <r>  -18.4876    1.0000 </r>
       <r>  -18.4300    1.0000 </r>
       <r>  -18.3195    1.0000 </r>
       <r>  -18.2688    1.0000 </r>
       <r>  -18.1571    1.0000 </r>
       <r>  -18.1465    1.0000 </r>
       <r>  -17.7224    1.0000 </r>
       <r>  -17.6955    1.0000 </r>
       <r>  -17.6699    1.0000 </r>
       <r>  -17.6447    1.0000 </r>
       <r>  -16.9253    1.0000 </r>
       <r>  -16.9048    1.0000 </r>
       <r>  -16.2943    1.0000 </r>
       <r>  -16.2323    1.0000 </r>
       <r>  -16.0491    1.0000 </r>
       <r>  -16.0040    1.0000 </r>
       <r>  -15.9559    1.0000 </r>
       <r>  -15.9033    1.0000 </r>
       <r>  -15.3296    1.0000 </r>
       <r>  -15.2711    1.0000 </r>
       <r>  -15.0943    1.0000 </r>
       <r>  -15.0679    1.0000 </r>
       <r>  -14.8937    1.0000 </r>
       <r>  -14.8294    1.0000 </r>
       <r>  -14.7335    1.0000 </r>
       <r>  -14.6845    1.0000 </r>
       <r>  -14.0563    1.0000 </r>
       <r>  -13.9830    1.0000 </r>
       <r>  -13.7246    1.0000 </r>
       <r>  -13.6919    1.0000 </r>
       <r>  -13.6561    1.0000 </r>
       <r>  -13.6335    1.0000 </r>
       <r>  -13.6109    1.0000 </r>
       <r>  -13.6028    1.0000 </r>
       <r>  -13.5942    1.0000 </r>
       <r>  -13.5317    1.0000 </r>
       <r>  -13.5021    1.0000 </r>
       <r>  -13.4912    1.0000 </r>
       <r>  -13.4211    1.0000 </r>
       <r>  -13.4000    1.0000 </r>
       <r>  -13.1336    1.0000 </r>
       <r>  -13.0552    1.0000 </r>
       <r>  -12.3178    1.0000 </r>
       <r>  -12.3000    1.0000 </r>
       <r>  -12.1524    1.0000 </r>
       <r>  -12.1304    1.0000 </r>
       <r>  -12.1035    1.0000 </r>
       <r>  -12.0737    1.0000 </r>
       <r>  -12.0081    1.0000 </r>
       <r>  -11.9319    1.0000 </r>
       <r>  -11.8943    1.0000 </r>
       <r>  -11.8085    1.0000 </r>
       <r>  -11.7806    1.0000 </r>
       <r>  -11.7380    1.0000 </r>
       <r>  -11.6700    1.0000 </r>
       <r>  -11.6195    1.0000 </r>
       <r>  -11.3156    1.0000 </r>
       <r>  -11.2780    1.0000 </r>
       <r>  -11.1895    1.0000 </r>
       <r>  -11.1599    1.0000 </r>
       <r>  -11.0329    1.0000 </r>
       <r>  -10.9658    1.0000 </r>
       <r>  -10.8057    1.0000 </r>
       <r>  -10.7335    1.0000 </r>
       <r>  -10.6888    1.0000 </r>
       <r>  -10.6588    1.0000 </r>
       <r>  -10.5604    1.0000 </r>
       <r>  -10.5366    1.0000 </r>
       <r>  -10.5141    1.0000 </r>
       <r>  -10.4859    1.0000 </r>
       <r>  -10.4736    1.0000 </r>
       <r>  -10.4560    1.0000 </r>
       <r>  -10.3067    1.0000 </r>
       <r>  -10.2820    1.0000 </r>
       <r>  -10.2637    1.0000 </r>
       <r>  -10.2473    1.0000 </r>
       <r>  -10.2340    1.0000 </r>
       <r>  -10.2047    1.0000 </r>
       <r>  -10.1573    1.0000 </r>
       <r>  -10.0956    1.0000 </r>
       <r>  -10.0540    1.0000 </r>
[...]
       <r>   -22.6909    14.7448     6.8772 </r>
       <r>   -22.5937    16.9361     8.5222 </r>
       <r>   -22.4966    16.9028    10.1639 </r>
       <r>   -22.3995    14.2217    11.5452 </r>
       <r>   -22.3024    11.9272    12.7037 </r>
       <r>   -22.2052    12.0078    13.8700 </r>
       <r>   -22.1081    13.3897    15.1705 </r>
       <r>   -22.0110    14.3161    16.5610 </r>
       <r>   -21.9138    14.2912    17.9491 </r>
       <r>   -21.8167    13.7584    19.2854 </r>
       <r>   -21.7196    13.1278    20.5605 </r>
       <r>   -21.6225    12.3248    21.7576 </r>
       <r>   -21.5253    11.3426    22.8593 </r>
       <r>   -21.4282    10.8880    23.9168 </r>
       <r>   -21.3311    11.7483    25.0579 </r>
       <r>   -21.2339    13.8053    26.3988 </r>
       <r>   -21.1368    16.0484    27.9576 </r>
       <r>   -21.0397    17.0904    29.6175 </r>
       <r>   -20.9426    15.9793    31.1696 </r>
       <r>   -20.8454    13.3436    32.4656 </r>
       <r>   -20.7483    11.2452    33.5578 </r>
       <r>   -20.6512    11.2672    34.6522 </r>
       <r>   -20.5541    12.8274    35.8981 </r>
       <r>   -20.4569    13.9686    37.2548 </r>
       <r>   -20.3598    14.0366    38.6182 </r>
       <r>   -20.2627    14.2104    39.9984 </r>
       <r>   -20.1655    15.1058    41.4656 </r>
       <r>   -20.0684    15.8436    43.0045 </r>
       <r>   -19.9713    15.6780    44.5272 </r>
       <r>   -19.8742    14.4842    45.9341 </r>
       <r>   -19.7770    12.6591    47.1636 </r>
       <r>   -19.6799    12.0997    48.3388 </r>
       <r>   -19.5828    14.1171    49.7100 </r>
       <r>   -19.4856    16.5441    51.3169 </r>
       <r>   -19.3885    16.4979    52.9193 </r>
       <r>   -19.2914    14.4609    54.3239 </r>
       <r>   -19.1943    13.1439    55.6005 </r>
       <r>   -19.0971    13.7834    56.9393 </r>
       <r>   -19.0000    14.8020    58.3770 </r>
       <r>   -18.9029    14.1837    59.7546 </r>
       <r>   -18.8057    12.9389    61.0113 </r>
       <r>   -18.7086    13.9294    62.3643 </r>
       <r>   -18.6115    16.6541    63.9818 </r>
       <r>   -18.5144    17.4884    65.6805 </r>
       <r>   -18.4172    15.9657    67.2312 </r>
       <r>   -18.3201    15.3278    68.7199 </r>
       <r>   -18.2230    16.8064    70.3523 </r>
       <r>   -18.1258    18.0436    72.1049 </r>
       <r>   -18.0287    16.8111    73.7377 </r>
       <r>   -17.9316    14.0148    75.0989 </r>
       <r>   -17.8345    12.4801    76.3111 </r>
       <r>   -17.7373    12.8917    77.5632 </r>
       <r>   -17.6402    13.1220    78.8377 </r>
       <r>   -17.5431    12.2740    80.0299 </r>
       <r>   -17.4460    11.7354    81.1697 </r>
       <r>   -17.3488    11.8367    82.3194 </r>
       <r>   -17.2517    11.5409    83.4404 </r>
       <r>   -17.1546    10.8769    84.4968 </r>
       <r>   -17.0574    10.5758    85.5240 </r>
       <r>   -16.9603    10.5420    86.5479 </r>
       <r>   -16.8632    10.3148    87.5498 </r>
       <r>   -16.7661    10.3694    88.5570 </r>
       <r>   -16.6689    11.7597    89.6992 </r>
       <r>   -16.5718    14.0937    91.0681 </r>
       <r>   -16.4747    15.8083    92.6035 </r>
       <r>   -16.3775    16.4259    94.1989 </r>
       <r>   -16.2804    16.5577    95.8071 </r>
       <r>   -16.1833    16.7505    97.4341 </r>
       <r>   -16.0862    16.9995    99.0852 </r>
       <r>   -15.9890    16.8697   100.7237 </r>
       <r>   -15.8919    15.9979   102.2776 </r>
       <r>   -15.7948    14.3031   103.6668 </r>
       <r>   -15.6976    12.3512   104.8665 </r>
       <r>   -15.6005    10.9569   105.9307 </r>
       <r>   -15.5034    10.7642   106.9762 </r>
       <r>   -15.4063    13.0349   108.2422 </r>
       <r>   -15.3091    17.8110   109.9722 </r>
       <r>   -15.2120    22.2984   112.1380 </r>
       <r>   -15.1149    24.2146   114.4899 </r>
       <r>   -15.0177    23.7047   116.7923 </r>
       <r>   -14.9206    21.3749   118.8684 </r>
       <r>   -14.8235    17.6913   120.5867 </r>
       <r>   -14.7264    13.6271   121.9103 </r>
       <r>   -14.6292    10.2361   122.9045 </r>
       <r>   -14.5321     8.2752   123.7083 </r>
       <r>   -14.4350     8.2809   124.5126 </r>
       <r>   -14.3378     9.8726   125.4715 </r>
       <r>   -14.2407    11.6716   126.6051 </r>
       <r>   -14.1436    12.9518   127.8631 </r>
       <r>   -14.0465    13.8862   129.2119 </r>
       <r>   -13.9493    14.4169   130.6122 </r>
       <r>   -13.8522    14.7664   132.0464 </r>
       <r>   -13.7551    16.0071   133.6011 </r>
       <r>   -13.6580    18.2776   135.3764 </r>
       <r>   -13.5608    19.9493   137.3140 </r>
       <r>   -13.4637    20.0586   139.2623 </r>
       <r>   -13.3666    19.4788   141.1542 </r>
       <r>   -13.2694    19.0452   143.0041 </r>
       <r>   -13.1723    18.1602   144.7679 </r>
       <r>   -13.0752    16.2388   146.3452 </r>
       <r>   -12.9781    14.5355   147.7570 </r>
       <r>   -12.8809    14.5415   149.1694 </r>
       <r>   -12.7838    15.4636   150.6713 </r>
       <r>   -12.6867    15.2175   152.1494 </r>
       <r>   -12.5895    13.4599   153.4567 </r>
       <r>   -12.4924    12.1420   154.6360 </r>
       <r>   -12.3953    12.9023   155.8892 </r>
       <r>   -12.2982    15.6095   157.4053 </r>
       <r>   -12.2010    19.5307   159.3023 </r>
       <r>   -12.1039    23.5028   161.5851 </r>
       <r>   -12.0068    25.4775   164.0597 </r>
       <r>   -11.9096    24.6701   166.4558 </r>
       <r>   -11.8125    22.6376   168.6546 </r>
       <r>   -11.7154    20.7017   170.6653 </r>
       <r>   -11.6183    18.5608   172.4681 </r>
       <r>   -11.5211    16.2394   174.0454 </r>
       <r>   -11.4240    15.1199   175.5140 </r>
       <r>   -11.3269    16.2071   177.0881 </r>
       <r>   -11.2297    19.1558   178.9487 </r>
       <r>   -11.1326    23.2296   181.2049 </r>
       <r>   -11.0355    27.8839   183.9133 </r>
       <r>   -10.9384    32.0187   187.0232 </r>
       <r>   -10.8412    34.2355   190.3484 </r>
       <r>   -10.7441    34.6968   193.7184 </r>
       <r>   -10.6470    35.2282   197.1401 </r>
       <r>   -10.5499    36.8608   200.7203 </r>
       <r>   -10.4527    38.2271   204.4332 </r>
       <r>   -10.3556    37.8361   208.1082 </r>
       <r>   -10.2585    36.5302   211.6563 </r>
       <r>   -10.1613    35.6822   215.1220 </r>
       <r>   -10.0642    34.9097   218.5128 </r>
       <r>    -9.9671    33.1451   221.7321 </r>
       <r>    -9.8700    31.4911   224.7908 </r>
       <r>    -9.7728    32.5238   227.9497 </r>
       <r>    -9.6757    36.0211   231.4484 </r>
       <r>    -9.5786    39.4635   235.2814 </r>
       <r>    -9.4814    41.8949   239.3506 </r>
       <r>    -9.3843    42.9481   243.5221 </r>
       <r>    -9.2872    40.8391   247.4887 </r>
       <r>    -9.1901    35.4495   250.9318 </r>
       <r>    -9.0929    30.6180   253.9057 </r>
       <r>    -8.9958    29.8861   256.8085 </r>
       <r>    -8.8987    32.5242   259.9675 </r>
       <r>    -8.8015    35.8621   263.4507 </r>
       <r>    -8.7044    38.0218   267.1437 </r>
       <r>    -8.6073    37.6222   270.7979 </r>
       <r>    -8.5102    34.5192   274.1507 </r>
       <r>    -8.4130    30.8461   277.1467 </r>
       <r>    -8.3159    28.9372   279.9573 </r>
       <r>    -8.2188    28.5600   282.7313 </r>
       <r>    -8.1216    28.0466   285.4554 </r>
       <r>    -8.0245    26.9498   288.0730 </r>
       <r>    -7.9274    26.0206   290.6003 </r>
       <r>    -7.8303    26.1341   293.1387 </r>
       <r>    -7.7331    27.3494   295.7951 </r>
       <r>    -7.6360    28.7171   298.5843 </r>
       <r>    -7.5389    29.7207   301.4710 </r>
       <r>    -7.4417    30.4783   304.4313 </r>
       <r>    -7.3446    30.2963   307.3740 </r>
       <r>    -7.2475    28.3056   310.1232 </r>
       <r>    -7.1504    25.5655   312.6064 </r>
       <r>    -7.0532    24.1894   314.9558 </r>
       <r>    -6.9561    24.6342   317.3485 </r>
       <r>    -6.8590    25.8254   319.8569 </r>
       <r>    -6.7619    27.0004   322.4794 </r>
       <r>    -6.6647    27.3882   325.1395 </r>
       <r>    -6.5676    25.3902   327.6056 </r>
       <r>    -6.4705    21.1655   329.6614 </r>
       <r>    -6.3733    18.1756   331.4268 </r>
       <r>    -6.2762    18.7418   333.2471 </r>
       <r>    -6.1791    21.1043   335.2970 </r>
       <r>    -6.0820    23.2787   337.5580 </r>
       <r>    -5.9848    25.1470   340.0005 </r>
       <r>    -5.8877    26.0017   342.5259 </r>
       <r>    -5.7906    24.7284   344.9278 </r>
       <r>    -5.6934    21.7301   347.0384 </r>
       <r>    -5.5963    18.0425   348.7908 </r>
       <r>    -5.4992    14.1161   350.1619 </r>
       <r>    -5.4021    10.7459   351.2056 </r>
       <r>    -5.3049     9.6656   352.1444 </r>
       <r>    -5.2078    11.0819   353.2208 </r>
       <r>    -5.1107    12.1839   354.4042 </r>
       <r>    -5.0135    10.9005   355.4629 </r>
       <r>    -4.9164     8.8590   356.3234 </r>
       <r>    -4.8193     8.5312   357.1520 </r>
       <r>    -4.7222    10.1768   358.1405 </r>
       <r>    -4.6250    12.7450   359.3784 </r>
       <r>    -4.5279    15.1799   360.8528 </r>
       <r>    -4.4308    15.6455   362.3724 </r>
       <r>    -4.3336    12.6161   363.5978 </r>
       <r>    -4.2365     7.8161   364.3569 </r>
       <r>    -4.1394     4.3444   364.7789 </r>
       <r>    -4.0423     2.9074   365.0613 </r>
       <r>    -3.9451     2.4670   365.3009 </r>
       <r>    -3.8480     2.4091   365.5349 </r>
       <r>    -3.7509     2.8317   365.8099 </r>
       <r>    -3.6538     3.6932   366.1686 </r>
       <r>    -3.5566     4.4233   366.5983 </r>
       <r>    -3.4595     4.3666   367.0224 </r>
       <r>    -3.3624     3.5698   367.3691 </r>
       <r>    -3.2652     2.9705   367.6576 </r>
       <r>    -3.1681     3.1553   367.9641 </r>
       <r>    -3.0710     3.6675   368.3203 </r>
       <r>    -2.9739     4.1187   368.7204 </r>
       <r>    -2.8767     4.7790   369.1845 </r>
       <r>    -2.7796     6.1964   369.7864 </r>
       <r>    -2.6825     8.4363   370.6058 </r>
       <r>    -2.5853     9.8156   371.5591 </r>
       <r>    -2.4882     8.4616   372.3810 </r>
       <r>    -2.3911     5.5729   372.9223 </r>
       <r>    -2.2940     4.0149   373.3123 </r>
       <r>    -2.1968     4.8216   373.7806 </r>
       <r>    -2.0997     6.7072   374.4320 </r>
       <r>    -2.0026     7.3671   375.1476 </r>
       <r>    -1.9054     6.0567   375.7359 </r>
       <r>    -1.8083     5.1262   376.2338 </r>
       <r>    -1.7112     7.3393   376.9466 </r>
       <r>    -1.6141    12.8411   378.1938 </r>
       <r>    -1.5169    19.2146   380.0601 </r>
       <r>    -1.4198    23.3366   382.3268 </r>
       <r>    -1.3227    23.5317   384.6124 </r>
       <r>    -1.2255    21.0196   386.6540 </r>
       <r>    -1.1284    19.0325   388.5025 </r>
       <r>    -1.0313    18.7766   390.3263 </r>
       <r>    -0.9342    17.9904   392.0737 </r>
       <r>    -0.8370    15.4951   393.5787 </r>
       <r>    -0.7399    13.1256   394.8535 </r>
       <r>    -0.6428    12.3585   396.0539 </r>
       <r>    -0.5456    12.6715   397.2847 </r>
       <r>    -0.4485    12.5404   398.5027 </r>
       <r>    -0.3514    11.3537   399.6054 </r>
       <r>    -0.2543    11.0280   400.6766 </r>
       <r>    -0.1571    13.4254   401.9806 </r>
       <r>    -0.0600    17.2302   403.6541 </r>
       <r>     0.0371    20.1675   405.6129 </r>
       <r>     0.1342    21.6890   407.7195 </r>
       <r>     0.2314    21.9698   409.8534 </r>
       <r>     0.3285    21.1134   411.9041 </r>
       <r>     0.4256    19.6798   413.8156 </r>
       <r>     0.5228    18.9071   415.6520 </r>
       <r>     0.6199    20.4305   417.6364 </r>
       <r>     0.7170    24.4737   420.0135 </r>
       <r>     0.8141    28.7393   422.8049 </r>
       <r>     0.9113    31.3061   425.8456 </r>
       <r>     1.0084    33.6447   429.1134 </r>
       <r>     1.1055    37.8539   432.7901 </r>
       <r>     1.2027    43.3485   437.0005 </r>
       <r>     1.2998    48.1883   441.6809 </r>
       <r>     1.3969    50.3983   446.5760 </r>
       <r>     1.4940    48.6473   451.3010 </r>
       <r>     1.5912    43.3039   455.5070 </r>
       <r>     1.6883    35.5132   458.9564 </r>
       <r>     1.7854    25.7438   461.4568 </r>
       <r>     1.8826    15.3224   462.9451 </r>
       <r>     1.9797     7.1601   463.6405 </r>
       <r>     2.0768     2.6622   463.8991 </r>
       <r>     2.1739     0.8078   463.9775 </r>
       <r>     2.2711     0.1934   463.9963 </r>
       <r>     2.3682     0.0337   463.9996 </r>
       <r>     2.4653     0.0040   464.0000 </r>
       <r>     2.5625     0.0003   464.0000 </r>
       <r>     2.6596     0.0000   464.0000 </r>
       <r>     2.7567     0.0000   464.0000 </r>
       <r>     2.8538     0.0000   464.0000 </r>
       <r>     2.9510     0.0000   464.0000 </r>
       <r>     3.0481     0.0000   464.0000 </r>
       <r>     3.1452     0.0000   464.0000 </r>
       <r>     3.2423     0.0000   464.0000 </r>
       <r>     3.3395     0.0000   464.0000 </r>
       <r>     3.4366     0.0000   464.0000 </r>
       <r>     3.5337     0.0000   464.0000 </r>
       <r>     3.6309     0.0000   464.0000 </r>
       <r>     3.7280     0.0000   464.0000 </r>
       <r>     3.8251     0.0000   464.0000 </r>
       <r>     3.9222     0.0000   464.0000 </r>
      </set>
     </set>
    </array>
   </total>
  </dos>
 </calculation>
 <structure name="finalpos" >
  <crystal>
   <varray name="basis" >
    <v>      28.05000000       0.00000000       0.00000000 </v>
    <v>       0.00000000       8.10000000       0.00000000 </v>
    <v>       0.00000000       0.00000000      33.50000000 </v>
   </varray>
   <i name="volume">   7611.36750000 </i>
   <varray name="rec_basis" >
    <v>       0.03565062       0.00000000       0.00000000 </v>
    <v>       0.00000000       0.12345679       0.00000000 </v>
    <v>       0.00000000       0.00000000       0.02985075 </v>
   </varray>
  </crystal>
  <varray name="positions" >
   <v>       0.71477718       0.52186790       0.97450746 </v>
   <v>       0.71411765       0.68540988       0.96540299 </v>
   <v>       0.75713369       0.44159383       0.97376119 </v>
   <v>       0.75609982       0.77517284       0.96382090 </v>
   <v>       0.80077362       0.52284568       0.96373134 </v>
   <v>       0.80053832       0.69253827       0.95910448 </v>
   <v>       0.84562923       0.44226914       0.96373134 </v>
   <v>       0.84460963       0.77548889       0.95674627 </v>
   <v>       0.88748663       0.52214444       0.95152239 </v>
   <v>       0.88680927       0.69014691       0.94946269 </v>
   <v>       0.93089483       0.44180000       0.94328358 </v>
   <v>       0.93058111       0.77065432       0.94200000 </v>
   <v>       0.97258824       0.52113086       0.92782090 </v>
   <v>       0.97331907       0.69059012       0.92764179 </v>
   <v>       0.01628135       0.43585802       0.92068657 </v>
   <v>       0.01628392       0.77337037       0.91785075 </v>
   <v>       0.05718253       0.52244691       0.90397015 </v>
   <v>       0.05754474       0.69046296       0.90232836 </v>
   <v>       0.10013119       0.44175926       0.89755224 </v>
   <v>       0.10166702       0.77440370       0.89602985 </v>
   <v>       0.14496720       0.51987901       0.88853731 </v>
   <v>       0.14563708       0.69102716       0.88677612 </v>
   <v>       0.19033155       0.44038519       0.88298507 </v>
   <v>       0.18850553       0.77618642       0.88241791 </v>
   <v>       0.23395651       0.52366790       0.88065672 </v>
   <v>       0.23320250       0.69452840       0.87850746 </v>
   <v>       0.27966025       0.44555309       0.88116418 </v>
   <v>       0.27928378       0.77421358       0.87931343 </v>
   <v>       0.32413333       0.52268642       0.88402985 </v>
   <v>       0.32368627       0.69395185       0.88411940 </v>
   <v>       0.36734403       0.44209012       0.89364179 </v>
   <v>       0.36660963       0.77932840       0.89176119 </v>
   <v>       0.41149376       0.52670247       0.90116418 </v>
   <v>       0.41089483       0.69429383       0.89943284 </v>
   <v>       0.45130838       0.44228025       0.91617910 </v>
   <v>       0.45409982       0.77636543       0.91119403 </v>
   <v>       0.49321212       0.52042099       0.92871642 </v>
   <v>       0.49535472       0.69254198       0.92474627 </v>
   <v>       0.53236007       0.44542593       0.94874627 </v>
   <v>       0.53618895       0.77554074       0.93946269 </v>
   <v>       0.57608913       0.52755926       0.95800000 </v>
   <v>       0.57835651       0.69184815       0.95149254 </v>
   <v>       0.61885561       0.44360000       0.97068657 </v>
   <v>       0.62189305       0.77935062       0.95814925 </v>
   <v>       0.66222103       0.52626173       0.97626866 </v>
   <v>       0.66377184       0.69688765       0.96835821 </v>
   <v>       0.71372193       0.02710568       0.97301493 </v>
   <v>       0.71393939       0.19660988       0.98023881 </v>
   <v>       0.75549733       0.94318765       0.97110448 </v>
   <v>       0.75820321       0.27208765       0.97853731 </v>
   <v>       0.80159358       0.02222086       0.97391045 </v>
   <v>       0.80258824       0.19273951       0.97522388 </v>
   <v>       0.84648841       0.94069630       0.96626866 </v>
   <v>       0.84645989       0.27701235       0.97026866 </v>
   <v>       0.89083422       0.02200556       0.96062687 </v>
   <v>       0.89126203       0.19189259       0.96205970 </v>
   <v>       0.93325134       0.93697778       0.94934328 </v>
   <v>       0.93323708       0.27518889       0.95110448 </v>
   <v>       0.97684492       0.02040926       0.94238806 </v>
   <v>       0.97777184       0.19181358       0.94450746 </v>
   <v>       0.01735590       0.94066914       0.92453731 </v>
   <v>       0.01803561       0.27339630       0.92850746 </v>
   <v>       0.05947879       0.02529827       0.91202985 </v>
   <v>       0.06145811       0.19346420       0.91752239 </v>
   <v>       0.10149447       0.94342222       0.90068657 </v>
   <v>       0.10385241       0.27297407       0.90379104 </v>
   <v>       0.14581141       0.02178679       0.89573134 </v>
   <v>       0.14624706       0.19381111       0.89635821 </v>
   <v>       0.18912585       0.94273580       0.88635821 </v>
   <v>       0.18961390       0.27291852       0.88808955 </v>
   <v>       0.23450446       0.02545827       0.88313433 </v>
   <v>       0.23417184       0.19624691       0.88408955 </v>
   <v>       0.27765098       0.94298889       0.88271642 </v>
   <v>       0.27858681       0.27507284       0.88107463 </v>
   <v>       0.32140998       0.02325519       0.88913433 </v>
   <v>       0.32134403       0.19373704       0.88907463 </v>
   <v>       0.36575045       0.94347778       0.89510448 </v>
   <v>       0.36521569       0.27690494       0.89973134 </v>
   <v>       0.40854902       0.02947037       0.90659701 </v>
   <v>       0.40712299       0.19709259       0.91319403 </v>
   <v>       0.45147950       0.94382222       0.91501493 </v>
   <v>       0.44871301       0.27924074       0.92591045 </v>
   <v>       0.49278788       0.02646877       0.93020896 </v>
   <v>       0.49027094       0.19566543       0.93743284 </v>
   <v>       0.53474866       0.94284691       0.94152239 </v>
   <v>       0.53187879       0.27648519       0.95146269 </v>
   <v>       0.57737968       0.02623481       0.95185075 </v>
   <v>       0.57459180       0.19004938       0.96035821 </v>
   <v>       0.62036007       0.94598889       0.95889552 </v>
   <v>       0.61774332       0.27428642       0.97211940 </v>
   <v>       0.66205348       0.02275012       0.97191045 </v>
   <v>       0.66147594       0.19495432       0.97832836 </v>
  </varray>
 </structure>
</modeling>
