<?xml version="1.0" encoding="ISO-8859-1"?>
<modeling>
 <generator>
  <i name="program" type="string">vasp </i>
  <i name="version" type="string">6.5.0  </i>
  <i name="subversion" type="string">16Dec24 (build Feb 19 2025 19:45:31) complex                          parallel </i>
  <i name="platform" type="string">LinuxNV </i>
  <i name="date" type="string">2025 10 25 </i>
  <i name="time" type="string">15:08:45 </i>
 </generator>
 <incar>
  <i type="int" name="ISTART">     0</i>
  <i type="string" name="PREC">Accurate   (Precision level)</i>
  <i type="string" name="ALGO">Normal</i>
  <i type="int" name="ISPIN">     1</i>
  <i type="int" name="ICHARG">     2</i>
  <i type="int" name="NELM">   150</i>
  <i type="int" name="IBRION">    -1</i>
  <i name="EDIFF">      0.00000100</i>
  <i type="int" name="NSW">     0</i>
  <i name="ENCUT">    500.00000000</i>
  <i type="string" name="LREAL">Auto         (Projection operators: automatic)</i>
  <i type="int" name="ISMEAR">     0</i>
  <i type="logical" name="KGAMMA"> T  </i>
  <i type="logical" name="LWAVE"> F  </i>
  <i type="logical" name="LCHARG"> F  </i>
 </incar>
 <primitive_cell>
  <structure name="primitive_cell" >
   <crystal>
    <varray name="basis" >
     <v>      28.05000000       0.00000000       0.00000000 </v>
     <v>       0.00000000       8.10000000       0.00000000 </v>
     <v>       0.00000000       0.00000000      33.50000000 </v>
    </varray>
    <i name="volume">   7611.36750000 </i>
    <varray name="rec_basis" >
     <v>       0.03565062       0.00000000       0.00000000 </v>
     <v>       0.00000000       0.12345679       0.00000000 </v>
     <v>       0.00000000       0.00000000       0.02985075 </v>
    </varray>
   </crystal>
   <varray name="positions" >
    <v>       0.00377850       0.10279605       0.55132239 </v>
    <v>       0.00488873       0.27348765       0.54682388 </v>
    <v>       0.04835294       0.02691049       0.55076716 </v>
    <v>       0.04752620       0.36180000       0.54370448 </v>
    <v>       0.09287843       0.11320272       0.55406866 </v>
    <v>       0.09281176       0.28116543       0.54981493 </v>
    <v>       0.13870125       0.03143877       0.55283284 </v>
    <v>       0.13686061       0.36595802       0.54047463 </v>
    <v>       0.18468627       0.10869012       0.54735224 </v>
    <v>       0.18247914       0.27970370       0.54131940 </v>
    <v>       0.22817148       0.02628531       0.53444179 </v>
    <v>       0.22478182       0.35880741       0.52683582 </v>
    <v>       0.26918075       0.11168926       0.52077015 </v>
    <v>       0.26591765       0.27582840       0.51511343 </v>
    <v>       0.31258111       0.02110827       0.51018209 </v>
    <v>       0.30677790       0.35501605       0.49590448 </v>
    <v>       0.35215971       0.10214827       0.49623284 </v>
    <v>       0.34855294       0.26999383       0.48542388 </v>
    <v>       0.39498752       0.01713062       0.48572836 </v>
    <v>       0.39281283       0.34936420       0.47600896 </v>
    <v>       0.43692692       0.10570506       0.46957910 </v>
    <v>       0.43630303       0.26832963       0.46506269 </v>
    <v>       0.48058824       0.02463111       0.46116716 </v>
    <v>       0.48090909       0.34883210       0.45458806 </v>
    <v>       0.52581105       0.09735568       0.45143284 </v>
    <v>       0.52505526       0.26829506       0.44946567 </v>
    <v>       0.56780392       0.01956173       0.45955224 </v>
    <v>       0.56947594       0.35390000       0.44852537 </v>
    <v>       0.61235651       0.10426593       0.45880597 </v>
    <v>       0.61311230       0.27017037       0.45632836 </v>
    <v>       0.65555793       0.01676864       0.46770746 </v>
    <v>       0.65716578       0.34985556       0.45853134 </v>
    <v>       0.69833868       0.10091321       0.47571045 </v>
    <v>       0.70006774       0.26956914       0.46967164 </v>
    <v>       0.74110160       0.02124753       0.48897612 </v>
    <v>       0.74288770       0.35534691       0.48260000 </v>
    <v>       0.78113012       0.10162086       0.50392239 </v>
    <v>       0.78372193       0.27469136       0.49902388 </v>
    <v>       0.82425668       0.02373827       0.51245075 </v>
    <v>       0.82795009       0.35389877       0.50445075 </v>
    <v>       0.86735472       0.09851025       0.52081194 </v>
    <v>       0.87027094       0.26967531       0.51601791 </v>
    <v>       0.91125134       0.01485938       0.52997612 </v>
    <v>       0.91503743       0.34677284       0.51968358 </v>
    <v>       0.95231373       0.09728827       0.54275821 </v>
    <v>       0.95259893       0.27246173       0.53856418 </v>
    <v>       0.00691102       0.60806914       0.52611343 </v>
    <v>       0.00512927       0.78692716       0.53251343 </v>
    <v>       0.04747772       0.52471728       0.53321194 </v>
    <v>       0.04929483       0.85854815       0.54201493 </v>
    <v>       0.09165241       0.61853333       0.53591940 </v>
    <v>       0.09338146       0.77669136       0.54434627 </v>
    <v>       0.13497184       0.53160247       0.53183582 </v>
    <v>       0.13912050       0.86134198       0.54644179 </v>
    <v>       0.18071836       0.61451852       0.53190746 </v>
    <v>       0.18200963       0.78125556       0.53785075 </v>
    <v>       0.22217790       0.52693457       0.52196119 </v>
    <v>       0.22616542       0.86103333       0.53079104 </v>
    <v>       0.26592941       0.61041481       0.51005373 </v>
    <v>       0.26957718       0.77746790       0.51652239 </v>
    <v>       0.30626275       0.51987407       0.49742388 </v>
    <v>       0.31304848       0.85084321       0.50787761 </v>
    <v>       0.34986096       0.60245802       0.48641194 </v>
    <v>       0.35324777       0.76823580       0.49377612 </v>
    <v>       0.39283422       0.52142469       0.47630746 </v>
    <v>       0.39612121       0.84949383       0.48413134 </v>
    <v>       0.43673440       0.60137407       0.46720000 </v>
    <v>       0.43959715       0.76826049       0.47250149 </v>
    <v>       0.47890909       0.52252346       0.45577313 </v>
    <v>       0.48100178       0.85776667       0.46708060 </v>
    <v>       0.52375758       0.59905802       0.45440896 </v>
    <v>       0.52442068       0.76353086       0.46128657 </v>
    <v>       0.56971836       0.52197284       0.44794030 </v>
    <v>       0.56861319       0.84277901       0.46467463 </v>
    <v>       0.61375758       0.60089877       0.45362687 </v>
    <v>       0.61257398       0.76167160       0.46571045 </v>
    <v>       0.65868449       0.51656049       0.45497015 </v>
    <v>       0.65601426       0.84743951       0.47006567 </v>
    <v>       0.70131194       0.60269012       0.46481493 </v>
    <v>       0.70175401       0.77007160       0.47195821 </v>
    <v>       0.74419608       0.52202222       0.47556716 </v>
    <v>       0.74448128       0.85665556       0.48142388 </v>
    <v>       0.79016043       0.60072346       0.48171343 </v>
    <v>       0.78817825       0.77025062       0.48705373 </v>
    <v>       0.83033155       0.51969012       0.49620597 </v>
    <v>       0.82640998       0.85250617       0.50484478 </v>
    <v>       0.87407130       0.60118889       0.50295821 </v>
    <v>       0.87127273       0.76912346       0.50924179 </v>
    <v>       0.91688414       0.51405062       0.51241493 </v>
    <v>       0.91402852       0.85436667       0.51976418 </v>
    <v>       0.95960784       0.59684074       0.51708657 </v>
    <v>       0.95729055       0.77609877       0.52143284 </v>
   </varray>
  </structure>
  <varray name="primitive_index" >
   <v type="int" >        1 </v>
   <v type="int" >        2 </v>
   <v type="int" >        3 </v>
   <v type="int" >        4 </v>
   <v type="int" >        5 </v>
   <v type="int" >        6 </v>
   <v type="int" >        7 </v>
   <v type="int" >        8 </v>
   <v type="int" >        9 </v>
   <v type="int" >       10 </v>
   <v type="int" >       11 </v>
   <v type="int" >       12 </v>
   <v type="int" >       13 </v>
   <v type="int" >       14 </v>
   <v type="int" >       15 </v>
   <v type="int" >       16 </v>
   <v type="int" >       17 </v>
   <v type="int" >       18 </v>
   <v type="int" >       19 </v>
   <v type="int" >       20 </v>
   <v type="int" >       21 </v>
   <v type="int" >       22 </v>
   <v type="int" >       23 </v>
   <v type="int" >       24 </v>
   <v type="int" >       25 </v>
   <v type="int" >       26 </v>
   <v type="int" >       27 </v>
   <v type="int" >       28 </v>
   <v type="int" >       29 </v>
   <v type="int" >       30 </v>
   <v type="int" >       31 </v>
   <v type="int" >       32 </v>
   <v type="int" >       33 </v>
   <v type="int" >       34 </v>
   <v type="int" >       35 </v>
   <v type="int" >       36 </v>
   <v type="int" >       37 </v>
   <v type="int" >       38 </v>
   <v type="int" >       39 </v>
   <v type="int" >       40 </v>
   <v type="int" >       41 </v>
   <v type="int" >       42 </v>
   <v type="int" >       43 </v>
   <v type="int" >       44 </v>
   <v type="int" >       45 </v>
   <v type="int" >       46 </v>
   <v type="int" >       47 </v>
   <v type="int" >       48 </v>
   <v type="int" >       49 </v>
   <v type="int" >       50 </v>
   <v type="int" >       51 </v>
   <v type="int" >       52 </v>
   <v type="int" >       53 </v>
   <v type="int" >       54 </v>
   <v type="int" >       55 </v>
   <v type="int" >       56 </v>
   <v type="int" >       57 </v>
   <v type="int" >       58 </v>
   <v type="int" >       59 </v>
   <v type="int" >       60 </v>
   <v type="int" >       61 </v>
   <v type="int" >       62 </v>
   <v type="int" >       63 </v>
   <v type="int" >       64 </v>
   <v type="int" >       65 </v>
   <v type="int" >       66 </v>
   <v type="int" >       67 </v>
   <v type="int" >       68 </v>
   <v type="int" >       69 </v>
   <v type="int" >       70 </v>
   <v type="int" >       71 </v>
   <v type="int" >       72 </v>
   <v type="int" >       73 </v>
   <v type="int" >       74 </v>
   <v type="int" >       75 </v>
   <v type="int" >       76 </v>
   <v type="int" >       77 </v>
   <v type="int" >       78 </v>
   <v type="int" >       79 </v>
   <v type="int" >       80 </v>
   <v type="int" >       81 </v>
   <v type="int" >       82 </v>
   <v type="int" >       83 </v>
   <v type="int" >       84 </v>
   <v type="int" >       85 </v>
   <v type="int" >       86 </v>
   <v type="int" >       87 </v>
   <v type="int" >       88 </v>
   <v type="int" >       89 </v>
   <v type="int" >       90 </v>
   <v type="int" >       91 </v>
   <v type="int" >       92 </v>
  </varray>
 </primitive_cell>
 <kpoints>
  <generation param="Gamma">
   <v type="int" name="divisions">       1        4        1 </v>
   <v name="usershift">      0.00000000       0.00000000       0.00000000 </v>
   <v name="genvec1">      1.00000000       0.00000000       0.00000000 </v>
   <v name="genvec2">      0.00000000       0.25000000       0.00000000 </v>
   <v name="genvec3">      0.00000000       0.00000000       1.00000000 </v>
   <v name="shift">      0.00000000       0.00000000       0.00000000 </v>
  </generation>
  <varray name="kpointlist" >
   <v>       0.00000000       0.00000000       0.00000000 </v>
   <v>       0.00000000       0.25000000       0.00000000 </v>
   <v>       0.00000000       0.50000000       0.00000000 </v>
  </varray>
  <varray name="weights" >
   <v>       0.25000000 </v>
   <v>       0.50000000 </v>
   <v>       0.25000000 </v>
  </varray>
 </kpoints>
 <parameters>
  <separator name="general" >
   <i type="string" name="SYSTEM">unknown system</i>
   <i type="logical" name="LCOMPAT"> F  </i>
  </separator>
  <separator name="electronic" >
   <i type="string" name="PREC">accura</i>
   <i name="ENMAX">    500.00000000</i>
   <i name="ENAUG">    644.87300000</i>
   <i name="EDIFF">      0.00000100</i>
   <i type="int" name="IALGO">    38</i>
   <i type="int" name="IWAVPR">    10</i>
   <i type="int" name="NBANDS">   232</i>
   <i type="int" name="NBANDSLOW">    -1</i>
   <i type="int" name="NBANDSHIGH">    -1</i>
   <i name="NELECT">    368.00000000</i>
   <i type="int" name="TURBO">     0</i>
   <i type="int" name="IRESTART">     0</i>
   <i type="int" name="NREBOOT">     0</i>
   <i type="int" name="NMIN">     0</i>
   <i name="EREF">      0.00000000</i>
   <separator name="electronic smearing" >
    <i type="int" name="ISMEAR">     0</i>
    <i name="SIGMA">      0.20000000</i>
    <i name="KSPACING">      0.50000000</i>
    <i type="logical" name="KGAMMA"> T  </i>
    <i type="logical" name="KBLOWUP"> T  </i>
   </separator>
   <separator name="electronic projectors" >
    <i type="logical" name="LREAL"> T  </i>
    <v name="ROPT">     -0.00025000</v>
    <i type="int" name="LMAXPAW">  -100</i>
    <i type="int" name="LMAXMIX">     2</i>
    <i type="logical" name="NLSPLINE"> F  </i>
   </separator>
   <separator name="electronic startup" >
    <i type="int" name="ISTART">     0</i>
    <i type="int" name="ICHARG">     2</i>
    <i type="int" name="INIWAV">     1</i>
   </separator>
   <separator name="electronic spin" >
    <i type="int" name="ISPIN">     1</i>
    <i type="logical" name="LNONCOLLINEAR"> F  </i>
    <v name="MAGMOM">      1.00000000      1.00000000      1.00000000      1.00000000      1.00000000      1.00000000      1.00000000      1.00000000      1.00000000      1.00000000      1.00000000      1.00000000      1.00000000      1.00000000      1.00000000      1.00000000      1.00000000      1.00000000      1.00000000      1.00000000
      1.00000000      1.00000000      1.00000000      1.00000000      1.00000000      1.00000000      1.00000000      1.00000000      1.00000000      1.00000000      1.00000000      1.00000000      1.00000000      1.00000000      1.00000000      1.00000000      1.00000000      1.00000000      1.00000000      1.00000000
      1.00000000      1.00000000      1.00000000      1.00000000      1.00000000      1.00000000      1.00000000      1.00000000      1.00000000      1.00000000      1.00000000      1.00000000      1.00000000      1.00000000      1.00000000      1.00000000      1.00000000      1.00000000      1.00000000      1.00000000
      1.00000000      1.00000000      1.00000000      1.00000000      1.00000000      1.00000000      1.00000000      1.00000000      1.00000000      1.00000000      1.00000000      1.00000000      1.00000000      1.00000000      1.00000000      1.00000000      1.00000000      1.00000000      1.00000000      1.00000000
      1.00000000      1.00000000      1.00000000      1.00000000      1.00000000      1.00000000      1.00000000      1.00000000      1.00000000      1.00000000      1.00000000      1.00000000</v>
    <i name="NUPDOWN">     -1.00000000</i>
    <i type="logical" name="LSORBIT"> F  </i>
    <v name="SAXIS">      0.00000000      0.00000000      1.00000000</v>
    <i type="logical" name="LSPIRAL"> F  </i>
    <v name="QSPIRAL">      0.00000000      0.00000000      0.00000000</v>
    <i type="logical" name="LZEROZ"> F  </i>
   </separator>
   <separator name="electronic exchange-correlation" >
    <i type="logical" name="LASPH"> F  </i>
   </separator>
   <separator name="electronic convergence" >
    <i type="int" name="NELM">   150</i>
    <i type="int" name="NELMDL">    -5</i>
    <i type="int" name="NELMIN">     2</i>
    <i name="ENINI">    500.00000000</i>
    <separator name="electronic convergence detail" >
     <i type="logical" name="LDIAG"> T  </i>
     <i type="logical" name="LSUBROT"> F  </i>
     <i name="WEIMIN">      0.00000000</i>
     <i name="EBREAK">      0.00000000</i>
     <i name="DEPER">      0.30000000</i>
     <i type="int" name="NRMM">     4</i>
     <i name="TIME">      0.40000000</i>
    </separator>
   </separator>
   <separator name="electronic mixer" >
    <i name="AMIX">      0.40000000</i>
    <i name="BMIX">      1.00000000</i>
    <i name="AMIN">      0.10000000</i>
    <i name="AMIX_MAG">      1.60000000</i>
    <i name="BMIX_MAG">      1.00000000</i>
    <separator name="electronic mixer details" >
     <i type="int" name="IMIX">     4</i>
     <i type="logical" name="MIXFIRST"> F  </i>
     <i type="int" name="MAXMIX">   -45</i>
     <i name="WC">    100.00000000</i>
     <i type="int" name="INIMIX">     1</i>
     <i type="int" name="MIXPRE">     1</i>
     <i type="int" name="MREMOVE">     5</i>
    </separator>
   </separator>
   <separator name="electronic dipolcorrection" >
    <i type="logical" name="LDIPOL"> F  </i>
    <i type="logical" name="LMONO"> F  </i>
    <i type="int" name="IDIPOL">     0</i>
    <i name="EPSILON">      1.00000000</i>
    <v name="DIPOL">   -100.00000000   -100.00000000   -100.00000000</v>
    <i name="EFIELD">      0.00000000</i>
    <i type="logical" name="LVACPOTAV"> F  </i>
   </separator>
  </separator>
  <separator name="grids" >
   <i type="int" name="NGX">   210</i>
   <i type="int" name="NGY">    60</i>
   <i type="int" name="NGZ">   250</i>
   <i type="int" name="NGXF">   420</i>
   <i type="int" name="NGYF">   120</i>
   <i type="int" name="NGZF">   500</i>
   <i type="logical" name="ADDGRID"> F  </i>
  </separator>
  <separator name="ionic" >
   <i type="int" name="NSW">     0</i>
   <i type="int" name="IBRION">    -1</i>
   <i type="int" name="MDALGO">     0</i>
   <i type="int" name="ISIF">     2</i>
   <i name="PSTRESS">      0.00000000</i>
   <i name="EDIFFG">      0.00001000</i>
   <i type="int" name="NFREE">     0</i>
   <i name="POTIM">      0.50000000</i>
   <i name="SMASS">     -3.00000000</i>
   <i name="SCALEE">      1.00000000</i>
  </separator>
  <separator name="ionic md" >
   <i name="TEBEG">      0.00010000</i>
   <i name="TEEND">      0.00010000</i>
   <i type="int" name="NBLOCK">     1</i>
   <i type="int" name="KBLOCK">     1</i>
   <i type="int" name="NPACO">   256</i>
   <i name="APACO">     10.00000000</i>
  </separator>
  <separator name="symmetry" >
   <i type="int" name="ISYM">     2</i>
   <i name="SYMPREC">      0.00001000</i>
  </separator>
  <separator name="dos" >
   <i type="int" name="LORBIT">     0</i>
   <v name="RWIGS">     -1.00000000</v>
   <i type="int" name="NEDOS">   301</i>
   <i name="EMIN">     10.00000000</i>
   <i name="EMAX">    -10.00000000</i>
   <i name="EFERMI">      0.00000000</i>
  </separator>
  <separator name="writing" >
   <i type="int" name="NWRITE">     2</i>
   <i type="logical" name="LWAVE"> F  </i>
   <i type="logical" name="LDOWNSAMPLE"> F  </i>
   <i type="logical" name="LCHARG"> F  </i>
   <i type="logical" name="LPARD"> F  </i>
   <i type="logical" name="LVTOT"> F  </i>
   <i type="logical" name="LVHAR"> F  </i>
   <i type="logical" name="LELF"> F  </i>
   <i type="logical" name="LOPTICS"> F  </i>
   <v name="STM">      0.00000000      0.00000000      0.00000000      0.00000000      0.00000000      0.00000000      0.00000000</v>
  </separator>
  <separator name="performance" >
   <i type="int" name="NPAR">     2</i>
   <i type="int" name="NSIM">     4</i>
   <i type="int" name="NBLK">    -1</i>
   <i type="logical" name="LPLANE"> T  </i>
   <i type="logical" name="LSCALAPACK"> T  </i>
   <i type="logical" name="LSCAAWARE"> F  </i>
   <i type="logical" name="LSCALU"> F  </i>
   <i type="logical" name="LASYNC"> F  </i>
   <i type="logical" name="LORBITALREAL"> F  </i>
  </separator>
  <separator name="miscellaneous" >
   <i type="int" name="IDIOT">     3</i>
   <i type="int" name="PHON_NSTRUCT">    -1</i>
   <i type="logical" name="LMUSIC"> F  </i>
   <v name="POMASS">     12.01100000</v>
   <v name="DARWINR">      0.00000000</v>
   <v name="DARWINV">      1.00000000</v>
   <i type="logical" name="LCORR"> T  </i>
  </separator>
  <i type="logical" name="GGA_COMPAT"> T  </i>
  <i type="logical" name="LBERRY"> F  </i>
  <i type="int" name="ICORELEVEL">     0</i>
  <i type="logical" name="LDAU"> F  </i>
  <i type="int" name="I_CONSTRAINED_M">     0</i>
  <separator name="electronic exchange-correlation" >
   <i type="string" name="GGA    ">PE</i>
   <i type="string" name="XC_C">1</i>
   <i type="int" name="VOSKOWN">     0</i>
   <i type="logical" name="LHFCALC"> F  </i>
   <i type="string" name="PRECFOCK"></i>
   <i type="logical" name="LSYMGRAD"> F  </i>
   <i type="logical" name="LHFONE"> F  </i>
   <i type="logical" name="LRHFCALC"> F  </i>
   <i type="logical" name="LTHOMAS"> F  </i>
   <i type="logical" name="LMODELHF"> F  </i>
   <i type="logical" name="LFOCKACE"> F  </i>
   <i name="ENCUT4O">     -1.00000000</i>
   <i type="int" name="EXXOEP">     0</i>
   <i type="int" name="FOURORBIT">     0</i>
   <i name="AEXX">      0.00000000</i>
   <i name="HFALPHA">      0.00000000</i>
   <i name="MCALPHA">      0.00000000</i>
   <i name="ALDAX">      1.00000000</i>
   <i name="AGGAX">      1.00000000</i>
   <i name="AMGGAX">      1.00000000</i>
   <i name="ALDAC">      1.00000000</i>
   <i name="AGGAC">      1.00000000</i>
   <i name="AMGGAC">      1.00000000</i>
   <i type="int" name="NKREDX">     1</i>
   <i type="int" name="NKREDY">     1</i>
   <i type="int" name="NKREDZ">     1</i>
   <i type="logical" name="SHIFTRED"> F  </i>
   <i type="logical" name="ODDONLY"> F  </i>
   <i type="logical" name="EVENONLY"> F  </i>
   <i type="int" name="LMAXFOCK">     0</i>
   <i type="int" name="NMAXFOCKAE">     0</i>
   <i type="logical" name="LFOCKAEDFT"> F  </i>
   <i name="HFSCREEN">      0.00000000</i>
   <i name="HFSCREENC">      0.00000000</i>
   <i type="int" name="NBANDSGWLOW">     0</i>
  </separator>
  <separator name="vdW DFT" >
   <i type="logical" name="LUSE_VDW"> F  </i>
   <i type="int" name="IVDW_NL">    -1</i>
   <i type="logical" name="LSPIN_VDW"> F  </i>
   <i name="ZAB_VDW">     -0.84910000</i>
   <i name="GAMMA_VDW">      1.39626340</i>
   <i name="ALPHA_VDW">      0.00000000</i>
   <i name="PARAM1">      0.12340000</i>
   <i name="PARAM2">      1.00000000</i>
   <i name="BPARAM">      6.30000000</i>
   <i name="CPARAM">      0.00930000</i>
  </separator>
  <separator name="model GW" >
   <i type="int" name="MODEL_GW">     0</i>
   <i name="MODEL_EPS0">     49.63935326</i>
   <i name="MODEL_ALPHA">      1.00000000</i>
  </separator>
  <separator name="linear response parameters" >
   <i type="logical" name="LEPSILON"> F  </i>
   <i type="logical" name="LRPA"> F  </i>
   <i type="logical" name="LNABLA"> F  </i>
   <i type="logical" name="LVEL"> F  </i>
   <i name="CSHIFT">      0.10000000</i>
   <i name="OMEGAMAX">     -1.00000000</i>
   <i name="DEG_THRESHOLD">      0.00200000</i>
   <i name="RTIME">     -0.10000000</i>
   <i name="WPLASMAI">      0.00000000</i>
   <v name="DFIELD">      0.00000000      0.00000000      0.00000000</v>
   <v name="WPLASMA">      0.00000000      0.00000000      0.00000000      0.00000000      0.00000000      0.00000000      0.00000000      0.00000000      0.00000000</v>
  </separator>
  <separator name="orbital magnetization" >
   <i type="logical" name="NUCIND"> F  </i>
   <v name="MAGPOS">      0.00000000      0.00000000      0.00000000</v>
   <i type="logical" name="LNICSALL"> T  </i>
   <i type="logical" name="ORBITALMAG"> F  </i>
   <i type="logical" name="LMAGBLOCH"> F  </i>
   <i type="logical" name="LCHIMAG"> F  </i>
   <i type="logical" name="LGAUGE"> T  </i>
   <i type="int" name="MAGATOM">     0</i>
   <v name="MAGDIPOL">      0.00000000      0.00000000      0.00000000</v>
   <v name="AVECCONST">      0.00000000      0.00000000      0.00000000</v>
  </separator>
  <separator name="response functions" >
   <i type="logical" name="LALL_IN_ONE"> F  </i>
   <i type="int" name="IALL_IN_ONE">    -1</i>
   <i type="int" name="NBANDS_WAVE">    -1</i>
   <i type="logical" name="LFINITE_TEMPERATURE"> F  </i>
   <i type="logical" name="LADDER"> F  </i>
   <i type="logical" name="LRPAFORCE"> F  </i>
   <i type="logical" name="LFXC"> F  </i>
   <i type="logical" name="LHARTREE"> T  </i>
   <i type="int" name="IBSE">     2</i>
   <v type="int" name="KPOINT">    -1     0     0     0</v>
   <i type="logical" name="LTCTC"> F  </i>
   <i type="logical" name="LTCTE"> F  </i>
   <i type="logical" name="LTETE"> F  </i>
   <i type="logical" name="LTRIPLET"> F  </i>
   <i type="logical" name="LFXCEPS"> F  </i>
   <i type="logical" name="LFXHEG"> F  </i>
   <i type="int" name="NATURALO">     2</i>
   <i type="logical" name="LHOLEGF"> F  </i>
   <i type="logical" name="L2ORDER"> F  </i>
   <i type="logical" name="LDMP1"> F  </i>
   <i type="logical" name="LMP2LT"> F  </i>
   <i type="logical" name="LSMP2LT"> F  </i>
   <i type="logical" name="LGWLF"> F  </i>
   <i name="ENCUTGW">     -1.60000002</i>
   <i name="ENCUTGWSOFT">     -1.60000002</i>
   <i name="ENCUTLF">     -1.00000000</i>
   <i type="logical" name="ESF_SPLINES"> F  </i>
   <i name="ESF_CONV">      0.01000000</i>
   <i type="int" name="ESF_NINTER">    15</i>
   <i type="int" name="LMAXMP2">    -1</i>
   <i name="SCISSOR">      0.00000000</i>
   <i type="int" name="NOMEGA">     0</i>
   <i type="int" name="NOMEGAR">     0</i>
   <i type="int" name="NBANDSGW">    -1</i>
   <i type="int" name="NBANDSO">    -1</i>
   <i type="int" name="NBANDSV">    -1</i>
   <i type="int" name="NELMGW">     1</i>
   <i type="int" name="NELMHF">     1</i>
   <i type="int" name="DIM">     3</i>
   <i type="int" name="IESPILON">     4</i>
   <i type="int" name="ANTIRES">     0</i>
   <i name="OMEGAMAX">    -30.00000000</i>
   <i name="OMEGAMIN">    -30.00000000</i>
   <i name="OMEGATL">   -200.00000000</i>
   <i type="int" name="OMEGAGRID">     0</i>
   <i name="CSHIFT">     -0.10000000</i>
   <i type="logical" name="LSELFENERGY"> F  </i>
   <i type="logical" name="LSPECTRAL"> F  </i>
   <i type="logical" name="LSPECTRALGW"> F  </i>
   <i type="logical" name="LSINGLES"> F  </i>
   <i type="logical" name="LFERMIGW"> F  </i>
   <i type="logical" name="ODDONLYGW"> F  </i>
   <i type="logical" name="EVENONLYGW"> F  </i>
   <i type="int" name="NKREDLFX">     1</i>
   <i type="int" name="NKREDLFY">     1</i>
   <i type="int" name="NKREDLFZ">     1</i>
   <i type="int" name="MAXMEM">  2800</i>
   <i type="int" name="TELESCOPE">     0</i>
   <i type="int" name="NTAUPAR">    -1</i>
   <i type="int" name="NOMEGAPAR">    -1</i>
   <i name="DAMP_NEWTON">      0.80000001</i>
   <i name="LAMBDA">      1.00000000</i>
  </separator>
  <separator name="External order field" >
   <i name="OFIELD_KAPPA">      0.00000000</i>
   <v name="OFIELD_K">      0.00000000      0.00000000      0.00000000</v>
   <i name="OFIELD_Q6_NEAR">      0.00000000</i>
   <i name="OFIELD_Q6_FAR">      0.00000000</i>
   <i name="OFIELD_A">      0.00000000</i>
  </separator>
  <separator name="optional k-points parameters" >
   <i type="int" name="KPOINTS_OPT_MODE">     1</i>
   <i type="logical" name="LKPOINTS_OPT"> F  </i>
  </separator>
 </parameters>
 <atominfo>
  <atoms>      92 </atoms>
  <types>       1 </types>
  <array name="atoms" >
   <dimension dim="1">ion</dimension>
   <field type="string">element</field>
   <field type="int">atomtype</field>
   <set>
    <rc><c>C </c><c>   1</c></rc>
    <rc><c>C </c><c>   1</c></rc>
    <rc><c>C </c><c>   1</c></rc>
    <rc><c>C </c><c>   1</c></rc>
    <rc><c>C </c><c>   1</c></rc>
    <rc><c>C </c><c>   1</c></rc>
    <rc><c>C </c><c>   1</c></rc>
    <rc><c>C </c><c>   1</c></rc>
    <rc><c>C </c><c>   1</c></rc>
    <rc><c>C </c><c>   1</c></rc>
    <rc><c>C </c><c>   1</c></rc>
    <rc><c>C </c><c>   1</c></rc>
    <rc><c>C </c><c>   1</c></rc>
    <rc><c>C </c><c>   1</c></rc>
    <rc><c>C </c><c>   1</c></rc>
    <rc><c>C </c><c>   1</c></rc>
    <rc><c>C </c><c>   1</c></rc>
    <rc><c>C </c><c>   1</c></rc>
    <rc><c>C </c><c>   1</c></rc>
    <rc><c>C </c><c>   1</c></rc>
    <rc><c>C </c><c>   1</c></rc>
    <rc><c>C </c><c>   1</c></rc>
    <rc><c>C </c><c>   1</c></rc>
    <rc><c>C </c><c>   1</c></rc>
    <rc><c>C </c><c>   1</c></rc>
    <rc><c>C </c><c>   1</c></rc>
    <rc><c>C </c><c>   1</c></rc>
    <rc><c>C </c><c>   1</c></rc>
    <rc><c>C </c><c>   1</c></rc>
    <rc><c>C </c><c>   1</c></rc>
    <rc><c>C </c><c>   1</c></rc>
    <rc><c>C </c><c>   1</c></rc>
    <rc><c>C </c><c>   1</c></rc>
    <rc><c>C </c><c>   1</c></rc>
    <rc><c>C </c><c>   1</c></rc>
    <rc><c>C </c><c>   1</c></rc>
    <rc><c>C </c><c>   1</c></rc>
    <rc><c>C </c><c>   1</c></rc>
    <rc><c>C </c><c>   1</c></rc>
    <rc><c>C </c><c>   1</c></rc>
    <rc><c>C </c><c>   1</c></rc>
    <rc><c>C </c><c>   1</c></rc>
    <rc><c>C </c><c>   1</c></rc>
    <rc><c>C </c><c>   1</c></rc>
    <rc><c>C </c><c>   1</c></rc>
    <rc><c>C </c><c>   1</c></rc>
    <rc><c>C </c><c>   1</c></rc>
    <rc><c>C </c><c>   1</c></rc>
    <rc><c>C </c><c>   1</c></rc>
    <rc><c>C </c><c>   1</c></rc>
    <rc><c>C </c><c>   1</c></rc>
    <rc><c>C </c><c>   1</c></rc>
    <rc><c>C </c><c>   1</c></rc>
    <rc><c>C </c><c>   1</c></rc>
    <rc><c>C </c><c>   1</c></rc>
    <rc><c>C </c><c>   1</c></rc>
    <rc><c>C </c><c>   1</c></rc>
    <rc><c>C </c><c>   1</c></rc>
    <rc><c>C </c><c>   1</c></rc>
    <rc><c>C </c><c>   1</c></rc>
    <rc><c>C </c><c>   1</c></rc>
    <rc><c>C </c><c>   1</c></rc>
    <rc><c>C </c><c>   1</c></rc>
    <rc><c>C </c><c>   1</c></rc>
    <rc><c>C </c><c>   1</c></rc>
    <rc><c>C </c><c>   1</c></rc>
    <rc><c>C </c><c>   1</c></rc>
    <rc><c>C </c><c>   1</c></rc>
    <rc><c>C </c><c>   1</c></rc>
    <rc><c>C </c><c>   1</c></rc>
    <rc><c>C </c><c>   1</c></rc>
    <rc><c>C </c><c>   1</c></rc>
    <rc><c>C </c><c>   1</c></rc>
    <rc><c>C </c><c>   1</c></rc>
    <rc><c>C </c><c>   1</c></rc>
    <rc><c>C </c><c>   1</c></rc>
    <rc><c>C </c><c>   1</c></rc>
    <rc><c>C </c><c>   1</c></rc>
    <rc><c>C </c><c>   1</c></rc>
    <rc><c>C </c><c>   1</c></rc>
    <rc><c>C </c><c>   1</c></rc>
    <rc><c>C </c><c>   1</c></rc>
    <rc><c>C </c><c>   1</c></rc>
    <rc><c>C </c><c>   1</c></rc>
    <rc><c>C </c><c>   1</c></rc>
    <rc><c>C </c><c>   1</c></rc>
    <rc><c>C </c><c>   1</c></rc>
    <rc><c>C </c><c>   1</c></rc>
    <rc><c>C </c><c>   1</c></rc>
    <rc><c>C </c><c>   1</c></rc>
    <rc><c>C </c><c>   1</c></rc>
    <rc><c>C </c><c>   1</c></rc>
   </set>
  </array>
  <array name="atomtypes" >
   <dimension dim="1">type</dimension>
   <field type="int">atomspertype</field>
   <field type="string">element</field>
   <field>mass</field>
   <field>valence</field>
   <field type="string">pseudopotential</field>
   <set>
    <rc><c>  92</c><c>C </c><c>     12.01100000</c><c>      4.00000000</c><c>  PAW_PBE C 08Apr2002                   </c></rc>
   </set>
  </array>
 </atominfo>
 <structure name="initialpos" >
  <crystal>
   <varray name="basis" >
    <v>      28.05000000       0.00000000       0.00000000 </v>
    <v>       0.00000000       8.10000000       0.00000000 </v>
    <v>       0.00000000       0.00000000      33.50000000 </v>
   </varray>
   <i name="volume">   7611.36750000 </i>
   <varray name="rec_basis" >
    <v>       0.03565062       0.00000000       0.00000000 </v>
    <v>       0.00000000       0.12345679       0.00000000 </v>
    <v>       0.00000000       0.00000000       0.02985075 </v>
   </varray>
  </crystal>
  <varray name="positions" >
   <v>       0.00377850       0.10279605       0.55132239 </v>
   <v>       0.00488873       0.27348765       0.54682388 </v>
   <v>       0.04835294       0.02691049       0.55076716 </v>
   <v>       0.04752620       0.36180000       0.54370448 </v>
   <v>       0.09287843       0.11320272       0.55406866 </v>
   <v>       0.09281176       0.28116543       0.54981493 </v>
   <v>       0.13870125       0.03143877       0.55283284 </v>
   <v>       0.13686061       0.36595802       0.54047463 </v>
   <v>       0.18468627       0.10869012       0.54735224 </v>
   <v>       0.18247914       0.27970370       0.54131940 </v>
   <v>       0.22817148       0.02628531       0.53444179 </v>
   <v>       0.22478182       0.35880741       0.52683582 </v>
   <v>       0.26918075       0.11168926       0.52077015 </v>
   <v>       0.26591765       0.27582840       0.51511343 </v>
   <v>       0.31258111       0.02110827       0.51018209 </v>
   <v>       0.30677790       0.35501605       0.49590448 </v>
   <v>       0.35215971       0.10214827       0.49623284 </v>
   <v>       0.34855294       0.26999383       0.48542388 </v>
   <v>       0.39498752       0.01713062       0.48572836 </v>
   <v>       0.39281283       0.34936420       0.47600896 </v>
   <v>       0.43692692       0.10570506       0.46957910 </v>
   <v>       0.43630303       0.26832963       0.46506269 </v>
   <v>       0.48058824       0.02463111       0.46116716 </v>
   <v>       0.48090909       0.34883210       0.45458806 </v>
   <v>       0.52581105       0.09735568       0.45143284 </v>
   <v>       0.52505526       0.26829506       0.44946567 </v>
   <v>       0.56780392       0.01956173       0.45955224 </v>
   <v>       0.56947594       0.35390000       0.44852537 </v>
   <v>       0.61235651       0.10426593       0.45880597 </v>
   <v>       0.61311230       0.27017037       0.45632836 </v>
   <v>       0.65555793       0.01676864       0.46770746 </v>
   <v>       0.65716578       0.34985556       0.45853134 </v>
   <v>       0.69833868       0.10091321       0.47571045 </v>
   <v>       0.70006774       0.26956914       0.46967164 </v>
   <v>       0.74110160       0.02124753       0.48897612 </v>
   <v>       0.74288770       0.35534691       0.48260000 </v>
   <v>       0.78113012       0.10162086       0.50392239 </v>
   <v>       0.78372193       0.27469136       0.49902388 </v>
   <v>       0.82425668       0.02373827       0.51245075 </v>
   <v>       0.82795009       0.35389877       0.50445075 </v>
   <v>       0.86735472       0.09851025       0.52081194 </v>
   <v>       0.87027094       0.26967531       0.51601791 </v>
   <v>       0.91125134       0.01485938       0.52997612 </v>
   <v>       0.91503743       0.34677284       0.51968358 </v>
   <v>       0.95231373       0.09728827       0.54275821 </v>
   <v>       0.95259893       0.27246173       0.53856418 </v>
   <v>       0.00691102       0.60806914       0.52611343 </v>
   <v>       0.00512927       0.78692716       0.53251343 </v>
   <v>       0.04747772       0.52471728       0.53321194 </v>
   <v>       0.04929483       0.85854815       0.54201493 </v>
   <v>       0.09165241       0.61853333       0.53591940 </v>
   <v>       0.09338146       0.77669136       0.54434627 </v>
   <v>       0.13497184       0.53160247       0.53183582 </v>
   <v>       0.13912050       0.86134198       0.54644179 </v>
   <v>       0.18071836       0.61451852       0.53190746 </v>
   <v>       0.18200963       0.78125556       0.53785075 </v>
   <v>       0.22217790       0.52693457       0.52196119 </v>
   <v>       0.22616542       0.86103333       0.53079104 </v>
   <v>       0.26592941       0.61041481       0.51005373 </v>
   <v>       0.26957718       0.77746790       0.51652239 </v>
   <v>       0.30626275       0.51987407       0.49742388 </v>
   <v>       0.31304848       0.85084321       0.50787761 </v>
   <v>       0.34986096       0.60245802       0.48641194 </v>
   <v>       0.35324777       0.76823580       0.49377612 </v>
   <v>       0.39283422       0.52142469       0.47630746 </v>
   <v>       0.39612121       0.84949383       0.48413134 </v>
   <v>       0.43673440       0.60137407       0.46720000 </v>
   <v>       0.43959715       0.76826049       0.47250149 </v>
   <v>       0.47890909       0.52252346       0.45577313 </v>
   <v>       0.48100178       0.85776667       0.46708060 </v>
   <v>       0.52375758       0.59905802       0.45440896 </v>
   <v>       0.52442068       0.76353086       0.46128657 </v>
   <v>       0.56971836       0.52197284       0.44794030 </v>
   <v>       0.56861319       0.84277901       0.46467463 </v>
   <v>       0.61375758       0.60089877       0.45362687 </v>
   <v>       0.61257398       0.76167160       0.46571045 </v>
   <v>       0.65868449       0.51656049       0.45497015 </v>
   <v>       0.65601426       0.84743951       0.47006567 </v>
   <v>       0.70131194       0.60269012       0.46481493 </v>
   <v>       0.70175401       0.77007160       0.47195821 </v>
   <v>       0.74419608       0.52202222       0.47556716 </v>
   <v>       0.74448128       0.85665556       0.48142388 </v>
   <v>       0.79016043       0.60072346       0.48171343 </v>
   <v>       0.78817825       0.77025062       0.48705373 </v>
   <v>       0.83033155       0.51969012       0.49620597 </v>
   <v>       0.82640998       0.85250617       0.50484478 </v>
   <v>       0.87407130       0.60118889       0.50295821 </v>
   <v>       0.87127273       0.76912346       0.50924179 </v>
   <v>       0.91688414       0.51405062       0.51241493 </v>
   <v>       0.91402852       0.85436667       0.51976418 </v>
   <v>       0.95960784       0.59684074       0.51708657 </v>
   <v>       0.95729055       0.77609877       0.52143284 </v>
  </varray>
 </structure>
 <calculation>
  <scstep>
   <time name="dav">   11.20   11.20</time>
   <time name="total">   11.66   11.70</time>
   <energy>
    <i name="alphaZ">     91.34886789 </i>
    <i name="ewald"> 119828.43935243 </i>
    <i name="hartreedc">-129161.53870753 </i>
    <i name="XCdc">   1220.98892867 </i>
    <i name="pawpsdc">   9984.02826696 </i>
    <i name="pawaedc"> -10036.41360137 </i>
    <i name="eentropy">     -0.85531485 </i>
    <i name="bandstr">  -1838.38959581 </i>
    <i name="atom">  13537.65479391 </i>
    <i name="e_fr_energy">   3625.26299030 </i>
    <i name="e_wo_entrp">   3626.11830515 </i>
    <i name="e_0_energy">   3625.69064773 </i>
   </energy>
  </scstep>
  <scstep>
   <time name="dav">   13.14   13.14</time>
   <time name="total">   13.14   13.14</time>
   <energy>
    <i name="e_fr_energy">    167.35360208 </i>
    <i name="e_wo_entrp">    167.53379656 </i>
    <i name="e_0_energy">    167.44369932 </i>
   </energy>
  </scstep>
  <scstep>
   <time name="dav">   11.25   11.25</time>
   <time name="total">   11.25   11.25</time>
   <energy>
    <i name="e_fr_energy">   -833.12909723 </i>
    <i name="e_wo_entrp">   -833.05623099 </i>
    <i name="e_0_energy">   -833.09266411 </i>
   </energy>
  </scstep>
  <scstep>
   <time name="dav">   10.90   10.91</time>
   <time name="total">   10.90   10.91</time>
   <energy>
    <i name="e_fr_energy">   -895.52842849 </i>
    <i name="e_wo_entrp">   -895.41512040 </i>
    <i name="e_0_energy">   -895.47177445 </i>
   </energy>
  </scstep>
  <scstep>
   <time name="dav">   11.09   11.10</time>
   <time name="total">   12.57   12.58</time>
   <energy>
    <i name="e_fr_energy">   -897.12173628 </i>
    <i name="e_wo_entrp">   -897.00701644 </i>
    <i name="e_0_energy">   -897.06437636 </i>
   </energy>
  </scstep>
  <scstep>
   <time name="dav">   10.31   10.32</time>
   <time name="total">   12.11   12.12</time>
   <energy>
    <i name="e_fr_energy">   -847.95184795 </i>
    <i name="e_wo_entrp">   -847.83055372 </i>
    <i name="e_0_energy">   -847.89120083 </i>
   </energy>
  </scstep>
  <scstep>
   <time name="dav">   10.10   10.10</time>
   <time name="total">   11.89   11.90</time>
   <energy>
    <i name="e_fr_energy">   -829.59881631 </i>
    <i name="e_wo_entrp">   -829.47031393 </i>
    <i name="e_0_energy">   -829.53456512 </i>
   </energy>
  </scstep>
  <scstep>
   <time name="dav">   10.30   10.31</time>
   <time name="total">   12.10   12.11</time>
   <energy>
    <i name="e_fr_energy">   -829.31880922 </i>
    <i name="e_wo_entrp">   -829.19407728 </i>
    <i name="e_0_energy">   -829.25644325 </i>
   </energy>
  </scstep>
  <scstep>
   <time name="dav">   10.67   10.68</time>
   <time name="total">   12.48   12.48</time>
   <energy>
    <i name="e_fr_energy">   -829.21685264 </i>
    <i name="e_wo_entrp">   -829.09046804 </i>
    <i name="e_0_energy">   -829.15366034 </i>
   </energy>
  </scstep>
  <scstep>
   <time name="dav">   11.06   11.07</time>
   <time name="total">   12.86   12.87</time>
   <energy>
    <i name="e_fr_energy">   -829.17995809 </i>
    <i name="e_wo_entrp">   -829.05356578 </i>
    <i name="e_0_energy">   -829.11676193 </i>
   </energy>
  </scstep>
  <scstep>
   <time name="dav">   10.04   10.05</time>
   <time name="total">   11.87   11.88</time>
   <energy>
    <i name="e_fr_energy">   -829.14665406 </i>
    <i name="e_wo_entrp">   -829.02044890 </i>
    <i name="e_0_energy">   -829.08355148 </i>
   </energy>
  </scstep>
  <scstep>
   <time name="dav">   10.08   10.09</time>
   <time name="total">   11.90   11.91</time>
   <energy>
    <i name="e_fr_energy">   -829.14199227 </i>
    <i name="e_wo_entrp">   -829.01551308 </i>
    <i name="e_0_energy">   -829.07875268 </i>
   </energy>
  </scstep>
  <scstep>
   <time name="dav">    9.99   10.00</time>
   <time name="total">   11.83   11.83</time>
   <energy>
    <i name="e_fr_energy">   -829.15483070 </i>
    <i name="e_wo_entrp">   -829.02840290 </i>
    <i name="e_0_energy">   -829.09161680 </i>
   </energy>
  </scstep>
  <scstep>
   <time name="dav">   10.30   10.30</time>
   <time name="total">   12.14   12.14</time>
   <energy>
    <i name="e_fr_energy">   -829.16939286 </i>
    <i name="e_wo_entrp">   -829.04299190 </i>
    <i name="e_0_energy">   -829.10619238 </i>
   </energy>
  </scstep>
  <scstep>
   <time name="dav">    9.97    9.97</time>
   <time name="total">   11.81   11.82</time>
   <energy>
    <i name="e_fr_energy">   -829.19073242 </i>
    <i name="e_wo_entrp">   -829.06431786 </i>
    <i name="e_0_energy">   -829.12752514 </i>
   </energy>
  </scstep>
  <scstep>
   <time name="dav">   10.50   10.50</time>
   <time name="total">   12.37   12.37</time>
   <energy>
    <i name="e_fr_energy">   -829.19943752 </i>
    <i name="e_wo_entrp">   -829.07298774 </i>
    <i name="e_0_energy">   -829.13621263 </i>
   </energy>
  </scstep>
  <scstep>
   <time name="dav">   10.33   10.33</time>
   <time name="total">   12.20   12.20</time>
   <energy>
    <i name="e_fr_energy">   -829.20485075 </i>
    <i name="e_wo_entrp">   -829.07840286 </i>
    <i name="e_0_energy">   -829.14162681 </i>
   </energy>
  </scstep>
  <scstep>
   <time name="dav">   10.55   10.56</time>
   <time name="total">   12.44   12.44</time>
   <energy>
    <i name="e_fr_energy">   -829.20700267 </i>
    <i name="e_wo_entrp">   -829.08056419 </i>
    <i name="e_0_energy">   -829.14378343 </i>
   </energy>
  </scstep>
  <scstep>
   <time name="dav">    9.46    9.46</time>
   <time name="total">   11.35   11.35</time>
   <energy>
    <i name="e_fr_energy">   -829.20807605 </i>
    <i name="e_wo_entrp">   -829.08164211 </i>
    <i name="e_0_energy">   -829.14485908 </i>
   </energy>
  </scstep>
  <scstep>
   <time name="dav">    8.90    8.91</time>
   <time name="total">   10.81   10.81</time>
   <energy>
    <i name="e_fr_energy">   -829.20862650 </i>
    <i name="e_wo_entrp">   -829.08219235 </i>
    <i name="e_0_energy">   -829.14540942 </i>
   </energy>
  </scstep>
  <scstep>
   <time name="dav">    8.92    8.93</time>
   <time name="total">   10.85   10.85</time>
   <energy>
    <i name="e_fr_energy">   -829.20885553 </i>
    <i name="e_wo_entrp">   -829.08241894 </i>
    <i name="e_0_energy">   -829.14563723 </i>
   </energy>
  </scstep>
  <scstep>
   <time name="dav">    7.48    7.48</time>
   <time name="total">    9.41    9.41</time>
   <energy>
    <i name="e_fr_energy">   -829.20892515 </i>
    <i name="e_wo_entrp">   -829.08248700 </i>
    <i name="e_0_energy">   -829.14570607 </i>
   </energy>
  </scstep>
  <scstep>
   <time name="dav">    7.17    7.18</time>
   <time name="total">    9.11    9.12</time>
   <energy>
    <i name="e_fr_energy">   -829.20896237 </i>
    <i name="e_wo_entrp">   -829.08252477 </i>
    <i name="e_0_energy">   -829.14574357 </i>
   </energy>
  </scstep>
  <scstep>
   <time name="dav">    7.22    7.23</time>
   <time name="total">    9.18    9.19</time>
   <energy>
    <i name="e_fr_energy">   -829.20897763 </i>
    <i name="e_wo_entrp">   -829.08254087 </i>
    <i name="e_0_energy">   -829.14575925 </i>
   </energy>
  </scstep>
  <scstep>
   <time name="dav">    7.06    7.07</time>
   <time name="total">    9.04    9.04</time>
   <energy>
    <i name="e_fr_energy">   -829.20898206 </i>
    <i name="e_wo_entrp">   -829.08254489 </i>
    <i name="e_0_energy">   -829.14576348 </i>
   </energy>
  </scstep>
  <scstep>
   <time name="dav">    6.94    6.94</time>
   <time name="total">    8.93    8.94</time>
   <energy>
    <i name="e_fr_energy">   -829.20898660 </i>
    <i name="e_wo_entrp">   -829.08254956 </i>
    <i name="e_0_energy">   -829.14576808 </i>
   </energy>
  </scstep>
  <scstep>
   <time name="dav">    7.10    7.11</time>
   <time name="total">    9.10    9.11</time>
   <energy>
    <i name="e_fr_energy">   -829.20898806 </i>
    <i name="e_wo_entrp">   -829.08255119 </i>
    <i name="e_0_energy">   -829.14576962 </i>
   </energy>
  </scstep>
  <scstep>
   <time name="dav">    7.11    7.11</time>
   <time name="total">    9.13    9.14</time>
   <energy>
    <i name="e_fr_energy">   -829.20898998 </i>
    <i name="e_wo_entrp">   -829.08255289 </i>
    <i name="e_0_energy">   -829.14577143 </i>
   </energy>
  </scstep>
  <scstep>
   <time name="dav">    6.98    6.99</time>
   <time name="total">    7.35    7.35</time>
   <energy>
    <i name="alphaZ">     91.34886789 </i>
    <i name="ewald"> 119828.43935243 </i>
    <i name="hartreedc">-130914.44296668 </i>
    <i name="XCdc">   1278.13580094 </i>
    <i name="pawpsdc">  40942.33407921 </i>
    <i name="pawaedc"> -41006.34397636 </i>
    <i name="eentropy">     -0.12643707 </i>
    <i name="bandstr">  -4586.20850488 </i>
    <i name="atom">  13537.65479391 </i>
    <i name="e_fr_energy">   -829.20899061 </i>
    <i name="e_wo_entrp">   -829.08255354 </i>
    <i name="e_0_energy">   -829.14577208 </i>
   </energy>
  </scstep>
  <structure>
   <crystal>
    <varray name="basis" >
     <v>      28.05000000       0.00000000       0.00000000 </v>
     <v>       0.00000000       8.10000000       0.00000000 </v>
     <v>       0.00000000       0.00000000      33.50000000 </v>
    </varray>
    <i name="volume">   7611.36750000 </i>
    <varray name="rec_basis" >
     <v>       0.03565062       0.00000000       0.00000000 </v>
     <v>       0.00000000       0.12345679       0.00000000 </v>
     <v>       0.00000000       0.00000000       0.02985075 </v>
    </varray>
   </crystal>
   <varray name="positions" >
    <v>       0.00377850       0.10279605       0.55132239 </v>
    <v>       0.00488873       0.27348765       0.54682388 </v>
    <v>       0.04835294       0.02691049       0.55076716 </v>
    <v>       0.04752620       0.36180000       0.54370448 </v>
    <v>       0.09287843       0.11320272       0.55406866 </v>
    <v>       0.09281176       0.28116543       0.54981493 </v>
    <v>       0.13870125       0.03143877       0.55283284 </v>
    <v>       0.13686061       0.36595802       0.54047463 </v>
    <v>       0.18468627       0.10869012       0.54735224 </v>
    <v>       0.18247914       0.27970370       0.54131940 </v>
    <v>       0.22817148       0.02628531       0.53444179 </v>
    <v>       0.22478182       0.35880741       0.52683582 </v>
    <v>       0.26918075       0.11168926       0.52077015 </v>
    <v>       0.26591765       0.27582840       0.51511343 </v>
    <v>       0.31258111       0.02110827       0.51018209 </v>
    <v>       0.30677790       0.35501605       0.49590448 </v>
    <v>       0.35215971       0.10214827       0.49623284 </v>
    <v>       0.34855294       0.26999383       0.48542388 </v>
    <v>       0.39498752       0.01713062       0.48572836 </v>
    <v>       0.39281283       0.34936420       0.47600896 </v>
    <v>       0.43692692       0.10570506       0.46957910 </v>
    <v>       0.43630303       0.26832963       0.46506269 </v>
    <v>       0.48058824       0.02463111       0.46116716 </v>
    <v>       0.48090909       0.34883210       0.45458806 </v>
    <v>       0.52581105       0.09735568       0.45143284 </v>
    <v>       0.52505526       0.26829506       0.44946567 </v>
    <v>       0.56780392       0.01956173       0.45955224 </v>
    <v>       0.56947594       0.35390000       0.44852537 </v>
    <v>       0.61235651       0.10426593       0.45880597 </v>
    <v>       0.61311230       0.27017037       0.45632836 </v>
    <v>       0.65555793       0.01676864       0.46770746 </v>
    <v>       0.65716578       0.34985556       0.45853134 </v>
    <v>       0.69833868       0.10091321       0.47571045 </v>
    <v>       0.70006774       0.26956914       0.46967164 </v>
    <v>       0.74110160       0.02124753       0.48897612 </v>
    <v>       0.74288770       0.35534691       0.48260000 </v>
    <v>       0.78113012       0.10162086       0.50392239 </v>
    <v>       0.78372193       0.27469136       0.49902388 </v>
    <v>       0.82425668       0.02373827       0.51245075 </v>
    <v>       0.82795009       0.35389877       0.50445075 </v>
    <v>       0.86735472       0.09851025       0.52081194 </v>
    <v>       0.87027094       0.26967531       0.51601791 </v>
    <v>       0.91125134       0.01485938       0.52997612 </v>
    <v>       0.91503743       0.34677284       0.51968358 </v>
    <v>       0.95231373       0.09728827       0.54275821 </v>
    <v>       0.95259893       0.27246173       0.53856418 </v>
    <v>       0.00691102       0.60806914       0.52611343 </v>
    <v>       0.00512927       0.78692716       0.53251343 </v>
    <v>       0.04747772       0.52471728       0.53321194 </v>
    <v>       0.04929483       0.85854815       0.54201493 </v>
    <v>       0.09165241       0.61853333       0.53591940 </v>
    <v>       0.09338146       0.77669136       0.54434627 </v>
    <v>       0.13497184       0.53160247       0.53183582 </v>
    <v>       0.13912050       0.86134198       0.54644179 </v>
    <v>       0.18071836       0.61451852       0.53190746 </v>
    <v>       0.18200963       0.78125556       0.53785075 </v>
    <v>       0.22217790       0.52693457       0.52196119 </v>
    <v>       0.22616542       0.86103333       0.53079104 </v>
    <v>       0.26592941       0.61041481       0.51005373 </v>
    <v>       0.26957718       0.77746790       0.51652239 </v>
    <v>       0.30626275       0.51987407       0.49742388 </v>
    <v>       0.31304848       0.85084321       0.50787761 </v>
    <v>       0.34986096       0.60245802       0.48641194 </v>
    <v>       0.35324777       0.76823580       0.49377612 </v>
    <v>       0.39283422       0.52142469       0.47630746 </v>
    <v>       0.39612121       0.84949383       0.48413134 </v>
    <v>       0.43673440       0.60137407       0.46720000 </v>
    <v>       0.43959715       0.76826049       0.47250149 </v>
    <v>       0.47890909       0.52252346       0.45577313 </v>
    <v>       0.48100178       0.85776667       0.46708060 </v>
    <v>       0.52375758       0.59905802       0.45440896 </v>
    <v>       0.52442068       0.76353086       0.46128657 </v>
    <v>       0.56971836       0.52197284       0.44794030 </v>
    <v>       0.56861319       0.84277901       0.46467463 </v>
    <v>       0.61375758       0.60089877       0.45362687 </v>
    <v>       0.61257398       0.76167160       0.46571045 </v>
    <v>       0.65868449       0.51656049       0.45497015 </v>
    <v>       0.65601426       0.84743951       0.47006567 </v>
    <v>       0.70131194       0.60269012       0.46481493 </v>
    <v>       0.70175401       0.77007160       0.47195821 </v>
    <v>       0.74419608       0.52202222       0.47556716 </v>
    <v>       0.74448128       0.85665556       0.48142388 </v>
    <v>       0.79016043       0.60072346       0.48171343 </v>
    <v>       0.78817825       0.77025062       0.48705373 </v>
    <v>       0.83033155       0.51969012       0.49620597 </v>
    <v>       0.82640998       0.85250617       0.50484478 </v>
    <v>       0.87407130       0.60118889       0.50295821 </v>
    <v>       0.87127273       0.76912346       0.50924179 </v>
    <v>       0.91688414       0.51405062       0.51241493 </v>
    <v>       0.91402852       0.85436667       0.51976418 </v>
    <v>       0.95960784       0.59684074       0.51708657 </v>
    <v>       0.95729055       0.77609877       0.52143284 </v>
   </varray>
  </structure>
  <varray name="forces" >
   <v>       2.18116474       1.00149812       0.06141687 </v>
   <v>       0.48286720       0.32898036       0.32013033 </v>
   <v>       0.01825934      -0.49936614       0.47699825 </v>
   <v>       0.23397809      -1.82118853       0.12693010 </v>
   <v>       0.56579008      -0.71536142       0.24041410 </v>
   <v>      -0.04659150       1.33499393      -0.83859985 </v>
   <v>       0.59435214      -0.76098290      -0.47157167 </v>
   <v>       0.21211980      -2.16703786       0.63291184 </v>
   <v>      -0.92961485       0.96925589      -0.69560193 </v>
   <v>      -0.23929462       0.29774010      -0.46443585 </v>
   <v>      -1.19911915       1.76614345       1.00378311 </v>
   <v>      -1.61240137       0.11502286      -0.07117649 </v>
   <v>       0.75416174      -2.73900498       0.24010162 </v>
   <v>       1.91961787       0.86699194      -1.02482645 </v>
   <v>      -1.61474874       0.94717137       0.44741821 </v>
   <v>      -1.42488588      -2.15854757       1.16275323 </v>
   <v>       1.28182958       0.99399851      -1.52680163 </v>
   <v>       1.52818259      -0.78507579       1.23445329 </v>
   <v>       1.36412824       2.18365756      -0.92678783 </v>
   <v>      -0.33416774       0.93024653      -1.08021056 </v>
   <v>      -0.54956395      -3.26898455       0.63386072 </v>
   <v>       0.05910602       2.42747182      -0.00473363 </v>
   <v>       0.23291613      -0.54932609       0.39014607 </v>
   <v>      -1.81608798       0.88915337      -0.04702734 </v>
   <v>      -2.58155764       1.14475877       1.41092149 </v>
   <v>       0.22268050       0.45407563      -0.34930939 </v>
   <v>       2.21847809      -2.45644531      -0.23766133 </v>
   <v>      -0.17098879      -1.30126405       0.01810874 </v>
   <v>      -0.00340077      -2.69086376       1.19284227 </v>
   <v>      -0.57183231       0.91143210      -1.49953524 </v>
   <v>      -0.38754251       0.84581381       0.28599270 </v>
   <v>       1.25328270      -0.47895195      -0.12864326 </v>
   <v>       0.60764855       0.29959214       0.19571857 </v>
   <v>       0.52889739       0.02496499       1.50129315 </v>
   <v>      -0.85944829       0.29620040      -0.17811617 </v>
   <v>      -0.59475224      -1.04031277      -0.89375009 </v>
   <v>       0.60710436       2.23510538      -0.59711390 </v>
   <v>      -0.73238395      -0.68280030      -0.14174032 </v>
   <v>      -0.38576471      -2.65921920      -0.28045168 </v>
   <v>      -0.00072321      -0.78370353      -0.07595285 </v>
   <v>       1.46151923       1.93314358       0.92806377 </v>
   <v>      -0.75838688      -0.94278903       0.20164271 </v>
   <v>       0.13073200       1.91919918       0.50843848 </v>
   <v>      -0.54034017       0.32294267       0.65435358 </v>
   <v>      -1.79109312       1.80618478      -0.23486307 </v>
   <v>      -0.08107202      -1.95420786      -0.18211227 </v>
   <v>       3.48015609       1.92778889       1.21417335 </v>
   <v>       4.76637402      -2.99824116      -0.39994136 </v>
   <v>       1.33935690       1.35942706       0.11338818 </v>
   <v>      -1.97075250       1.52616581       0.87387716 </v>
   <v>       0.31327508      -4.54760725      -0.74267574 </v>
   <v>       0.65246831       2.74603540      -0.65401330 </v>
   <v>       1.64262711       0.69791483       1.34857193 </v>
   <v>      -1.65515087       0.31410773       0.46562705 </v>
   <v>      -1.42804267      -1.45538175      -0.98590452 </v>
   <v>       0.66249243       0.07541268      -0.42110257 </v>
   <v>       1.73481484       1.17276220      -0.44326387 </v>
   <v>       1.60567980      -1.60447471      -0.20228693 </v>
   <v>      -1.13242262      -1.28140984       0.85058552 </v>
   <v>      -2.24592005      -0.71323296       0.33387915 </v>
   <v>       1.18756338       2.87443078      -1.13165927 </v>
   <v>      -0.76360666       1.29611236       0.59584716 </v>
   <v>      -0.08202427      -0.57554158       0.88264206 </v>
   <v>       0.17050678       0.03536566      -0.48707312 </v>
   <v>       0.01116455      -0.92903077      -0.71455533 </v>
   <v>       0.51111812      -0.43266585       0.36563053 </v>
   <v>      -0.22688779      -0.11630416       0.29664525 </v>
   <v>      -2.45797889       1.20391200       0.66581067 </v>
   <v>       1.02138686      -2.52123810       0.14155164 </v>
   <v>       1.58467132      -2.03283524      -0.93760803 </v>
   <v>       0.70542789      -0.04302256      -0.65123207 </v>
   <v>      -0.14819463       2.32640998       0.65775876 </v>
   <v>      -1.35766851       0.22375345       0.72967799 </v>
   <v>      -0.35772362       2.54920484      -0.49912474 </v>
   <v>       0.42764055      -0.67463466       0.30544811 </v>
   <v>       0.45763186       0.95805204      -0.75583352 </v>
   <v>      -0.49351443       2.06005754       0.57563795 </v>
   <v>       0.65817097       0.02894917      -0.04534640 </v>
   <v>       0.77974373      -0.41510220       0.22429297 </v>
   <v>      -1.16237798       0.68129517      -0.67644066 </v>
   <v>       1.56628355      -0.14652521      -0.47935071 </v>
   <v>      -0.63305060      -2.20911543       0.11104652 </v>
   <v>      -2.20918160       0.40267798       0.74351090 </v>
   <v>      -0.55531056       1.02258252       0.21098478 </v>
   <v>       0.63274028      -0.12225023      -0.67991825 </v>
   <v>       1.41811117      -0.14807365      -0.19812073 </v>
   <v>      -0.14186124       0.01982287       0.42675586 </v>
   <v>       0.22040403       0.73307066      -0.55588633 </v>
   <v>       0.74250028       0.96836588      -0.71484558 </v>
   <v>      -0.28749524      -1.91300820       0.12150825 </v>
   <v>      -4.79327179       2.79375594      -0.79483973 </v>
   <v>      -3.42292741      -1.90804359      -1.00149935 </v>
  </varray>
  <varray name="stress" >
   <v>      -1.88962401       0.32320086       1.42931468 </v>
   <v>       0.32320086      50.69059984       0.06804244 </v>
   <v>       1.42931468       0.06804244      -0.76440835 </v>
  </varray>
  <energy>
   <i name="e_fr_energy">   -829.20899061 </i>
   <i name="e_wo_entrp">   -829.08255354 </i>
   <i name="e_0_energy">   -829.14577208 </i>
  </energy>
  <time name="totalsc">  333.29  333.50</time>
  <eigenvalues>
   <array>
    <dimension dim="1">band</dimension>
    <dimension dim="2">kpoint</dimension>
    <dimension dim="3">spin</dimension>
    <field>eigene</field>
    <field>occ</field>
    <set>
     <set comment="spin 1">
      <set comment="kpoint 1">
       <r>  -23.1513    1.0000 </r>
       <r>  -23.0619    1.0000 </r>
       <r>  -22.9778    1.0000 </r>
       <r>  -22.6620    1.0000 </r>
       <r>  -22.5864    1.0000 </r>
       <r>  -22.2623    1.0000 </r>
       <r>  -22.0574    1.0000 </r>
       <r>  -21.9324    1.0000 </r>
       <r>  -21.5542    1.0000 </r>
       <r>  -21.4858    1.0000 </r>
       <r>  -21.4113    1.0000 </r>
       <r>  -21.3590    1.0000 </r>
       <r>  -21.2153    1.0000 </r>
       <r>  -21.1812    1.0000 </r>
       <r>  -21.1131    1.0000 </r>
       <r>  -21.0687    1.0000 </r>
       <r>  -20.9831    1.0000 </r>
       <r>  -20.9625    1.0000 </r>
       <r>  -20.7722    1.0000 </r>
       <r>  -20.5885    1.0000 </r>
       <r>  -20.3478    1.0000 </r>
       <r>  -20.3357    1.0000 </r>
       <r>  -20.1523    1.0000 </r>
       <r>  -20.1083    1.0000 </r>
       <r>  -19.9500    1.0000 </r>
       <r>  -19.7322    1.0000 </r>
       <r>  -19.5372    1.0000 </r>
       <r>  -19.4736    1.0000 </r>
       <r>  -19.1872    1.0000 </r>
       <r>  -18.8968    1.0000 </r>
       <r>  -18.6994    1.0000 </r>
       <r>  -18.6202    1.0000 </r>
       <r>  -18.5553    1.0000 </r>
       <r>  -18.4294    1.0000 </r>
       <r>  -18.2046    1.0000 </r>
       <r>  -17.6047    1.0000 </r>
       <r>  -17.2993    1.0000 </r>
       <r>  -17.2161    1.0000 </r>
       <r>  -17.0612    1.0000 </r>
       <r>  -16.9410    1.0000 </r>
       <r>  -16.9048    1.0000 </r>
       <r>  -16.7183    1.0000 </r>
       <r>  -16.6812    1.0000 </r>
       <r>  -16.6225    1.0000 </r>
       <r>  -16.5872    1.0000 </r>
       <r>  -16.5700    1.0000 </r>
       <r>  -16.5599    1.0000 </r>
       <r>  -16.4340    1.0000 </r>
       <r>  -16.4145    1.0000 </r>
       <r>  -16.3426    1.0000 </r>
       <r>  -16.2881    1.0000 </r>
       <r>  -16.2140    1.0000 </r>
       <r>  -16.0898    1.0000 </r>
       <r>  -16.0268    1.0000 </r>
       <r>  -16.0127    1.0000 </r>
       <r>  -15.6162    1.0000 </r>
       <r>  -15.4261    1.0000 </r>
       <r>  -15.3531    1.0000 </r>
       <r>  -15.2558    1.0000 </r>
       <r>  -15.1370    1.0000 </r>
       <r>  -15.1193    1.0000 </r>
       <r>  -14.9795    1.0000 </r>
       <r>  -14.3907    1.0000 </r>
       <r>  -14.2260    1.0000 </r>
       <r>  -14.0650    1.0000 </r>
       <r>  -14.0548    1.0000 </r>
       <r>  -13.9270    1.0000 </r>
       <r>  -13.7624    1.0000 </r>
       <r>  -13.6565    1.0000 </r>
       <r>  -13.6209    1.0000 </r>
       <r>  -13.4839    1.0000 </r>
       <r>  -13.4032    1.0000 </r>
       <r>  -13.2594    1.0000 </r>
       <r>  -13.2245    1.0000 </r>
       <r>  -13.0616    1.0000 </r>
       <r>  -12.9064    1.0000 </r>
       <r>  -12.6861    1.0000 </r>
       <r>  -12.4923    1.0000 </r>
       <r>  -12.1659    1.0000 </r>
       <r>  -12.0879    1.0000 </r>
       <r>  -12.0129    1.0000 </r>
       <r>  -11.9868    1.0000 </r>
       <r>  -11.9513    1.0000 </r>
       <r>  -11.8611    1.0000 </r>
       <r>  -11.7482    1.0000 </r>
       <r>  -11.5055    1.0000 </r>
       <r>  -11.3852    1.0000 </r>
       <r>  -11.2083    1.0000 </r>
       <r>  -11.1306    1.0000 </r>
       <r>  -11.0873    1.0000 </r>
       <r>  -10.9663    1.0000 </r>
       <r>  -10.9000    1.0000 </r>
       <r>  -10.8067    1.0000 </r>
       <r>  -10.7754    1.0000 </r>
       <r>  -10.7047    1.0000 </r>
       <r>  -10.6596    1.0000 </r>
       <r>  -10.6255    1.0000 </r>
       <r>  -10.5291    1.0000 </r>
       <r>  -10.5161    1.0000 </r>
       <r>  -10.4595    1.0000 </r>
       <r>  -10.4086    1.0000 </r>
       <r>  -10.3288    1.0000 </r>
       <r>  -10.2804    1.0000 </r>
       <r>  -10.2708    1.0000 </r>
       <r>  -10.1519    1.0000 </r>
       <r>  -10.0330    1.0000 </r>
       <r>   -9.9264    1.0000 </r>
       <r>   -9.8362    1.0000 </r>
       <r>   -9.8093    1.0000 </r>
       <r>   -9.7464    1.0000 </r>
       <r>   -9.7265    1.0000 </r>
       <r>   -9.6968    1.0000 </r>
       <r>   -9.6215    1.0000 </r>
       <r>   -9.5791    1.0000 </r>
       <r>   -9.5400    1.0000 </r>
       <r>   -9.5095    1.0000 </r>
       <r>   -9.4963    1.0000 </r>
       <r>   -9.4728    1.0000 </r>
       <r>   -9.4554    1.0000 </r>
       <r>   -9.4072    1.0000 </r>
       <r>   -9.3812    1.0000 </r>
       <r>   -9.3769    1.0000 </r>
       <r>   -9.3592    1.0000 </r>
       <r>   -9.3280    1.0000 </r>
       <r>   -9.2943    1.0000 </r>
       <r>   -9.2499    1.0000 </r>
       <r>   -9.2232    1.0000 </r>
       <r>   -9.1731    1.0000 </r>
       <r>   -9.1379    1.0000 </r>
       <r>   -9.1033    1.0000 </r>
       <r>   -9.0652    1.0000 </r>
       <r>   -9.0338    1.0000 </r>
       <r>   -8.9923    1.0000 </r>
       <r>   -8.9328    1.0000 </r>
       <r>   -8.9126    1.0000 </r>
       <r>   -8.8597    1.0000 </r>
       <r>   -8.8445    1.0000 </r>
       <r>   -8.7683    1.0000 </r>
       <r>   -8.7311    1.0000 </r>
       <r>   -8.6743    1.0000 </r>
       <r>   -8.6355    1.0000 </r>
       <r>   -8.5898    1.0000 </r>
       <r>   -8.5533    1.0000 </r>
       <r>   -8.5260    1.0000 </r>
       <r>   -8.4625    1.0000 </r>
       <r>   -8.4286    1.0000 </r>
       <r>   -8.0886    1.0000 </r>
       <r>   -7.9573    1.0000 </r>
       <r>   -7.8494    1.0000 </r>
       <r>   -7.7393    1.0000 </r>
       <r>   -7.6923    1.0000 </r>
       <r>   -7.6627    1.0000 </r>
       <r>   -7.5708    1.0000 </r>
       <r>   -7.5138    1.0000 </r>
       <r>   -7.4662    1.0000 </r>
       <r>   -7.3572    1.0000 </r>
       <r>   -7.1577    1.0000 </r>
       <r>   -7.1164    1.0000 </r>
       <r>   -7.0506    1.0000 </r>
       <r>   -6.9376    1.0000 </r>
       <r>   -6.8235    1.0000 </r>
       <r>   -6.7030    1.0000 </r>
       <r>   -6.6393    1.0000 </r>
       <r>   -6.5494    1.0000 </r>
       <r>   -6.5098    1.0000 </r>
       <r>   -6.2163    1.0000 </r>
       <r>   -6.1673    1.0000 </r>
       <r>   -6.1354    1.0000 </r>
       <r>   -6.0522    1.0000 </r>
       <r>   -5.9732    1.0000 </r>
       <r>   -5.9405    1.0000 </r>
       <r>   -5.8914    1.0000 </r>
       <r>   -5.6955    1.0000 </r>
       <r>   -5.0578    1.0000 </r>
       <r>   -4.9434    1.0000 </r>
       <r>   -4.8490    1.0000 </r>
       <r>   -4.5667    1.0000 </r>
       <r>   -4.5323    1.0000 </r>
       <r>   -4.4791    1.0000 </r>
       <r>   -4.4041    1.0000 </r>
       <r>   -4.3586    1.0000 </r>
       <r>   -3.7802    1.0000 </r>
       <r>   -3.6546    0.9990 </r>
       <r>   -3.2258    0.5245 </r>
       <r>   -3.1209    0.2483 </r>
       <r>   -2.7550    0.0005 </r>
       <r>   -2.6726    0.0001 </r>
       <r>   -2.5392    0.0000 </r>
       <r>   -2.3255    0.0000 </r>
       <r>   -2.1426    0.0000 </r>
       <r>   -1.8179    0.0000 </r>
       <r>   -1.6703    0.0000 </r>
       <r>   -1.5951    0.0000 </r>
       <r>   -1.4794    0.0000 </r>
       <r>   -1.4405    0.0000 </r>
       <r>   -1.3994    0.0000 </r>
       <r>   -1.3307    0.0000 </r>
       <r>   -0.8519    0.0000 </r>
       <r>   -0.7219    0.0000 </r>
       <r>   -0.6683    0.0000 </r>
       <r>   -0.5169    0.0000 </r>
       <r>   -0.4501    0.0000 </r>
       <r>   -0.0721    0.0000 </r>
       <r>    0.0667    0.0000 </r>
       <r>    0.1110    0.0000 </r>
       <r>    0.1492    0.0000 </r>
       <r>    0.2584    0.0000 </r>
       <r>    0.5928    0.0000 </r>
       <r>    0.6679    0.0000 </r>
       <r>    0.6869    0.0000 </r>
       <r>    0.7078    0.0000 </r>
       <r>    0.8179    0.0000 </r>
       <r>    0.9063    0.0000 </r>
       <r>    0.9130    0.0000 </r>
       <r>    0.9515    0.0000 </r>
       <r>    0.9826    0.0000 </r>
       <r>    1.0437    0.0000 </r>
       <r>    1.1524    0.0000 </r>
       <r>    1.1587    0.0000 </r>
       <r>    1.2196    0.0000 </r>
       <r>    1.3152    0.0000 </r>
       <r>    1.3222    0.0000 </r>
       <r>    1.3288    0.0000 </r>
       <r>    1.4062    0.0000 </r>
       <r>    1.4613    0.0000 </r>
       <r>    1.5562    0.0000 </r>
       <r>    1.5718    0.0000 </r>
       <r>    1.7180    0.0000 </r>
       <r>    1.7210    0.0000 </r>
       <r>    1.7306    0.0000 </r>
       <r>    1.7318    0.0000 </r>
       <r>    1.7822    0.0000 </r>
      </set>
      <set comment="kpoint 2">
       <r>  -23.0577    1.0000 </r>
       <r>  -22.9736    1.0000 </r>
       <r>  -22.8777    1.0000 </r>
       <r>  -22.5749    1.0000 </r>
       <r>  -22.4919    1.0000 </r>
       <r>  -22.4275    1.0000 </r>
       <r>  -22.2050    1.0000 </r>
       <r>  -22.0732    1.0000 </r>
       <r>  -21.9714    1.0000 </r>
       <r>  -21.8342    1.0000 </r>
       <r>  -21.8079    1.0000 </r>
       <r>  -21.6693    1.0000 </r>
       <r>  -21.2651    1.0000 </r>
       <r>  -21.1062    1.0000 </r>
       <r>  -21.0398    1.0000 </r>
       <r>  -20.9577    1.0000 </r>
       <r>  -20.6236    1.0000 </r>
       <r>  -20.5278    1.0000 </r>
       <r>  -20.4737    1.0000 </r>
       <r>  -20.3086    1.0000 </r>
       <r>  -20.1991    1.0000 </r>
       <r>  -20.0987    1.0000 </r>
       <r>  -20.0399    1.0000 </r>
       <r>  -19.9079    1.0000 </r>
       <r>  -19.8356    1.0000 </r>
       <r>  -19.5581    1.0000 </r>
       <r>  -19.4644    1.0000 </r>
       <r>  -19.1126    1.0000 </r>
       <r>  -19.0522    1.0000 </r>
       <r>  -18.8714    1.0000 </r>
       <r>  -18.6947    1.0000 </r>
       <r>  -18.5818    1.0000 </r>
       <r>  -18.5162    1.0000 </r>
       <r>  -18.2842    1.0000 </r>
       <r>  -18.1852    1.0000 </r>
       <r>  -18.1064    1.0000 </r>
       <r>  -18.0428    1.0000 </r>
       <r>  -18.0111    1.0000 </r>
       <r>  -17.8392    1.0000 </r>
       <r>  -17.7614    1.0000 </r>
       <r>  -17.4593    1.0000 </r>
       <r>  -17.3279    1.0000 </r>
       <r>  -17.3029    1.0000 </r>
       <r>  -17.1553    1.0000 </r>
       <r>  -17.0889    1.0000 </r>
       <r>  -16.6062    1.0000 </r>
       <r>  -16.3224    1.0000 </r>
       <r>  -16.1512    1.0000 </r>
       <r>  -16.0563    1.0000 </r>
       <r>  -15.9406    1.0000 </r>
       <r>  -15.8237    1.0000 </r>
       <r>  -15.6839    1.0000 </r>
       <r>  -15.5863    1.0000 </r>
       <r>  -15.3554    1.0000 </r>
       <r>  -15.3080    1.0000 </r>
       <r>  -15.2399    1.0000 </r>
       <r>  -15.1435    1.0000 </r>
       <r>  -15.0950    1.0000 </r>
       <r>  -15.0195    1.0000 </r>
       <r>  -14.9881    1.0000 </r>
       <r>  -14.9693    1.0000 </r>
       <r>  -14.7654    1.0000 </r>
       <r>  -14.5198    1.0000 </r>
       <r>  -14.3608    1.0000 </r>
       <r>  -14.2627    1.0000 </r>
       <r>  -14.1822    1.0000 </r>
       <r>  -13.9749    1.0000 </r>
       <r>  -13.8830    1.0000 </r>
       <r>  -13.3462    1.0000 </r>
       <r>  -13.2470    1.0000 </r>
       <r>  -13.2144    1.0000 </r>
       <r>  -13.1487    1.0000 </r>
       <r>  -12.9175    1.0000 </r>
       <r>  -12.8341    1.0000 </r>
       <r>  -12.7954    1.0000 </r>
       <r>  -12.7342    1.0000 </r>
       <r>  -12.6994    1.0000 </r>
       <r>  -12.5538    1.0000 </r>
       <r>  -12.4263    1.0000 </r>
       <r>  -12.3214    1.0000 </r>
       <r>  -12.1778    1.0000 </r>
       <r>  -12.1260    1.0000 </r>
       <r>  -12.0576    1.0000 </r>
       <r>  -12.0223    1.0000 </r>
       <r>  -11.7532    1.0000 </r>
       <r>  -11.6175    1.0000 </r>
       <r>  -11.4514    1.0000 </r>
       <r>  -11.3578    1.0000 </r>
       <r>  -11.2851    1.0000 </r>
       <r>  -11.1856    1.0000 </r>
       <r>  -11.1257    1.0000 </r>
       <r>  -11.0283    1.0000 </r>
       <r>  -11.0180    1.0000 </r>
       <r>  -10.9901    1.0000 </r>
       <r>  -10.9092    1.0000 </r>
       <r>  -10.8710    1.0000 </r>
       <r>  -10.8222    1.0000 </r>
       <r>  -10.8017    1.0000 </r>
       <r>  -10.7565    1.0000 </r>
       <r>  -10.6761    1.0000 </r>
       <r>  -10.5840    1.0000 </r>
       <r>  -10.5475    1.0000 </r>
       <r>  -10.4639    1.0000 </r>
       <r>  -10.4104    1.0000 </r>
       <r>  -10.3607    1.0000 </r>
       <r>  -10.3301    1.0000 </r>
       <r>  -10.2578    1.0000 </r>
       <r>  -10.1236    1.0000 </r>
       <r>  -10.0866    1.0000 </r>
       <r>  -10.0294    1.0000 </r>
       <r>   -9.9695    1.0000 </r>
       <r>   -9.9266    1.0000 </r>
       <r>   -9.8806    1.0000 </r>
       <r>   -9.8098    1.0000 </r>
       <r>   -9.7398    1.0000 </r>
       <r>   -9.7146    1.0000 </r>
       <r>   -9.6904    1.0000 </r>
       <r>   -9.6436    1.0000 </r>
       <r>   -9.5691    1.0000 </r>
       <r>   -9.5251    1.0000 </r>
       <r>   -9.4990    1.0000 </r>
       <r>   -9.4477    1.0000 </r>
       <r>   -9.4152    1.0000 </r>
       <r>   -9.3818    1.0000 </r>
       <r>   -9.3287    1.0000 </r>
       <r>   -9.2289    1.0000 </r>
       <r>   -9.0632    1.0000 </r>
       <r>   -8.9709    1.0000 </r>
       <r>   -8.8859    1.0000 </r>
       <r>   -8.8233    1.0000 </r>
       <r>   -8.7732    1.0000 </r>
       <r>   -8.7288    1.0000 </r>
       <r>   -8.6716    1.0000 </r>
       <r>   -8.6044    1.0000 </r>
       <r>   -8.5817    1.0000 </r>
       <r>   -8.5492    1.0000 </r>
       <r>   -8.5023    1.0000 </r>
       <r>   -8.4853    1.0000 </r>
       <r>   -8.4028    1.0000 </r>
       <r>   -8.3310    1.0000 </r>
       <r>   -8.2891    1.0000 </r>
       <r>   -8.2064    1.0000 </r>
       <r>   -8.1274    1.0000 </r>
       <r>   -8.0782    1.0000 </r>
       <r>   -8.0323    1.0000 </r>
       <r>   -8.0075    1.0000 </r>
       <r>   -7.9546    1.0000 </r>
       <r>   -7.8136    1.0000 </r>
       <r>   -7.7377    1.0000 </r>
       <r>   -7.6878    1.0000 </r>
       <r>   -7.6299    1.0000 </r>
       <r>   -7.5596    1.0000 </r>
       <r>   -7.4782    1.0000 </r>
       <r>   -7.3987    1.0000 </r>
       <r>   -7.3124    1.0000 </r>
       <r>   -7.2549    1.0000 </r>
       <r>   -7.0679    1.0000 </r>
       <r>   -7.0349    1.0000 </r>
       <r>   -6.9891    1.0000 </r>
       <r>   -6.8724    1.0000 </r>
       <r>   -6.8336    1.0000 </r>
       <r>   -6.7128    1.0000 </r>
       <r>   -6.6165    1.0000 </r>
       <r>   -6.5695    1.0000 </r>
       <r>   -6.4693    1.0000 </r>
       <r>   -6.3924    1.0000 </r>
       <r>   -6.1581    1.0000 </r>
       <r>   -6.0770    1.0000 </r>
       <r>   -5.9878    1.0000 </r>
       <r>   -5.9548    1.0000 </r>
       <r>   -5.8622    1.0000 </r>
       <r>   -5.8141    1.0000 </r>
       <r>   -5.7342    1.0000 </r>
       <r>   -5.6310    1.0000 </r>
       <r>   -5.5374    1.0000 </r>
       <r>   -5.4500    1.0000 </r>
       <r>   -5.1646    1.0000 </r>
       <r>   -5.1007    1.0000 </r>
       <r>   -4.7208    1.0000 </r>
       <r>   -4.6959    1.0000 </r>
       <r>   -4.5111    1.0000 </r>
       <r>   -4.4809    1.0000 </r>
       <r>   -4.3317    1.0000 </r>
       <r>   -3.3814    0.8774 </r>
       <r>   -3.1089    0.2222 </r>
       <r>   -2.5953    0.0000 </r>
       <r>   -2.1205    0.0000 </r>
       <r>   -2.1029    0.0000 </r>
       <r>   -1.6154    0.0000 </r>
       <r>   -1.5547    0.0000 </r>
       <r>   -1.4824    0.0000 </r>
       <r>   -1.3844    0.0000 </r>
       <r>   -1.3471    0.0000 </r>
       <r>   -1.3133    0.0000 </r>
       <r>   -1.0977    0.0000 </r>
       <r>   -1.0705    0.0000 </r>
       <r>   -1.0236    0.0000 </r>
       <r>   -0.9150    0.0000 </r>
       <r>   -0.8617    0.0000 </r>
       <r>   -0.3390    0.0000 </r>
       <r>   -0.1820    0.0000 </r>
       <r>   -0.1640    0.0000 </r>
       <r>   -0.0484    0.0000 </r>
       <r>    0.0269    0.0000 </r>
       <r>    0.1036    0.0000 </r>
       <r>    0.1976    0.0000 </r>
       <r>    0.2499    0.0000 </r>
       <r>    0.3117    0.0000 </r>
       <r>    0.3326    0.0000 </r>
       <r>    0.7979    0.0000 </r>
       <r>    0.8180    0.0000 </r>
       <r>    0.8429    0.0000 </r>
       <r>    0.9712    0.0000 </r>
       <r>    1.0471    0.0000 </r>
       <r>    1.0554    0.0000 </r>
       <r>    1.0965    0.0000 </r>
       <r>    1.1270    0.0000 </r>
       <r>    1.2521    0.0000 </r>
       <r>    1.2937    0.0000 </r>
       <r>    1.3008    0.0000 </r>
       <r>    1.3609    0.0000 </r>
       <r>    1.3882    0.0000 </r>
       <r>    1.4038    0.0000 </r>
       <r>    1.4461    0.0000 </r>
       <r>    1.4552    0.0000 </r>
       <r>    1.4701    0.0000 </r>
       <r>    1.5250    0.0000 </r>
       <r>    1.5492    0.0000 </r>
       <r>    1.6049    0.0000 </r>
       <r>    1.6365    0.0000 </r>
       <r>    1.6890    0.0000 </r>
       <r>    1.7122    0.0000 </r>
      </set>
      <set comment="kpoint 3">
       <r>  -22.8535    1.0000 </r>
       <r>  -22.7403    1.0000 </r>
       <r>  -22.7269    1.0000 </r>
       <r>  -22.6559    1.0000 </r>
       <r>  -22.5916    1.0000 </r>
       <r>  -22.5423    1.0000 </r>
       <r>  -22.3117    1.0000 </r>
       <r>  -22.2523    1.0000 </r>
       <r>  -22.2287    1.0000 </r>
       <r>  -22.1290    1.0000 </r>
       <r>  -21.7446    1.0000 </r>
       <r>  -21.6332    1.0000 </r>
       <r>  -21.5349    1.0000 </r>
       <r>  -21.5165    1.0000 </r>
       <r>  -20.8982    1.0000 </r>
       <r>  -20.8217    1.0000 </r>
       <r>  -20.6801    1.0000 </r>
       <r>  -20.6616    1.0000 </r>
       <r>  -19.9250    1.0000 </r>
       <r>  -19.8302    1.0000 </r>
       <r>  -19.6413    1.0000 </r>
       <r>  -19.5748    1.0000 </r>
       <r>  -19.5624    1.0000 </r>
       <r>  -19.4889    1.0000 </r>
       <r>  -19.4225    1.0000 </r>
       <r>  -19.3755    1.0000 </r>
       <r>  -19.2962    1.0000 </r>
       <r>  -19.2608    1.0000 </r>
       <r>  -19.1039    1.0000 </r>
       <r>  -19.0217    1.0000 </r>
       <r>  -18.9759    1.0000 </r>
       <r>  -18.9149    1.0000 </r>
       <r>  -18.6056    1.0000 </r>
       <r>  -18.5661    1.0000 </r>
       <r>  -18.4777    1.0000 </r>
       <r>  -18.4412    1.0000 </r>
       <r>  -18.2940    1.0000 </r>
       <r>  -18.2751    1.0000 </r>
       <r>  -18.1960    1.0000 </r>
       <r>  -18.1319    1.0000 </r>
       <r>  -17.7916    1.0000 </r>
       <r>  -17.7188    1.0000 </r>
       <r>  -17.6320    1.0000 </r>
       <r>  -17.6109    1.0000 </r>
       <r>  -16.9055    1.0000 </r>
       <r>  -16.7552    1.0000 </r>
       <r>  -16.2858    1.0000 </r>
       <r>  -16.2300    1.0000 </r>
       <r>  -16.0640    1.0000 </r>
       <r>  -16.0092    1.0000 </r>
       <r>  -15.9490    1.0000 </r>
       <r>  -15.8875    1.0000 </r>
       <r>  -15.3318    1.0000 </r>
       <r>  -15.2541    1.0000 </r>
       <r>  -15.0974    1.0000 </r>
       <r>  -15.0480    1.0000 </r>
       <r>  -14.8511    1.0000 </r>
       <r>  -14.8142    1.0000 </r>
       <r>  -14.7756    1.0000 </r>
       <r>  -14.6850    1.0000 </r>
       <r>  -14.0275    1.0000 </r>
       <r>  -14.0119    1.0000 </r>
       <r>  -13.8601    1.0000 </r>
       <r>  -13.7835    1.0000 </r>
       <r>  -13.7446    1.0000 </r>
       <r>  -13.6788    1.0000 </r>
       <r>  -13.6556    1.0000 </r>
       <r>  -13.6162    1.0000 </r>
       <r>  -13.5713    1.0000 </r>
       <r>  -13.5579    1.0000 </r>
       <r>  -13.5208    1.0000 </r>
       <r>  -13.4880    1.0000 </r>
       <r>  -13.4321    1.0000 </r>
       <r>  -13.4108    1.0000 </r>
       <r>  -13.1569    1.0000 </r>
       <r>  -13.0001    1.0000 </r>
       <r>  -12.3264    1.0000 </r>
       <r>  -12.2757    1.0000 </r>
       <r>  -12.2426    1.0000 </r>
       <r>  -12.1780    1.0000 </r>
       <r>  -12.1129    1.0000 </r>
       <r>  -12.0728    1.0000 </r>
       <r>  -12.0011    1.0000 </r>
       <r>  -11.9562    1.0000 </r>
       <r>  -11.8808    1.0000 </r>
       <r>  -11.8315    1.0000 </r>
       <r>  -11.8047    1.0000 </r>
       <r>  -11.7687    1.0000 </r>
       <r>  -11.6686    1.0000 </r>
       <r>  -11.6183    1.0000 </r>
       <r>  -11.3447    1.0000 </r>
       <r>  -11.2713    1.0000 </r>
       <r>  -11.1793    1.0000 </r>
       <r>  -11.1435    1.0000 </r>
       <r>  -11.0470    1.0000 </r>
       <r>  -10.9777    1.0000 </r>
       <r>  -10.7988    1.0000 </r>
       <r>  -10.7075    1.0000 </r>
       <r>  -10.6733    1.0000 </r>
       <r>  -10.6657    1.0000 </r>
       <r>  -10.5490    1.0000 </r>
       <r>  -10.5330    1.0000 </r>
       <r>  -10.5149    1.0000 </r>
       <r>  -10.4885    1.0000 </r>
       <r>  -10.4402    1.0000 </r>
       <r>  -10.4223    1.0000 </r>
       <r>  -10.3961    1.0000 </r>
       <r>  -10.3349    1.0000 </r>
       <r>  -10.3054    1.0000 </r>
       <r>  -10.2571    1.0000 </r>
       <r>  -10.2307    1.0000 </r>
       <r>  -10.2024    1.0000 </r>
       <r>  -10.1539    1.0000 </r>
       <r>  -10.0653    1.0000 </r>
       <r>  -10.0214    1.0000 </r>
[...]
       <r>   -22.6437    14.6699     7.1747 </r>
       <r>   -22.5473    15.9513     8.7131 </r>
       <r>   -22.4509    15.5913    10.2168 </r>
       <r>   -22.3544    14.3242    11.5983 </r>
       <r>   -22.2580    13.8994    12.9389 </r>
       <r>   -22.1615    14.2722    14.3153 </r>
       <r>   -22.0651    14.3324    15.6976 </r>
       <r>   -21.9686    13.9408    17.0421 </r>
       <r>   -21.8722    13.6291    18.3566 </r>
       <r>   -21.7757    13.4913    19.6578 </r>
       <r>   -21.6793    13.2342    20.9342 </r>
       <r>   -21.5829    12.7395    22.1628 </r>
       <r>   -21.4864    11.9976    23.3199 </r>
       <r>   -21.3900    11.2900    24.4088 </r>
       <r>   -21.2935    11.5304    25.5208 </r>
       <r>   -21.1971    13.3064    26.8042 </r>
       <r>   -21.1006    15.7424    28.3225 </r>
       <r>   -21.0042    16.9146    29.9538 </r>
       <r>   -20.9077    15.7109    31.4690 </r>
       <r>   -20.8113    13.3892    32.7603 </r>
       <r>   -20.7148    12.2907    33.9457 </r>
       <r>   -20.6184    12.8730    35.1873 </r>
       <r>   -20.5220    13.5312    36.4923 </r>
       <r>   -20.4255    13.3343    37.7783 </r>
       <r>   -20.3291    13.0755    39.0394 </r>
       <r>   -20.2326    13.5876    40.3498 </r>
       <r>   -20.1362    14.6409    41.7619 </r>
       <r>   -20.0397    15.4519    43.2521 </r>
       <r>   -19.9433    15.4683    44.7440 </r>
       <r>   -19.8468    14.5632    46.1485 </r>
       <r>   -19.7504    13.3579    47.4368 </r>
       <r>   -19.6540    13.5011    48.7389 </r>
       <r>   -19.5575    15.4224    50.2264 </r>
       <r>   -19.4611    16.6757    51.8346 </r>
       <r>   -19.3646    15.3617    53.3162 </r>
       <r>   -19.2682    13.1574    54.5852 </r>
       <r>   -19.1717    12.6207    55.8024 </r>
       <r>   -19.0753    13.6702    57.1208 </r>
       <r>   -18.9788    14.3277    58.5026 </r>
       <r>   -18.8824    13.7027    59.8242 </r>
       <r>   -18.7859    13.1239    61.0899 </r>
       <r>   -18.6895    14.3775    62.4766 </r>
       <r>   -18.5931    16.9077    64.1072 </r>
       <r>   -18.4966    18.1068    65.8535 </r>
       <r>   -18.4002    17.3036    67.5224 </r>
       <r>   -18.3037    16.7619    69.1390 </r>
       <r>   -18.2073    17.5864    70.8351 </r>
       <r>   -18.1108    17.9305    72.5644 </r>
       <r>   -18.0144    16.2438    74.1311 </r>
       <r>   -17.9179    13.6922    75.4516 </r>
       <r>   -17.8215    12.3096    76.6388 </r>
       <r>   -17.7251    12.0390    77.7999 </r>
       <r>   -17.6286    11.4561    78.9048 </r>
       <r>   -17.5322    10.5114    79.9186 </r>
       <r>   -17.4357    10.4853    80.9298 </r>
       <r>   -17.3393    11.7867    82.0666 </r>
       <r>   -17.2428    13.1460    83.3344 </r>
       <r>   -17.1464    13.2669    84.6140 </r>
       <r>   -17.0499    12.1423    85.7850 </r>
       <r>   -16.9535    10.5839    86.8058 </r>
       <r>   -16.8570     9.6367    87.7352 </r>
       <r>   -16.7606    10.2179    88.7207 </r>
       <r>   -16.6642    12.1633    89.8938 </r>
       <r>   -16.5677    13.8100    91.2257 </r>
       <r>   -16.4713    14.1909    92.5943 </r>
       <r>   -16.3748    14.5189    93.9946 </r>
       <r>   -16.2784    15.7872    95.5172 </r>
       <r>   -16.1819    17.4972    97.2047 </r>
       <r>   -16.0855    18.9805    99.0353 </r>
       <r>   -15.9890    19.2454   100.8914 </r>
       <r>   -15.8926    17.2851   102.5585 </r>
       <r>   -15.7962    13.9796   103.9067 </r>
       <r>   -15.6997    11.4034   105.0065 </r>
       <r>   -15.6033    10.3702   106.0067 </r>
       <r>   -15.5068    10.8034   107.0486 </r>
       <r>   -15.4104    13.2910   108.3305 </r>
       <r>   -15.3139    17.6035   110.0282 </r>
       <r>   -15.2175    21.7550   112.1264 </r>
       <r>   -15.1210    24.1889   114.4593 </r>
       <r>   -15.0246    24.2014   116.7934 </r>
       <r>   -14.9281    21.4328   118.8605 </r>
       <r>   -14.8317    17.0510   120.5050 </r>
       <r>   -14.7353    12.8756   121.7468 </r>
       <r>   -14.6388     9.6950   122.6818 </r>
       <r>   -14.5424     8.0576   123.4589 </r>
       <r>   -14.4459     8.3856   124.2677 </r>
       <r>   -14.3495    10.0580   125.2377 </r>
       <r>   -14.2530    11.8830   126.3838 </r>
       <r>   -14.1566    13.2888   127.6654 </r>
       <r>   -14.0601    14.5804   129.0716 </r>
       <r>   -13.9637    15.7876   130.5942 </r>
       <r>   -13.8672    16.3715   132.1732 </r>
       <r>   -13.7708    16.5809   133.7723 </r>
       <r>   -13.6744    17.2294   135.4340 </r>
       <r>   -13.5779    18.1378   137.1833 </r>
       <r>   -13.4815    18.5644   138.9738 </r>
       <r>   -13.3850    18.6214   140.7697 </r>
       <r>   -13.2886    18.7749   142.5805 </r>
       <r>   -13.1921    18.3906   144.3542 </r>
       <r>   -13.0957    16.6294   145.9580 </r>
       <r>   -12.9992    14.7167   147.3773 </r>
       <r>   -12.9028    14.6113   148.7865 </r>
       <r>   -12.8064    15.8120   150.3115 </r>
       <r>   -12.7099    16.0429   151.8588 </r>
       <r>   -12.6135    14.5261   153.2597 </r>
       <r>   -12.5170    12.8892   154.5028 </r>
       <r>   -12.4206    12.9786   155.7546 </r>
       <r>   -12.3241    15.3147   157.2316 </r>
       <r>   -12.2277    19.4615   159.1086 </r>
       <r>   -12.1312    23.9866   161.4220 </r>
       <r>   -12.0348    26.3845   163.9666 </r>
       <r>   -11.9383    25.2319   166.4001 </r>
       <r>   -11.8419    22.0361   168.5254 </r>
       <r>   -11.7455    18.9728   170.3552 </r>
       <r>   -11.6490    16.4981   171.9464 </r>
       <r>   -11.5526    14.7655   173.3704 </r>
       <r>   -11.4561    14.7684   174.7948 </r>
       <r>   -11.3597    16.9312   176.4277 </r>
       <r>   -11.2632    20.4479   178.3998 </r>
       <r>   -11.1668    24.3491   180.7481 </r>
       <r>   -11.0703    27.9096   183.4399 </r>
       <r>   -10.9739    30.5594   186.3872 </r>
       <r>   -10.8775    32.3446   189.5067 </r>
       <r>   -10.7810    33.6951   192.7564 </r>
       <r>   -10.6846    34.8735   196.1198 </r>
       <r>   -10.5881    36.3591   199.6264 </r>
       <r>   -10.4917    38.2936   203.3197 </r>
       <r>   -10.3952    39.3383   207.1136 </r>
       <r>   -10.2988    37.9735   210.7760 </r>
       <r>   -10.2023    34.8650   214.1386 </r>
       <r>   -10.1059    32.5827   217.2810 </r>
       <r>   -10.0094    32.4735   220.4129 </r>
       <r>    -9.9130    33.4690   223.6408 </r>
       <r>    -9.8166    34.5981   226.9776 </r>
       <r>    -9.7201    35.9326   230.4432 </r>
       <r>    -9.6237    37.6442   234.0738 </r>
       <r>    -9.5272    40.1856   237.9495 </r>
       <r>    -9.4308    42.7190   242.0695 </r>
       <r>    -9.3343    42.2593   246.1452 </r>
       <r>    -9.2379    37.7760   249.7885 </r>
       <r>    -9.1414    32.4125   252.9145 </r>
       <r>    -9.0450    29.6869   255.7777 </r>
       <r>    -8.9486    30.0915   258.6799 </r>
       <r>    -8.8521    32.1299   261.7786 </r>
       <r>    -8.7557    34.4330   265.0995 </r>
       <r>    -8.6592    36.2488   268.5955 </r>
       <r>    -8.5628    36.9028   272.1546 </r>
       <r>    -8.4663    35.5258   275.5809 </r>
       <r>    -8.3699    32.3090   278.6970 </r>
       <r>    -8.2734    29.0703   281.5007 </r>
       <r>    -8.1770    27.2238   284.1263 </r>
       <r>    -8.0805    26.4042   286.6728 </r>
       <r>    -7.9841    25.6294   289.1446 </r>
       <r>    -7.8877    25.2336   291.5783 </r>
       <r>    -7.7912    26.5966   294.1434 </r>
       <r>    -7.6948    29.2811   296.9674 </r>
       <r>    -7.5983    30.6451   299.9230 </r>
       <r>    -7.5019    29.4831   302.7665 </r>
       <r>    -7.4054    27.4187   305.4109 </r>
       <r>    -7.3090    26.0847   307.9266 </r>
       <r>    -7.2125    25.6476   310.4002 </r>
       <r>    -7.1161    25.8015   312.8886 </r>
       <r>    -7.0196    25.8552   315.3823 </r>
       <r>    -6.9232    25.1868   317.8114 </r>
       <r>    -6.8268    24.5048   320.1748 </r>
       <r>    -6.7303    24.7332   322.5602 </r>
       <r>    -6.6339    25.3320   325.0033 </r>
       <r>    -6.5374    24.7819   327.3934 </r>
       <r>    -6.4410    22.4326   329.5569 </r>
       <r>    -6.3445    19.5072   331.4383 </r>
       <r>    -6.2481    18.0415   333.1783 </r>
       <r>    -6.1516    19.2292   335.0328 </r>
       <r>    -6.0552    22.4818   337.2011 </r>
       <r>    -5.9588    25.7617   339.6857 </r>
       <r>    -5.8623    26.9627   342.2861 </r>
       <r>    -5.7659    25.5296   344.7483 </r>
       <r>    -5.6694    22.5830   346.9263 </r>
       <r>    -5.5730    19.0127   348.7600 </r>
       <r>    -5.4765    15.0448   350.2110 </r>
       <r>    -5.3801    11.7375   351.3430 </r>
       <r>    -5.2836    10.6708   352.3722 </r>
       <r>    -5.1872    11.6126   353.4922 </r>
       <r>    -5.0907    12.0701   354.6563 </r>
       <r>    -4.9943    10.5164   355.6705 </r>
       <r>    -4.8979     8.5038   356.4907 </r>
       <r>    -4.8014     8.2135   357.2828 </r>
       <r>    -4.7050     9.8750   358.2352 </r>
       <r>    -4.6085    12.3941   359.4305 </r>
       <r>    -4.5121    14.4977   360.8288 </r>
       <r>    -4.4156    14.6371   362.2405 </r>
       <r>    -4.3192    12.0181   363.3995 </r>
       <r>    -4.2227     7.9532   364.1666 </r>
       <r>    -4.1263     4.5471   364.6051 </r>
       <r>    -4.0299     2.6696   364.8626 </r>
       <r>    -3.9334     2.1645   365.0714 </r>
       <r>    -3.8370     2.7820   365.3397 </r>
       <r>    -3.7405     3.7813   365.7044 </r>
       <r>    -3.6441     4.0727   366.0972 </r>
       <r>    -3.5476     3.6643   366.4506 </r>
       <r>    -3.4512     3.6211   366.7998 </r>
       <r>    -3.3547     4.3720   367.2214 </r>
       <r>    -3.2583     5.4450   367.7466 </r>
       <r>    -3.1618     6.3388   368.3579 </r>
       <r>    -3.0654     6.4648   368.9814 </r>
       <r>    -2.9690     5.5822   369.5198 </r>
       <r>    -2.8725     4.6826   369.9714 </r>
       <r>    -2.7761     5.0811   370.4615 </r>
       <r>    -2.6796     6.6896   371.1067 </r>
       <r>    -2.5832     7.7754   371.8566 </r>
       <r>    -2.4867     6.9899   372.5307 </r>
       <r>    -2.3903     5.3361   373.0453 </r>
       <r>    -2.2938     4.9209   373.5199 </r>
       <r>    -2.1974     6.2571   374.1234 </r>
       <r>    -2.1010     7.5743   374.8539 </r>
       <r>    -2.0045     7.0456   375.5334 </r>
       <r>    -1.9081     5.6788   376.0811 </r>
       <r>    -1.8116     6.3071   376.6894 </r>
       <r>    -1.7152    10.2030   377.6734 </r>
       <r>    -1.6187    16.0199   379.2185 </r>
       <r>    -1.5223    20.9799   381.2419 </r>
       <r>    -1.4258    22.9669   383.4569 </r>
       <r>    -1.3294    21.8721   385.5664 </r>
       <r>    -1.2329    19.4799   387.4451 </r>
       <r>    -1.1365    18.0941   389.1902 </r>
       <r>    -1.0401    17.8708   390.9138 </r>
       <r>    -0.9436    16.9885   392.5522 </r>
       <r>    -0.8472    14.8799   393.9873 </r>
       <r>    -0.7507    12.6647   395.2087 </r>
       <r>    -0.6543    11.3591   396.3043 </r>
       <r>    -0.5578    11.0574   397.3707 </r>
       <r>    -0.4614    11.2944   398.4600 </r>
       <r>    -0.3649    12.0574   399.6229 </r>
       <r>    -0.2685    13.8476   400.9584 </r>
       <r>    -0.1721    16.3465   402.5349 </r>
       <r>    -0.0756    18.3541   404.3051 </r>
       <r>     0.0208    19.6452   406.1998 </r>
       <r>     0.1173    21.0204   408.2271 </r>
       <r>     0.2137    22.1876   410.3670 </r>
       <r>     0.3102    21.5618   412.4465 </r>
       <r>     0.4066    18.8478   414.2643 </r>
       <r>     0.5031    16.7263   415.8775 </r>
       <r>     0.5995    18.1717   417.6300 </r>
       <r>     0.6960    22.9109   419.8397 </r>
       <r>     0.7924    28.2235   422.5617 </r>
       <r>     0.8888    31.9944   425.6474 </r>
       <r>     0.9853    34.2506   428.9507 </r>
       <r>     1.0817    36.3046   432.4521 </r>
       <r>     1.1782    39.5329   436.2649 </r>
       <r>     1.2746    44.6808   440.5741 </r>
       <r>     1.3711    50.0172   445.3980 </r>
       <r>     1.4675    51.7611   450.3901 </r>
       <r>     1.5640    47.7699   454.9973 </r>
       <r>     1.6604    39.0266   458.7612 </r>
       <r>     1.7569    27.7708   461.4396 </r>
       <r>     1.8533    16.3029   463.0119 </r>
       <r>     1.9497     7.3071   463.7166 </r>
       <r>     2.0462     2.3407   463.9424 </r>
       <r>     2.1426     0.5140   463.9920 </r>
       <r>     2.2391     0.0756   463.9992 </r>
       <r>     2.3355     0.0074   464.0000 </r>
       <r>     2.4320     0.0005   464.0000 </r>
       <r>     2.5284     0.0000   464.0000 </r>
       <r>     2.6249     0.0000   464.0000 </r>
       <r>     2.7213     0.0000   464.0000 </r>
       <r>     2.8177     0.0000   464.0000 </r>
       <r>     2.9142     0.0000   464.0000 </r>
       <r>     3.0106     0.0000   464.0000 </r>
       <r>     3.1071     0.0000   464.0000 </r>
       <r>     3.2035     0.0000   464.0000 </r>
       <r>     3.3000     0.0000   464.0000 </r>
       <r>     3.3964     0.0000   464.0000 </r>
       <r>     3.4929     0.0000   464.0000 </r>
       <r>     3.5893     0.0000   464.0000 </r>
       <r>     3.6858     0.0000   464.0000 </r>
       <r>     3.7822     0.0000   464.0000 </r>
      </set>
     </set>
    </array>
   </total>
  </dos>
 </calculation>
 <structure name="finalpos" >
  <crystal>
   <varray name="basis" >
    <v>      28.05000000       0.00000000       0.00000000 </v>
    <v>       0.00000000       8.10000000       0.00000000 </v>
    <v>       0.00000000       0.00000000      33.50000000 </v>
   </varray>
   <i name="volume">   7611.36750000 </i>
   <varray name="rec_basis" >
    <v>       0.03565062       0.00000000       0.00000000 </v>
    <v>       0.00000000       0.12345679       0.00000000 </v>
    <v>       0.00000000       0.00000000       0.02985075 </v>
   </varray>
  </crystal>
  <varray name="positions" >
   <v>       0.00377850       0.10279605       0.55132239 </v>
   <v>       0.00488873       0.27348765       0.54682388 </v>
   <v>       0.04835294       0.02691049       0.55076716 </v>
   <v>       0.04752620       0.36180000       0.54370448 </v>
   <v>       0.09287843       0.11320272       0.55406866 </v>
   <v>       0.09281176       0.28116543       0.54981493 </v>
   <v>       0.13870125       0.03143877       0.55283284 </v>
   <v>       0.13686061       0.36595802       0.54047463 </v>
   <v>       0.18468627       0.10869012       0.54735224 </v>
   <v>       0.18247914       0.27970370       0.54131940 </v>
   <v>       0.22817148       0.02628531       0.53444179 </v>
   <v>       0.22478182       0.35880741       0.52683582 </v>
   <v>       0.26918075       0.11168926       0.52077015 </v>
   <v>       0.26591765       0.27582840       0.51511343 </v>
   <v>       0.31258111       0.02110827       0.51018209 </v>
   <v>       0.30677790       0.35501605       0.49590448 </v>
   <v>       0.35215971       0.10214827       0.49623284 </v>
   <v>       0.34855294       0.26999383       0.48542388 </v>
   <v>       0.39498752       0.01713062       0.48572836 </v>
   <v>       0.39281283       0.34936420       0.47600896 </v>
   <v>       0.43692692       0.10570506       0.46957910 </v>
   <v>       0.43630303       0.26832963       0.46506269 </v>
   <v>       0.48058824       0.02463111       0.46116716 </v>
   <v>       0.48090909       0.34883210       0.45458806 </v>
   <v>       0.52581105       0.09735568       0.45143284 </v>
   <v>       0.52505526       0.26829506       0.44946567 </v>
   <v>       0.56780392       0.01956173       0.45955224 </v>
   <v>       0.56947594       0.35390000       0.44852537 </v>
   <v>       0.61235651       0.10426593       0.45880597 </v>
   <v>       0.61311230       0.27017037       0.45632836 </v>
   <v>       0.65555793       0.01676864       0.46770746 </v>
   <v>       0.65716578       0.34985556       0.45853134 </v>
   <v>       0.69833868       0.10091321       0.47571045 </v>
   <v>       0.70006774       0.26956914       0.46967164 </v>
   <v>       0.74110160       0.02124753       0.48897612 </v>
   <v>       0.74288770       0.35534691       0.48260000 </v>
   <v>       0.78113012       0.10162086       0.50392239 </v>
   <v>       0.78372193       0.27469136       0.49902388 </v>
   <v>       0.82425668       0.02373827       0.51245075 </v>
   <v>       0.82795009       0.35389877       0.50445075 </v>
   <v>       0.86735472       0.09851025       0.52081194 </v>
   <v>       0.87027094       0.26967531       0.51601791 </v>
   <v>       0.91125134       0.01485938       0.52997612 </v>
   <v>       0.91503743       0.34677284       0.51968358 </v>
   <v>       0.95231373       0.09728827       0.54275821 </v>
   <v>       0.95259893       0.27246173       0.53856418 </v>
   <v>       0.00691102       0.60806914       0.52611343 </v>
   <v>       0.00512927       0.78692716       0.53251343 </v>
   <v>       0.04747772       0.52471728       0.53321194 </v>
   <v>       0.04929483       0.85854815       0.54201493 </v>
   <v>       0.09165241       0.61853333       0.53591940 </v>
   <v>       0.09338146       0.77669136       0.54434627 </v>
   <v>       0.13497184       0.53160247       0.53183582 </v>
   <v>       0.13912050       0.86134198       0.54644179 </v>
   <v>       0.18071836       0.61451852       0.53190746 </v>
   <v>       0.18200963       0.78125556       0.53785075 </v>
   <v>       0.22217790       0.52693457       0.52196119 </v>
   <v>       0.22616542       0.86103333       0.53079104 </v>
   <v>       0.26592941       0.61041481       0.51005373 </v>
   <v>       0.26957718       0.77746790       0.51652239 </v>
   <v>       0.30626275       0.51987407       0.49742388 </v>
   <v>       0.31304848       0.85084321       0.50787761 </v>
   <v>       0.34986096       0.60245802       0.48641194 </v>
   <v>       0.35324777       0.76823580       0.49377612 </v>
   <v>       0.39283422       0.52142469       0.47630746 </v>
   <v>       0.39612121       0.84949383       0.48413134 </v>
   <v>       0.43673440       0.60137407       0.46720000 </v>
   <v>       0.43959715       0.76826049       0.47250149 </v>
   <v>       0.47890909       0.52252346       0.45577313 </v>
   <v>       0.48100178       0.85776667       0.46708060 </v>
   <v>       0.52375758       0.59905802       0.45440896 </v>
   <v>       0.52442068       0.76353086       0.46128657 </v>
   <v>       0.56971836       0.52197284       0.44794030 </v>
   <v>       0.56861319       0.84277901       0.46467463 </v>
   <v>       0.61375758       0.60089877       0.45362687 </v>
   <v>       0.61257398       0.76167160       0.46571045 </v>
   <v>       0.65868449       0.51656049       0.45497015 </v>
   <v>       0.65601426       0.84743951       0.47006567 </v>
   <v>       0.70131194       0.60269012       0.46481493 </v>
   <v>       0.70175401       0.77007160       0.47195821 </v>
   <v>       0.74419608       0.52202222       0.47556716 </v>
   <v>       0.74448128       0.85665556       0.48142388 </v>
   <v>       0.79016043       0.60072346       0.48171343 </v>
   <v>       0.78817825       0.77025062       0.48705373 </v>
   <v>       0.83033155       0.51969012       0.49620597 </v>
   <v>       0.82640998       0.85250617       0.50484478 </v>
   <v>       0.87407130       0.60118889       0.50295821 </v>
   <v>       0.87127273       0.76912346       0.50924179 </v>
   <v>       0.91688414       0.51405062       0.51241493 </v>
   <v>       0.91402852       0.85436667       0.51976418 </v>
   <v>       0.95960784       0.59684074       0.51708657 </v>
   <v>       0.95729055       0.77609877       0.52143284 </v>
  </varray>
 </structure>
</modeling>
