unknown system                          
            1
    28.050000    0.000000    0.000000
     0.000000    8.100000    0.000000
     0.000000    0.000000   33.500000
   C 
    92
Direct configuration=     1
   0.00377850  0.10279605  0.55132239
   0.00488873  0.27348765  0.54682388
   0.04835294  0.02691049  0.55076716
   0.04752620  0.36180000  0.54370448
   0.09287843  0.11320272  0.55406866
   0.09281176  0.28116543  0.54981493
   0.13870125  0.03143877  0.55283284
   0.13686061  0.36595802  0.54047463
   0.18468627  0.10869012  0.54735224
   0.18247914  0.27970370  0.54131940
   0.22817148  0.02628531  0.53444179
   0.22478182  0.35880741  0.52683582
   0.26918075  0.11168926  0.52077015
   0.26591765  0.27582840  0.51511343
   0.31258111  0.02110827  0.51018209
   0.30677790  0.35501605  0.49590448
   0.35215971  0.10214827  0.49623284
   0.34855294  0.26999383  0.48542388
   0.39498752  0.01713062  0.48572836
   0.39281283  0.34936420  0.47600896
   0.43692692  0.10570506  0.46957910
   0.43630303  0.26832963  0.46506269
   0.48058824  0.02463111  0.46116716
   0.48090909  0.34883210  0.45458806
   0.52581105  0.09735568  0.45143284
   0.52505526  0.26829506  0.44946567
   0.56780392  0.01956173  0.45955224
   0.56947594  0.35390000  0.44852537
   0.61235651  0.10426593  0.45880597
   0.61311230  0.27017037  0.45632836
   0.65555793  0.01676864  0.46770746
   0.65716578  0.34985556  0.45853134
   0.69833868  0.10091321  0.47571045
   0.70006774  0.26956914  0.46967164
   0.74110160  0.02124753  0.48897612
   0.74288770  0.35534691  0.48260000
   0.78113012  0.10162086  0.50392239
   0.78372193  0.27469136  0.49902388
   0.82425668  0.02373827  0.51245075
   0.82795009  0.35389877  0.50445075
   0.86735472  0.09851025  0.52081194
   0.87027094  0.26967531  0.51601791
   0.91125134  0.01485938  0.52997612
   0.91503743  0.34677284  0.51968358
   0.95231373  0.09728827  0.54275821
   0.95259893  0.27246173  0.53856418
   0.00691102  0.60806914  0.52611343
   0.00512927  0.78692716  0.53251343
   0.04747772  0.52471728  0.53321194
   0.04929483  0.85854815  0.54201493
   0.09165241  0.61853333  0.53591940
   0.09338146  0.77669136  0.54434627
   0.13497184  0.53160247  0.53183582
   0.13912050  0.86134198  0.54644179
   0.18071836  0.61451852  0.53190746
   0.18200963  0.78125556  0.53785075
   0.22217790  0.52693457  0.52196119
   0.22616542  0.86103333  0.53079104
   0.26592941  0.61041481  0.51005373
   0.26957718  0.77746790  0.51652239
   0.30626275  0.51987407  0.49742388
   0.31304848  0.85084321  0.50787761
   0.34986096  0.60245802  0.48641194
   0.35324777  0.76823580  0.49377612
   0.39283422  0.52142469  0.47630746
   0.39612121  0.84949383  0.48413134
   0.43673440  0.60137407  0.46720000
   0.43959715  0.76826049  0.47250149
   0.47890909  0.52252346  0.45577313
   0.48100178  0.85776667  0.46708060
   0.52375758  0.59905802  0.45440896
   0.52442068  0.76353086  0.46128657
   0.56971836  0.52197284  0.44794030
   0.56861319  0.84277901  0.46467463
   0.61375758  0.60089877  0.45362687
   0.61257398  0.76167160  0.46571045
   0.65868449  0.51656049  0.45497015
   0.65601426  0.84743951  0.47006567
   0.70131194  0.60269012  0.46481493
   0.70175401  0.77007160  0.47195821
   0.74419608  0.52202222  0.47556716
   0.74448128  0.85665556  0.48142388
   0.79016043  0.60072346  0.48171343
   0.78817825  0.77025062  0.48705373
   0.83033155  0.51969012  0.49620597
   0.82640998  0.85250617  0.50484478
   0.87407130  0.60118889  0.50295821
   0.87127273  0.76912346  0.50924179
   0.91688414  0.51405062  0.51241493
   0.91402852  0.85436667  0.51976418
   0.95960784  0.59684074  0.51708657
   0.95729055  0.77609877  0.52143284
