       N       E                     dE             d eps       ncg     rms          rms(c)
DAV:   1     0.368846267023E+04    0.36885E+04   -0.11898E+05  1720   0.105E+03
DAV:   2     0.180693041296E+03   -0.35078E+04   -0.32490E+04  2136   0.238E+02
DAV:   3    -0.834745560117E+03   -0.10154E+04   -0.99368E+03  1800   0.135E+02
DAV:   4    -0.896179516017E+03   -0.61434E+02   -0.60425E+02  1720   0.429E+01
DAV:   5    -0.897722678750E+03   -0.15432E+01   -0.15216E+01  1776   0.659E+00    0.454E+01
DAV:   6    -0.848383881893E+03    0.49339E+02   -0.47366E+01  1576   0.126E+01    0.267E+01
DAV:   7    -0.830096425093E+03    0.18287E+02   -0.65193E+01  1568   0.144E+01    0.733E+00
DAV:   8    -0.829815284587E+03    0.28114E+00   -0.25050E+00  1600   0.340E+00    0.102E+00
DAV:   9    -0.829704821007E+03    0.11046E+00   -0.27676E-01  1656   0.105E+00    0.579E-01
DAV:  10    -0.829665449577E+03    0.39371E-01   -0.56452E-02  1736   0.466E-01    0.355E-01
DAV:  11    -0.829640530773E+03    0.24919E-01   -0.17346E-02  1592   0.228E-01    0.256E-01
DAV:  12    -0.829637107787E+03    0.34230E-02   -0.28286E-02  1536   0.247E-01    0.150E-01
DAV:  13    -0.829648667332E+03   -0.11560E-01   -0.84371E-03  1560   0.142E-01    0.934E-02
DAV:  14    -0.829667170345E+03   -0.18503E-01   -0.13191E-03  1584   0.678E-02    0.522E-02
DAV:  15    -0.829687305391E+03   -0.20135E-01   -0.18505E-03  1560   0.644E-02    0.351E-02
DAV:  16    -0.829694976811E+03   -0.76714E-02   -0.44067E-04  1624   0.342E-02    0.209E-02
DAV:  17    -0.829699310287E+03   -0.43335E-02   -0.23956E-04  1560   0.217E-02    0.106E-02
DAV:  18    -0.829701494299E+03   -0.21840E-02   -0.10318E-04  1608   0.140E-02    0.606E-03
DAV:  19    -0.829702352221E+03   -0.85792E-03   -0.27122E-05  1400   0.744E-03    0.414E-03
DAV:  20    -0.829702621208E+03   -0.26899E-03   -0.33431E-06  1360   0.319E-03    0.230E-03
DAV:  21    -0.829702871593E+03   -0.25038E-03   -0.40353E-06  1264   0.279E-03    0.108E-03
DAV:  22    -0.829702901530E+03   -0.29937E-04   -0.15416E-07  1088   0.102E-03    0.820E-04
DAV:  23    -0.829702949258E+03   -0.47729E-04   -0.40984E-07   952   0.111E-03    0.545E-04
DAV:  24    -0.829702957951E+03   -0.86928E-05   -0.88166E-08   992   0.622E-04    0.285E-04
DAV:  25    -0.829702965645E+03   -0.76941E-05   -0.66641E-08   920   0.565E-04    0.289E-04
DAV:  26    -0.829702968211E+03   -0.25658E-05   -0.22752E-08   912   0.318E-04    0.136E-04
DAV:  27    -0.829702970416E+03   -0.22052E-05   -0.11968E-08   928   0.209E-04    0.888E-05
DAV:  28    -0.829702971923E+03   -0.15069E-05   -0.57786E-09   936   0.153E-04    0.535E-05
DAV:  29    -0.829702972674E+03   -0.75068E-06   -0.24615E-09   904   0.840E-05
   1 F= -.82970297E+03 E0= -.82967304E+03  d E =-.598656E-01
