unknown system                          
            1
    28.050000    0.000000    0.000000
     0.000000    8.100000    0.000000
     0.000000    0.000000   33.500000
   C 
    92
Direct configuration=     1
   0.00327770  0.10823321  0.50231642
   0.00591797  0.27708148  0.49894925
   0.04634296  0.01888901  0.50839104
   0.04898610  0.35486667  0.50429254
   0.08896328  0.09977111  0.52239701
   0.09054545  0.27039259  0.52171642
   0.13272513  0.02110617  0.52536119
   0.13335936  0.35834568  0.52964478
   0.17472264  0.09436247  0.53910448
   0.17404848  0.26994938  0.54284179
   0.22097576  0.02455654  0.53809552
   0.21834082  0.35607407  0.54825075
   0.26530374  0.10443000  0.54473433
   0.26364920  0.27130741  0.55175821
   0.30958681  0.02565568  0.54156418
   0.31076399  0.35922469  0.55179403
   0.35454046  0.10337074  0.54757612
   0.35520463  0.27343951  0.55174925
   0.39904456  0.02257494  0.53577612
   0.39916578  0.35919877  0.54817612
   0.44535472  0.10799605  0.53394328
   0.44368271  0.27783333  0.53997910
   0.48434938  0.02554136  0.51805672
   0.48732977  0.35557407  0.52870149
   0.52768627  0.10646049  0.50943284
   0.52903030  0.27045309  0.51671642
   0.56583601  0.01530778  0.49278507
   0.57037433  0.34770988  0.50291642
   0.61095900  0.10206519  0.48326269
   0.61328342  0.26518889  0.49313134
   0.65272014  0.02353506  0.47169851
   0.65571836  0.34965679  0.47905672
   0.69764349  0.09976210  0.46578806
   0.69750089  0.27097160  0.46859104
   0.73826025  0.02042272  0.45362985
   0.74103030  0.35414444  0.45782090
   0.78329412  0.10689111  0.45057910
   0.78376114  0.27498519  0.45592537
   0.82799643  0.02128235  0.45085672
   0.82848128  0.35511235  0.45509851
   0.87280570  0.10520728  0.45908060
   0.87173262  0.27388395  0.46241493
   0.91429947  0.02663420  0.47187761
   0.91533333  0.35876543  0.47140000
   0.95459893  0.10617037  0.48720896
   0.95691979  0.27304321  0.48215522
   0.01322061  0.60514568  0.47853433
   0.01147850  0.77222716  0.48092239
   0.05111230  0.52138889  0.49632239
   0.04852513  0.86072840  0.49732537
   0.09432228  0.60488272  0.50252836
   0.09498360  0.77595062  0.50021194
   0.13483601  0.52287407  0.51818507
   0.13583779  0.85711358  0.51224776
   0.17680071  0.60392593  0.52579701
   0.17879964  0.77331975  0.52131642
   0.22087023  0.52275062  0.54252537
   0.22317861  0.85579136  0.53054925
   0.26657219  0.60667160  0.54255821
   0.26662210  0.77122593  0.53421493
   0.31074153  0.52505432  0.54784478
   0.31033262  0.86027037  0.53614925
   0.35372906  0.60380864  0.54519104
   0.35311123  0.77111111  0.53607463
   0.39852406  0.52481852  0.54351940
   0.39661676  0.85579012  0.53040597
   0.44220321  0.61061605  0.53222388
   0.43865954  0.76976543  0.52196119
   0.48618538  0.52651111  0.52594030
   0.48300535  0.85653704  0.51129552
   0.52647059  0.59833210  0.50568060
   0.52582888  0.76747407  0.50165672
   0.56923708  0.51577778  0.49457612
   0.56583601  0.84724568  0.48843284
   0.61140820  0.59902469  0.48076418
   0.60957219  0.76194691  0.47562687
   0.65320499  0.51818889  0.47176418
   0.65176471  0.85143086  0.46525970
   0.69422103  0.60422222  0.45705373
   0.69466310  0.77097901  0.45600000
   0.73811765  0.52143086  0.45337015
   0.74086275  0.85419136  0.45082388
   0.78308021  0.60340741  0.44677015
   0.78310160  0.77139506  0.44498209
   0.82879857  0.51988395  0.44978806
   0.82939750  0.85318889  0.44563582
   0.87559002  0.60488642  0.45471940
   0.87555437  0.77387901  0.45364776
   0.91845989  0.52339630  0.46459701
   0.91883422  0.86167654  0.46359403
   0.95998930  0.60571852  0.47072537
   0.96108734  0.77180864  0.46867761
