  92  92   0   0
  0.8273226E+02  0.2805000E-08  0.8100000E-09  0.3350000E-08  0.5000000E-15
   1.0000000000000000E-004
  CAR 
 unknown system                          
      3.88646069    -25.13640054  301     -3.14819400      1.00000000
    -25.136  0.0000E+00  0.0000E+00
    -25.040  0.0000E+00  0.0000E+00
    -24.943  0.0000E+00  0.0000E+00
    -24.846  0.0000E+00  0.0000E+00
    -24.749  0.0000E+00  0.0000E+00
    -24.653  0.0000E+00  0.0000E+00
    -24.556  0.0000E+00  0.0000E+00
    -24.459  0.0000E+00  0.0000E+00
    -24.362  0.0000E+00  0.0000E+00
    -24.266  0.3730E-14  0.3608E-15
    -24.169  0.7451E-12  0.7244E-13
    -24.072  0.9644E-10  0.9403E-11
    -23.975  0.7917E-08  0.7753E-09
    -23.879  0.4141E-06  0.4083E-07
    -23.782  0.1387E-04  0.1383E-05
    -23.685  0.3001E-03  0.3041E-04
    -23.589  0.4231E-02  0.4397E-03
    -23.492  0.3941E-01  0.4252E-02
    -23.395  0.2463E+00  0.2808E-01
    -23.298  0.1053E+01  0.1299E+00
    -23.202  0.3138E+01  0.4335E+00
    -23.105  0.6677E+01  0.1079E+01
    -23.008  0.1045E+02  0.2091E+01
    -22.911  0.1267E+02  0.3316E+01
    -22.815  0.1319E+02  0.4592E+01
    -22.718  0.1381E+02  0.5929E+01
    -22.621  0.1551E+02  0.7429E+01
    -22.524  0.1660E+02  0.9035E+01
    -22.428  0.1556E+02  0.1054E+02
    -22.331  0.1387E+02  0.1188E+02
    -22.234  0.1357E+02  0.1320E+02
    -22.137  0.1420E+02  0.1457E+02
    -22.041  0.1437E+02  0.1596E+02
    -21.944  0.1413E+02  0.1733E+02
    -21.847  0.1398E+02  0.1868E+02
    -21.750  0.1372E+02  0.2001E+02
    -21.654  0.1293E+02  0.2126E+02
    -21.557  0.1188E+02  0.2241E+02
    -21.460  0.1127E+02  0.2350E+02
    -21.363  0.1149E+02  0.2461E+02
    -21.267  0.1271E+02  0.2584E+02
    -21.170  0.1477E+02  0.2727E+02
    -21.073  0.1663E+02  0.2887E+02
    -20.976  0.1673E+02  0.3049E+02
    -20.880  0.1466E+02  0.3191E+02
    -20.783  0.1230E+02  0.3310E+02
    -20.686  0.1168E+02  0.3423E+02
    -20.589  0.1258E+02  0.3545E+02
    -20.493  0.1331E+02  0.3674E+02
    -20.396  0.1321E+02  0.3801E+02
    -20.299  0.1328E+02  0.3930E+02
    -20.203  0.1433E+02  0.4069E+02
    -20.106  0.1575E+02  0.4221E+02
    -20.009  0.1634E+02  0.4379E+02
    -19.912  0.1557E+02  0.4530E+02
    -19.816  0.1372E+02  0.4662E+02
    -19.719  0.1227E+02  0.4781E+02
    -19.622  0.1319E+02  0.4909E+02
    -19.525  0.1571E+02  0.5061E+02
    -19.429  0.1657E+02  0.5221E+02
    -19.332  0.1489E+02  0.5365E+02
    -19.235  0.1319E+02  0.5493E+02
    -19.138  0.1340E+02  0.5622E+02
    -19.042  0.1458E+02  0.5763E+02
    -18.945  0.1474E+02  0.5906E+02
    -18.848  0.1349E+02  0.6036E+02
    -18.751  0.1304E+02  0.6163E+02
    -18.655  0.1505E+02  0.6308E+02
    -18.558  0.1744E+02  0.6477E+02
    -18.461  0.1736E+02  0.6645E+02
    -18.364  0.1577E+02  0.6797E+02
    -18.268  0.1556E+02  0.6948E+02
    -18.171  0.1709E+02  0.7113E+02
    -18.074  0.1789E+02  0.7286E+02
    -17.977  0.1614E+02  0.7443E+02
    -17.881  0.1354E+02  0.7574E+02
    -17.784  0.1273E+02  0.7697E+02
    -17.687  0.1315E+02  0.7824E+02
    -17.590  0.1274E+02  0.7947E+02
    -17.494  0.1173E+02  0.8061E+02
    -17.397  0.1130E+02  0.8170E+02
    -17.300  0.1132E+02  0.8279E+02
    -17.203  0.1131E+02  0.8389E+02
    -17.107  0.1129E+02  0.8498E+02
    -17.010  0.1126E+02  0.8607E+02
    -16.913  0.1084E+02  0.8712E+02
    -16.817  0.1003E+02  0.8809E+02
    -16.720  0.1016E+02  0.8907E+02
    -16.623  0.1209E+02  0.9024E+02
    -16.526  0.1450E+02  0.9164E+02
    -16.430  0.1579E+02  0.9317E+02
    -16.333  0.1617E+02  0.9474E+02
    -16.236  0.1663E+02  0.9634E+02
    -16.139  0.1743E+02  0.9803E+02
    -16.043  0.1781E+02  0.9975E+02
    -15.946  0.1713E+02  0.1014E+03
    -15.849  0.1553E+02  0.1029E+03
    -15.752  0.1351E+02  0.1042E+03
    -15.656  0.1182E+02  0.1054E+03
    -15.559  0.1103E+02  0.1064E+03
    -15.462  0.1184E+02  0.1076E+03
    -15.365  0.1509E+02  0.1090E+03
    -15.269  0.1969E+02  0.1109E+03
    -15.172  0.2295E+02  0.1132E+03
    -15.075  0.2364E+02  0.1154E+03
    -14.978  0.2238E+02  0.1176E+03
    -14.882  0.1985E+02  0.1195E+03
    -14.785  0.1624E+02  0.1211E+03
    -14.688  0.1243E+02  0.1223E+03
    -14.591  0.9831E+01  0.1233E+03
    -14.495  0.9124E+01  0.1241E+03
    -14.398  0.9630E+01  0.1251E+03
    -14.301  0.1024E+02  0.1261E+03
    -14.204  0.1094E+02  0.1271E+03
    -14.108  0.1234E+02  0.1283E+03
    -14.011  0.1399E+02  0.1297E+03
    -13.914  0.1499E+02  0.1311E+03
    -13.817  0.1554E+02  0.1326E+03
    -13.721  0.1662E+02  0.1342E+03
    -13.624  0.1825E+02  0.1360E+03
    -13.527  0.1948E+02  0.1379E+03
    -13.431  0.1990E+02  0.1398E+03
    -13.334  0.1997E+02  0.1417E+03
    -13.237  0.1967E+02  0.1436E+03
    -13.140  0.1816E+02  0.1454E+03
    -13.044  0.1586E+02  0.1469E+03
    -12.947  0.1470E+02  0.1484E+03
    -12.850  0.1510E+02  0.1498E+03
    -12.753  0.1529E+02  0.1513E+03
    -12.657  0.1411E+02  0.1527E+03
    -12.560  0.1247E+02  0.1539E+03
    -12.463  0.1210E+02  0.1550E+03
    -12.366  0.1365E+02  0.1564E+03
    -12.270  0.1656E+02  0.1580E+03
    -12.173  0.2031E+02  0.1599E+03
    -12.076  0.2402E+02  0.1622E+03
    -11.979  0.2589E+02  0.1648E+03
    -11.883  0.2525E+02  0.1672E+03
    -11.786  0.2305E+02  0.1694E+03
    -11.689  0.2014E+02  0.1714E+03
    -11.592  0.1693E+02  0.1730E+03
    -11.496  0.1437E+02  0.1744E+03
    -11.399  0.1411E+02  0.1758E+03
    -11.302  0.1678E+02  0.1774E+03
    -11.205  0.2100E+02  0.1794E+03
    -11.109  0.2531E+02  0.1819E+03
    -11.012  0.2932E+02  0.1847E+03
    -10.915  0.3225E+02  0.1878E+03
    -10.818  0.3358E+02  0.1911E+03
    -10.722  0.3444E+02  0.1944E+03
    -10.625  0.3616E+02  0.1979E+03
    -10.528  0.3836E+02  0.2016E+03
    -10.431  0.3927E+02  0.2054E+03
    -10.335  0.3792E+02  0.2091E+03
    -10.238  0.3537E+02  0.2125E+03
    -10.141  0.3373E+02  0.2158E+03
    -10.045  0.3350E+02  0.2190E+03
     -9.948  0.3262E+02  0.2222E+03
     -9.851  0.3093E+02  0.2252E+03
     -9.754  0.3170E+02  0.2282E+03
     -9.658  0.3592E+02  0.2317E+03
     -9.561  0.4083E+02  0.2357E+03
     -9.464  0.4418E+02  0.2399E+03
     -9.367  0.4478E+02  0.2443E+03
     -9.271  0.4151E+02  0.2483E+03
     -9.174  0.3533E+02  0.2517E+03
     -9.077  0.3018E+02  0.2546E+03
     -8.980  0.2921E+02  0.2574E+03
     -8.884  0.3179E+02  0.2605E+03
     -8.787  0.3519E+02  0.2639E+03
     -8.690  0.3689E+02  0.2675E+03
     -8.593  0.3579E+02  0.2709E+03
     -8.497  0.3314E+02  0.2742E+03
     -8.400  0.3131E+02  0.2772E+03
     -8.303  0.3115E+02  0.2802E+03
     -8.206  0.3140E+02  0.2832E+03
     -8.110  0.3046E+02  0.2862E+03
     -8.013  0.2815E+02  0.2889E+03
     -7.916  0.2585E+02  0.2914E+03
     -7.819  0.2583E+02  0.2939E+03
     -7.723  0.2855E+02  0.2967E+03
     -7.626  0.3100E+02  0.2997E+03
     -7.529  0.3058E+02  0.3026E+03
     -7.432  0.2847E+02  0.3054E+03
     -7.336  0.2721E+02  0.3080E+03
     -7.239  0.2722E+02  0.3106E+03
     -7.142  0.2743E+02  0.3133E+03
     -7.045  0.2721E+02  0.3159E+03
     -6.949  0.2644E+02  0.3185E+03
     -6.852  0.2550E+02  0.3210E+03
     -6.755  0.2518E+02  0.3234E+03
     -6.659  0.2503E+02  0.3258E+03
     -6.562  0.2306E+02  0.3280E+03
     -6.465  0.1948E+02  0.3299E+03
     -6.368  0.1745E+02  0.3316E+03
     -6.272  0.1847E+02  0.3334E+03
     -6.175  0.2095E+02  0.3354E+03
     -6.078  0.2351E+02  0.3377E+03
     -5.981  0.2572E+02  0.3402E+03
     -5.885  0.2638E+02  0.3427E+03
     -5.788  0.2469E+02  0.3451E+03
     -5.691  0.2165E+02  0.3472E+03
     -5.594  0.1805E+02  0.3490E+03
     -5.498  0.1389E+02  0.3503E+03
     -5.401  0.1035E+02  0.3513E+03
     -5.304  0.9580E+01  0.3522E+03
     -5.207  0.1144E+02  0.3533E+03
     -5.111  0.1263E+02  0.3546E+03
     -5.014  0.1112E+02  0.3556E+03
     -4.917  0.8949E+01  0.3565E+03
     -4.820  0.8757E+01  0.3574E+03
     -4.724  0.1064E+02  0.3584E+03
     -4.627  0.1324E+02  0.3597E+03
     -4.530  0.1529E+02  0.3611E+03
     -4.433  0.1518E+02  0.3626E+03
     -4.337  0.1199E+02  0.3638E+03
     -4.240  0.7462E+01  0.3645E+03
     -4.143  0.4164E+01  0.3649E+03
     -4.046  0.2665E+01  0.3652E+03
     -3.950  0.2164E+01  0.3654E+03
     -3.853  0.2222E+01  0.3656E+03
     -3.756  0.2906E+01  0.3659E+03
     -3.659  0.3850E+01  0.3662E+03
     -3.563  0.4335E+01  0.3667E+03
     -3.466  0.4047E+01  0.3670E+03
     -3.369  0.3214E+01  0.3674E+03
     -3.273  0.2636E+01  0.3676E+03
     -3.176  0.2976E+01  0.3679E+03
     -3.079  0.3911E+01  0.3683E+03
     -2.982  0.4643E+01  0.3687E+03
     -2.886  0.4842E+01  0.3692E+03
     -2.789  0.5004E+01  0.3697E+03
     -2.692  0.5769E+01  0.3702E+03
     -2.595  0.6868E+01  0.3709E+03
     -2.499  0.7484E+01  0.3716E+03
     -2.402  0.7168E+01  0.3723E+03
     -2.305  0.6422E+01  0.3729E+03
     -2.208  0.6547E+01  0.3736E+03
     -2.112  0.7612E+01  0.3743E+03
     -2.015  0.7774E+01  0.3751E+03
     -1.918  0.6246E+01  0.3757E+03
     -1.821  0.5142E+01  0.3762E+03
     -1.725  0.7164E+01  0.3769E+03
     -1.628  0.1263E+02  0.3781E+03
     -1.531  0.1908E+02  0.3799E+03
     -1.434  0.2328E+02  0.3822E+03
     -1.338  0.2365E+02  0.3845E+03
     -1.241  0.2150E+02  0.3865E+03
     -1.144  0.1960E+02  0.3884E+03
     -1.047  0.1867E+02  0.3902E+03
     -0.951  0.1718E+02  0.3919E+03
     -0.854  0.1497E+02  0.3934E+03
     -0.757  0.1338E+02  0.3947E+03
     -0.660  0.1275E+02  0.3959E+03
     -0.564  0.1262E+02  0.3971E+03
     -0.467  0.1222E+02  0.3983E+03
     -0.370  0.1097E+02  0.3994E+03
     -0.273  0.1040E+02  0.4004E+03
     -0.177  0.1295E+02  0.4016E+03
     -0.080  0.1765E+02  0.4033E+03
      0.017  0.2110E+02  0.4054E+03
      0.113  0.2205E+02  0.4075E+03
      0.210  0.2155E+02  0.4096E+03
      0.307  0.2034E+02  0.4115E+03
      0.404  0.1872E+02  0.4134E+03
      0.500  0.1807E+02  0.4151E+03
      0.597  0.2014E+02  0.4171E+03
      0.694  0.2459E+02  0.4194E+03
      0.791  0.2861E+02  0.4222E+03
      0.887  0.3019E+02  0.4251E+03
      0.984  0.3153E+02  0.4282E+03
      1.081  0.3614E+02  0.4317E+03
      1.178  0.4327E+02  0.4359E+03
      1.274  0.4884E+02  0.4406E+03
      1.371  0.5062E+02  0.4455E+03
      1.468  0.4901E+02  0.4502E+03
      1.565  0.4453E+02  0.4545E+03
      1.661  0.3749E+02  0.4582E+03
      1.758  0.2837E+02  0.4609E+03
      1.855  0.1813E+02  0.4627E+03
      1.952  0.9151E+01  0.4635E+03
      2.048  0.3513E+01  0.4639E+03
      2.145  0.1016E+01  0.4640E+03
      2.242  0.2194E+00  0.4640E+03
      2.339  0.3433E-01  0.4640E+03
      2.435  0.3731E-02  0.4640E+03
      2.532  0.2714E-03  0.4640E+03
      2.629  0.1288E-04  0.4640E+03
      2.726  0.3929E-06  0.4640E+03
      2.822  0.7636E-08  0.4640E+03
      2.919  0.9414E-10  0.4640E+03
      3.016  0.7322E-12  0.4640E+03
      3.113  0.3443E-14  0.4640E+03
      3.209  0.0000E+00  0.4640E+03
      3.306  0.0000E+00  0.4640E+03
      3.403  0.0000E+00  0.4640E+03
      3.499  0.0000E+00  0.4640E+03
      3.596  0.0000E+00  0.4640E+03
      3.693  0.0000E+00  0.4640E+03
      3.790  0.0000E+00  0.4640E+03
      3.886  0.0000E+00  0.4640E+03
