 vasp.6.5.0 16Dec24 (build Feb 19 2025 19:45:31) complex                         
 executed on              LinuxNV date 2025.10.25  20:41:49
 running    2 mpi-ranks, on    1 nodes
 distrk:  each k-point on    2 cores,    1 groups
 distr:  one band on NCORE=   1 cores,    2 groups
 Offloading initialized ...    2 GPUs detected


--------------------------------------------------------------------------------------------------------


 INCAR:
   ISTART = 0            (Not Read existing wavefunction
   ISPIN = 1            (Non-Spin polarised DFT, Default\=1)
   ICHARG = 2            (The initial guess charge density is generated by superposition of atomic charge density)
   LREAL = Auto         (Projection operators: automatic)
   ENCUT = 500          (Cut-off energy for plane wave basis set, in eV)
   LWAVE = .FALSE.       (Write WAVECAR or not)
   LCHARG = .FALSE.       (Write CHGCAR or not)
   PREC = Accurate   (Precision level)
   KGAMMA = .TRUE.
   ALGO = Normal
   NSW = 0           (Default: NSW \= 0)
   IBRION = -1           (Ions are not moved)
   ISMEAR = 0
   EDIFF = 1E-06        (SCF energy convergence
   NELM = 150          (Max electronic SCF steps)

 POTCAR:    PAW_PBE C 08Apr2002                   
 POTCAR:    PAW_PBE C 08Apr2002                   
   SHA256 =  253f7b50bb8d59471dbedb8285d89021f4a42ed1a2c5d38a03a736e69125dd95 C/POTCAR              
   COPYR  = (c) Copyright 08Apr2002 Georg Kresse                                                    
   COPYR  = This file is part of the software VASP. Any use, copying, and all other rights are regul
   COPYR  = If you do not have a valid VASP license, you may not use, copy or distribute this file. 
   VRHFIN =C: s2p2                                                                                  
   LEXCH  = PE                                                                                      
   EATOM  =   147.1560 eV,   10.8157 Ry                                                             
                                                                                                    
   TITEL  = PAW_PBE C 08Apr2002                                                                     
   LULTRA =        F    use ultrasoft PP ?                                                          
   IUNSCR =        1    unscreen: 0-lin 1-nonlin 2-no                                               
   RPACOR =    1.200    partial core radius                                                         
   POMASS =   12.011; ZVAL   =    4.000    mass and valenz                                          
   RCORE  =    1.500    outmost cutoff radius                                                       
   RWIGS  =    1.630; RWIGS  =    0.863    wigner-seitz radius (au A)                               
   ENMAX  =  400.000; ENMIN  =  300.000 eV                                                          
   ICORE  =        2    local potential                                                             
   LCOR   =        T    correct aug charges                                                         
   LPAW   =        T    paw PP                                                                      
   EAUG   =  644.873                                                                                
   DEXC   =    0.000                                                                                
   RMAX   =    1.529    core radius for proj-oper                                                   
   RAUG   =    1.300    factor for augmentation sphere                                              
   RDEP   =    1.501    radius for radial grids                                                     
   RDEPT  =    1.300    core radius for aug-charge                                                  
                                                                                                    
   Atomic configuration                                                                             
    4 entries                                                                                       
     n  l   j            E        occ.                                                              
     1  0  0.50      -273.3789   2.0000                                                             
     2  0  0.50       -13.7508   2.0000                                                             
     2  1  0.50        -5.2854   2.0000                                                             
     3  2  1.50        -5.4423   0.0000                                                             
   Description                                                                                      
     l       E           TYP  RCUT    TYP  RCUT                                                     
     0    -13.7508458     23  1.200                                                                 
     0     -8.2022199     23  1.200                                                                 
     1     -5.2854383     23  1.500                                                                 
     1     34.0145650     23  1.500                                                                 
     2     -5.4423304      7  1.500                                                                 
  local pseudopotential read in
  partial core-charges read in
  partial kinetic energy density read in
  atomic valenz-charges read in
  non local Contribution for L=            0  read in
    real space projection operators read in
  non local Contribution for L=            0  read in
    real space projection operators read in
  non local Contribution for L=            1  read in
    real space projection operators read in
  non local Contribution for L=            1  read in
    real space projection operators read in
    PAW grid and wavefunctions read in
 
   number of l-projection  operators is LMAX  =            4
   number of lm-projection operators is LMMAX =            8
 
 Optimization of the real space projectors (new method)

 maximal supplied QI-value         = 25.13
 optimisation between [QCUT,QGAM] = [ 11.31, 22.87] = [ 35.82,146.48] Ry 
 Optimized for a Real-space Cutoff    1.03 Angstroem

   l    n(q)    QCUT    max X(q) W(low)/X(q) W(high)/X(q)  e(spline) 
   0      7    11.310   115.676    0.20E-03    0.90E-03    0.20E-06
   0      7    11.310    87.132    0.20E-03    0.89E-03    0.19E-06
   1      6    11.310     4.429    0.16E-03    0.28E-03    0.12E-06
   1      6    11.310     2.733    0.12E-03    0.21E-03    0.99E-07
  PAW_PBE C 08Apr2002                   :
 energy of atom  1       EATOM= -147.1560
 kinetic energy error for atom=    0.0076 (will be added to EATOM!!)
 
 
 POSCAR:  C
  positions in cartesian coordinates
  No initial velocities read in


 exchange-correlation table for PE
   RHO(1)=    0.500       N(1)  =     2000
   RHO(2)=  100.500       N(2)  =     4000
 


--------------------------------------------------------------------------------------------------------


 ion  position               nearest neighbor table
   1  0.332  0.131  0.974-   3 1.38   2 1.40  45 1.46  46 1.99
   2  0.332  0.304  0.975-   4 1.37   1 1.40  46 1.44  45 2.04
   3  0.374  0.048  0.980-  50 1.37   1 1.38   5 1.44
   4  0.374  0.385  0.983-  49 1.37   2 1.37   6 1.43
   5  0.415  0.132  0.996-   6 1.37   7 1.41   3 1.44
   6  0.414  0.301  0.999-   5 1.37   8 1.41   4 1.43
   7  0.458  0.049  0.006-  54 1.38   5 1.41   9 1.42
   8  0.456  0.385  0.010-  53 1.37   6 1.41  10 1.44
   9  0.499  0.127  0.022-  10 1.39  11 1.41   7 1.42
  10  0.498  0.298  0.023-   9 1.39  12 1.41   8 1.44
  11  0.543  0.046  0.029-  58 1.38  13 1.41   9 1.41
  12  0.543  0.374  0.028-  57 1.38  10 1.41  14 1.43
  13  0.587  0.124  0.037-  14 1.37  11 1.41  15 1.44
  14  0.587  0.293  0.036-  13 1.37  12 1.43  16 1.46
  15  0.633  0.047  0.037-  62 1.37  17 1.40  13 1.44
  16  0.634  0.374  0.039-  61 1.38  18 1.42  14 1.46
  17  0.678  0.125  0.038-  18 1.36  15 1.40  19 1.44
  18  0.678  0.293  0.039-  17 1.36  16 1.42  20 1.42
  19  0.722  0.044  0.030-  66 1.37  21 1.40  17 1.44
  20  0.723  0.374  0.033-  65 1.38  18 1.42  22 1.43
  21  0.765  0.128  0.023-  22 1.36  19 1.40  23 1.43
  22  0.768  0.295  0.026-  21 1.36  24 1.39  20 1.43
  23  0.808  0.045  0.010-  70 1.39  25 1.40  21 1.43
  24  0.809  0.374  0.014-  69 1.38  22 1.39  26 1.41
  25  0.851  0.124  0.001-  26 1.36  23 1.40  27 1.44
  26  0.852  0.291  0.003-  25 1.36  24 1.41  28 1.44
  27  0.892  0.040  0.985-  74 1.36  29 1.42  25 1.44
  28  0.894  0.374  0.989-  73 1.38  30 1.41  26 1.44
  29  0.935  0.122  0.975-  30 1.38  27 1.42  31 1.43
  30  0.935  0.292  0.976-  29 1.38  32 1.40  28 1.41
  31  0.976  0.043  0.959-  78 1.37  33 1.40  29 1.43
  32  0.977  0.377  0.965-  77 1.37  30 1.40  34 1.41
  33  0.020  0.123  0.954-  31 1.40  35 1.40  34 1.41
  34  0.021  0.296  0.958-  36 1.41  32 1.41  33 1.41
  35  0.064  0.041  0.947-  82 1.36  33 1.40  37 1.42
  36  0.064  0.376  0.950-  81 1.40  34 1.41  38 1.42
  37  0.108  0.124  0.947-  38 1.37  39 1.40  35 1.42
  38  0.109  0.294  0.949-  37 1.37  40 1.41  36 1.42
  39  0.152  0.045  0.942-  86 1.37  37 1.40  41 1.43
  40  0.152  0.379  0.945-  85 1.38  42 1.39  38 1.41
  41  0.197  0.128  0.947-  42 1.41  43 1.42  39 1.43
  42  0.196  0.301  0.950-  40 1.39  41 1.41  44 1.45
  43  0.241  0.044  0.948-  90 1.36  45 1.40  41 1.42
  44  0.241  0.385  0.954-  89 1.35  46 1.37  42 1.45
  45  0.282  0.128  0.962-  43 1.40  46 1.41   1 1.46   2 2.04
  46  0.282  0.301  0.964-  44 1.37  45 1.41   2 1.44   1 1.99
  47  0.338  0.633  0.958-  48 1.37  49 1.40  91 1.51  92 2.04
  48  0.338  0.801  0.955-  47 1.37  50 1.40  92 1.51  91 2.04
  49  0.378  0.548  0.973-   4 1.37  47 1.40  51 1.42
  50  0.378  0.885  0.970-   3 1.37  48 1.40  52 1.44
  51  0.421  0.630  0.981-  52 1.40  49 1.42  53 1.42
  52  0.422  0.802  0.980-  51 1.40  54 1.42  50 1.44
  53  0.460  0.549  0.000-   8 1.37  55 1.41  51 1.42
  54  0.462  0.883  0.996-   7 1.38  56 1.39  52 1.42
  55  0.503  0.631  0.011-  56 1.37  53 1.41  57 1.44
  56  0.503  0.801  0.009-  55 1.37  54 1.39  58 1.41
  57  0.545  0.543  0.023-  12 1.38  55 1.44  59 1.44
  58  0.545  0.878  0.023-  11 1.38  56 1.41  60 1.43
  59  0.590  0.626  0.026-  60 1.37  61 1.41  57 1.44
  60  0.590  0.795  0.028-  59 1.37  62 1.41  58 1.43
  61  0.634  0.541  0.031-  16 1.38  63 1.41  59 1.41
  62  0.633  0.878  0.033-  15 1.37  64 1.41  60 1.41
  63  0.678  0.626  0.030-  64 1.38  61 1.41  65 1.41
  64  0.678  0.796  0.031-  63 1.38  66 1.38  62 1.41
  65  0.722  0.543  0.029-  20 1.38  67 1.40  63 1.41
  66  0.721  0.876  0.026-  19 1.37  64 1.38  68 1.42
  67  0.764  0.622  0.016-  68 1.39  65 1.40  69 1.42
  68  0.763  0.794  0.014-  67 1.39  70 1.41  66 1.42
  69  0.808  0.542  0.009-  24 1.38  71 1.41  67 1.42
  70  0.806  0.876  0.004-  23 1.39  68 1.41  72 1.42
  71  0.849  0.625  0.994-  72 1.37  69 1.41  73 1.44
  72  0.847  0.794  0.989-  71 1.37  74 1.42  70 1.42
  73  0.892  0.542  0.982-  28 1.38  75 1.42  71 1.44
  74  0.889  0.876  0.977-  27 1.36  72 1.42  76 1.43
  75  0.932  0.625  0.967-  76 1.39  77 1.42  73 1.42
  76  0.931  0.796  0.963-  75 1.39  78 1.41  74 1.43
  77  0.976  0.545  0.960-  32 1.37  79 1.41  75 1.42
  78  0.974  0.876  0.953-  31 1.37  76 1.41  80 1.42
  79  0.019  0.623  0.947-  80 1.38  81 1.40  77 1.41
  80  0.018  0.792  0.944-  79 1.38  78 1.42  82 1.43
  81  0.064  0.547  0.944-  79 1.40  36 1.40  83 1.41
  82  0.062  0.875  0.940-  35 1.36  80 1.43  84 1.43
  83  0.107  0.628  0.936-  84 1.37  81 1.41  85 1.42
  84  0.107  0.797  0.935-  83 1.37  86 1.42  82 1.43
  85  0.152  0.548  0.939-  40 1.38  87 1.42  83 1.42
  86  0.152  0.878  0.936-  39 1.37  88 1.42  84 1.42
  87  0.197  0.626  0.937-  88 1.37  85 1.42  89 1.44
  88  0.197  0.795  0.935-  87 1.37  86 1.42  90 1.44
  89  0.243  0.547  0.944-  44 1.35  91 1.39  87 1.44
  90  0.242  0.878  0.941-  43 1.36  92 1.40  88 1.44
  91  0.286  0.630  0.946-  92 1.39  89 1.39  47 1.51  48 2.04
  92  0.286  0.801  0.945-  91 1.39  90 1.40  48 1.51  47 2.04
 
  LATTYP: Found a simple orthorhombic cell.
 ALAT       =     8.1000000000
 B/A-ratio  =     3.4629629630
 C/A-ratio  =     4.1358024691
  
  Lattice vectors:
  
 A1 = (   0.0000000000,  -8.1000000000,   0.0000000000)
 A2 = (  28.0500000000,   0.0000000000,   0.0000000000)
 A3 = (   0.0000000000,   0.0000000000,  33.5000000000)


Analysis of symmetry for initial positions (statically):
=====================================================================
 Subroutine PRICEL returns:
 Original cell was already a primitive cell.
 

 Routine SETGRP: Setting up the symmetry group for a 
 simple orthorhombic supercell.


 Subroutine GETGRP returns: Found  1 space group operations
 (whereof  1 operations were pure point group operations)
 out of a pool of  8 trial point group operations.


The static configuration has the point symmetry C_1 .


Analysis of symmetry for dynamics (positions and initial velocities):
=====================================================================
 Subroutine PRICEL returns:
 Original cell was already a primitive cell.
 

 Routine SETGRP: Setting up the symmetry group for a 
 simple orthorhombic supercell.


 Subroutine GETGRP returns: Found  1 space group operations
 (whereof  1 operations were pure point group operations)
 out of a pool of  8 trial point group operations.


The dynamic configuration has the point symmetry C_1 .


 Subroutine INISYM returns: Found  1 space group operations
 (whereof  1 operations are pure point group operations),
 and found     1 'primitive' translations


----------------------------------------------------------------------------------------

                                     Primitive cell                                     

  volume of cell :    7611.3675

  direct lattice vectors                    reciprocal lattice vectors
    28.050000000  0.000000000  0.000000000     0.035650624  0.000000000  0.000000000
     0.000000000  8.100000000  0.000000000     0.000000000  0.123456790  0.000000000
     0.000000000  0.000000000 33.500000000     0.000000000  0.000000000  0.029850746

  length of vectors
    28.050000000  8.100000000 33.500000000     0.035650624  0.123456790  0.029850746

  position of ions in fractional coordinates (direct lattice)
     0.331867736  0.131480247  0.974328358
     0.331599643  0.303976543  0.975223881
     0.374442068  0.048124691  0.980000000
     0.373572193  0.385258025  0.982686567
     0.415315508  0.132035802  0.996417910
     0.414267380  0.301286420  0.998507463
     0.458253119  0.049138765  0.005671642
     0.456206774  0.385249383  0.009552239
     0.499251337  0.127039506  0.022089552
     0.498007130  0.298339506  0.023283582
     0.543001783  0.045775185  0.029253731
     0.543112299  0.374032099  0.027761194
     0.586944742  0.123981481  0.037313433
     0.587087344  0.292874074  0.036119403
     0.633301248  0.046764938  0.037313433
     0.633554367  0.373539506  0.038507463
     0.677568627  0.125312346  0.038208955
     0.678352941  0.293158025  0.038805970
     0.722374332  0.044414444  0.029850746
     0.722527629  0.374201235  0.032835821
     0.765422460  0.127604938  0.022985075
     0.767565062  0.295425926  0.025970149
     0.807800357  0.045281358  0.010447761
     0.809347594  0.373551852  0.014328358
     0.850766488  0.124241975  0.001492537
     0.851800357  0.291333333  0.003283582
     0.891825312  0.040436173  0.985373134
     0.893632799  0.374123457  0.988656716
     0.934880570  0.122059012  0.974626866
     0.935372549  0.292434568  0.975820896
     0.976124777  0.043243704  0.958507463
     0.977087344  0.377148148  0.965373134
     0.020199002  0.122601852  0.954029851
     0.020615223  0.296060494  0.957910448
     0.063679144  0.041357407  0.947164179
     0.064216399  0.375887654  0.950149254
     0.108230303  0.124033333  0.946567164
     0.108759715  0.293518519  0.948656716
     0.152280570  0.045185432  0.941791045
     0.152345098  0.379220988  0.945373134
     0.196886631  0.127512346  0.946567164
     0.196216399  0.300571605  0.949552239
     0.241327986  0.043626420  0.948358209
     0.241212834  0.385397531  0.954328358
     0.281904100  0.127845679  0.962089552
     0.282012121  0.301207407  0.963582090
     0.337942246  0.632581481  0.957611940
     0.338277718  0.801445679  0.955223881
     0.377871658  0.548476543  0.972537313
     0.378203209  0.885434568  0.969850746
     0.421336898  0.629643210  0.981492537
     0.421696970  0.802419753  0.980298507
     0.460245989  0.549322222  0.000298507
     0.462267380  0.883427160  0.996119403
     0.502634581  0.631166667  0.010746269
     0.502880570  0.800774074  0.009253731
     0.544652406  0.543164198  0.022985075
     0.545044563  0.877951852  0.022985075
     0.590185383  0.625546914  0.025970149
     0.589846702  0.794918519  0.027761194
     0.633764706  0.541303704  0.031343284
     0.633461676  0.878077778  0.033134328
     0.677729055  0.625908642  0.030149254
     0.677582888  0.796323457  0.031044776
     0.722124777  0.543297531  0.028656716
     0.720766488  0.875624691  0.025970149
     0.763992870  0.621776543  0.016119403
     0.763265597  0.793782716  0.014328358
     0.808452763  0.542186420  0.008955224
     0.805746881  0.875969136  0.003880597
     0.848591800  0.625291358  0.993731343
     0.846816399  0.793623457  0.988955224
     0.891811052  0.542064198  0.982388060
     0.888944742  0.876417284  0.977014925
     0.932167558  0.625402469  0.966865672
     0.931279857  0.796061728  0.962985075
     0.976185383  0.545125926  0.959701493
     0.974153298  0.875653086  0.952835821
     0.018871979  0.622665432  0.947462687
     0.017527237  0.792381481  0.943880597
     0.063611052  0.547406173  0.944477612
     0.062168984  0.875471605  0.940298507
     0.107223529  0.627517284  0.936119403
     0.107227807  0.797132099  0.934626866
     0.152269875  0.547820988  0.938805970
     0.152291979  0.878038272  0.935522388
     0.197422816  0.626020988  0.937014925
     0.196889483  0.795024691  0.934925373
     0.242531194  0.546782716  0.943880597
     0.241538681  0.878303704  0.941492537
     0.286013547  0.629674074  0.945970149
     0.286021747  0.801140741  0.944776119

  ion indices of the primitive-cell ions
   primitive index   ion index
                 1           1
                 2           2
                 3           3
                 4           4
                 5           5
                 6           6
                 7           7
                 8           8
                 9           9
                10          10
                11          11
                12          12
                13          13
                14          14
                15          15
                16          16
                17          17
                18          18
                19          19
                20          20
                21          21
                22          22
                23          23
                24          24
                25          25
                26          26
                27          27
                28          28
                29          29
                30          30
                31          31
                32          32
                33          33
                34          34
                35          35
                36          36
                37          37
                38          38
                39          39
                40          40
                41          41
                42          42
                43          43
                44          44
                45          45
                46          46
                47          47
                48          48
                49          49
                50          50
                51          51
                52          52
                53          53
                54          54
                55          55
                56          56
                57          57
                58          58
                59          59
                60          60
                61          61
                62          62
                63          63
                64          64
                65          65
                66          66
                67          67
                68          68
                69          69
                70          70
                71          71
                72          72
                73          73
                74          74
                75          75
                76          76
                77          77
                78          78
                79          79
                80          80
                81          81
                82          82
                83          83
                84          84
                85          85
                86          86
                87          87
                88          88
                89          89
                90          90
                91          91
                92          92

----------------------------------------------------------------------------------------

 
 
 KPOINTS: K-Spacing Value to Generate K-Mesh: 0.03

Automatic generation of k-mesh.
 Grid dimensions read from file:
 generate k-points for:    1    4    1

 Generating k-lattice:

  Cartesian coordinates                     Fractional coordinates (reciprocal lattice)
     0.035650624  0.000000000  0.000000000     1.000000000  0.000000000  0.000000000
     0.000000000  0.030864198  0.000000000     0.000000000  0.250000000  0.000000000
     0.000000000  0.000000000  0.029850746     0.000000000  0.000000000  1.000000000

  Length of vectors
     0.035650624  0.030864198  0.029850746

  Shift w.r.t. Gamma in fractional coordinates (k-lattice)
     0.000000000  0.000000000  0.000000000

 
 Subroutine IBZKPT returns following result:
 ===========================================
 
 Found      3 irreducible k-points:
 
 Following reciprocal coordinates:
            Coordinates               Weight
  0.000000  0.000000  0.000000      1.000000
  0.000000  0.250000  0.000000      2.000000
  0.000000  0.500000  0.000000      1.000000
 
 Following cartesian coordinates:
            Coordinates               Weight
  0.000000  0.000000  0.000000      1.000000
  0.000000  0.030864  0.000000      2.000000
  0.000000  0.061728  0.000000      1.000000
 


--------------------------------------------------------------------------------------------------------




 Dimension of arrays:
   k-points           NKPTS =      3   k-points in BZ     NKDIM =      3   number of bands    NBANDS=    232
   number of dos      NEDOS =    301   number of ions     NIONS =     92
   non local maximal  LDIM  =      4   non local SUM 2l+1 LMDIM =      8
   total plane-waves  NPLWV = ******
   max r-space proj   IRMAX =   1967   max aug-charges    IRDMAX=   5083
   dimension x,y,z NGX =   210 NGY =   60 NGZ =  250
   dimension x,y,z NGXF=   420 NGYF=  120 NGZF=  500
   support grid    NGXF=   420 NGYF=  120 NGZF=  500
   ions per type =              92
   NGX,Y,Z   is equivalent  to a cutoff of  12.45, 12.31, 12.41 a.u.
   NGXF,Y,Z  is equivalent  to a cutoff of  24.89, 24.63, 24.81 a.u.

 SYSTEM =  unknown system                          
 POSCAR =   C                                      

 Startparameter for this run:
   NWRITE =      2    write-flag & timer
   PREC   = accura    normal or accurate (medium, high low for compatibility)
   ISTART =      0    job   : 0-new  1-cont  2-samecut
   ICHARG =      2    charge: 1-file 2-atom 10-const
   ISPIN  =      1    spin polarized calculation?
   LNONCOLLINEAR =      F non collinear calculations
   LSORBIT =      F    spin-orbit coupling
   INIWAV =      1    electr: 0-lowe 1-rand  2-diag
   LASPH  =      F    aspherical Exc in radial PAW
 Electronic Relaxation 1
   ENCUT  =  500.0 eV  36.75 Ry    6.06 a.u.  51.14 14.77 61.08*2*pi/ulx,y,z
   ENINI  =  500.0     initial cutoff
   ENAUG  =  644.9 eV  augmentation charge cutoff
   NELM   =    150;   NELMIN=  2; NELMDL= -5     # of ELM steps 
   EDIFF  = 0.1E-05   stopping-criterion for ELM
   LREAL  =      T    real-space projection
   NLSPLINE    = F    spline interpolate recip. space projectors
   LCOMPAT=      F    compatible to vasp.4.4
   GGA_COMPAT  = T    GGA compatible to vasp.4.4-vasp.4.6
   LMAXPAW     = -100 max onsite density
   LMAXMIX     =    2 max onsite mixed and CHGCAR
   VOSKOWN=      0    Vosko Wilk Nusair interpolation
   ROPT   =   -0.00025
 Ionic relaxation
   EDIFFG = 0.1E-04   stopping-criterion for IOM
   NSW    =      0    number of steps for IOM
   NBLOCK =      1;   KBLOCK =      1    inner block; outer block 
   IBRION =     -1    ionic relax: 0-MD 1-quasi-New 2-CG
   NFREE  =      0    steps in history (QN), initial steepest desc. (CG)
   ISIF   =      2    stress and relaxation
   IWAVPR =     10    prediction:  0-non 1-charg 2-wave 3-comb
   ISYM   =      2    0-nonsym 1-usesym 2-fastsym
   LCORR  =      T    Harris-Foulkes like correction to forces

   POTIM  = 0.5000    time-step for ionic-motion
   TEIN   =    0.0    initial temperature
   TEBEG  =    0.0;   TEEND  =   0.0 temperature during run
   SMASS  =  -3.00    Nose mass-parameter (am)
   estimated Nose-frequenzy (Omega)   =  0.10E-29 period in steps = 0.13E+47 mass=  -0.180E-25a.u.
   SCALEE = 1.0000    scale energy and forces
   NPACO  =    256;   APACO  = 10.0  distance and # of slots for P.C.
   PSTRESS=    0.0 pullay stress

  Mass of Ions in am
   POMASS =  12.01
  Ionic Valenz
   ZVAL   =   4.00
  Atomic Wigner-Seitz radii
   RWIGS  =  -1.00
  virtual crystal weights 
   VCA    =   1.00
   NELECT =     368.0000    total number of electrons
   NUPDOWN=      -1.0000    fix difference up-down

 DOS related values:
   EMIN   =  10.00;   EMAX   =-10.00  energy-range for DOS
   EFERMI =   0.00;   METHOD = LEGACY      
   ISMEAR =     0;   SIGMA  =   0.20  broadening in eV -4-tet -1-fermi 0-gaus
   EFERMI_NEDOS =   21; number of points for ismear=-14 and -15

 Electronic relaxation 2 (details)
   IALGO  =     38    algorithm
   LDIAG  =      T    sub-space diagonalisation (order eigenvalues)
   LSUBROT=      F    optimize rotation matrix (better conditioning)
   TURBO    =      0    0=normal 1=particle mesh
   IRESTART =      0    0=no restart 2=restart with 2 vectors
   NREBOOT  =      0    no. of reboots
   NMIN     =      0    reboot dimension
   EREF     =   0.00    reference energy to select bands
   IMIX   =      4    mixing-type and parameters
     AMIX     =   0.40;   BMIX     =  1.00
     AMIX_MAG =   1.60;   BMIX_MAG =  1.00
     AMIN     =   0.10
     WC   =   100.;   INIMIX=   1;  MIXPRE=   1;  MAXMIX= -45

 Intra band minimization:
   WEIMIN = 0.0000     energy-eigenvalue tresh-hold
   EBREAK =  0.11E-08  absolut break condition
   DEPER  =   0.30     relativ break condition  

   TIME   =   0.40     timestep for ELM

  volume/ion in A,a.u.               =      82.73       558.30
  Fermi-wavevector in a.u.,A,eV,Ry     =   0.596398  1.127030  4.839472  0.355691
  Thomas-Fermi vector in A             =   1.646729
 
 Write flags
   LWAVE        =      F    write WAVECAR
   LDOWNSAMPLE  =      F    k-point downsampling of WAVECAR
   LCHARG       =      F    write CHGCAR
   LVTOT        =      F    write LOCPOT, total local potential
   LVHAR        =      F    write LOCPOT, Hartree potential only
   WRT_POTENTIAL= false  ! write potential to hdf5 file
   LELF         =      F    write electronic localiz. function (ELF)
   LORBIT       =      0    0 simple, 1 ext, 2 COOP (PROOUT), +10 PAW based schemes


 Python interface
   PLUGINS active      =      F    recompile with -DPLUGINS to activate
 
 Dipole corrections
   LMONO      =      F    monopole corrections only (constant potential shift)
   LDIPOL     =      F    correct potential (dipole corrections)
   IDIPOL     =      0    1-x, 2-y, 3-z, 4-all directions 
   EPSILON    =  1.0000000 bulk dielectric constant
   LVACPOTAV  =      F  vacuum potentials using an averaging scheme for the charge density
   VACPOTFLAT =  0.1000000 required flatness to determine vacuum potential
 
Coulomb truncation method
  LTRUNCATE          =      F  Coulomb kernel truncation to be used
  IDIMENSIONALITY    =      3  Dimensionality of cutoff (0 molecules / 2 surfaces)
  ISURFACE           =     -1  Direction of surface normal
  LCOARSEN           =      F  Coarsen the charge grid before padding, preferred

 
 Exchange correlation treatment:
   GGA     = PE    functional components
   XC_C    = 1    coefficients multiplying the functional components
   LIBXC   =     F    Libxc                    
   VOSKOWN =     0    Vosko Wilk Nusair interpolation
   LHFCALC =     F    Hartree Fock is set to
   LHFONE  =     F    Hartree Fock one center treatment
   AEXX    =    0.0000 exact exchange contribution

 Parameters of functionals:
   PE:
     No parameter
 
 Van der Waals corrections
   IVDW    =     0    specifies the selected vdW correction

 Linear response parameters
   LEPSILON=     F    determine dielectric tensor
   LRPA    =     F    only Hartree local field effects (RPA)
   LNABLA  =     F    use nabla operator in PAW spheres
   LVEL    =     F    velocity operator in full k-point grid
   CSHIFT  =0.1000    complex shift for real part using Kramers Kronig
   OMEGAMAX=  -1.0    maximum frequency
   DEG_THRESHOLD= 0.2000000E-02 threshold for treating states as degnerate
   RTIME   =   -0.100 relaxation time in fs
  (WPLASMAI=    0.000 imaginary part of plasma frequency in eV, 0.658/RTIME)
   DFIELD  = 0.0000000 0.0000000 0.0000000 field for delta impulse in time
 
  Optional k-point grid parameters
   LKPOINTS_OPT  =     F    use optional k-point grid
   KPOINTS_OPT_MODE=     1    mode for optional k-point grid
 
 Orbital magnetization related:
   ORBITALMAG=     F  switch on orbital magnetization
   LCHIMAG   =     F  perturbation theory with respect to B field
   DQ        =  0.001000  dq finite difference perturbation B field
   LLRAUG    =     F  two centre corrections for induced B field
   LBONE     =     F  B-component reconstruction in AE one-centre
   LVGVCALC  =     T  calculate vGv susceptibility
   LVGVAPPL  =     F  apply vGv susceptibility instead of pGv for G=0

 Random number generation:
   RANDOM_GENERATOR = DEFAULT
   PCG_SEED         = not used


--------------------------------------------------------------------------------------------------------


 Static calculation
 charge density and potential will be updated during run
 non-spin polarized calculation
 Variant of blocked Davidson
 Davidson routine will perform the subspace rotation
 perform sub-space diagonalisation
    after iterative eigenvector-optimisation
 modified Broyden-mixing scheme, WC =      100.0
 initial mixing is a Kerker type mixing with AMIX =  0.4000 and BMIX =      1.0000
 Hartree-type preconditioning will be used
 using additional bands            48
 real space projection scheme for non local part
 use partial core corrections
 calculate Harris-corrections to forces 
   (improved forces if not selfconsistent)
 use gradient corrections 
 use of overlap-Matrix (Vanderbilt PP)
 Gauss-broadening in eV      SIGMA  =   0.20


--------------------------------------------------------------------------------------------------------


  energy-cutoff  :      500.00
  volume of cell :     7611.37
      direct lattice vectors                 reciprocal lattice vectors
    28.050000000  0.000000000  0.000000000     0.035650624  0.000000000  0.000000000
     0.000000000  8.100000000  0.000000000     0.000000000  0.123456790  0.000000000
     0.000000000  0.000000000 33.500000000     0.000000000  0.000000000  0.029850746

  length of vectors
    28.050000000  8.100000000 33.500000000     0.035650624  0.123456790  0.029850746


 
 k-points in units of 2pi/SCALE and weight: K-Spacing Value to Generate K-Mesh: 0.03
   0.00000000  0.00000000  0.00000000       0.250
   0.00000000  0.03086420  0.00000000       0.500
   0.00000000  0.06172840  0.00000000       0.250
 
 k-points in reciprocal lattice and weights: K-Spacing Value to Generate K-Mesh: 0.03
   0.00000000  0.00000000  0.00000000       0.250
   0.00000000  0.25000000  0.00000000       0.500
   0.00000000  0.50000000  0.00000000       0.250
 
 position of ions in fractional coordinates (direct lattice) 
   0.33186774  0.13148025  0.97432836
   0.33159964  0.30397654  0.97522388
   0.37444207  0.04812469  0.98000000
   0.37357219  0.38525802  0.98268657
   0.41531551  0.13203580  0.99641791
   0.41426738  0.30128642  0.99850746
   0.45825312  0.04913877  0.00567164
   0.45620677  0.38524938  0.00955224
   0.49925134  0.12703951  0.02208955
   0.49800713  0.29833951  0.02328358
   0.54300178  0.04577519  0.02925373
   0.54311230  0.37403210  0.02776119
   0.58694474  0.12398148  0.03731343
   0.58708734  0.29287407  0.03611940
   0.63330125  0.04676494  0.03731343
   0.63355437  0.37353951  0.03850746
   0.67756863  0.12531235  0.03820896
   0.67835294  0.29315802  0.03880597
   0.72237433  0.04441444  0.02985075
   0.72252763  0.37420123  0.03283582
   0.76542246  0.12760494  0.02298507
   0.76756506  0.29542593  0.02597015
   0.80780036  0.04528136  0.01044776
   0.80934759  0.37355185  0.01432836
   0.85076649  0.12424198  0.00149254
   0.85180036  0.29133333  0.00328358
   0.89182531  0.04043617  0.98537313
   0.89363280  0.37412346  0.98865672
   0.93488057  0.12205901  0.97462687
   0.93537255  0.29243457  0.97582090
   0.97612478  0.04324370  0.95850746
   0.97708734  0.37714815  0.96537313
   0.02019900  0.12260185  0.95402985
   0.02061522  0.29606049  0.95791045
   0.06367914  0.04135741  0.94716418
   0.06421640  0.37588765  0.95014925
   0.10823030  0.12403333  0.94656716
   0.10875971  0.29351852  0.94865672
   0.15228057  0.04518543  0.94179104
   0.15234510  0.37922099  0.94537313
   0.19688663  0.12751235  0.94656716
   0.19621640  0.30057160  0.94955224
   0.24132799  0.04362642  0.94835821
   0.24121283  0.38539753  0.95432836
   0.28190410  0.12784568  0.96208955
   0.28201212  0.30120741  0.96358209
   0.33794225  0.63258148  0.95761194
   0.33827772  0.80144568  0.95522388
   0.37787166  0.54847654  0.97253731
   0.37820321  0.88543457  0.96985075
   0.42133690  0.62964321  0.98149254
   0.42169697  0.80241975  0.98029851
   0.46024599  0.54932222  0.00029851
   0.46226738  0.88342716  0.99611940
   0.50263458  0.63116667  0.01074627
   0.50288057  0.80077407  0.00925373
   0.54465241  0.54316420  0.02298507
   0.54504456  0.87795185  0.02298507
   0.59018538  0.62554691  0.02597015
   0.58984670  0.79491852  0.02776119
   0.63376471  0.54130370  0.03134328
   0.63346168  0.87807778  0.03313433
   0.67772906  0.62590864  0.03014925
   0.67758289  0.79632346  0.03104478
   0.72212478  0.54329753  0.02865672
   0.72076649  0.87562469  0.02597015
   0.76399287  0.62177654  0.01611940
   0.76326560  0.79378272  0.01432836
   0.80845276  0.54218642  0.00895522
   0.80574688  0.87596914  0.00388060
   0.84859180  0.62529136  0.99373134
   0.84681640  0.79362346  0.98895522
   0.89181105  0.54206420  0.98238806
   0.88894474  0.87641728  0.97701493
   0.93216756  0.62540247  0.96686567
   0.93127986  0.79606173  0.96298507
   0.97618538  0.54512593  0.95970149
   0.97415330  0.87565309  0.95283582
   0.01887198  0.62266543  0.94746269
   0.01752724  0.79238148  0.94388060
   0.06361105  0.54740617  0.94447761
   0.06216898  0.87547160  0.94029851
   0.10722353  0.62751728  0.93611940
   0.10722781  0.79713210  0.93462687
   0.15226988  0.54782099  0.93880597
   0.15229198  0.87803827  0.93552239
   0.19742282  0.62602099  0.93701493
   0.19688948  0.79502469  0.93492537
   0.24253119  0.54678272  0.94388060
   0.24153868  0.87830370  0.94149254
   0.28601355  0.62967407  0.94597015
   0.28602175  0.80114074  0.94477612
 
 position of ions in cartesian coordinates  (Angst):
   9.30889000  1.06499000 32.64000000
   9.30137000  2.46221000 32.67000000
  10.50310000  0.38981000 32.83000000
  10.47870000  3.12059000 32.92000000
  11.64960000  1.06949000 33.38000000
  11.62020000  2.44042000 33.45000000
  12.85400000  0.39802400  0.19000000
  12.79660000  3.12052000  0.32000000
  14.00400000  1.02902000  0.74000000
  13.96910000  2.41655000  0.78000000
  15.23120000  0.37077900  0.98000000
  15.23430000  3.02966000  0.93000000
  16.46380000  1.00425000  1.25000000
  16.46780000  2.37228000  1.21000000
  17.76410000  0.37879600  1.25000000
  17.77120000  3.02567000  1.29000000
  19.00580000  1.01503000  1.28000000
  19.02780000  2.37458000  1.30000000
  20.26260000  0.35975700  1.00000000
  20.26690000  3.03103000  1.10000000
  21.47010000  1.03360000  0.77000000
  21.53020000  2.39295000  0.87000000
  22.65880000  0.36677900  0.35000000
  22.70220000  3.02577000  0.48000000
  23.86400000  1.00636000  0.05000000
  23.89300000  2.35980000  0.11000000
  25.01570000  0.32753300 33.01000000
  25.06640000  3.03040000 33.12000000
  26.22340000  0.98867800 32.65000000
  26.23720000  2.36872000 32.69000000
  27.38030000  0.35027400 32.11000000
  27.40730000  3.05490000 32.34000000
   0.56658200  0.99307500 31.96000000
   0.57825700  2.39809000 32.09000000
   1.78620000  0.33499500 31.73000000
   1.80127000  3.04469000 31.83000000
   3.03586000  1.00467000 31.71000000
   3.05071000  2.37750000 31.78000000
   4.27147000  0.36600200 31.55000000
   4.27328000  3.07169000 31.67000000
   5.52267000  1.03285000 31.71000000
   5.50387000  2.43463000 31.81000000
   6.76925000  0.35337400 31.77000000
   6.76602000  3.12172000 31.97000000
   7.90741000  1.03555000 32.23000000
   7.91044000  2.43978000 32.28000000
   9.47928000  5.12391000 32.08000000
   9.48869000  6.49171000 32.00000000
  10.59930000  4.44266000 32.58000000
  10.60860000  7.17202000 32.49000000
  11.81850000  5.10011000 32.88000000
  11.82860000  6.49960000 32.84000000
  12.90990000  4.44951000  0.01000000
  12.96660000  7.15576000 33.37000000
  14.09890000  5.11245000  0.36000000
  14.10580000  6.48627000  0.31000000
  15.27750000  4.39963000  0.77000000
  15.28850000  7.11141000  0.77000000
  16.55470000  5.06693000  0.87000000
  16.54520000  6.43884000  0.93000000
  17.77710000  4.38456000  1.05000000
  17.76860000  7.11243000  1.11000000
  19.01030000  5.06986000  1.01000000
  19.00620000  6.45022000  1.04000000
  20.25560000  4.40071000  0.96000000
  20.21750000  7.09256000  0.87000000
  21.43000000  5.03639000  0.54000000
  21.40960000  6.42964000  0.48000000
  22.67710000  4.39171000  0.30000000
  22.60120000  7.09535000  0.13000000
  23.80300000  5.06486000 33.29000000
  23.75320000  6.42835000 33.13000000
  25.01530000  4.39072000 32.91000000
  24.93490000  7.09898000 32.73000000
  26.14730000  5.06576000 32.39000000
  26.12240000  6.44810000 32.26000000
  27.38200000  4.41552000 32.15000000
  27.32500000  7.09279000 31.92000000
   0.52935900  5.04359000 31.74000000
   0.49163900  6.41829000 31.62000000
   1.78429000  4.43399000 31.64000000
   1.74384000  7.09132000 31.50000000
   3.00762000  5.08289000 31.36000000
   3.00774000  6.45677000 31.31000000
   4.27117000  4.43735000 31.45000000
   4.27179000  7.11211000 31.34000000
   5.53771000  5.07077000 31.39000000
   5.52275000  6.43970000 31.32000000
   6.80300000  4.42894000 31.62000000
   6.77516000  7.11426000 31.54000000
   8.02268000  5.10036000 31.69000000
   8.02291000  6.48924000 31.65000000
 


--------------------------------------------------------------------------------------------------------


 k-point     1 :   0.0000 0.0000 0.0000  plane waves:  193173
 k-point     2 :   0.0000 0.2500 0.0000  plane waves:  193166
 k-point     3 :   0.0000 0.5000 0.0000  plane waves:  193226

 maximum and minimum number of plane-waves per node :    193226   193166

 maximum number of plane-waves:    193226
 maximum index in each direction: 
   IXMAX=   51   IYMAX=   14   IZMAX=   61
   IXMIN=  -51   IYMIN=  -15   IZMIN=  -61


 serial   3D FFT for wavefunctions
 parallel 3D FFT for charge:
    minimum data exchange during FFTs selected (reduces bandwidth)


 total amount of memory used by VASP MPI-rank0  2294490. kBytes
=======================================================================

   base                                    :      30000. kBytes
   nonlr-proj                              :      15056. kBytes
   fftplans                                :     436558. kBytes
   grid                                    :     732614. kBytes
   one-center                              :        282. kBytes
   wavefun                                 :    1079980. kBytes
 
     INWAV:  cpu time      0.0000: real time      0.0000
 Broyden mixing: mesh for mixing (old mesh)
   NGX =103   NGY = 29   NGZ =123
  (NGX  =420   NGY  =120   NGZ  =500)
  gives a total of 367401 points

 initial charge density was supplied:
 charge density of overlapping atoms calculated
 number of electron     368.0000000 magnetization 
 keeping initial charge density in first step


--------------------------------------------------------------------------------------------------------


 Maximum index for non-local projection operator          1869
 Maximum index for augmentation-charges          2388 (set IRDMAX)


--------------------------------------------------------------------------------------------------------


 First call to EWALD:  gamma=   0.090
 Maximum number of real-space cells   2x   6x   2
 Maximum number of reciprocal cells   4x   1x   4

    FEWALD:  cpu time      0.1598: real time      0.1598


--------------------------------------- Ionic step        1  -------------------------------------------




--------------------------------------- Iteration      1(   1)  ---------------------------------------


    POTLOK:  cpu time      0.4198: real time      0.4497
    SETDIJ:  cpu time      0.0407: real time      0.0407
     EDDAV:  cpu time     10.9665: real time     10.9734
       DOS:  cpu time      0.0008: real time      0.0008
    --------------------------------------------
      LOOP:  cpu time     11.4279: real time     11.4647

 eigenvalue-minimisations  :  1688
 total energy-change (2. order) : 0.3734947E+04  (-0.1184076E+05)
 number of electron     368.0000000 magnetization 
 augmentation part      368.0000000 magnetization 

 Free energy of the ion-electron system (eV)
  ---------------------------------------------------
  alpha Z        PSCENC =        91.34886789
  Ewald energy   TEWEN  =    119422.16293049
  -Hartree energ DENC   =   -128752.55079428
  -exchange      EXHF   =         0.00000000
  -V(xc)+E(xc)   XCENC  =      1221.26286205
  PAW double counting   =      9984.02826696   -10036.41360137
  entropy T*S    EENTRO =        -0.83267630
  eigenvalues    EBANDS =     -1731.71389478
  atomic energy  EATOM  =     13537.65479391
  Solvation  Ediel_sol  =         0.00000000
  ---------------------------------------------------
  free energy    TOTEN  =      3734.94675457 eV

  energy without entropy =     3735.77943087  energy(sigma->0) =     3735.36309272


--------------------------------------------------------------------------------------------------------




--------------------------------------- Iteration      1(   2)  ---------------------------------------


     EDDAV:  cpu time     13.1026: real time     13.1074
       DOS:  cpu time      0.0007: real time      0.0007
    --------------------------------------------
      LOOP:  cpu time     13.1033: real time     13.1081

 eigenvalue-minimisations  :  2136
 total energy-change (2. order) :-0.3554046E+04  (-0.3290075E+04)
 number of electron     368.0000000 magnetization 
 augmentation part      368.0000000 magnetization 

 Free energy of the ion-electron system (eV)
  ---------------------------------------------------
  alpha Z        PSCENC =        91.34886789
  Ewald energy   TEWEN  =    119422.16293049
  -Hartree energ DENC   =   -128752.55079428
  -exchange      EXHF   =         0.00000000
  -V(xc)+E(xc)   XCENC  =      1221.26286205
  PAW double counting   =      9984.02826696   -10036.41360137
  entropy T*S    EENTRO =        -0.21699061
  eigenvalues    EBANDS =     -5286.37606964
  atomic energy  EATOM  =     13537.65479391
  Solvation  Ediel_sol  =         0.00000000
  ---------------------------------------------------
  free energy    TOTEN  =       180.90026540 eV

  energy without entropy =      181.11725602  energy(sigma->0) =      181.00876071


--------------------------------------------------------------------------------------------------------




--------------------------------------- Iteration      1(   3)  ---------------------------------------


     EDDAV:  cpu time     11.3732: real time     11.3775
       DOS:  cpu time      0.0007: real time      0.0007
    --------------------------------------------
      LOOP:  cpu time     11.3739: real time     11.3781

 eigenvalue-minimisations  :  1800
 total energy-change (2. order) :-0.1018527E+04  (-0.9953706E+03)
 number of electron     368.0000000 magnetization 
 augmentation part      368.0000000 magnetization 

 Free energy of the ion-electron system (eV)
  ---------------------------------------------------
  alpha Z        PSCENC =        91.34886789
  Ewald energy   TEWEN  =    119422.16293049
  -Hartree energ DENC   =   -128752.55079428
  -exchange      EXHF   =         0.00000000
  -V(xc)+E(xc)   XCENC  =      1221.26286205
  PAW double counting   =      9984.02826696   -10036.41360137
  entropy T*S    EENTRO =        -0.04331969
  eigenvalues    EBANDS =     -6305.07691566
  atomic energy  EATOM  =     13537.65479391
  Solvation  Ediel_sol  =         0.00000000
  ---------------------------------------------------
  free energy    TOTEN  =      -837.62690970 eV

  energy without entropy =     -837.58359001  energy(sigma->0) =     -837.60524986


--------------------------------------------------------------------------------------------------------




--------------------------------------- Iteration      1(   4)  ---------------------------------------


     EDDAV:  cpu time     10.8701: real time     10.8741
       DOS:  cpu time      0.0007: real time      0.0007
    --------------------------------------------
      LOOP:  cpu time     10.8707: real time     10.8747

 eigenvalue-minimisations  :  1704
 total energy-change (2. order) :-0.6119831E+02  (-0.6031715E+02)
 number of electron     368.0000000 magnetization 
 augmentation part      368.0000000 magnetization 

 Free energy of the ion-electron system (eV)
  ---------------------------------------------------
  alpha Z        PSCENC =        91.34886789
  Ewald energy   TEWEN  =    119422.16293049
  -Hartree energ DENC   =   -128752.55079428
  -exchange      EXHF   =         0.00000000
  -V(xc)+E(xc)   XCENC  =      1221.26286205
  PAW double counting   =      9984.02826696   -10036.41360137
  entropy T*S    EENTRO =        -0.05905588
  eigenvalues    EBANDS =     -6366.25948565
  atomic energy  EATOM  =     13537.65479391
  Solvation  Ediel_sol  =         0.00000000
  ---------------------------------------------------
  free energy    TOTEN  =      -898.82521588 eV

  energy without entropy =     -898.76616000  energy(sigma->0) =     -898.79568794


--------------------------------------------------------------------------------------------------------




--------------------------------------- Iteration      1(   5)  ---------------------------------------


     EDDAV:  cpu time     11.3799: real time     11.3839
       DOS:  cpu time      0.0007: real time      0.0007
    CHARGE:  cpu time      1.2071: real time      1.2095
    MIXING:  cpu time      0.2738: real time      0.2741
    --------------------------------------------
      LOOP:  cpu time     12.8615: real time     12.8681

 eigenvalue-minimisations  :  1808
 total energy-change (2. order) :-0.1472541E+01  (-0.1453337E+01)
 number of electron     368.0000014 magnetization 
 augmentation part       10.1555633 magnetization 

 Broyden mixing:
  rms(total) = 0.45370E+01    rms(broyden)= 0.45364E+01
  rms(prec ) = 0.46537E+01
  weight for this iteration     100.00

 Free energy of the ion-electron system (eV)
  ---------------------------------------------------
  alpha Z        PSCENC =        91.34886789
  Ewald energy   TEWEN  =    119422.16293049
  -Hartree energ DENC   =   -128752.55079428
  -exchange      EXHF   =         0.00000000
  -V(xc)+E(xc)   XCENC  =      1221.26286205
  PAW double counting   =      9984.02826696   -10036.41360137
  entropy T*S    EENTRO =        -0.05919961
  eigenvalues    EBANDS =     -6367.73188279
  atomic energy  EATOM  =     13537.65479391
  Solvation  Ediel_sol  =         0.00000000
  ---------------------------------------------------
  free energy    TOTEN  =      -900.29775674 eV

  energy without entropy =     -900.23855714  energy(sigma->0) =     -900.26815694


--------------------------------------------------------------------------------------------------------




--------------------------------------- Iteration      1(   6)  ---------------------------------------


    POTLOK:  cpu time      0.3230: real time      0.3230
    SETDIJ:  cpu time      0.0402: real time      0.0402
     EDDAV:  cpu time     10.2739: real time     10.2789
       DOS:  cpu time      0.0007: real time      0.0007
    CHARGE:  cpu time      1.1610: real time      1.1616
    MIXING:  cpu time      0.2756: real time      0.2770
    --------------------------------------------
      LOOP:  cpu time     12.0744: real time     12.0816

 eigenvalue-minimisations  :  1584
 total energy-change (2. order) : 0.4914208E+02  (-0.4673949E+01)
 number of electron     368.0000014 magnetization 
 augmentation part        9.7323694 magnetization 

 Broyden mixing:
  rms(total) = 0.26655E+01    rms(broyden)= 0.26655E+01
  rms(prec ) = 0.27235E+01
  weight for this iteration     100.00

 eigenvalues of (default mixing * dielectric matrix)
  average eigenvalue GAMMA=   2.1881
  2.1881

 Free energy of the ion-electron system (eV)
  ---------------------------------------------------
  alpha Z        PSCENC =        91.34886789
  Ewald energy   TEWEN  =    119422.16293049
  -Hartree energ DENC   =   -129321.15281373
  -exchange      EXHF   =         0.00000000
  -V(xc)+E(xc)   XCENC  =      1244.56181556
  PAW double counting   =     18927.29488321   -18987.27608617
  entropy T*S    EENTRO =        -0.06728466
  eigenvalues    EBANDS =     -5765.68278229
  atomic energy  EATOM  =     13537.65479391
  Solvation  Ediel_sol  =         0.00000000
  ---------------------------------------------------
  free energy    TOTEN  =      -851.15567579 eV

  energy without entropy =     -851.08839113  energy(sigma->0) =     -851.12203346


--------------------------------------------------------------------------------------------------------




--------------------------------------- Iteration      1(   7)  ---------------------------------------


    POTLOK:  cpu time      0.3226: real time      0.3226
    SETDIJ:  cpu time      0.0403: real time      0.0402
     EDDAV:  cpu time     10.1471: real time     10.1525
       DOS:  cpu time      0.0007: real time      0.0007
    CHARGE:  cpu time      1.1549: real time      1.1567
    MIXING:  cpu time      0.2774: real time      0.2799
    --------------------------------------------
      LOOP:  cpu time     11.9430: real time     11.9527

 eigenvalue-minimisations  :  1560
 total energy-change (2. order) : 0.1842354E+02  (-0.6493684E+01)
 number of electron     368.0000013 magnetization 
 augmentation part        9.1775563 magnetization 

 Broyden mixing:
  rms(total) = 0.72482E+00    rms(broyden)= 0.72455E+00
  rms(prec ) = 0.73452E+00
  weight for this iteration     100.00

 eigenvalues of (default mixing * dielectric matrix)
  average eigenvalue GAMMA=   2.2416
  2.2416  2.2416

 Free energy of the ion-electron system (eV)
  ---------------------------------------------------
  alpha Z        PSCENC =        91.34886789
  Ewald energy   TEWEN  =    119422.16293049
  -Hartree energ DENC   =   -130086.79571995
  -exchange      EXHF   =         0.00000000
  -V(xc)+E(xc)   XCENC  =      1275.72537166
  PAW double counting   =     36575.89184178   -36642.77614241
  entropy T*S    EENTRO =        -0.07758753
  eigenvalues    EBANDS =     -5005.86648833
  atomic energy  EATOM  =     13537.65479391
  Solvation  Ediel_sol  =         0.00000000
  ---------------------------------------------------
  free energy    TOTEN  =      -832.73213250 eV

  energy without entropy =     -832.65454496  energy(sigma->0) =     -832.69333873


--------------------------------------------------------------------------------------------------------




--------------------------------------- Iteration      1(   8)  ---------------------------------------


    POTLOK:  cpu time      0.3224: real time      0.3224
    SETDIJ:  cpu time      0.0402: real time      0.0402
     EDDAV:  cpu time     10.3136: real time     10.3172
       DOS:  cpu time      0.0008: real time      0.0008
    CHARGE:  cpu time      1.1559: real time      1.1569
    MIXING:  cpu time      0.2832: real time      0.2832
    --------------------------------------------
      LOOP:  cpu time     12.1160: real time     12.1208

 eigenvalue-minimisations  :  1592
 total energy-change (2. order) : 0.2996976E+00  (-0.2296336E+00)
 number of electron     368.0000013 magnetization 
 augmentation part        9.1655063 magnetization 

 Broyden mixing:
  rms(total) = 0.90147E-01    rms(broyden)= 0.90113E-01
  rms(prec ) = 0.11348E+00
  weight for this iteration     100.00

 eigenvalues of (default mixing * dielectric matrix)
  average eigenvalue GAMMA=   1.8681
  1.2423  2.4414  1.9208

 Free energy of the ion-electron system (eV)
  ---------------------------------------------------
  alpha Z        PSCENC =        91.34886789
  Ewald energy   TEWEN  =    119422.16293049
  -Hartree energ DENC   =   -130183.22545717
  -exchange      EXHF   =         0.00000000
  -V(xc)+E(xc)   XCENC  =      1275.43156566
  PAW double counting   =     40933.04611545   -40997.12260174
  entropy T*S    EENTRO =        -0.07233192
  eigenvalues    EBANDS =     -4911.65631752
  atomic energy  EATOM  =     13537.65479391
  Solvation  Ediel_sol  =         0.00000000
  ---------------------------------------------------
  free energy    TOTEN  =      -832.43243494 eV

  energy without entropy =     -832.36010302  energy(sigma->0) =     -832.39626898


--------------------------------------------------------------------------------------------------------




--------------------------------------- Iteration      1(   9)  ---------------------------------------


    POTLOK:  cpu time      0.3228: real time      0.3228
    SETDIJ:  cpu time      0.0400: real time      0.0400
     EDDAV:  cpu time     10.5075: real time     10.5113
       DOS:  cpu time      0.0008: real time      0.0008
    CHARGE:  cpu time      1.1561: real time      1.1574
    MIXING:  cpu time      0.2848: real time      0.2870
    --------------------------------------------
      LOOP:  cpu time     12.3120: real time     12.3193

 eigenvalue-minimisations  :  1632
 total energy-change (2. order) : 0.9833605E-01  (-0.2441349E-01)
 number of electron     368.0000013 magnetization 
 augmentation part        9.1393506 magnetization 

 Broyden mixing:
  rms(total) = 0.55372E-01    rms(broyden)= 0.55362E-01
  rms(prec ) = 0.77119E-01
  weight for this iteration     100.00

 eigenvalues of (default mixing * dielectric matrix)
  average eigenvalue GAMMA=   1.7452
  2.2412  2.2412  1.0907  1.4076

 Free energy of the ion-electron system (eV)
  ---------------------------------------------------
  alpha Z        PSCENC =        91.34886789
  Ewald energy   TEWEN  =    119422.16293049
  -Hartree energ DENC   =   -130249.27930834
  -exchange      EXHF   =         0.00000000
  -V(xc)+E(xc)   XCENC  =      1276.86187323
  PAW double counting   =     41292.10676623   -41356.37584885
  entropy T*S    EENTRO =        -0.07396646
  eigenvalues    EBANDS =     -4846.74020699
  atomic energy  EATOM  =     13537.65479391
  Solvation  Ediel_sol  =         0.00000000
  ---------------------------------------------------
  free energy    TOTEN  =      -832.33409890 eV

  energy without entropy =     -832.26013243  energy(sigma->0) =     -832.29711567


--------------------------------------------------------------------------------------------------------




--------------------------------------- Iteration      1(  10)  ---------------------------------------


    POTLOK:  cpu time      0.3226: real time      0.3226
    SETDIJ:  cpu time      0.0402: real time      0.0402
     EDDAV:  cpu time     11.0405: real time     11.0444
       DOS:  cpu time      0.0008: real time      0.0008
    CHARGE:  cpu time      1.1558: real time      1.1562
    MIXING:  cpu time      0.2936: real time      0.2940
    --------------------------------------------
      LOOP:  cpu time     12.8534: real time     12.8582

 eigenvalue-minimisations  :  1744
 total energy-change (2. order) : 0.4484508E-01  (-0.3992612E-02)
 number of electron     368.0000013 magnetization 
 augmentation part        9.1314812 magnetization 

 Broyden mixing:
  rms(total) = 0.33554E-01    rms(broyden)= 0.33551E-01
  rms(prec ) = 0.52254E-01
  weight for this iteration     100.00

 eigenvalues of (default mixing * dielectric matrix)
  average eigenvalue GAMMA=   1.8042
  2.6143  2.6143  1.7433  1.2125  0.8365

 Free energy of the ion-electron system (eV)
  ---------------------------------------------------
  alpha Z        PSCENC =        91.34886789
  Ewald energy   TEWEN  =    119422.16293049
  -Hartree energ DENC   =   -130308.36297752
  -exchange      EXHF   =         0.00000000
  -V(xc)+E(xc)   XCENC  =      1277.24212427
  PAW double counting   =     41007.09019220   -41071.19645452
  entropy T*S    EENTRO =        -0.07412854
  eigenvalues    EBANDS =     -4788.15460199
  atomic energy  EATOM  =     13537.65479391
  Solvation  Ediel_sol  =         0.00000000
  ---------------------------------------------------
  free energy    TOTEN  =      -832.28925381 eV

  energy without entropy =     -832.21512528  energy(sigma->0) =     -832.25218955


--------------------------------------------------------------------------------------------------------




--------------------------------------- Iteration      1(  11)  ---------------------------------------


    POTLOK:  cpu time      0.3225: real time      0.3225
    SETDIJ:  cpu time      0.0408: real time      0.0408
     EDDAV:  cpu time     10.0127: real time     10.0163
       DOS:  cpu time      0.0007: real time      0.0007
    CHARGE:  cpu time      1.1668: real time      1.1678
    MIXING:  cpu time      0.2993: real time      0.3000
    --------------------------------------------
      LOOP:  cpu time     11.8428: real time     11.8481

 eigenvalue-minimisations  :  1536
 total energy-change (2. order) : 0.2661807E-01  (-0.2848590E-02)
 number of electron     368.0000013 magnetization 
 augmentation part        9.1248839 magnetization 

 Broyden mixing:
  rms(total) = 0.22269E-01    rms(broyden)= 0.22266E-01
  rms(prec ) = 0.34051E-01
  weight for this iteration     100.00

 eigenvalues of (default mixing * dielectric matrix)
  average eigenvalue GAMMA=   1.8346
  3.2426  2.4561  1.9528  0.9200  1.2180  1.2180

 Free energy of the ion-electron system (eV)
  ---------------------------------------------------
  alpha Z        PSCENC =        91.34886789
  Ewald energy   TEWEN  =    119422.16293049
  -Hartree energ DENC   =   -130380.27303957
  -exchange      EXHF   =         0.00000000
  -V(xc)+E(xc)   XCENC  =      1277.93463230
  PAW double counting   =     40989.37250208   -41053.38893830
  entropy T*S    EENTRO =        -0.07403923
  eigenvalues    EBANDS =     -4717.00034531
  atomic energy  EATOM  =     13537.65479391
  Solvation  Ediel_sol  =         0.00000000
  ---------------------------------------------------
  free energy    TOTEN  =      -832.26263575 eV

  energy without entropy =     -832.18859652  energy(sigma->0) =     -832.22561613


--------------------------------------------------------------------------------------------------------




--------------------------------------- Iteration      1(  12)  ---------------------------------------


    POTLOK:  cpu time      0.3227: real time      0.3226
    SETDIJ:  cpu time      0.0403: real time      0.0403
     EDDAV:  cpu time      9.7268: real time      9.7300
       DOS:  cpu time      0.0008: real time      0.0008
    CHARGE:  cpu time      1.1587: real time      1.1587
    MIXING:  cpu time      0.3068: real time      0.3068
    --------------------------------------------
      LOOP:  cpu time     11.5561: real time     11.5592

 eigenvalue-minimisations  :  1480
 total energy-change (2. order) :-0.1074255E-02  (-0.1617965E-02)
 number of electron     368.0000013 magnetization 
 augmentation part        9.1184989 magnetization 

 Broyden mixing:
  rms(total) = 0.13889E-01    rms(broyden)= 0.13885E-01
  rms(prec ) = 0.21315E-01
  weight for this iteration     100.00

 eigenvalues of (default mixing * dielectric matrix)
  average eigenvalue GAMMA=   2.1260
  5.1345  2.4505  2.0870  2.0181  0.9395  1.1262  1.1262

 Free energy of the ion-electron system (eV)
  ---------------------------------------------------
  alpha Z        PSCENC =        91.34886789
  Ewald energy   TEWEN  =    119422.16293049
  -Hartree energ DENC   =   -130434.67667246
  -exchange      EXHF   =         0.00000000
  -V(xc)+E(xc)   XCENC  =      1278.42860008
  PAW double counting   =     41052.50437819   -41116.52541705
  entropy T*S    EENTRO =        -0.07414546
  eigenvalues    EBANDS =     -4663.08704558
  atomic energy  EATOM  =     13537.65479391
  Solvation  Ediel_sol  =         0.00000000
  ---------------------------------------------------
  free energy    TOTEN  =      -832.26371000 eV

  energy without entropy =     -832.18956454  energy(sigma->0) =     -832.22663727


--------------------------------------------------------------------------------------------------------




--------------------------------------- Iteration      1(  13)  ---------------------------------------


    POTLOK:  cpu time      0.3234: real time      0.3234
    SETDIJ:  cpu time      0.0402: real time      0.0403
     EDDAV:  cpu time      9.8855: real time      9.8888
       DOS:  cpu time      0.0007: real time      0.0007
    CHARGE:  cpu time      1.1566: real time      1.1577
    MIXING:  cpu time      0.3135: real time      0.3147
    --------------------------------------------
      LOOP:  cpu time     11.7199: real time     11.7256

 eigenvalue-minimisations  :  1512
 total energy-change (2. order) :-0.1259303E-01  (-0.7119372E-03)
 number of electron     368.0000013 magnetization 
 augmentation part        9.1164592 magnetization 

 Broyden mixing:
  rms(total) = 0.79413E-02    rms(broyden)= 0.79399E-02
  rms(prec ) = 0.11184E-01
  weight for this iteration     100.00

 eigenvalues of (default mixing * dielectric matrix)
  average eigenvalue GAMMA=   2.1182
  5.4912  2.5516  2.5516  1.8738  1.2495  1.2495  0.8768  1.1016

 Free energy of the ion-electron system (eV)
  ---------------------------------------------------
  alpha Z        PSCENC =        91.34886789
  Ewald energy   TEWEN  =    119422.16293049
  -Hartree energ DENC   =   -130481.46639433
  -exchange      EXHF   =         0.00000000
  -V(xc)+E(xc)   XCENC  =      1278.58430293
  PAW double counting   =     40998.29730597   -41062.31732674
  entropy T*S    EENTRO =        -0.07401452
  eigenvalues    EBANDS =     -4616.46676862
  atomic energy  EATOM  =     13537.65479391
  Solvation  Ediel_sol  =         0.00000000
  ---------------------------------------------------
  free energy    TOTEN  =      -832.27630303 eV

  energy without entropy =     -832.20228851  energy(sigma->0) =     -832.23929577


--------------------------------------------------------------------------------------------------------




--------------------------------------- Iteration      1(  14)  ---------------------------------------


    POTLOK:  cpu time      0.3206: real time      0.3206
    SETDIJ:  cpu time      0.0401: real time      0.0401
     EDDAV:  cpu time      9.9937: real time      9.9971
       DOS:  cpu time      0.0008: real time      0.0007
    CHARGE:  cpu time      1.1549: real time      1.1582
    MIXING:  cpu time      0.3222: real time      0.3234
    --------------------------------------------
      LOOP:  cpu time     11.8322: real time     11.8402

 eigenvalue-minimisations  :  1536
 total energy-change (2. order) :-0.1902136E-01  (-0.1256974E-03)
 number of electron     368.0000013 magnetization 
 augmentation part        9.1154696 magnetization 

 Broyden mixing:
  rms(total) = 0.52036E-02    rms(broyden)= 0.52031E-02
  rms(prec ) = 0.72832E-02
  weight for this iteration     100.00

 eigenvalues of (default mixing * dielectric matrix)
  average eigenvalue GAMMA=   2.2672
  6.7270  3.1260  2.4349  1.8961  1.8961  1.2172  1.2172  0.9449  0.9449

 Free energy of the ion-electron system (eV)
  ---------------------------------------------------
  alpha Z        PSCENC =        91.34886789
  Ewald energy   TEWEN  =    119422.16293049
  -Hartree energ DENC   =   -130494.51075107
  -exchange      EXHF   =         0.00000000
  -V(xc)+E(xc)   XCENC  =      1278.60147538
  PAW double counting   =     41022.62705212   -41086.65683841
  entropy T*S    EENTRO =        -0.07409269
  eigenvalues    EBANDS =     -4603.44876201
  atomic energy  EATOM  =     13537.65479391
  Solvation  Ediel_sol  =         0.00000000
  ---------------------------------------------------
  free energy    TOTEN  =      -832.29532439 eV

  energy without entropy =     -832.22123169  energy(sigma->0) =     -832.25827804


--------------------------------------------------------------------------------------------------------




--------------------------------------- Iteration      1(  15)  ---------------------------------------


    POTLOK:  cpu time      0.3211: real time      0.3211
    SETDIJ:  cpu time      0.0402: real time      0.0402
     EDDAV:  cpu time      9.9553: real time      9.9589
       DOS:  cpu time      0.0008: real time      0.0008
    CHARGE:  cpu time      1.1623: real time      1.1628
    MIXING:  cpu time      0.3310: real time      0.3311
    --------------------------------------------
      LOOP:  cpu time     11.8106: real time     11.8150

 eigenvalue-minimisations  :  1528
 total energy-change (2. order) :-0.1943025E-01  (-0.1551026E-03)
 number of electron     368.0000013 magnetization 
 augmentation part        9.1153915 magnetization 

 Broyden mixing:
  rms(total) = 0.28040E-02    rms(broyden)= 0.28038E-02
  rms(prec ) = 0.37753E-02
  weight for this iteration     100.00

 eigenvalues of (default mixing * dielectric matrix)
  average eigenvalue GAMMA=   2.2837
  7.1266  3.6692  2.3199  2.3199  1.7900  1.2924  1.2924  0.9547  0.9547  1.1170

 Free energy of the ion-electron system (eV)
  ---------------------------------------------------
  alpha Z        PSCENC =        91.34886789
  Ewald energy   TEWEN  =    119422.16293049
  -Hartree energ DENC   =   -130504.33001081
  -exchange      EXHF   =         0.00000000
  -V(xc)+E(xc)   XCENC  =      1278.56337651
  PAW double counting   =     41005.17023939   -41069.19933031
  entropy T*S    EENTRO =        -0.07414551
  eigenvalues    EBANDS =     -4593.61147620
  atomic energy  EATOM  =     13537.65479391
  Solvation  Ediel_sol  =         0.00000000
  ---------------------------------------------------
  free energy    TOTEN  =      -832.31475464 eV

  energy without entropy =     -832.24060913  energy(sigma->0) =     -832.27768188


--------------------------------------------------------------------------------------------------------




--------------------------------------- Iteration      1(  16)  ---------------------------------------


    POTLOK:  cpu time      0.3219: real time      0.3219
    SETDIJ:  cpu time      0.0401: real time      0.0401
     EDDAV:  cpu time     10.1549: real time     10.1585
       DOS:  cpu time      0.0008: real time      0.0008
    CHARGE:  cpu time      1.1671: real time      1.1692
    MIXING:  cpu time      0.3449: real time      0.3451
    --------------------------------------------
      LOOP:  cpu time     12.0296: real time     12.0356

 eigenvalue-minimisations  :  1568
 total energy-change (2. order) :-0.7966818E-02  (-0.4902745E-04)
 number of electron     368.0000013 magnetization 
 augmentation part        9.1153225 magnetization 

 Broyden mixing:
  rms(total) = 0.18621E-02    rms(broyden)= 0.18620E-02
  rms(prec ) = 0.23653E-02
  weight for this iteration     100.00

 eigenvalues of (default mixing * dielectric matrix)
  average eigenvalue GAMMA=   2.3668
  8.0469  4.2060  2.4048  2.4048  1.7954  1.5509  1.5509  1.0822  1.0633  1.0336
  0.8964

 Free energy of the ion-electron system (eV)
  ---------------------------------------------------
  alpha Z        PSCENC =        91.34886789
  Ewald energy   TEWEN  =    119422.16293049
  -Hartree energ DENC   =   -130507.43302946
  -exchange      EXHF   =         0.00000000
  -V(xc)+E(xc)   XCENC  =      1278.54989356
  PAW double counting   =     41009.57285468   -41073.59727423
  entropy T*S    EENTRO =        -0.07409910
  eigenvalues    EBANDS =     -4590.50765919
  atomic energy  EATOM  =     13537.65479391
  Solvation  Ediel_sol  =         0.00000000
  ---------------------------------------------------
  free energy    TOTEN  =      -832.32272146 eV

  energy without entropy =     -832.24862236  energy(sigma->0) =     -832.28567191


--------------------------------------------------------------------------------------------------------




--------------------------------------- Iteration      1(  17)  ---------------------------------------


    POTLOK:  cpu time      0.3233: real time      0.3232
    SETDIJ:  cpu time      0.0401: real time      0.0401
     EDDAV:  cpu time      9.9058: real time      9.9105
       DOS:  cpu time      0.0008: real time      0.0008
    CHARGE:  cpu time      1.1559: real time      1.1570
    MIXING:  cpu time      0.3502: real time      0.3508
    --------------------------------------------
      LOOP:  cpu time     11.7760: real time     11.7823

 eigenvalue-minimisations  :  1520
 total energy-change (2. order) :-0.4038974E-02  (-0.2136469E-04)
 number of electron     368.0000013 magnetization 
 augmentation part        9.1152378 magnetization 

 Broyden mixing:
  rms(total) = 0.97783E-03    rms(broyden)= 0.97773E-03
  rms(prec ) = 0.12753E-02
  weight for this iteration     100.00

 eigenvalues of (default mixing * dielectric matrix)
  average eigenvalue GAMMA=   2.4222
  8.4194  4.9430  2.7259  2.3052  2.1264  1.4000  1.4000  1.3769  1.3769  0.9314
  1.0303  1.0303

 Free energy of the ion-electron system (eV)
  ---------------------------------------------------
  alpha Z        PSCENC =        91.34886789
  Ewald energy   TEWEN  =    119422.16293049
  -Hartree energ DENC   =   -130509.36187605
  -exchange      EXHF   =         0.00000000
  -V(xc)+E(xc)   XCENC  =      1278.54902246
  PAW double counting   =     41009.51499165   -41073.53848466
  entropy T*S    EENTRO =        -0.07410042
  eigenvalues    EBANDS =     -4588.58290570
  atomic energy  EATOM  =     13537.65479391
  Solvation  Ediel_sol  =         0.00000000
  ---------------------------------------------------
  free energy    TOTEN  =      -832.32676043 eV

  energy without entropy =     -832.25266001  energy(sigma->0) =     -832.28971022


--------------------------------------------------------------------------------------------------------




--------------------------------------- Iteration      1(  18)  ---------------------------------------


    POTLOK:  cpu time      0.3233: real time      0.3234
    SETDIJ:  cpu time      0.0404: real time      0.0403
     EDDAV:  cpu time     10.0447: real time     10.0481
       DOS:  cpu time      0.0008: real time      0.0008
    CHARGE:  cpu time      1.1583: real time      1.1596
    MIXING:  cpu time      0.3612: real time      0.3615
    --------------------------------------------
      LOOP:  cpu time     11.9286: real time     11.9338

 eigenvalue-minimisations  :  1544
 total energy-change (2. order) :-0.2052155E-02  (-0.9505871E-05)
 number of electron     368.0000013 magnetization 
 augmentation part        9.1151413 magnetization 

 Broyden mixing:
  rms(total) = 0.55057E-03    rms(broyden)= 0.55052E-03
  rms(prec ) = 0.69426E-03
  weight for this iteration     100.00

 eigenvalues of (default mixing * dielectric matrix)
  average eigenvalue GAMMA=   2.4240
  8.8537  5.1348  2.9526  2.3907  2.1395  1.8132  1.5408  1.5408  1.1319  1.1319
  1.0247  0.9285  0.9285

 Free energy of the ion-electron system (eV)
  ---------------------------------------------------
  alpha Z        PSCENC =        91.34886789
  Ewald energy   TEWEN  =    119422.16293049
  -Hartree energ DENC   =   -130510.22654604
  -exchange      EXHF   =         0.00000000
  -V(xc)+E(xc)   XCENC  =      1278.55224250
  PAW double counting   =     41011.08893132   -41075.11201086
  entropy T*S    EENTRO =        -0.07410598
  eigenvalues    EBANDS =     -4587.72391582
  atomic energy  EATOM  =     13537.65479391
  Solvation  Ediel_sol  =         0.00000000
  ---------------------------------------------------
  free energy    TOTEN  =      -832.32881259 eV

  energy without entropy =     -832.25470661  energy(sigma->0) =     -832.29175960


--------------------------------------------------------------------------------------------------------




--------------------------------------- Iteration      1(  19)  ---------------------------------------


    POTLOK:  cpu time      0.3233: real time      0.3235
    SETDIJ:  cpu time      0.0402: real time      0.0402
     EDDAV:  cpu time      9.0823: real time      9.0855
       DOS:  cpu time      0.0008: real time      0.0008
    CHARGE:  cpu time      1.1572: real time      1.1596
    MIXING:  cpu time      0.3726: real time      0.3726
    --------------------------------------------
      LOOP:  cpu time     10.9764: real time     10.9821

 eigenvalue-minimisations  :  1344
 total energy-change (2. order) :-0.7334981E-03  (-0.1696964E-05)
 number of electron     368.0000013 magnetization 
 augmentation part        9.1151530 magnetization 

 Broyden mixing:
  rms(total) = 0.32485E-03    rms(broyden)= 0.32483E-03
  rms(prec ) = 0.40414E-03
  weight for this iteration     100.00

 eigenvalues of (default mixing * dielectric matrix)
  average eigenvalue GAMMA=   2.4409
  9.0332  5.5870  3.2964  2.3807  2.3807  1.9099  1.4274  1.4274  1.3388  1.3388
  0.9293  0.9840  1.0698  1.0698

 Free energy of the ion-electron system (eV)
  ---------------------------------------------------
  alpha Z        PSCENC =        91.34886789
  Ewald energy   TEWEN  =    119422.16293049
  -Hartree energ DENC   =   -130510.46690649
  -exchange      EXHF   =         0.00000000
  -V(xc)+E(xc)   XCENC  =      1278.54976253
  PAW double counting   =     41008.56357040   -41072.58630073
  entropy T*S    EENTRO =        -0.07410474
  eigenvalues    EBANDS =     -4587.48215934
  atomic energy  EATOM  =     13537.65479391
  Solvation  Ediel_sol  =         0.00000000
  ---------------------------------------------------
  free energy    TOTEN  =      -832.32954609 eV

  energy without entropy =     -832.25544134  energy(sigma->0) =     -832.29249371


--------------------------------------------------------------------------------------------------------




--------------------------------------- Iteration      1(  20)  ---------------------------------------


    POTLOK:  cpu time      0.3229: real time      0.3229
    SETDIJ:  cpu time      0.0404: real time      0.0404
     EDDAV:  cpu time      8.7913: real time      8.7942
       DOS:  cpu time      0.0007: real time      0.0007
    CHARGE:  cpu time      1.1541: real time      1.1584
    MIXING:  cpu time      0.3839: real time      0.3838
    --------------------------------------------
      LOOP:  cpu time     10.6933: real time     10.7005

 eigenvalue-minimisations  :  1288
 total energy-change (2. order) :-0.3372891E-03  (-0.5287959E-06)
 number of electron     368.0000013 magnetization 
 augmentation part        9.1151539 magnetization 

 Broyden mixing:
  rms(total) = 0.17972E-03    rms(broyden)= 0.17971E-03
  rms(prec ) = 0.22292E-03
  weight for this iteration     100.00

 eigenvalues of (default mixing * dielectric matrix)
  average eigenvalue GAMMA=   2.4678
  9.1925  5.9849  3.7688  2.5133  2.5133  2.0015  1.5655  1.5655  1.4094  1.4094
  0.9555  0.9848  0.9848  1.0837  1.0837

 Free energy of the ion-electron system (eV)
  ---------------------------------------------------
  alpha Z        PSCENC =        91.34886789
  Ewald energy   TEWEN  =    119422.16293049
  -Hartree energ DENC   =   -130510.56618285
  -exchange      EXHF   =         0.00000000
  -V(xc)+E(xc)   XCENC  =      1278.54848475
  PAW double counting   =     41008.05736297   -41072.08032119
  entropy T*S    EENTRO =        -0.07410648
  eigenvalues    EBANDS =     -4587.38171287
  atomic energy  EATOM  =     13537.65479391
  Solvation  Ediel_sol  =         0.00000000
  ---------------------------------------------------
  free energy    TOTEN  =      -832.32988337 eV

  energy without entropy =     -832.25577689  energy(sigma->0) =     -832.29283013


--------------------------------------------------------------------------------------------------------




--------------------------------------- Iteration      1(  21)  ---------------------------------------


    POTLOK:  cpu time      0.3222: real time      0.3223
    SETDIJ:  cpu time      0.0399: real time      0.0399
     EDDAV:  cpu time      8.2131: real time      8.2174
       DOS:  cpu time      0.0007: real time      0.0007
    CHARGE:  cpu time      1.1693: real time      1.1707
    MIXING:  cpu time      0.3943: real time      0.3962
    --------------------------------------------
      LOOP:  cpu time     10.1395: real time     10.1472

 eigenvalue-minimisations  :  1168
 total energy-change (2. order) :-0.1571220E-03  (-0.1614687E-06)
 number of electron     368.0000013 magnetization 
 augmentation part        9.1151544 magnetization 

 Broyden mixing:
  rms(total) = 0.95753E-04    rms(broyden)= 0.95745E-04
  rms(prec ) = 0.11920E-03
  weight for this iteration     100.00

 eigenvalues of (default mixing * dielectric matrix)
  average eigenvalue GAMMA=   2.4728
  9.2713  6.2858  4.0872  2.7777  2.4074  2.0833  1.8439  1.4788  1.4788  1.3327
  1.3327  1.1437  1.1437  0.9421  0.9421  1.0131

 Free energy of the ion-electron system (eV)
  ---------------------------------------------------
  alpha Z        PSCENC =        91.34886789
  Ewald energy   TEWEN  =    119422.16293049
  -Hartree energ DENC   =   -130510.65597009
  -exchange      EXHF   =         0.00000000
  -V(xc)+E(xc)   XCENC  =      1278.54809420
  PAW double counting   =     41008.19425729   -41072.21729812
  entropy T*S    EENTRO =        -0.07410627
  eigenvalues    EBANDS =     -4587.29160980
  atomic energy  EATOM  =     13537.65479391
  Solvation  Ediel_sol  =         0.00000000
  ---------------------------------------------------
  free energy    TOTEN  =      -832.33004050 eV

  energy without entropy =     -832.25593423  energy(sigma->0) =     -832.29298736


[...]
   -.839E+01 -.164E+02 -.191E+03   0.846E+01 0.168E+02 0.192E+03   -.193E+00 0.212E+00 -.716E-02   -.161E-04 0.397E-05 -.254E-05
   -.126E+02 -.110E+02 -.134E+03   0.118E+02 0.112E+02 0.134E+03   -.564E+00 0.713E-02 0.253E+00   -.493E-05 0.843E-05 0.114E-06
   -.186E+02 0.109E+02 -.166E+03   0.189E+02 -.109E+02 0.165E+03   0.273E+00 0.472E+00 0.229E+00   -.114E-04 -.138E-05 0.161E-06
   -.200E+02 0.149E+02 -.116E+03   0.204E+02 -.154E+02 0.116E+03   0.564E+00 -.566E+00 0.196E+00   0.312E-06 -.477E-05 -.825E-06
   -.244E+02 -.141E+02 -.164E+03   0.236E+02 0.145E+02 0.165E+03   -.949E+00 -.452E+00 -.569E+00   -.395E-05 0.505E-05 0.137E-05
   -.142E+02 -.305E+01 -.798E+02   0.136E+02 0.268E+01 0.800E+02   -.319E-01 -.536E+00 -.346E+00   0.830E-05 -.843E-05 -.243E-05
   -.310E+02 0.358E+01 -.116E+03   0.317E+02 -.322E+01 0.115E+03   0.292E+00 0.466E+00 0.568E-01   0.105E-04 0.763E-05 -.296E-05
   -.305E+02 0.181E+02 -.774E+02   0.312E+02 -.190E+02 0.774E+02   0.309E+00 -.176E+00 -.426E+00   0.129E-04 -.491E-05 -.403E-05
   -.331E+02 -.171E+02 -.941E+02   0.336E+02 0.181E+02 0.942E+02   0.198E+00 0.290E+00 -.221E+00   0.149E-04 0.530E-05 -.453E-05
   -.610E+01 -.132E+02 -.209E+02   0.589E+01 0.140E+02 0.211E+02   0.867E-01 0.438E+00 -.445E+00   0.116E-04 -.488E-05 -.433E-05
   -.106E+02 0.832E+01 -.489E+02   0.104E+02 -.859E+01 0.493E+02   -.318E+00 0.207E+00 -.518E+00   0.671E-05 0.611E-05 -.315E-05
   -.410E+01 0.133E+02 -.179E+00   0.429E+01 -.135E+02 0.634E+00   -.181E+00 0.457E+00 -.804E+00   0.303E-05 -.409E-05 -.130E-05
   -.678E+00 -.637E+01 0.299E+01   0.349E+00 0.610E+01 -.292E+01   -.158E-01 -.317E-01 0.864E+00   0.169E-05 -.125E-05 -.105E-05
   0.194E+02 -.151E+02 0.946E+02   -.198E+02 0.154E+02 -.948E+02   -.916E-01 -.227E+00 0.782E+00   -.579E-06 -.304E-05 0.555E-06
   -.170E+01 0.743E+01 0.151E+02   0.192E+01 -.740E+01 -.151E+02   0.397E+00 -.269E+00 -.356E+00   0.314E-05 0.217E-05 -.148E-05
   0.456E+01 0.204E+01 0.690E+02   -.436E+01 -.105E+01 -.688E+02   -.241E+00 0.762E+00 0.303E+00   -.249E-05 0.882E-06 0.819E-07
   -.285E+01 -.388E+01 0.210E+02   0.286E+01 0.310E+01 -.207E+02   0.217E+00 -.663E+00 -.592E+00   0.241E-05 0.890E-06 -.150E-05
   -.353E+00 -.116E+02 0.762E+02   0.490E+00 0.120E+02 -.762E+02   -.224E+00 0.387E+00 -.287E+00   -.538E-05 -.184E-05 0.261E-06
   -.129E+01 0.522E+01 0.576E+02   0.159E+01 -.470E+01 -.579E+02   0.314E-01 0.458E+00 0.534E+00   -.237E-05 0.316E-05 -.283E-06
   0.599E+00 0.103E+02 0.576E+02   -.774E+00 -.106E+02 -.573E+02   0.601E-01 0.312E+00 -.193E+00   -.240E-05 0.188E-05 0.181E-06
   -.324E+01 -.106E+02 0.354E+02   0.299E+01 0.108E+02 -.350E+02   -.452E+00 0.203E+00 -.612E+00   -.489E-05 0.505E-05 -.665E-07
   -.132E+02 -.115E+02 0.105E+03   0.137E+02 0.120E+02 -.106E+03   0.257E+00 -.140E+00 0.393E+00   -.205E-05 -.270E-05 0.306E-06
   -.358E+01 0.468E+01 0.696E+02   0.318E+01 -.439E+01 -.698E+02   0.796E-01 -.716E-01 0.434E+00   -.500E-05 0.438E-05 -.432E-06
   -.134E+02 0.756E+01 0.750E+02   0.134E+02 -.688E+01 -.746E+02   -.327E+00 0.436E+00 -.115E+00   -.317E-05 0.209E-05 -.152E-06
   -.169E+02 -.571E+01 0.382E+02   0.179E+02 0.495E+01 -.379E+02   0.332E+00 -.724E+00 -.871E-01   -.489E-05 -.104E-05 -.101E-05
   -.313E+02 -.682E+01 0.951E+02   0.314E+02 0.755E+01 -.955E+02   -.265E-01 0.112E+01 0.133E+01   0.539E-06 0.621E-06 0.665E-06
   -.955E+01 0.491E+00 0.162E+02   0.864E+01 -.105E+01 -.158E+02   -.205E+00 -.101E+01 -.805E+00   -.162E-05 0.522E-06 -.164E-05
   -.560E+01 0.672E+02 0.107E+02   0.260E+01 -.683E+02 -.107E+02   0.139E+01 0.176E+01 -.628E+00   -.129E-05 0.179E-05 -.983E-06
   -.647E+01 -.571E+02 -.903E+00   0.357E+01 0.578E+02 0.412E+00   0.107E+01 -.169E+01 0.337E+00   -.119E-05 -.472E-05 -.158E-05
   -.122E+02 0.679E+02 0.133E+03   0.145E+02 -.693E+02 -.133E+03   -.144E+01 0.853E+00 -.234E+00   -.840E-05 0.124E-04 -.218E-05
   -.185E+02 -.694E+02 0.168E+03   0.210E+02 0.707E+02 -.168E+03   -.164E+01 -.100E+01 0.699E+00   -.924E-05 -.121E-04 -.137E-05
   -.738E+00 0.309E+00 0.863E+02   0.830E+00 0.774E-01 -.863E+02   -.548E+00 0.499E+00 -.113E+00   -.238E-06 0.111E-04 -.117E-05
   -.996E+01 -.135E+01 0.111E+03   0.104E+02 0.860E+00 -.111E+03   -.186E+00 -.521E+00 -.101E+00   -.339E-06 -.901E-05 -.452E-06
   -.182E+02 0.116E+02 0.939E+02   0.183E+02 -.111E+02 -.944E+02   -.440E+00 0.422E+00 0.707E+00   0.104E-06 0.231E-05 0.753E-06
   -.151E+02 -.118E+02 0.100E+03   0.149E+02 0.114E+02 -.101E+03   -.124E+00 -.372E+00 -.144E+00   -.955E-06 -.240E-05 0.909E-06
   0.892E+01 -.748E+01 -.112E+02   -.877E+01 0.799E+01 0.111E+02   -.257E+00 -.131E+00 0.180E-01   0.678E-05 -.588E-05 0.385E-05
   -.427E+01 0.114E+01 0.455E+02   0.379E+01 -.734E+00 -.460E+02   -.563E+00 -.130E-01 0.831E+00   -.127E-06 0.417E-05 0.237E-05
   0.352E+01 0.121E+02 -.426E+02   -.287E+01 -.126E+02 0.425E+02   -.483E-01 -.473E+00 0.411E-01   0.698E-05 -.864E-05 0.316E-05
   0.357E+01 -.835E+01 -.225E+02   -.291E+01 0.838E+01 0.225E+02   0.562E+00 -.599E+00 0.670E-01   0.364E-05 -.264E-05 0.243E-05
   0.147E+02 -.117E+02 -.952E+02   -.146E+02 0.122E+02 0.956E+02   0.354E+00 0.612E+00 -.905E+00   0.343E-06 -.125E-04 0.149E-05
   0.114E+02 0.144E+02 -.941E+02   -.112E+02 -.145E+02 0.942E+02   -.210E-02 0.150E+00 -.207E+00   -.216E-05 0.375E-05 0.896E-06
   0.122E+02 0.151E+02 -.603E+02   -.129E+02 -.159E+02 0.599E+02   -.483E+00 -.213E-01 0.799E+00   -.122E-04 -.120E-04 -.625E-06
   0.154E+02 -.964E+01 -.925E+02   -.158E+02 0.100E+02 0.924E+02   -.393E+00 0.171E-01 -.144E+00   -.129E-04 -.502E-05 -.120E-05
   0.747E+01 -.401E+01 -.975E+02   -.745E+01 0.385E+01 0.976E+02   -.399E-01 0.468E+00 0.265E+00   -.156E-04 -.141E-04 -.103E-05
   0.819E+01 0.965E+01 -.128E+03   -.835E+01 -.954E+01 0.128E+03   -.218E-01 -.300E+00 -.196E+00   -.168E-04 0.309E-05 -.176E-05
   -.184E+01 0.104E+02 -.100E+03   0.173E+01 -.104E+02 0.997E+02   0.989E-01 -.472E-01 0.510E+00   -.125E-04 -.130E-04 -.200E-05
   -.414E+00 -.515E+01 -.122E+03   -.232E+00 0.469E+01 0.122E+03   -.739E-01 -.580E+00 -.519E+00   -.111E-04 -.514E-05 -.115E-05
   -.137E+02 -.103E+02 -.133E+03   0.134E+02 0.102E+02 0.134E+03   -.242E+00 -.151E+00 -.109E+01   -.443E-05 -.491E-05 -.101E-05
   -.169E+02 0.790E+01 -.970E+02   0.178E+02 -.768E+01 0.970E+02   0.477E+00 0.332E+00 -.298E+00   0.545E-05 0.114E-05 -.228E-05
   -.102E+02 0.852E+01 -.441E+02   0.107E+02 -.823E+01 0.435E+02   0.399E+00 0.812E+00 0.881E+00   0.942E-05 0.785E-06 -.408E-05
   -.359E+01 -.739E+01 -.305E+02   0.348E+01 0.702E+01 0.303E+02   0.667E-01 -.307E+00 0.270E+00   0.138E-04 -.281E-05 -.454E-05
   -.168E+02 -.126E+02 -.656E+02   0.166E+02 0.128E+02 0.659E+02   -.674E+00 0.498E-01 -.329E+00   0.108E-04 0.920E-05 -.390E-05
   -.153E+01 0.651E+01 -.404E+01   0.164E+01 -.625E+01 0.404E+01   -.871E-01 0.122E+00 -.281E-01   0.106E-04 -.641E-05 -.337E-05
   -.602E+01 0.119E+02 -.237E+01   0.663E+01 -.123E+02 0.210E+01   0.287E-01 -.210E+00 -.524E+00   0.106E-04 0.351E-05 -.312E-05
   0.183E+02 -.968E+01 0.643E+02   -.186E+02 0.988E+01 -.647E+02   0.184E+00 -.579E-01 0.874E+00   0.898E-05 -.419E-05 -.230E-05
   0.668E+01 -.109E+02 0.234E+02   -.715E+01 0.113E+02 -.232E+02   -.241E+00 0.231E+00 0.362E+00   0.567E-05 0.432E-05 -.202E-05
   0.205E+02 0.116E+02 0.882E+02   -.204E+02 -.122E+02 -.886E+02   0.231E+00 -.919E-01 0.448E+00   0.822E-05 -.344E-05 -.193E-05
   0.216E+02 0.103E+02 0.873E+02   -.217E+02 -.101E+02 -.876E+02   0.294E+00 -.603E-02 0.180E+00   0.603E-06 0.403E-05 0.266E-06
   0.337E+02 -.887E+01 0.130E+03   -.342E+02 0.869E+01 -.130E+03   -.381E+00 -.562E+00 0.458E+00   0.278E-05 -.222E-05 0.517E-06
   0.104E+02 -.117E+02 0.725E+02   -.106E+02 0.119E+02 -.723E+02   -.829E-01 -.529E+00 -.242E+00   -.180E-06 0.372E-05 0.791E-07
   0.261E+02 0.880E+01 0.153E+03   -.257E+02 -.906E+01 -.153E+03   -.151E-01 -.365E-01 0.130E+00   -.837E-06 -.163E-05 0.161E-05
   0.179E+02 0.138E+02 0.133E+03   -.182E+02 -.136E+02 -.133E+03   -.138E+00 0.852E+00 0.428E+00   0.142E-05 0.282E-05 0.669E-06
   0.227E+02 -.107E+02 0.175E+03   -.229E+02 0.107E+02 -.176E+03   0.332E+00 0.325E+00 0.473E+00   -.624E-06 -.223E-05 0.171E-05
   0.149E+01 -.445E+01 0.107E+03   -.102E+01 0.361E+01 -.106E+03   -.281E+00 -.953E+00 -.665E+00   0.967E-06 0.107E-05 0.389E-06
   0.118E+02 0.122E+02 0.155E+03   -.118E+02 -.128E+02 -.155E+03   0.391E+00 0.178E+00 -.743E-01   -.185E-05 -.618E-05 0.126E-05
   0.250E+01 0.168E+02 0.177E+03   -.225E+01 -.169E+02 -.177E+03   0.279E+00 -.648E-01 0.104E+01   -.209E-05 0.242E-05 0.266E-05
   0.284E+01 -.143E+02 0.186E+03   -.291E+01 0.147E+02 -.186E+03   -.749E-01 -.334E+00 0.369E+00   -.230E-05 -.710E-05 0.254E-05
   -.627E+01 -.886E+01 0.132E+03   0.594E+01 0.891E+01 -.131E+03   0.133E+00 -.702E+00 -.379E+00   -.584E-05 0.418E-05 0.861E-06
   -.890E+01 0.935E+01 0.165E+03   0.874E+01 -.973E+01 -.165E+03   -.985E-01 -.778E-01 -.214E+00   -.393E-05 -.614E-05 0.158E-05
   -.217E+02 0.181E+02 0.165E+03   0.220E+02 -.183E+02 -.165E+03   -.710E-01 0.400E+00 0.823E-01   -.482E-05 0.426E-05 0.953E-06
   -.220E+02 -.159E+02 0.188E+03   0.222E+02 0.160E+02 -.189E+03   0.551E+00 0.412E+00 0.671E+00   -.469E-05 -.620E-05 0.184E-05
   -.302E+02 -.459E+01 0.140E+03   0.299E+02 0.534E+01 -.140E+03   0.161E+00 0.575E+00 0.467E+00   0.218E-05 0.986E-05 -.259E-06
   -.292E+02 0.485E+01 0.150E+03   0.288E+02 -.568E+01 -.150E+03   0.110E+01 0.756E-01 -.330E+00   0.355E-05 -.807E-05 0.108E-05
   -.422E+02 0.663E+02 0.160E+03   0.405E+02 -.669E+02 -.161E+03   0.103E+01 0.125E+01 0.104E+01   0.617E-05 0.132E-04 0.173E-05
   -.434E+02 -.681E+02 0.170E+03   0.413E+02 0.687E+02 -.171E+03   0.938E+00 -.176E+01 0.914E+00   0.762E-05 -.128E-04 0.290E-05
 -----------------------------------------------------------------------------------------------
   0.675E-01 -.991E-02 -.553E+00   0.782E-12 0.853E-13 -.568E-12   -.108E+00 -.614E-01 0.593E+00   -.129E-04 -.117E-05 -.352E-04
 
 
 POSITION                                       TOTAL-FORCE (eV/Angst)
 -----------------------------------------------------------------------------------
      9.30889      1.06499     32.64000         1.690788      0.131888      0.493484
      9.30137      2.46221     32.67000         1.252284     -1.228665      0.703911
     10.50310      0.38981     32.83000         0.106807      1.210803      0.364318
     10.47870      3.12059     32.92000         0.073065     -0.401010      0.301031
     11.64960      1.06949     33.38000        -0.465623     -0.565870     -0.139195
     11.62020      2.44042     33.45000        -0.409460      0.250911     -0.094872
     12.85400      0.39802      0.19000         0.452527     -0.111636      0.035437
     12.79660      3.12052      0.32000         0.952364     -1.289280      0.134949
     14.00400      1.02902      0.74000        -0.820668      0.514967     -0.166651
     13.96910      2.41655      0.78000         0.034403     -0.040045     -0.374620
     15.23120      0.37078      0.98000         0.443611     -0.579993     -0.062892
     15.23430      3.02966      0.93000         0.170998      1.041620      0.549188
     16.46380      1.00425      1.25000         0.932707      0.401453     -0.108403
     16.46780      2.37228      1.21000         1.020305      0.655694      0.330016
     17.76410      0.37880      1.25000        -1.391099     -0.628901      0.297043
     17.77120      3.02567      1.29000        -1.297344      0.239400     -0.832728
     19.00580      1.01503      1.28000         1.243606     -0.504936     -0.362211
     19.02780      2.37458      1.30000        -0.119708      0.612799      0.242567
     20.26260      0.35976      1.00000        -1.288046      0.223324      0.309670
     20.26690      3.03103      1.10000         0.600180      0.432621      0.084633
     21.47010      1.03360      0.77000         1.001718     -1.069190      0.147638
     21.53020      2.39295      0.87000        -1.818688     -0.067585      0.218939
     22.65880      0.36678      0.35000        -0.676539     -0.911045     -0.211040
     22.70220      3.02577      0.48000         1.041767      0.828851     -0.168483
     23.86400      1.00636      0.05000         1.072750     -0.994129     -0.413641
     23.89300      2.35980      0.11000         0.740741      1.218700     -0.123895
     25.01570      0.32753     33.01000        -0.119149      1.235182     -0.267009
     25.06640      3.03040     33.12000        -0.534061     -0.058367     -0.065898
     26.22340      0.98868     32.65000         0.012374      0.211612     -0.348499
     26.23720      2.36872     32.69000        -0.344304     -0.296991      0.935182
     27.38030      0.35027     32.11000        -0.549544      0.110784      0.572442
     27.40730      3.05490     32.34000         0.609975     -0.236052     -0.348915
      0.56658      0.99308     31.96000        -0.048646      1.749811      0.555410
      0.57826      2.39809     32.09000         0.219261     -1.438229     -0.265354
      1.78620      0.33500     31.73000        -0.086374      0.770276     -0.353603
      1.80127      3.04469     31.83000         0.330154      0.975634      0.272390
      3.03586      1.00467     31.71000        -0.115147      0.103444      0.104787
      3.05071      2.37750     31.78000        -0.701983      0.492883     -0.256323
      4.27147      0.36600     31.55000         0.732233      0.276539      0.163334
      4.27328      3.07169     31.67000        -0.318261      0.220434      0.189032
      5.52267      1.03285     31.71000        -0.289034      1.110973      0.226317
      5.50387      2.43463     31.81000         1.321070     -1.485035      0.237410
      6.76925      0.35337     31.77000         0.097736      1.856973      0.892024
      6.76602      3.12172     31.97000        -1.117953     -1.562078     -0.428267
      7.90741      1.03555     32.23000        -1.615498      0.638321     -0.628706
      7.91044      2.43978     32.28000        -1.829224     -1.067528     -0.153899
      9.47928      5.12391     32.08000         0.884832     -0.605234     -0.280361
      9.48869      6.49171     32.00000         0.847725      0.333451      0.298788
     10.59930      4.44266     32.58000        -0.455772      0.885850     -0.123711
     10.60860      7.17202     32.49000         0.249293     -1.012603     -0.141705
     11.81850      5.10011     32.88000        -0.363197      0.919908      0.166860
     11.82860      6.49960     32.84000        -0.386807     -0.729184     -0.436313
     12.90990      4.44951      0.01000        -0.103132      0.373320     -0.034711
     12.96660      7.15576     33.37000        -1.038273      0.393859      0.389621
     14.09890      5.11245      0.36000         0.611754     -1.012030     -0.072573
     14.10580      6.48627      0.31000         1.217688     -0.577183      0.005725
     15.27750      4.39963      0.77000         0.522922      1.154060     -0.499955
     15.28850      7.11141      0.77000         0.208492     -0.008197     -0.115630
     16.55470      5.06693      0.87000        -1.152238     -0.806714      0.308166
     16.54520      6.43884      0.93000        -0.768956      0.392302     -0.271606
     17.77710      4.38456      1.05000        -0.020564      0.315718      0.363841
     17.76860      7.11243      1.11000        -0.181009     -0.186495     -0.027967
     19.01030      5.06986      1.01000        -0.013220     -0.126812      0.186487
     19.00620      6.45022      1.04000        -0.719619     -1.037470     -0.400345
     20.25560      4.40071      0.96000        -0.508588     -0.254116     -0.479733
     20.21750      7.09256      0.87000         1.409621      0.546906     -0.331420
     21.43000      5.03639      0.54000         0.882140      1.094430      0.224548
     21.40960      6.42964      0.48000        -0.034703     -0.681691      0.055095
     22.67710      4.39171      0.30000        -0.883528      0.292119      0.028300
     22.60120      7.09535      0.13000         0.020653      0.391582     -0.027343
     23.80300      5.06486     33.29000         0.646298     -0.637397     -0.798534
     23.75320      6.42835     33.13000        -0.116096      0.141753      0.461328
     25.01530      4.39072     32.91000        -0.714053      0.562129      0.577739
     24.93490      7.09898     32.73000         0.376474     -0.695068     -0.027992
     26.14730      5.06576     32.39000         0.239448      0.265729     -0.194899
     26.12240      6.44810     32.26000        -0.920062     -0.739265      0.289630
     27.38200      4.41552     32.15000        -0.300698     -0.297263     -0.015084
     27.32500      7.09279     31.92000         0.343829     -0.289710     -0.042331
      0.52936      5.04359     31.74000        -0.430300      0.984345     -0.014364
      0.49164      6.41829     31.62000         0.211199      0.368360      0.085902
      1.78429      4.43399     31.64000         0.184005     -1.800097     -0.150106
      1.74384      7.09132     31.50000         0.377260     -0.490731     -0.283837
      3.00762      5.08289     31.36000         0.533980     -0.165735      0.377743
      3.00774      6.45677     31.31000        -0.147667      0.019285      0.033601
      4.27117      4.43735     31.45000        -0.191853     -0.648540     -0.104572
      4.27179      7.11211     31.34000        -0.263301     -0.452931     -0.225623
      5.53771      5.07077     31.39000         0.228639      0.196341     -0.213275
      5.52275      6.43970     31.32000         0.775614      0.524944      0.182284
      6.80300      4.42894     31.62000        -0.071219      1.330587      0.227714
      6.77516      7.11426     31.54000         0.699761     -0.747195     -0.408277
      8.02268      5.10036     31.69000        -0.680785      0.651798     -0.236062
      8.02291      6.48924     31.65000        -1.203056     -1.116447     -0.491091
 -----------------------------------------------------------------------------------
    total drift:                               -0.040114     -0.071284      0.040432


--------------------------------------------------------------------------------------------------------



  FREE ENERGIE OF THE ION-ELECTRON SYSTEM (eV)
  ---------------------------------------------------
  free  energy   TOTEN  =      -832.33014069 eV

  energy  without entropy=     -832.25603442  energy(sigma->0) =     -832.29308756
 


--------------------------------------------------------------------------------------------------------


    POTLOK:  cpu time      0.4540: real time      0.4539


--------------------------------------------------------------------------------------------------------


     LOOP+:  cpu time    320.0524: real time    320.2395
    4ORBIT:  cpu time      0.0000: real time      0.0000

 total amount of memory used by VASP MPI-rank0  2294490. kBytes
=======================================================================

   base                                    :      30000. kBytes
   nonlr-proj                              :      15056. kBytes
   fftplans                                :     436558. kBytes
   grid                                    :     732614. kBytes
   one-center                              :        282. kBytes
   wavefun                                 :    1079980. kBytes
 
  
  
 General timing and accounting informations for this job:
 ========================================================
  
                  Total CPU time used (sec):      353.334
                            User time (sec):      345.110
                          System time (sec):        8.225
                         Elapsed time (sec):      353.557
  
                   Maximum memory used (kb):     3735044.
                   Average memory used (kb):          N/A
  
                          Minor page faults:      3092085
                          Major page faults:         6758
                 Voluntary context switches:         9986
