<?xml version="1.0" encoding="ISO-8859-1"?>
<modeling>
 <generator>
  <i name="program" type="string">vasp </i>
  <i name="version" type="string">6.5.0  </i>
  <i name="subversion" type="string">16Dec24 (build Feb 19 2025 19:45:31) complex                          parallel </i>
  <i name="platform" type="string">LinuxNV </i>
  <i name="date" type="string">2025 10 25 </i>
  <i name="time" type="string">20:41:49 </i>
 </generator>
 <incar>
  <i type="int" name="ISTART">     0</i>
  <i type="string" name="PREC">Accurate   (Precision level)</i>
  <i type="string" name="ALGO">Normal</i>
  <i type="int" name="ISPIN">     1</i>
  <i type="int" name="ICHARG">     2</i>
  <i type="int" name="NELM">   150</i>
  <i type="int" name="IBRION">    -1</i>
  <i name="EDIFF">      0.00000100</i>
  <i type="int" name="NSW">     0</i>
  <i name="ENCUT">    500.00000000</i>
  <i type="string" name="LREAL">Auto         (Projection operators: automatic)</i>
  <i type="int" name="ISMEAR">     0</i>
  <i type="logical" name="KGAMMA"> T  </i>
  <i type="logical" name="LWAVE"> F  </i>
  <i type="logical" name="LCHARG"> F  </i>
 </incar>
 <primitive_cell>
  <structure name="primitive_cell" >
   <crystal>
    <varray name="basis" >
     <v>      28.05000000       0.00000000       0.00000000 </v>
     <v>       0.00000000       8.10000000       0.00000000 </v>
     <v>       0.00000000       0.00000000      33.50000000 </v>
    </varray>
    <i name="volume">   7611.36750000 </i>
    <varray name="rec_basis" >
     <v>       0.03565062       0.00000000       0.00000000 </v>
     <v>       0.00000000       0.12345679       0.00000000 </v>
     <v>       0.00000000       0.00000000       0.02985075 </v>
    </varray>
   </crystal>
   <varray name="positions" >
    <v>       0.33186774       0.13148025       0.97432836 </v>
    <v>       0.33159964       0.30397654       0.97522388 </v>
    <v>       0.37444207       0.04812469       0.98000000 </v>
    <v>       0.37357219       0.38525802       0.98268657 </v>
    <v>       0.41531551       0.13203580       0.99641791 </v>
    <v>       0.41426738       0.30128642       0.99850746 </v>
    <v>       0.45825312       0.04913877       0.00567164 </v>
    <v>       0.45620677       0.38524938       0.00955224 </v>
    <v>       0.49925134       0.12703951       0.02208955 </v>
    <v>       0.49800713       0.29833951       0.02328358 </v>
    <v>       0.54300178       0.04577519       0.02925373 </v>
    <v>       0.54311230       0.37403210       0.02776119 </v>
    <v>       0.58694474       0.12398148       0.03731343 </v>
    <v>       0.58708734       0.29287407       0.03611940 </v>
    <v>       0.63330125       0.04676494       0.03731343 </v>
    <v>       0.63355437       0.37353951       0.03850746 </v>
    <v>       0.67756863       0.12531235       0.03820896 </v>
    <v>       0.67835294       0.29315802       0.03880597 </v>
    <v>       0.72237433       0.04441444       0.02985075 </v>
    <v>       0.72252763       0.37420123       0.03283582 </v>
    <v>       0.76542246       0.12760494       0.02298507 </v>
    <v>       0.76756506       0.29542593       0.02597015 </v>
    <v>       0.80780036       0.04528136       0.01044776 </v>
    <v>       0.80934759       0.37355185       0.01432836 </v>
    <v>       0.85076649       0.12424198       0.00149254 </v>
    <v>       0.85180036       0.29133333       0.00328358 </v>
    <v>       0.89182531       0.04043617       0.98537313 </v>
    <v>       0.89363280       0.37412346       0.98865672 </v>
    <v>       0.93488057       0.12205901       0.97462687 </v>
    <v>       0.93537255       0.29243457       0.97582090 </v>
    <v>       0.97612478       0.04324370       0.95850746 </v>
    <v>       0.97708734       0.37714815       0.96537313 </v>
    <v>       0.02019900       0.12260185       0.95402985 </v>
    <v>       0.02061522       0.29606049       0.95791045 </v>
    <v>       0.06367914       0.04135741       0.94716418 </v>
    <v>       0.06421640       0.37588765       0.95014925 </v>
    <v>       0.10823030       0.12403333       0.94656716 </v>
    <v>       0.10875971       0.29351852       0.94865672 </v>
    <v>       0.15228057       0.04518543       0.94179104 </v>
    <v>       0.15234510       0.37922099       0.94537313 </v>
    <v>       0.19688663       0.12751235       0.94656716 </v>
    <v>       0.19621640       0.30057160       0.94955224 </v>
    <v>       0.24132799       0.04362642       0.94835821 </v>
    <v>       0.24121283       0.38539753       0.95432836 </v>
    <v>       0.28190410       0.12784568       0.96208955 </v>
    <v>       0.28201212       0.30120741       0.96358209 </v>
    <v>       0.33794225       0.63258148       0.95761194 </v>
    <v>       0.33827772       0.80144568       0.95522388 </v>
    <v>       0.37787166       0.54847654       0.97253731 </v>
    <v>       0.37820321       0.88543457       0.96985075 </v>
    <v>       0.42133690       0.62964321       0.98149254 </v>
    <v>       0.42169697       0.80241975       0.98029851 </v>
    <v>       0.46024599       0.54932222       0.00029851 </v>
    <v>       0.46226738       0.88342716       0.99611940 </v>
    <v>       0.50263458       0.63116667       0.01074627 </v>
    <v>       0.50288057       0.80077407       0.00925373 </v>
    <v>       0.54465241       0.54316420       0.02298507 </v>
    <v>       0.54504456       0.87795185       0.02298507 </v>
    <v>       0.59018538       0.62554691       0.02597015 </v>
    <v>       0.58984670       0.79491852       0.02776119 </v>
    <v>       0.63376471       0.54130370       0.03134328 </v>
    <v>       0.63346168       0.87807778       0.03313433 </v>
    <v>       0.67772906       0.62590864       0.03014925 </v>
    <v>       0.67758289       0.79632346       0.03104478 </v>
    <v>       0.72212478       0.54329753       0.02865672 </v>
    <v>       0.72076649       0.87562469       0.02597015 </v>
    <v>       0.76399287       0.62177654       0.01611940 </v>
    <v>       0.76326560       0.79378272       0.01432836 </v>
    <v>       0.80845276       0.54218642       0.00895522 </v>
    <v>       0.80574688       0.87596914       0.00388060 </v>
    <v>       0.84859180       0.62529136       0.99373134 </v>
    <v>       0.84681640       0.79362346       0.98895522 </v>
    <v>       0.89181105       0.54206420       0.98238806 </v>
    <v>       0.88894474       0.87641728       0.97701493 </v>
    <v>       0.93216756       0.62540247       0.96686567 </v>
    <v>       0.93127986       0.79606173       0.96298507 </v>
    <v>       0.97618538       0.54512593       0.95970149 </v>
    <v>       0.97415330       0.87565309       0.95283582 </v>
    <v>       0.01887198       0.62266543       0.94746269 </v>
    <v>       0.01752724       0.79238148       0.94388060 </v>
    <v>       0.06361105       0.54740617       0.94447761 </v>
    <v>       0.06216898       0.87547160       0.94029851 </v>
    <v>       0.10722353       0.62751728       0.93611940 </v>
    <v>       0.10722781       0.79713210       0.93462687 </v>
    <v>       0.15226988       0.54782099       0.93880597 </v>
    <v>       0.15229198       0.87803827       0.93552239 </v>
    <v>       0.19742282       0.62602099       0.93701493 </v>
    <v>       0.19688948       0.79502469       0.93492537 </v>
    <v>       0.24253119       0.54678272       0.94388060 </v>
    <v>       0.24153868       0.87830370       0.94149254 </v>
    <v>       0.28601355       0.62967407       0.94597015 </v>
    <v>       0.28602175       0.80114074       0.94477612 </v>
   </varray>
  </structure>
  <varray name="primitive_index" >
   <v type="int" >        1 </v>
   <v type="int" >        2 </v>
   <v type="int" >        3 </v>
   <v type="int" >        4 </v>
   <v type="int" >        5 </v>
   <v type="int" >        6 </v>
   <v type="int" >        7 </v>
   <v type="int" >        8 </v>
   <v type="int" >        9 </v>
   <v type="int" >       10 </v>
   <v type="int" >       11 </v>
   <v type="int" >       12 </v>
   <v type="int" >       13 </v>
   <v type="int" >       14 </v>
   <v type="int" >       15 </v>
   <v type="int" >       16 </v>
   <v type="int" >       17 </v>
   <v type="int" >       18 </v>
   <v type="int" >       19 </v>
   <v type="int" >       20 </v>
   <v type="int" >       21 </v>
   <v type="int" >       22 </v>
   <v type="int" >       23 </v>
   <v type="int" >       24 </v>
   <v type="int" >       25 </v>
   <v type="int" >       26 </v>
   <v type="int" >       27 </v>
   <v type="int" >       28 </v>
   <v type="int" >       29 </v>
   <v type="int" >       30 </v>
   <v type="int" >       31 </v>
   <v type="int" >       32 </v>
   <v type="int" >       33 </v>
   <v type="int" >       34 </v>
   <v type="int" >       35 </v>
   <v type="int" >       36 </v>
   <v type="int" >       37 </v>
   <v type="int" >       38 </v>
   <v type="int" >       39 </v>
   <v type="int" >       40 </v>
   <v type="int" >       41 </v>
   <v type="int" >       42 </v>
   <v type="int" >       43 </v>
   <v type="int" >       44 </v>
   <v type="int" >       45 </v>
   <v type="int" >       46 </v>
   <v type="int" >       47 </v>
   <v type="int" >       48 </v>
   <v type="int" >       49 </v>
   <v type="int" >       50 </v>
   <v type="int" >       51 </v>
   <v type="int" >       52 </v>
   <v type="int" >       53 </v>
   <v type="int" >       54 </v>
   <v type="int" >       55 </v>
   <v type="int" >       56 </v>
   <v type="int" >       57 </v>
   <v type="int" >       58 </v>
   <v type="int" >       59 </v>
   <v type="int" >       60 </v>
   <v type="int" >       61 </v>
   <v type="int" >       62 </v>
   <v type="int" >       63 </v>
   <v type="int" >       64 </v>
   <v type="int" >       65 </v>
   <v type="int" >       66 </v>
   <v type="int" >       67 </v>
   <v type="int" >       68 </v>
   <v type="int" >       69 </v>
   <v type="int" >       70 </v>
   <v type="int" >       71 </v>
   <v type="int" >       72 </v>
   <v type="int" >       73 </v>
   <v type="int" >       74 </v>
   <v type="int" >       75 </v>
   <v type="int" >       76 </v>
   <v type="int" >       77 </v>
   <v type="int" >       78 </v>
   <v type="int" >       79 </v>
   <v type="int" >       80 </v>
   <v type="int" >       81 </v>
   <v type="int" >       82 </v>
   <v type="int" >       83 </v>
   <v type="int" >       84 </v>
   <v type="int" >       85 </v>
   <v type="int" >       86 </v>
   <v type="int" >       87 </v>
   <v type="int" >       88 </v>
   <v type="int" >       89 </v>
   <v type="int" >       90 </v>
   <v type="int" >       91 </v>
   <v type="int" >       92 </v>
  </varray>
 </primitive_cell>
 <kpoints>
  <generation param="Gamma">
   <v type="int" name="divisions">       1        4        1 </v>
   <v name="usershift">      0.00000000       0.00000000       0.00000000 </v>
   <v name="genvec1">      1.00000000       0.00000000       0.00000000 </v>
   <v name="genvec2">      0.00000000       0.25000000       0.00000000 </v>
   <v name="genvec3">      0.00000000       0.00000000       1.00000000 </v>
   <v name="shift">      0.00000000       0.00000000       0.00000000 </v>
  </generation>
  <varray name="kpointlist" >
   <v>       0.00000000       0.00000000       0.00000000 </v>
   <v>       0.00000000       0.25000000       0.00000000 </v>
   <v>       0.00000000       0.50000000       0.00000000 </v>
  </varray>
  <varray name="weights" >
   <v>       0.25000000 </v>
   <v>       0.50000000 </v>
   <v>       0.25000000 </v>
  </varray>
 </kpoints>
 <parameters>
  <separator name="general" >
   <i type="string" name="SYSTEM">unknown system</i>
   <i type="logical" name="LCOMPAT"> F  </i>
  </separator>
  <separator name="electronic" >
   <i type="string" name="PREC">accura</i>
   <i name="ENMAX">    500.00000000</i>
   <i name="ENAUG">    644.87300000</i>
   <i name="EDIFF">      0.00000100</i>
   <i type="int" name="IALGO">    38</i>
   <i type="int" name="IWAVPR">    10</i>
   <i type="int" name="NBANDS">   232</i>
   <i type="int" name="NBANDSLOW">    -1</i>
   <i type="int" name="NBANDSHIGH">    -1</i>
   <i name="NELECT">    368.00000000</i>
   <i type="int" name="TURBO">     0</i>
   <i type="int" name="IRESTART">     0</i>
   <i type="int" name="NREBOOT">     0</i>
   <i type="int" name="NMIN">     0</i>
   <i name="EREF">      0.00000000</i>
   <separator name="electronic smearing" >
    <i type="int" name="ISMEAR">     0</i>
    <i name="SIGMA">      0.20000000</i>
    <i name="KSPACING">      0.50000000</i>
    <i type="logical" name="KGAMMA"> T  </i>
    <i type="logical" name="KBLOWUP"> T  </i>
   </separator>
   <separator name="electronic projectors" >
    <i type="logical" name="LREAL"> T  </i>
    <v name="ROPT">     -0.00025000</v>
    <i type="int" name="LMAXPAW">  -100</i>
    <i type="int" name="LMAXMIX">     2</i>
    <i type="logical" name="NLSPLINE"> F  </i>
   </separator>
   <separator name="electronic startup" >
    <i type="int" name="ISTART">     0</i>
    <i type="int" name="ICHARG">     2</i>
    <i type="int" name="INIWAV">     1</i>
   </separator>
   <separator name="electronic spin" >
    <i type="int" name="ISPIN">     1</i>
    <i type="logical" name="LNONCOLLINEAR"> F  </i>
    <v name="MAGMOM">      1.00000000      1.00000000      1.00000000      1.00000000      1.00000000      1.00000000      1.00000000      1.00000000      1.00000000      1.00000000      1.00000000      1.00000000      1.00000000      1.00000000      1.00000000      1.00000000      1.00000000      1.00000000      1.00000000      1.00000000
      1.00000000      1.00000000      1.00000000      1.00000000      1.00000000      1.00000000      1.00000000      1.00000000      1.00000000      1.00000000      1.00000000      1.00000000      1.00000000      1.00000000      1.00000000      1.00000000      1.00000000      1.00000000      1.00000000      1.00000000
      1.00000000      1.00000000      1.00000000      1.00000000      1.00000000      1.00000000      1.00000000      1.00000000      1.00000000      1.00000000      1.00000000      1.00000000      1.00000000      1.00000000      1.00000000      1.00000000      1.00000000      1.00000000      1.00000000      1.00000000
      1.00000000      1.00000000      1.00000000      1.00000000      1.00000000      1.00000000      1.00000000      1.00000000      1.00000000      1.00000000      1.00000000      1.00000000      1.00000000      1.00000000      1.00000000      1.00000000      1.00000000      1.00000000      1.00000000      1.00000000
      1.00000000      1.00000000      1.00000000      1.00000000      1.00000000      1.00000000      1.00000000      1.00000000      1.00000000      1.00000000      1.00000000      1.00000000</v>
    <i name="NUPDOWN">     -1.00000000</i>
    <i type="logical" name="LSORBIT"> F  </i>
    <v name="SAXIS">      0.00000000      0.00000000      1.00000000</v>
    <i type="logical" name="LSPIRAL"> F  </i>
    <v name="QSPIRAL">      0.00000000      0.00000000      0.00000000</v>
    <i type="logical" name="LZEROZ"> F  </i>
   </separator>
   <separator name="electronic exchange-correlation" >
    <i type="logical" name="LASPH"> F  </i>
   </separator>
   <separator name="electronic convergence" >
    <i type="int" name="NELM">   150</i>
    <i type="int" name="NELMDL">    -5</i>
    <i type="int" name="NELMIN">     2</i>
    <i name="ENINI">    500.00000000</i>
    <separator name="electronic convergence detail" >
     <i type="logical" name="LDIAG"> T  </i>
     <i type="logical" name="LSUBROT"> F  </i>
     <i name="WEIMIN">      0.00000000</i>
     <i name="EBREAK">      0.00000000</i>
     <i name="DEPER">      0.30000000</i>
     <i type="int" name="NRMM">     4</i>
     <i name="TIME">      0.40000000</i>
    </separator>
   </separator>
   <separator name="electronic mixer" >
    <i name="AMIX">      0.40000000</i>
    <i name="BMIX">      1.00000000</i>
    <i name="AMIN">      0.10000000</i>
    <i name="AMIX_MAG">      1.60000000</i>
    <i name="BMIX_MAG">      1.00000000</i>
    <separator name="electronic mixer details" >
     <i type="int" name="IMIX">     4</i>
     <i type="logical" name="MIXFIRST"> F  </i>
     <i type="int" name="MAXMIX">   -45</i>
     <i name="WC">    100.00000000</i>
     <i type="int" name="INIMIX">     1</i>
     <i type="int" name="MIXPRE">     1</i>
     <i type="int" name="MREMOVE">     5</i>
    </separator>
   </separator>
   <separator name="electronic dipolcorrection" >
    <i type="logical" name="LDIPOL"> F  </i>
    <i type="logical" name="LMONO"> F  </i>
    <i type="int" name="IDIPOL">     0</i>
    <i name="EPSILON">      1.00000000</i>
    <v name="DIPOL">   -100.00000000   -100.00000000   -100.00000000</v>
    <i name="EFIELD">      0.00000000</i>
    <i type="logical" name="LVACPOTAV"> F  </i>
   </separator>
  </separator>
  <separator name="grids" >
   <i type="int" name="NGX">   210</i>
   <i type="int" name="NGY">    60</i>
   <i type="int" name="NGZ">   250</i>
   <i type="int" name="NGXF">   420</i>
   <i type="int" name="NGYF">   120</i>
   <i type="int" name="NGZF">   500</i>
   <i type="logical" name="ADDGRID"> F  </i>
  </separator>
  <separator name="ionic" >
   <i type="int" name="NSW">     0</i>
   <i type="int" name="IBRION">    -1</i>
   <i type="int" name="MDALGO">     0</i>
   <i type="int" name="ISIF">     2</i>
   <i name="PSTRESS">      0.00000000</i>
   <i name="EDIFFG">      0.00001000</i>
   <i type="int" name="NFREE">     0</i>
   <i name="POTIM">      0.50000000</i>
   <i name="SMASS">     -3.00000000</i>
   <i name="SCALEE">      1.00000000</i>
  </separator>
  <separator name="ionic md" >
   <i name="TEBEG">      0.00010000</i>
   <i name="TEEND">      0.00010000</i>
   <i type="int" name="NBLOCK">     1</i>
   <i type="int" name="KBLOCK">     1</i>
   <i type="int" name="NPACO">   256</i>
   <i name="APACO">     10.00000000</i>
  </separator>
  <separator name="symmetry" >
   <i type="int" name="ISYM">     2</i>
   <i name="SYMPREC">      0.00001000</i>
  </separator>
  <separator name="dos" >
   <i type="int" name="LORBIT">     0</i>
   <v name="RWIGS">     -1.00000000</v>
   <i type="int" name="NEDOS">   301</i>
   <i name="EMIN">     10.00000000</i>
   <i name="EMAX">    -10.00000000</i>
   <i name="EFERMI">      0.00000000</i>
  </separator>
  <separator name="writing" >
   <i type="int" name="NWRITE">     2</i>
   <i type="logical" name="LWAVE"> F  </i>
   <i type="logical" name="LDOWNSAMPLE"> F  </i>
   <i type="logical" name="LCHARG"> F  </i>
   <i type="logical" name="LPARD"> F  </i>
   <i type="logical" name="LVTOT"> F  </i>
   <i type="logical" name="LVHAR"> F  </i>
   <i type="logical" name="LELF"> F  </i>
   <i type="logical" name="LOPTICS"> F  </i>
   <v name="STM">      0.00000000      0.00000000      0.00000000      0.00000000      0.00000000      0.00000000      0.00000000</v>
  </separator>
  <separator name="performance" >
   <i type="int" name="NPAR">     2</i>
   <i type="int" name="NSIM">     4</i>
   <i type="int" name="NBLK">    -1</i>
   <i type="logical" name="LPLANE"> T  </i>
   <i type="logical" name="LSCALAPACK"> T  </i>
   <i type="logical" name="LSCAAWARE"> F  </i>
   <i type="logical" name="LSCALU"> F  </i>
   <i type="logical" name="LASYNC"> F  </i>
   <i type="logical" name="LORBITALREAL"> F  </i>
  </separator>
  <separator name="miscellaneous" >
   <i type="int" name="IDIOT">     3</i>
   <i type="int" name="PHON_NSTRUCT">    -1</i>
   <i type="logical" name="LMUSIC"> F  </i>
   <v name="POMASS">     12.01100000</v>
   <v name="DARWINR">      0.00000000</v>
   <v name="DARWINV">      1.00000000</v>
   <i type="logical" name="LCORR"> T  </i>
  </separator>
  <i type="logical" name="GGA_COMPAT"> T  </i>
  <i type="logical" name="LBERRY"> F  </i>
  <i type="int" name="ICORELEVEL">     0</i>
  <i type="logical" name="LDAU"> F  </i>
  <i type="int" name="I_CONSTRAINED_M">     0</i>
  <separator name="electronic exchange-correlation" >
   <i type="string" name="GGA    ">PE</i>
   <i type="string" name="XC_C">1</i>
   <i type="int" name="VOSKOWN">     0</i>
   <i type="logical" name="LHFCALC"> F  </i>
   <i type="string" name="PRECFOCK"></i>
   <i type="logical" name="LSYMGRAD"> F  </i>
   <i type="logical" name="LHFONE"> F  </i>
   <i type="logical" name="LRHFCALC"> F  </i>
   <i type="logical" name="LTHOMAS"> F  </i>
   <i type="logical" name="LMODELHF"> F  </i>
   <i type="logical" name="LFOCKACE"> F  </i>
   <i name="ENCUT4O">     -1.00000000</i>
   <i type="int" name="EXXOEP">     0</i>
   <i type="int" name="FOURORBIT">     0</i>
   <i name="AEXX">      0.00000000</i>
   <i name="HFALPHA">      0.00000000</i>
   <i name="MCALPHA">      0.00000000</i>
   <i name="ALDAX">      1.00000000</i>
   <i name="AGGAX">      1.00000000</i>
   <i name="AMGGAX">      1.00000000</i>
   <i name="ALDAC">      1.00000000</i>
   <i name="AGGAC">      1.00000000</i>
   <i name="AMGGAC">      1.00000000</i>
   <i type="int" name="NKREDX">     1</i>
   <i type="int" name="NKREDY">     1</i>
   <i type="int" name="NKREDZ">     1</i>
   <i type="logical" name="SHIFTRED"> F  </i>
   <i type="logical" name="ODDONLY"> F  </i>
   <i type="logical" name="EVENONLY"> F  </i>
   <i type="int" name="LMAXFOCK">     0</i>
   <i type="int" name="NMAXFOCKAE">     0</i>
   <i type="logical" name="LFOCKAEDFT"> F  </i>
   <i name="HFSCREEN">      0.00000000</i>
   <i name="HFSCREENC">      0.00000000</i>
   <i type="int" name="NBANDSGWLOW">     0</i>
  </separator>
  <separator name="vdW DFT" >
   <i type="logical" name="LUSE_VDW"> F  </i>
   <i type="int" name="IVDW_NL">    -1</i>
   <i type="logical" name="LSPIN_VDW"> F  </i>
   <i name="ZAB_VDW">     -0.84910000</i>
   <i name="GAMMA_VDW">      1.39626340</i>
   <i name="ALPHA_VDW">      0.00000000</i>
   <i name="PARAM1">      0.12340000</i>
   <i name="PARAM2">      1.00000000</i>
   <i name="BPARAM">      6.30000000</i>
   <i name="CPARAM">      0.00930000</i>
  </separator>
  <separator name="model GW" >
   <i type="int" name="MODEL_GW">     0</i>
   <i name="MODEL_EPS0">     49.63935326</i>
   <i name="MODEL_ALPHA">      1.00000000</i>
  </separator>
  <separator name="linear response parameters" >
   <i type="logical" name="LEPSILON"> F  </i>
   <i type="logical" name="LRPA"> F  </i>
   <i type="logical" name="LNABLA"> F  </i>
   <i type="logical" name="LVEL"> F  </i>
   <i name="CSHIFT">      0.10000000</i>
   <i name="OMEGAMAX">     -1.00000000</i>
   <i name="DEG_THRESHOLD">      0.00200000</i>
   <i name="RTIME">     -0.10000000</i>
   <i name="WPLASMAI">      0.00000000</i>
   <v name="DFIELD">      0.00000000      0.00000000      0.00000000</v>
   <v name="WPLASMA">      0.00000000      0.00000000      0.00000000      0.00000000      0.00000000      0.00000000      0.00000000      0.00000000      0.00000000</v>
  </separator>
  <separator name="orbital magnetization" >
   <i type="logical" name="NUCIND"> F  </i>
   <v name="MAGPOS">      0.00000000      0.00000000      0.00000000</v>
   <i type="logical" name="LNICSALL"> T  </i>
   <i type="logical" name="ORBITALMAG"> F  </i>
   <i type="logical" name="LMAGBLOCH"> F  </i>
   <i type="logical" name="LCHIMAG"> F  </i>
   <i type="logical" name="LGAUGE"> T  </i>
   <i type="int" name="MAGATOM">     0</i>
   <v name="MAGDIPOL">      0.00000000      0.00000000      0.00000000</v>
   <v name="AVECCONST">      0.00000000      0.00000000      0.00000000</v>
  </separator>
  <separator name="response functions" >
   <i type="logical" name="LALL_IN_ONE"> F  </i>
   <i type="int" name="IALL_IN_ONE">    -1</i>
   <i type="int" name="NBANDS_WAVE">    -1</i>
   <i type="logical" name="LFINITE_TEMPERATURE"> F  </i>
   <i type="logical" name="LADDER"> F  </i>
   <i type="logical" name="LRPAFORCE"> F  </i>
   <i type="logical" name="LFXC"> F  </i>
   <i type="logical" name="LHARTREE"> T  </i>
   <i type="int" name="IBSE">     2</i>
   <v type="int" name="KPOINT">    -1     0     0     0</v>
   <i type="logical" name="LTCTC"> F  </i>
   <i type="logical" name="LTCTE"> F  </i>
   <i type="logical" name="LTETE"> F  </i>
   <i type="logical" name="LTRIPLET"> F  </i>
   <i type="logical" name="LFXCEPS"> F  </i>
   <i type="logical" name="LFXHEG"> F  </i>
   <i type="int" name="NATURALO">     2</i>
   <i type="logical" name="LHOLEGF"> F  </i>
   <i type="logical" name="L2ORDER"> F  </i>
   <i type="logical" name="LDMP1"> F  </i>
   <i type="logical" name="LMP2LT"> F  </i>
   <i type="logical" name="LSMP2LT"> F  </i>
   <i type="logical" name="LGWLF"> F  </i>
   <i name="ENCUTGW">     -1.60000002</i>
   <i name="ENCUTGWSOFT">     -1.60000002</i>
   <i name="ENCUTLF">     -1.00000000</i>
   <i type="logical" name="ESF_SPLINES"> F  </i>
   <i name="ESF_CONV">      0.01000000</i>
   <i type="int" name="ESF_NINTER">    15</i>
   <i type="int" name="LMAXMP2">    -1</i>
   <i name="SCISSOR">      0.00000000</i>
   <i type="int" name="NOMEGA">     0</i>
   <i type="int" name="NOMEGAR">     0</i>
   <i type="int" name="NBANDSGW">    -1</i>
   <i type="int" name="NBANDSO">    -1</i>
   <i type="int" name="NBANDSV">    -1</i>
   <i type="int" name="NELMGW">     1</i>
   <i type="int" name="NELMHF">     1</i>
   <i type="int" name="DIM">     3</i>
   <i type="int" name="IESPILON">     4</i>
   <i type="int" name="ANTIRES">     0</i>
   <i name="OMEGAMAX">    -30.00000000</i>
   <i name="OMEGAMIN">    -30.00000000</i>
   <i name="OMEGATL">   -200.00000000</i>
   <i type="int" name="OMEGAGRID">     0</i>
   <i name="CSHIFT">     -0.10000000</i>
   <i type="logical" name="LSELFENERGY"> F  </i>
   <i type="logical" name="LSPECTRAL"> F  </i>
   <i type="logical" name="LSPECTRALGW"> F  </i>
   <i type="logical" name="LSINGLES"> F  </i>
   <i type="logical" name="LFERMIGW"> F  </i>
   <i type="logical" name="ODDONLYGW"> F  </i>
   <i type="logical" name="EVENONLYGW"> F  </i>
   <i type="int" name="NKREDLFX">     1</i>
   <i type="int" name="NKREDLFY">     1</i>
   <i type="int" name="NKREDLFZ">     1</i>
   <i type="int" name="MAXMEM">  2800</i>
   <i type="int" name="TELESCOPE">     0</i>
   <i type="int" name="NTAUPAR">    -1</i>
   <i type="int" name="NOMEGAPAR">    -1</i>
   <i name="DAMP_NEWTON">      0.80000001</i>
   <i name="LAMBDA">      1.00000000</i>
  </separator>
  <separator name="External order field" >
   <i name="OFIELD_KAPPA">      0.00000000</i>
   <v name="OFIELD_K">      0.00000000      0.00000000      0.00000000</v>
   <i name="OFIELD_Q6_NEAR">      0.00000000</i>
   <i name="OFIELD_Q6_FAR">      0.00000000</i>
   <i name="OFIELD_A">      0.00000000</i>
  </separator>
  <separator name="optional k-points parameters" >
   <i type="int" name="KPOINTS_OPT_MODE">     1</i>
   <i type="logical" name="LKPOINTS_OPT"> F  </i>
  </separator>
 </parameters>
 <atominfo>
  <atoms>      92 </atoms>
  <types>       1 </types>
  <array name="atoms" >
   <dimension dim="1">ion</dimension>
   <field type="string">element</field>
   <field type="int">atomtype</field>
   <set>
    <rc><c>C </c><c>   1</c></rc>
    <rc><c>C </c><c>   1</c></rc>
    <rc><c>C </c><c>   1</c></rc>
    <rc><c>C </c><c>   1</c></rc>
    <rc><c>C </c><c>   1</c></rc>
    <rc><c>C </c><c>   1</c></rc>
    <rc><c>C </c><c>   1</c></rc>
    <rc><c>C </c><c>   1</c></rc>
    <rc><c>C </c><c>   1</c></rc>
    <rc><c>C </c><c>   1</c></rc>
    <rc><c>C </c><c>   1</c></rc>
    <rc><c>C </c><c>   1</c></rc>
    <rc><c>C </c><c>   1</c></rc>
    <rc><c>C </c><c>   1</c></rc>
    <rc><c>C </c><c>   1</c></rc>
    <rc><c>C </c><c>   1</c></rc>
    <rc><c>C </c><c>   1</c></rc>
    <rc><c>C </c><c>   1</c></rc>
    <rc><c>C </c><c>   1</c></rc>
    <rc><c>C </c><c>   1</c></rc>
    <rc><c>C </c><c>   1</c></rc>
    <rc><c>C </c><c>   1</c></rc>
    <rc><c>C </c><c>   1</c></rc>
    <rc><c>C </c><c>   1</c></rc>
    <rc><c>C </c><c>   1</c></rc>
    <rc><c>C </c><c>   1</c></rc>
    <rc><c>C </c><c>   1</c></rc>
    <rc><c>C </c><c>   1</c></rc>
    <rc><c>C </c><c>   1</c></rc>
    <rc><c>C </c><c>   1</c></rc>
    <rc><c>C </c><c>   1</c></rc>
    <rc><c>C </c><c>   1</c></rc>
    <rc><c>C </c><c>   1</c></rc>
    <rc><c>C </c><c>   1</c></rc>
    <rc><c>C </c><c>   1</c></rc>
    <rc><c>C </c><c>   1</c></rc>
    <rc><c>C </c><c>   1</c></rc>
    <rc><c>C </c><c>   1</c></rc>
    <rc><c>C </c><c>   1</c></rc>
    <rc><c>C </c><c>   1</c></rc>
    <rc><c>C </c><c>   1</c></rc>
    <rc><c>C </c><c>   1</c></rc>
    <rc><c>C </c><c>   1</c></rc>
    <rc><c>C </c><c>   1</c></rc>
    <rc><c>C </c><c>   1</c></rc>
    <rc><c>C </c><c>   1</c></rc>
    <rc><c>C </c><c>   1</c></rc>
    <rc><c>C </c><c>   1</c></rc>
    <rc><c>C </c><c>   1</c></rc>
    <rc><c>C </c><c>   1</c></rc>
    <rc><c>C </c><c>   1</c></rc>
    <rc><c>C </c><c>   1</c></rc>
    <rc><c>C </c><c>   1</c></rc>
    <rc><c>C </c><c>   1</c></rc>
    <rc><c>C </c><c>   1</c></rc>
    <rc><c>C </c><c>   1</c></rc>
    <rc><c>C </c><c>   1</c></rc>
    <rc><c>C </c><c>   1</c></rc>
    <rc><c>C </c><c>   1</c></rc>
    <rc><c>C </c><c>   1</c></rc>
    <rc><c>C </c><c>   1</c></rc>
    <rc><c>C </c><c>   1</c></rc>
    <rc><c>C </c><c>   1</c></rc>
    <rc><c>C </c><c>   1</c></rc>
    <rc><c>C </c><c>   1</c></rc>
    <rc><c>C </c><c>   1</c></rc>
    <rc><c>C </c><c>   1</c></rc>
    <rc><c>C </c><c>   1</c></rc>
    <rc><c>C </c><c>   1</c></rc>
    <rc><c>C </c><c>   1</c></rc>
    <rc><c>C </c><c>   1</c></rc>
    <rc><c>C </c><c>   1</c></rc>
    <rc><c>C </c><c>   1</c></rc>
    <rc><c>C </c><c>   1</c></rc>
    <rc><c>C </c><c>   1</c></rc>
    <rc><c>C </c><c>   1</c></rc>
    <rc><c>C </c><c>   1</c></rc>
    <rc><c>C </c><c>   1</c></rc>
    <rc><c>C </c><c>   1</c></rc>
    <rc><c>C </c><c>   1</c></rc>
    <rc><c>C </c><c>   1</c></rc>
    <rc><c>C </c><c>   1</c></rc>
    <rc><c>C </c><c>   1</c></rc>
    <rc><c>C </c><c>   1</c></rc>
    <rc><c>C </c><c>   1</c></rc>
    <rc><c>C </c><c>   1</c></rc>
    <rc><c>C </c><c>   1</c></rc>
    <rc><c>C </c><c>   1</c></rc>
    <rc><c>C </c><c>   1</c></rc>
    <rc><c>C </c><c>   1</c></rc>
    <rc><c>C </c><c>   1</c></rc>
    <rc><c>C </c><c>   1</c></rc>
   </set>
  </array>
  <array name="atomtypes" >
   <dimension dim="1">type</dimension>
   <field type="int">atomspertype</field>
   <field type="string">element</field>
   <field>mass</field>
   <field>valence</field>
   <field type="string">pseudopotential</field>
   <set>
    <rc><c>  92</c><c>C </c><c>     12.01100000</c><c>      4.00000000</c><c>  PAW_PBE C 08Apr2002                   </c></rc>
   </set>
  </array>
 </atominfo>
 <structure name="initialpos" >
  <crystal>
   <varray name="basis" >
    <v>      28.05000000       0.00000000       0.00000000 </v>
    <v>       0.00000000       8.10000000       0.00000000 </v>
    <v>       0.00000000       0.00000000      33.50000000 </v>
   </varray>
   <i name="volume">   7611.36750000 </i>
   <varray name="rec_basis" >
    <v>       0.03565062       0.00000000       0.00000000 </v>
    <v>       0.00000000       0.12345679       0.00000000 </v>
    <v>       0.00000000       0.00000000       0.02985075 </v>
   </varray>
  </crystal>
  <varray name="positions" >
   <v>       0.33186774       0.13148025       0.97432836 </v>
   <v>       0.33159964       0.30397654       0.97522388 </v>
   <v>       0.37444207       0.04812469       0.98000000 </v>
   <v>       0.37357219       0.38525802       0.98268657 </v>
   <v>       0.41531551       0.13203580       0.99641791 </v>
   <v>       0.41426738       0.30128642       0.99850746 </v>
   <v>       0.45825312       0.04913877       0.00567164 </v>
   <v>       0.45620677       0.38524938       0.00955224 </v>
   <v>       0.49925134       0.12703951       0.02208955 </v>
   <v>       0.49800713       0.29833951       0.02328358 </v>
   <v>       0.54300178       0.04577519       0.02925373 </v>
   <v>       0.54311230       0.37403210       0.02776119 </v>
   <v>       0.58694474       0.12398148       0.03731343 </v>
   <v>       0.58708734       0.29287407       0.03611940 </v>
   <v>       0.63330125       0.04676494       0.03731343 </v>
   <v>       0.63355437       0.37353951       0.03850746 </v>
   <v>       0.67756863       0.12531235       0.03820896 </v>
   <v>       0.67835294       0.29315802       0.03880597 </v>
   <v>       0.72237433       0.04441444       0.02985075 </v>
   <v>       0.72252763       0.37420123       0.03283582 </v>
   <v>       0.76542246       0.12760494       0.02298507 </v>
   <v>       0.76756506       0.29542593       0.02597015 </v>
   <v>       0.80780036       0.04528136       0.01044776 </v>
   <v>       0.80934759       0.37355185       0.01432836 </v>
   <v>       0.85076649       0.12424198       0.00149254 </v>
   <v>       0.85180036       0.29133333       0.00328358 </v>
   <v>       0.89182531       0.04043617       0.98537313 </v>
   <v>       0.89363280       0.37412346       0.98865672 </v>
   <v>       0.93488057       0.12205901       0.97462687 </v>
   <v>       0.93537255       0.29243457       0.97582090 </v>
   <v>       0.97612478       0.04324370       0.95850746 </v>
   <v>       0.97708734       0.37714815       0.96537313 </v>
   <v>       0.02019900       0.12260185       0.95402985 </v>
   <v>       0.02061522       0.29606049       0.95791045 </v>
   <v>       0.06367914       0.04135741       0.94716418 </v>
   <v>       0.06421640       0.37588765       0.95014925 </v>
   <v>       0.10823030       0.12403333       0.94656716 </v>
   <v>       0.10875971       0.29351852       0.94865672 </v>
   <v>       0.15228057       0.04518543       0.94179104 </v>
   <v>       0.15234510       0.37922099       0.94537313 </v>
   <v>       0.19688663       0.12751235       0.94656716 </v>
   <v>       0.19621640       0.30057160       0.94955224 </v>
   <v>       0.24132799       0.04362642       0.94835821 </v>
   <v>       0.24121283       0.38539753       0.95432836 </v>
   <v>       0.28190410       0.12784568       0.96208955 </v>
   <v>       0.28201212       0.30120741       0.96358209 </v>
   <v>       0.33794225       0.63258148       0.95761194 </v>
   <v>       0.33827772       0.80144568       0.95522388 </v>
   <v>       0.37787166       0.54847654       0.97253731 </v>
   <v>       0.37820321       0.88543457       0.96985075 </v>
   <v>       0.42133690       0.62964321       0.98149254 </v>
   <v>       0.42169697       0.80241975       0.98029851 </v>
   <v>       0.46024599       0.54932222       0.00029851 </v>
   <v>       0.46226738       0.88342716       0.99611940 </v>
   <v>       0.50263458       0.63116667       0.01074627 </v>
   <v>       0.50288057       0.80077407       0.00925373 </v>
   <v>       0.54465241       0.54316420       0.02298507 </v>
   <v>       0.54504456       0.87795185       0.02298507 </v>
   <v>       0.59018538       0.62554691       0.02597015 </v>
   <v>       0.58984670       0.79491852       0.02776119 </v>
   <v>       0.63376471       0.54130370       0.03134328 </v>
   <v>       0.63346168       0.87807778       0.03313433 </v>
   <v>       0.67772906       0.62590864       0.03014925 </v>
   <v>       0.67758289       0.79632346       0.03104478 </v>
   <v>       0.72212478       0.54329753       0.02865672 </v>
   <v>       0.72076649       0.87562469       0.02597015 </v>
   <v>       0.76399287       0.62177654       0.01611940 </v>
   <v>       0.76326560       0.79378272       0.01432836 </v>
   <v>       0.80845276       0.54218642       0.00895522 </v>
   <v>       0.80574688       0.87596914       0.00388060 </v>
   <v>       0.84859180       0.62529136       0.99373134 </v>
   <v>       0.84681640       0.79362346       0.98895522 </v>
   <v>       0.89181105       0.54206420       0.98238806 </v>
   <v>       0.88894474       0.87641728       0.97701493 </v>
   <v>       0.93216756       0.62540247       0.96686567 </v>
   <v>       0.93127986       0.79606173       0.96298507 </v>
   <v>       0.97618538       0.54512593       0.95970149 </v>
   <v>       0.97415330       0.87565309       0.95283582 </v>
   <v>       0.01887198       0.62266543       0.94746269 </v>
   <v>       0.01752724       0.79238148       0.94388060 </v>
   <v>       0.06361105       0.54740617       0.94447761 </v>
   <v>       0.06216898       0.87547160       0.94029851 </v>
   <v>       0.10722353       0.62751728       0.93611940 </v>
   <v>       0.10722781       0.79713210       0.93462687 </v>
   <v>       0.15226988       0.54782099       0.93880597 </v>
   <v>       0.15229198       0.87803827       0.93552239 </v>
   <v>       0.19742282       0.62602099       0.93701493 </v>
   <v>       0.19688948       0.79502469       0.93492537 </v>
   <v>       0.24253119       0.54678272       0.94388060 </v>
   <v>       0.24153868       0.87830370       0.94149254 </v>
   <v>       0.28601355       0.62967407       0.94597015 </v>
   <v>       0.28602175       0.80114074       0.94477612 </v>
  </varray>
 </structure>
 <calculation>
  <scstep>
   <time name="dav">   10.97   10.97</time>
   <time name="total">   11.43   11.46</time>
   <energy>
    <i name="alphaZ">     91.34886789 </i>
    <i name="ewald"> 119422.16293049 </i>
    <i name="hartreedc">-128752.55079428 </i>
    <i name="XCdc">   1221.26286205 </i>
    <i name="pawpsdc">   9984.02826696 </i>
    <i name="pawaedc"> -10036.41360137 </i>
    <i name="eentropy">     -0.83267630 </i>
    <i name="bandstr">  -1731.71389478 </i>
    <i name="atom">  13537.65479391 </i>
    <i name="e_fr_energy">   3734.94675457 </i>
    <i name="e_wo_entrp">   3735.77943087 </i>
    <i name="e_0_energy">   3735.36309272 </i>
   </energy>
  </scstep>
  <scstep>
   <time name="dav">   13.10   13.11</time>
   <time name="total">   13.10   13.11</time>
   <energy>
    <i name="e_fr_energy">    180.90026540 </i>
    <i name="e_wo_entrp">    181.11725602 </i>
    <i name="e_0_energy">    181.00876071 </i>
   </energy>
  </scstep>
  <scstep>
   <time name="dav">   11.37   11.38</time>
   <time name="total">   11.37   11.38</time>
   <energy>
    <i name="e_fr_energy">   -837.62690970 </i>
    <i name="e_wo_entrp">   -837.58359001 </i>
    <i name="e_0_energy">   -837.60524986 </i>
   </energy>
  </scstep>
  <scstep>
   <time name="dav">   10.87   10.87</time>
   <time name="total">   10.87   10.87</time>
   <energy>
    <i name="e_fr_energy">   -898.82521588 </i>
    <i name="e_wo_entrp">   -898.76616000 </i>
    <i name="e_0_energy">   -898.79568794 </i>
   </energy>
  </scstep>
  <scstep>
   <time name="dav">   11.38   11.38</time>
   <time name="total">   12.86   12.87</time>
   <energy>
    <i name="e_fr_energy">   -900.29775674 </i>
    <i name="e_wo_entrp">   -900.23855714 </i>
    <i name="e_0_energy">   -900.26815694 </i>
   </energy>
  </scstep>
  <scstep>
   <time name="dav">   10.27   10.28</time>
   <time name="total">   12.07   12.08</time>
   <energy>
    <i name="e_fr_energy">   -851.15567579 </i>
    <i name="e_wo_entrp">   -851.08839113 </i>
    <i name="e_0_energy">   -851.12203346 </i>
   </energy>
  </scstep>
  <scstep>
   <time name="dav">   10.15   10.15</time>
   <time name="total">   11.94   11.95</time>
   <energy>
    <i name="e_fr_energy">   -832.73213250 </i>
    <i name="e_wo_entrp">   -832.65454496 </i>
    <i name="e_0_energy">   -832.69333873 </i>
   </energy>
  </scstep>
  <scstep>
   <time name="dav">   10.31   10.32</time>
   <time name="total">   12.12   12.12</time>
   <energy>
    <i name="e_fr_energy">   -832.43243494 </i>
    <i name="e_wo_entrp">   -832.36010302 </i>
    <i name="e_0_energy">   -832.39626898 </i>
   </energy>
  </scstep>
  <scstep>
   <time name="dav">   10.51   10.51</time>
   <time name="total">   12.31   12.32</time>
   <energy>
    <i name="e_fr_energy">   -832.33409890 </i>
    <i name="e_wo_entrp">   -832.26013243 </i>
    <i name="e_0_energy">   -832.29711567 </i>
   </energy>
  </scstep>
  <scstep>
   <time name="dav">   11.04   11.04</time>
   <time name="total">   12.85   12.86</time>
   <energy>
    <i name="e_fr_energy">   -832.28925381 </i>
    <i name="e_wo_entrp">   -832.21512528 </i>
    <i name="e_0_energy">   -832.25218955 </i>
   </energy>
  </scstep>
  <scstep>
   <time name="dav">   10.01   10.02</time>
   <time name="total">   11.84   11.85</time>
   <energy>
    <i name="e_fr_energy">   -832.26263575 </i>
    <i name="e_wo_entrp">   -832.18859652 </i>
    <i name="e_0_energy">   -832.22561613 </i>
   </energy>
  </scstep>
  <scstep>
   <time name="dav">    9.73    9.73</time>
   <time name="total">   11.56   11.56</time>
   <energy>
    <i name="e_fr_energy">   -832.26371000 </i>
    <i name="e_wo_entrp">   -832.18956454 </i>
    <i name="e_0_energy">   -832.22663727 </i>
   </energy>
  </scstep>
  <scstep>
   <time name="dav">    9.89    9.89</time>
   <time name="total">   11.72   11.73</time>
   <energy>
    <i name="e_fr_energy">   -832.27630303 </i>
    <i name="e_wo_entrp">   -832.20228851 </i>
    <i name="e_0_energy">   -832.23929577 </i>
   </energy>
  </scstep>
  <scstep>
   <time name="dav">    9.99   10.00</time>
   <time name="total">   11.83   11.84</time>
   <energy>
    <i name="e_fr_energy">   -832.29532439 </i>
    <i name="e_wo_entrp">   -832.22123169 </i>
    <i name="e_0_energy">   -832.25827804 </i>
   </energy>
  </scstep>
  <scstep>
   <time name="dav">    9.96    9.96</time>
   <time name="total">   11.81   11.81</time>
   <energy>
    <i name="e_fr_energy">   -832.31475464 </i>
    <i name="e_wo_entrp">   -832.24060913 </i>
    <i name="e_0_energy">   -832.27768188 </i>
   </energy>
  </scstep>
  <scstep>
   <time name="dav">   10.15   10.16</time>
   <time name="total">   12.03   12.04</time>
   <energy>
    <i name="e_fr_energy">   -832.32272146 </i>
    <i name="e_wo_entrp">   -832.24862236 </i>
    <i name="e_0_energy">   -832.28567191 </i>
   </energy>
  </scstep>
  <scstep>
   <time name="dav">    9.91    9.91</time>
   <time name="total">   11.78   11.78</time>
   <energy>
    <i name="e_fr_energy">   -832.32676043 </i>
    <i name="e_wo_entrp">   -832.25266001 </i>
    <i name="e_0_energy">   -832.28971022 </i>
   </energy>
  </scstep>
  <scstep>
   <time name="dav">   10.04   10.05</time>
   <time name="total">   11.93   11.93</time>
   <energy>
    <i name="e_fr_energy">   -832.32881259 </i>
    <i name="e_wo_entrp">   -832.25470661 </i>
    <i name="e_0_energy">   -832.29175960 </i>
   </energy>
  </scstep>
  <scstep>
   <time name="dav">    9.08    9.09</time>
   <time name="total">   10.98   10.98</time>
   <energy>
    <i name="e_fr_energy">   -832.32954609 </i>
    <i name="e_wo_entrp">   -832.25544134 </i>
    <i name="e_0_energy">   -832.29249371 </i>
   </energy>
  </scstep>
  <scstep>
   <time name="dav">    8.79    8.79</time>
   <time name="total">   10.69   10.70</time>
   <energy>
    <i name="e_fr_energy">   -832.32988337 </i>
    <i name="e_wo_entrp">   -832.25577689 </i>
    <i name="e_0_energy">   -832.29283013 </i>
   </energy>
  </scstep>
  <scstep>
   <time name="dav">    8.21    8.22</time>
   <time name="total">   10.14   10.15</time>
   <energy>
    <i name="e_fr_energy">   -832.33004050 </i>
    <i name="e_wo_entrp">   -832.25593423 </i>
    <i name="e_0_energy">   -832.29298736 </i>
   </energy>
  </scstep>
  <scstep>
   <time name="dav">    7.44    7.44</time>
   <time name="total">    9.37    9.38</time>
   <energy>
    <i name="e_fr_energy">   -832.33009595 </i>
    <i name="e_wo_entrp">   -832.25598938 </i>
    <i name="e_0_energy">   -832.29304267 </i>
   </energy>
  </scstep>
  <scstep>
   <time name="dav">    6.94    6.94</time>
   <time name="total">    8.89    8.89</time>
   <energy>
    <i name="e_fr_energy">   -832.33012246 </i>
    <i name="e_wo_entrp">   -832.25601606 </i>
    <i name="e_0_energy">   -832.29306926 </i>
   </energy>
  </scstep>
  <scstep>
   <time name="dav">    7.07    7.08</time>
   <time name="total">    9.03    9.04</time>
   <energy>
    <i name="e_fr_energy">   -832.33013051 </i>
    <i name="e_wo_entrp">   -832.25602424 </i>
    <i name="e_0_energy">   -832.29307738 </i>
   </energy>
  </scstep>
  <scstep>
   <time name="dav">    6.79    6.79</time>
   <time name="total">    8.77    8.77</time>
   <energy>
    <i name="e_fr_energy">   -832.33013538 </i>
    <i name="e_wo_entrp">   -832.25602917 </i>
    <i name="e_0_energy">   -832.29308228 </i>
   </energy>
  </scstep>
  <scstep>
   <time name="dav">    6.91    6.92</time>
   <time name="total">    8.92    8.92</time>
   <energy>
    <i name="e_fr_energy">   -832.33013757 </i>
    <i name="e_wo_entrp">   -832.25603133 </i>
    <i name="e_0_energy">   -832.29308445 </i>
   </energy>
  </scstep>
  <scstep>
   <time name="dav">    7.07    7.07</time>
   <time name="total">    9.08    9.08</time>
   <energy>
    <i name="e_fr_energy">   -832.33013981 </i>
    <i name="e_wo_entrp">   -832.25603351 </i>
    <i name="e_0_energy">   -832.29308666 </i>
   </energy>
  </scstep>
  <scstep>
   <time name="dav">    6.88    6.88</time>
   <time name="total">    7.24    7.24</time>
   <energy>
    <i name="alphaZ">     91.34886789 </i>
    <i name="ewald"> 119422.16293049 </i>
    <i name="hartreedc">-130510.75786480 </i>
    <i name="XCdc">   1278.54844129 </i>
    <i name="pawpsdc">  41008.29085283 </i>
    <i name="pawaedc"> -41072.31394879 </i>
    <i name="eentropy">     -0.07410627 </i>
    <i name="bandstr">  -4587.19010724 </i>
    <i name="atom">  13537.65479391 </i>
    <i name="e_fr_energy">   -832.33014069 </i>
    <i name="e_wo_entrp">   -832.25603442 </i>
    <i name="e_0_energy">   -832.29308756 </i>
   </energy>
  </scstep>
  <structure>
   <crystal>
    <varray name="basis" >
     <v>      28.05000000       0.00000000       0.00000000 </v>
     <v>       0.00000000       8.10000000       0.00000000 </v>
     <v>       0.00000000       0.00000000      33.50000000 </v>
    </varray>
    <i name="volume">   7611.36750000 </i>
    <varray name="rec_basis" >
     <v>       0.03565062       0.00000000       0.00000000 </v>
     <v>       0.00000000       0.12345679       0.00000000 </v>
     <v>       0.00000000       0.00000000       0.02985075 </v>
    </varray>
   </crystal>
   <varray name="positions" >
    <v>       0.33186774       0.13148025       0.97432836 </v>
    <v>       0.33159964       0.30397654       0.97522388 </v>
    <v>       0.37444207       0.04812469       0.98000000 </v>
    <v>       0.37357219       0.38525802       0.98268657 </v>
    <v>       0.41531551       0.13203580       0.99641791 </v>
    <v>       0.41426738       0.30128642       0.99850746 </v>
    <v>       0.45825312       0.04913877       0.00567164 </v>
    <v>       0.45620677       0.38524938       0.00955224 </v>
    <v>       0.49925134       0.12703951       0.02208955 </v>
    <v>       0.49800713       0.29833951       0.02328358 </v>
    <v>       0.54300178       0.04577519       0.02925373 </v>
    <v>       0.54311230       0.37403210       0.02776119 </v>
    <v>       0.58694474       0.12398148       0.03731343 </v>
    <v>       0.58708734       0.29287407       0.03611940 </v>
    <v>       0.63330125       0.04676494       0.03731343 </v>
    <v>       0.63355437       0.37353951       0.03850746 </v>
    <v>       0.67756863       0.12531235       0.03820896 </v>
    <v>       0.67835294       0.29315802       0.03880597 </v>
    <v>       0.72237433       0.04441444       0.02985075 </v>
    <v>       0.72252763       0.37420123       0.03283582 </v>
    <v>       0.76542246       0.12760494       0.02298507 </v>
    <v>       0.76756506       0.29542593       0.02597015 </v>
    <v>       0.80780036       0.04528136       0.01044776 </v>
    <v>       0.80934759       0.37355185       0.01432836 </v>
    <v>       0.85076649       0.12424198       0.00149254 </v>
    <v>       0.85180036       0.29133333       0.00328358 </v>
    <v>       0.89182531       0.04043617       0.98537313 </v>
    <v>       0.89363280       0.37412346       0.98865672 </v>
    <v>       0.93488057       0.12205901       0.97462687 </v>
    <v>       0.93537255       0.29243457       0.97582090 </v>
    <v>       0.97612478       0.04324370       0.95850746 </v>
    <v>       0.97708734       0.37714815       0.96537313 </v>
    <v>       0.02019900       0.12260185       0.95402985 </v>
    <v>       0.02061522       0.29606049       0.95791045 </v>
    <v>       0.06367914       0.04135741       0.94716418 </v>
    <v>       0.06421640       0.37588765       0.95014925 </v>
    <v>       0.10823030       0.12403333       0.94656716 </v>
    <v>       0.10875971       0.29351852       0.94865672 </v>
    <v>       0.15228057       0.04518543       0.94179104 </v>
    <v>       0.15234510       0.37922099       0.94537313 </v>
    <v>       0.19688663       0.12751235       0.94656716 </v>
    <v>       0.19621640       0.30057160       0.94955224 </v>
    <v>       0.24132799       0.04362642       0.94835821 </v>
    <v>       0.24121283       0.38539753       0.95432836 </v>
    <v>       0.28190410       0.12784568       0.96208955 </v>
    <v>       0.28201212       0.30120741       0.96358209 </v>
    <v>       0.33794225       0.63258148       0.95761194 </v>
    <v>       0.33827772       0.80144568       0.95522388 </v>
    <v>       0.37787166       0.54847654       0.97253731 </v>
    <v>       0.37820321       0.88543457       0.96985075 </v>
    <v>       0.42133690       0.62964321       0.98149254 </v>
    <v>       0.42169697       0.80241975       0.98029851 </v>
    <v>       0.46024599       0.54932222       0.00029851 </v>
    <v>       0.46226738       0.88342716       0.99611940 </v>
    <v>       0.50263458       0.63116667       0.01074627 </v>
    <v>       0.50288057       0.80077407       0.00925373 </v>
    <v>       0.54465241       0.54316420       0.02298507 </v>
    <v>       0.54504456       0.87795185       0.02298507 </v>
    <v>       0.59018538       0.62554691       0.02597015 </v>
    <v>       0.58984670       0.79491852       0.02776119 </v>
    <v>       0.63376471       0.54130370       0.03134328 </v>
    <v>       0.63346168       0.87807778       0.03313433 </v>
    <v>       0.67772906       0.62590864       0.03014925 </v>
    <v>       0.67758289       0.79632346       0.03104478 </v>
    <v>       0.72212478       0.54329753       0.02865672 </v>
    <v>       0.72076649       0.87562469       0.02597015 </v>
    <v>       0.76399287       0.62177654       0.01611940 </v>
    <v>       0.76326560       0.79378272       0.01432836 </v>
    <v>       0.80845276       0.54218642       0.00895522 </v>
    <v>       0.80574688       0.87596914       0.00388060 </v>
    <v>       0.84859180       0.62529136       0.99373134 </v>
    <v>       0.84681640       0.79362346       0.98895522 </v>
    <v>       0.89181105       0.54206420       0.98238806 </v>
    <v>       0.88894474       0.87641728       0.97701493 </v>
    <v>       0.93216756       0.62540247       0.96686567 </v>
    <v>       0.93127986       0.79606173       0.96298507 </v>
    <v>       0.97618538       0.54512593       0.95970149 </v>
    <v>       0.97415330       0.87565309       0.95283582 </v>
    <v>       0.01887198       0.62266543       0.94746269 </v>
    <v>       0.01752724       0.79238148       0.94388060 </v>
    <v>       0.06361105       0.54740617       0.94447761 </v>
    <v>       0.06216898       0.87547160       0.94029851 </v>
    <v>       0.10722353       0.62751728       0.93611940 </v>
    <v>       0.10722781       0.79713210       0.93462687 </v>
    <v>       0.15226988       0.54782099       0.93880597 </v>
    <v>       0.15229198       0.87803827       0.93552239 </v>
    <v>       0.19742282       0.62602099       0.93701493 </v>
    <v>       0.19688948       0.79502469       0.93492537 </v>
    <v>       0.24253119       0.54678272       0.94388060 </v>
    <v>       0.24153868       0.87830370       0.94149254 </v>
    <v>       0.28601355       0.62967407       0.94597015 </v>
    <v>       0.28602175       0.80114074       0.94477612 </v>
   </varray>
  </structure>
  <varray name="forces" >
   <v>       1.69078791       0.13188842       0.49348428 </v>
   <v>       1.25228376      -1.22866465       0.70391062 </v>
   <v>       0.10680697       1.21080299       0.36431831 </v>
   <v>       0.07306537      -0.40100989       0.30103129 </v>
   <v>      -0.46562279      -0.56586975      -0.13919462 </v>
   <v>      -0.40945983       0.25091123      -0.09487184 </v>
   <v>       0.45252722      -0.11163633       0.03543739 </v>
   <v>       0.95236436      -1.28927973       0.13494934 </v>
   <v>      -0.82066816       0.51496747      -0.16665134 </v>
   <v>       0.03440301      -0.04004481      -0.37461955 </v>
   <v>       0.44361056      -0.57999267      -0.06289182 </v>
   <v>       0.17099843       1.04161976       0.54918841 </v>
   <v>       0.93270665       0.40145302      -0.10840282 </v>
   <v>       1.02030451       0.65569370       0.33001553 </v>
   <v>      -1.39109933      -0.62890113       0.29704279 </v>
   <v>      -1.29734449       0.23939996      -0.83272815 </v>
   <v>       1.24360608      -0.50493628      -0.36221057 </v>
   <v>      -0.11970757       0.61279930       0.24256700 </v>
   <v>      -1.28804613       0.22332370       0.30966957 </v>
   <v>       0.60018033       0.43262066       0.08463264 </v>
   <v>       1.00171800      -1.06918953       0.14763822 </v>
   <v>      -1.81868800      -0.06758543       0.21893866 </v>
   <v>      -0.67653881      -0.91104475      -0.21103995 </v>
   <v>       1.04176699       0.82885107      -0.16848320 </v>
   <v>       1.07275010      -0.99412928      -0.41364093 </v>
   <v>       0.74074114       1.21870010      -0.12389521 </v>
   <v>      -0.11914885       1.23518161      -0.26700913 </v>
   <v>      -0.53406147      -0.05836650      -0.06589805 </v>
   <v>       0.01237414       0.21161193      -0.34849945 </v>
   <v>      -0.34430439      -0.29699149       0.93518181 </v>
   <v>      -0.54954393       0.11078392       0.57244163 </v>
   <v>       0.60997534      -0.23605241      -0.34891470 </v>
   <v>      -0.04864604       1.74981114       0.55541001 </v>
   <v>       0.21926150      -1.43822880      -0.26535443 </v>
   <v>      -0.08637386       0.77027553      -0.35360302 </v>
   <v>       0.33015418       0.97563421       0.27238961 </v>
   <v>      -0.11514686       0.10344409       0.10478668 </v>
   <v>      -0.70198301       0.49288319      -0.25632318 </v>
   <v>       0.73223344       0.27653922       0.16333359 </v>
   <v>      -0.31826083       0.22043440       0.18903196 </v>
   <v>      -0.28903439       1.11097282       0.22631724 </v>
   <v>       1.32107013      -1.48503532       0.23741029 </v>
   <v>       0.09773645       1.85697277       0.89202370 </v>
   <v>      -1.11795323      -1.56207753      -0.42826700 </v>
   <v>      -1.61549822       0.63832093      -0.62870566 </v>
   <v>      -1.82922375      -1.06752763      -0.15389943 </v>
   <v>       0.88483195      -0.60523380      -0.28036057 </v>
   <v>       0.84772451       0.33345053       0.29878752 </v>
   <v>      -0.45577195       0.88585018      -0.12371088 </v>
   <v>       0.24929261      -1.01260335      -0.14170472 </v>
   <v>      -0.36319720       0.91990761       0.16686029 </v>
   <v>      -0.38680720      -0.72918436      -0.43631337 </v>
   <v>      -0.10313208       0.37332019      -0.03471061 </v>
   <v>      -1.03827339       0.39385868       0.38962073 </v>
   <v>       0.61175402      -1.01202999      -0.07257327 </v>
   <v>       1.21768766      -0.57718286       0.00572513 </v>
   <v>       0.52292239       1.15405992      -0.49995530 </v>
   <v>       0.20849174      -0.00819709      -0.11563003 </v>
   <v>      -1.15223807      -0.80671431       0.30816628 </v>
   <v>      -0.76895607       0.39230214      -0.27160633 </v>
   <v>      -0.02056440       0.31571843       0.36384146 </v>
   <v>      -0.18100941      -0.18649495      -0.02796695 </v>
   <v>      -0.01322026      -0.12681176       0.18648749 </v>
   <v>      -0.71961852      -1.03746992      -0.40034508 </v>
   <v>      -0.50858770      -0.25411628      -0.47973251 </v>
   <v>       1.40962066       0.54690633      -0.33142011 </v>
   <v>       0.88213957       1.09443006       0.22454839 </v>
   <v>      -0.03470332      -0.68169129       0.05509472 </v>
   <v>      -0.88352822       0.29211929       0.02829990 </v>
   <v>       0.02065339       0.39158184      -0.02734306 </v>
   <v>       0.64629840      -0.63739676      -0.79853440 </v>
   <v>      -0.11609600       0.14175253       0.46132810 </v>
   <v>      -0.71405257       0.56212943       0.57773861 </v>
   <v>       0.37647385      -0.69506803      -0.02799165 </v>
   <v>       0.23944752       0.26572861      -0.19489904 </v>
   <v>      -0.92006193      -0.73926545       0.28962997 </v>
   <v>      -0.30069795      -0.29726345      -0.01508384 </v>
   <v>       0.34382948      -0.28970988      -0.04233091 </v>
   <v>      -0.43030028       0.98434503      -0.01436389 </v>
   <v>       0.21119867       0.36835982       0.08590221 </v>
   <v>       0.18400504      -1.80009741      -0.15010649 </v>
   <v>       0.37725968      -0.49073085      -0.28383687 </v>
   <v>       0.53398010      -0.16573500       0.37774316 </v>
   <v>      -0.14766701       0.01928485       0.03360084 </v>
   <v>      -0.19185324      -0.64853950      -0.10457211 </v>
   <v>      -0.26330113      -0.45293107      -0.22562301 </v>
   <v>       0.22863926       0.19634082      -0.21327463 </v>
   <v>       0.77561395       0.52494422       0.18228377 </v>
   <v>      -0.07121933       1.33058701       0.22771439 </v>
   <v>       0.69976110      -0.74719460      -0.40827722 </v>
   <v>      -0.68078532       0.65179839      -0.23606187 </v>
   <v>      -1.20305563      -1.11644721      -0.49109079 </v>
  </varray>
  <varray name="stress" >
   <v>      -4.20288302       0.38229926      -0.03950680 </v>
   <v>       0.38229926      52.06038078       0.06090275 </v>
   <v>      -0.03950680       0.06090274      -0.59867410 </v>
  </varray>
  <energy>
   <i name="e_fr_energy">   -832.33014069 </i>
   <i name="e_wo_entrp">   -832.25603442 </i>
   <i name="e_0_energy">   -832.29308756 </i>
  </energy>
  <time name="totalsc">  320.05  320.24</time>
  <eigenvalues>
   <array>
    <dimension dim="1">band</dimension>
    <dimension dim="2">kpoint</dimension>
    <dimension dim="3">spin</dimension>
    <field>eigene</field>
    <field>occ</field>
    <set>
     <set comment="spin 1">
      <set comment="kpoint 1">
       <r>  -23.1364    1.0000 </r>
       <r>  -23.0405    1.0000 </r>
       <r>  -22.9735    1.0000 </r>
       <r>  -22.6500    1.0000 </r>
       <r>  -22.5964    1.0000 </r>
       <r>  -22.2739    1.0000 </r>
       <r>  -22.0508    1.0000 </r>
       <r>  -21.9340    1.0000 </r>
       <r>  -21.4919    1.0000 </r>
       <r>  -21.4683    1.0000 </r>
       <r>  -21.3600    1.0000 </r>
       <r>  -21.3523    1.0000 </r>
       <r>  -21.2475    1.0000 </r>
       <r>  -21.1705    1.0000 </r>
       <r>  -21.1416    1.0000 </r>
       <r>  -21.0770    1.0000 </r>
       <r>  -21.0110    1.0000 </r>
       <r>  -20.9675    1.0000 </r>
       <r>  -20.7647    1.0000 </r>
       <r>  -20.5543    1.0000 </r>
       <r>  -20.3660    1.0000 </r>
       <r>  -20.3171    1.0000 </r>
       <r>  -20.1330    1.0000 </r>
       <r>  -20.0904    1.0000 </r>
       <r>  -19.9949    1.0000 </r>
       <r>  -19.6906    1.0000 </r>
       <r>  -19.5499    1.0000 </r>
       <r>  -19.4777    1.0000 </r>
       <r>  -19.2057    1.0000 </r>
       <r>  -18.9297    1.0000 </r>
       <r>  -18.7111    1.0000 </r>
       <r>  -18.6252    1.0000 </r>
       <r>  -18.5687    1.0000 </r>
       <r>  -18.4180    1.0000 </r>
       <r>  -18.1921    1.0000 </r>
       <r>  -17.6540    1.0000 </r>
       <r>  -17.3736    1.0000 </r>
       <r>  -17.2029    1.0000 </r>
       <r>  -17.0014    1.0000 </r>
       <r>  -16.9085    1.0000 </r>
       <r>  -16.8492    1.0000 </r>
       <r>  -16.6827    1.0000 </r>
       <r>  -16.6652    1.0000 </r>
       <r>  -16.6059    1.0000 </r>
       <r>  -16.5512    1.0000 </r>
       <r>  -16.5295    1.0000 </r>
       <r>  -16.5132    1.0000 </r>
       <r>  -16.4548    1.0000 </r>
       <r>  -16.3537    1.0000 </r>
       <r>  -16.3340    1.0000 </r>
       <r>  -16.2920    1.0000 </r>
       <r>  -16.1197    1.0000 </r>
       <r>  -16.1015    1.0000 </r>
       <r>  -16.0243    1.0000 </r>
       <r>  -15.9247    1.0000 </r>
       <r>  -15.6443    1.0000 </r>
       <r>  -15.4542    1.0000 </r>
       <r>  -15.3534    1.0000 </r>
       <r>  -15.3140    1.0000 </r>
       <r>  -15.2639    1.0000 </r>
       <r>  -15.1398    1.0000 </r>
       <r>  -14.9766    1.0000 </r>
       <r>  -14.3918    1.0000 </r>
       <r>  -14.1600    1.0000 </r>
       <r>  -14.1064    1.0000 </r>
       <r>  -14.0758    1.0000 </r>
       <r>  -13.9134    1.0000 </r>
       <r>  -13.7981    1.0000 </r>
       <r>  -13.6885    1.0000 </r>
       <r>  -13.6435    1.0000 </r>
       <r>  -13.4872    1.0000 </r>
       <r>  -13.4322    1.0000 </r>
       <r>  -13.3026    1.0000 </r>
       <r>  -13.2092    1.0000 </r>
       <r>  -13.0181    1.0000 </r>
       <r>  -12.9460    1.0000 </r>
       <r>  -12.6475    1.0000 </r>
       <r>  -12.4724    1.0000 </r>
       <r>  -12.1976    1.0000 </r>
       <r>  -12.1035    1.0000 </r>
       <r>  -12.0537    1.0000 </r>
       <r>  -12.0431    1.0000 </r>
       <r>  -11.8801    1.0000 </r>
       <r>  -11.8553    1.0000 </r>
       <r>  -11.7420    1.0000 </r>
       <r>  -11.5639    1.0000 </r>
       <r>  -11.3416    1.0000 </r>
       <r>  -11.1858    1.0000 </r>
       <r>  -11.1046    1.0000 </r>
       <r>  -11.0443    1.0000 </r>
       <r>  -10.9784    1.0000 </r>
       <r>  -10.8752    1.0000 </r>
       <r>  -10.7689    1.0000 </r>
       <r>  -10.7283    1.0000 </r>
       <r>  -10.6983    1.0000 </r>
       <r>  -10.6366    1.0000 </r>
       <r>  -10.6205    1.0000 </r>
       <r>  -10.5238    1.0000 </r>
       <r>  -10.4897    1.0000 </r>
       <r>  -10.4089    1.0000 </r>
       <r>  -10.3858    1.0000 </r>
       <r>  -10.2853    1.0000 </r>
       <r>  -10.2539    1.0000 </r>
       <r>  -10.2052    1.0000 </r>
       <r>  -10.0357    1.0000 </r>
       <r>   -9.9887    1.0000 </r>
       <r>   -9.8456    1.0000 </r>
       <r>   -9.7879    1.0000 </r>
       <r>   -9.6946    1.0000 </r>
       <r>   -9.6650    1.0000 </r>
       <r>   -9.6133    1.0000 </r>
       <r>   -9.5780    1.0000 </r>
       <r>   -9.5478    1.0000 </r>
       <r>   -9.5334    1.0000 </r>
       <r>   -9.5050    1.0000 </r>
       <r>   -9.4754    1.0000 </r>
       <r>   -9.4628    1.0000 </r>
       <r>   -9.4441    1.0000 </r>
       <r>   -9.4259    1.0000 </r>
       <r>   -9.3953    1.0000 </r>
       <r>   -9.3743    1.0000 </r>
       <r>   -9.3593    1.0000 </r>
       <r>   -9.3454    1.0000 </r>
       <r>   -9.3169    1.0000 </r>
       <r>   -9.2699    1.0000 </r>
       <r>   -9.2508    1.0000 </r>
       <r>   -9.2169    1.0000 </r>
       <r>   -9.2044    1.0000 </r>
       <r>   -9.1394    1.0000 </r>
       <r>   -9.1257    1.0000 </r>
       <r>   -9.0753    1.0000 </r>
       <r>   -9.0397    1.0000 </r>
       <r>   -9.0159    1.0000 </r>
       <r>   -9.0063    1.0000 </r>
       <r>   -8.9497    1.0000 </r>
       <r>   -8.9433    1.0000 </r>
       <r>   -8.8801    1.0000 </r>
       <r>   -8.8665    1.0000 </r>
       <r>   -8.7931    1.0000 </r>
       <r>   -8.7370    1.0000 </r>
       <r>   -8.6864    1.0000 </r>
       <r>   -8.6379    1.0000 </r>
       <r>   -8.6112    1.0000 </r>
       <r>   -8.5802    1.0000 </r>
       <r>   -8.4899    1.0000 </r>
       <r>   -8.3884    1.0000 </r>
       <r>   -8.0704    1.0000 </r>
       <r>   -7.9781    1.0000 </r>
       <r>   -7.9086    1.0000 </r>
       <r>   -7.7799    1.0000 </r>
       <r>   -7.7148    1.0000 </r>
       <r>   -7.7065    1.0000 </r>
       <r>   -7.6682    1.0000 </r>
       <r>   -7.5224    1.0000 </r>
       <r>   -7.5026    1.0000 </r>
       <r>   -7.3996    1.0000 </r>
       <r>   -7.3728    1.0000 </r>
       <r>   -7.1272    1.0000 </r>
       <r>   -7.0906    1.0000 </r>
       <r>   -6.9520    1.0000 </r>
       <r>   -6.8065    1.0000 </r>
       <r>   -6.7802    1.0000 </r>
       <r>   -6.6906    1.0000 </r>
       <r>   -6.6295    1.0000 </r>
       <r>   -6.5119    1.0000 </r>
       <r>   -6.2449    1.0000 </r>
       <r>   -6.2257    1.0000 </r>
       <r>   -6.1040    1.0000 </r>
       <r>   -6.0025    1.0000 </r>
       <r>   -5.9490    1.0000 </r>
       <r>   -5.9412    1.0000 </r>
       <r>   -5.9295    1.0000 </r>
       <r>   -5.8959    1.0000 </r>
       <r>   -5.0901    1.0000 </r>
       <r>   -4.9503    1.0000 </r>
       <r>   -4.8769    1.0000 </r>
       <r>   -4.7464    1.0000 </r>
       <r>   -4.4966    1.0000 </r>
       <r>   -4.4842    1.0000 </r>
       <r>   -4.4437    1.0000 </r>
       <r>   -4.4131    1.0000 </r>
       <r>   -3.7042    1.0000 </r>
       <r>   -3.6979    0.9999 </r>
       <r>   -3.1757    0.5770 </r>
       <r>   -3.0727    0.2968 </r>
       <r>   -2.6895    0.0006 </r>
       <r>   -2.6313    0.0001 </r>
       <r>   -2.4076    0.0000 </r>
       <r>   -2.1950    0.0000 </r>
       <r>   -2.0825    0.0000 </r>
       <r>   -1.6828    0.0000 </r>
       <r>   -1.5915    0.0000 </r>
       <r>   -1.4854    0.0000 </r>
       <r>   -1.4711    0.0000 </r>
       <r>   -1.4100    0.0000 </r>
       <r>   -1.3812    0.0000 </r>
       <r>   -1.2860    0.0000 </r>
       <r>   -1.0842    0.0000 </r>
       <r>   -0.7901    0.0000 </r>
       <r>   -0.6694    0.0000 </r>
       <r>   -0.4768    0.0000 </r>
       <r>   -0.4140    0.0000 </r>
       <r>   -0.0549    0.0000 </r>
       <r>    0.0490    0.0000 </r>
       <r>    0.1226    0.0000 </r>
       <r>    0.1439    0.0000 </r>
       <r>    0.3440    0.0000 </r>
       <r>    0.6402    0.0000 </r>
       <r>    0.6470    0.0000 </r>
       <r>    0.7081    0.0000 </r>
       <r>    0.7565    0.0000 </r>
       <r>    0.8900    0.0000 </r>
       <r>    0.9167    0.0000 </r>
       <r>    0.9252    0.0000 </r>
       <r>    0.9751    0.0000 </r>
       <r>    0.9858    0.0000 </r>
       <r>    1.0492    0.0000 </r>
       <r>    1.1483    0.0000 </r>
       <r>    1.1556    0.0000 </r>
       <r>    1.2195    0.0000 </r>
       <r>    1.3017    0.0000 </r>
       <r>    1.3037    0.0000 </r>
       <r>    1.3235    0.0000 </r>
       <r>    1.4069    0.0000 </r>
       <r>    1.4676    0.0000 </r>
       <r>    1.5520    0.0000 </r>
       <r>    1.5690    0.0000 </r>
       <r>    1.7278    0.0000 </r>
       <r>    1.7288    0.0000 </r>
       <r>    1.7368    0.0000 </r>
       <r>    1.7435    0.0000 </r>
       <r>    1.8865    0.0000 </r>
      </set>
      <set comment="kpoint 2">
       <r>  -23.0441    1.0000 </r>
       <r>  -22.9482    1.0000 </r>
       <r>  -22.8723    1.0000 </r>
       <r>  -22.5639    1.0000 </r>
       <r>  -22.4967    1.0000 </r>
       <r>  -22.4386    1.0000 </r>
       <r>  -22.1732    1.0000 </r>
       <r>  -22.0640    1.0000 </r>
       <r>  -21.9567    1.0000 </r>
       <r>  -21.8405    1.0000 </r>
       <r>  -21.8068    1.0000 </r>
       <r>  -21.6878    1.0000 </r>
       <r>  -21.2637    1.0000 </r>
       <r>  -21.1093    1.0000 </r>
       <r>  -21.0248    1.0000 </r>
       <r>  -20.9763    1.0000 </r>
       <r>  -20.6076    1.0000 </r>
       <r>  -20.5202    1.0000 </r>
       <r>  -20.4612    1.0000 </r>
       <r>  -20.2800    1.0000 </r>
       <r>  -20.1931    1.0000 </r>
       <r>  -20.1062    1.0000 </r>
       <r>  -20.0490    1.0000 </r>
       <r>  -19.9012    1.0000 </r>
       <r>  -19.8570    1.0000 </r>
       <r>  -19.5348    1.0000 </r>
       <r>  -19.4656    1.0000 </r>
       <r>  -19.1359    1.0000 </r>
       <r>  -19.0426    1.0000 </r>
       <r>  -18.8950    1.0000 </r>
       <r>  -18.6730    1.0000 </r>
       <r>  -18.5720    1.0000 </r>
       <r>  -18.5405    1.0000 </r>
       <r>  -18.2503    1.0000 </r>
       <r>  -18.1470    1.0000 </r>
       <r>  -18.0815    1.0000 </r>
       <r>  -18.0357    1.0000 </r>
       <r>  -18.0171    1.0000 </r>
       <r>  -17.8174    1.0000 </r>
       <r>  -17.7446    1.0000 </r>
       <r>  -17.4706    1.0000 </r>
       <r>  -17.4220    1.0000 </r>
       <r>  -17.2698    1.0000 </r>
       <r>  -17.1734    1.0000 </r>
       <r>  -17.0291    1.0000 </r>
       <r>  -16.5849    1.0000 </r>
       <r>  -16.4035    1.0000 </r>
       <r>  -16.1798    1.0000 </r>
       <r>  -16.1010    1.0000 </r>
       <r>  -15.8678    1.0000 </r>
       <r>  -15.8242    1.0000 </r>
       <r>  -15.6556    1.0000 </r>
       <r>  -15.5833    1.0000 </r>
       <r>  -15.3386    1.0000 </r>
       <r>  -15.2702    1.0000 </r>
       <r>  -15.1968    1.0000 </r>
       <r>  -15.1313    1.0000 </r>
       <r>  -15.1037    1.0000 </r>
       <r>  -14.9969    1.0000 </r>
       <r>  -14.9364    1.0000 </r>
       <r>  -14.9180    1.0000 </r>
       <r>  -14.7861    1.0000 </r>
       <r>  -14.5672    1.0000 </r>
       <r>  -14.4117    1.0000 </r>
       <r>  -14.3415    1.0000 </r>
       <r>  -14.1586    1.0000 </r>
       <r>  -13.9749    1.0000 </r>
       <r>  -13.8688    1.0000 </r>
       <r>  -13.3409    1.0000 </r>
       <r>  -13.2424    1.0000 </r>
       <r>  -13.1930    1.0000 </r>
       <r>  -13.1763    1.0000 </r>
       <r>  -12.9420    1.0000 </r>
       <r>  -12.8349    1.0000 </r>
       <r>  -12.8069    1.0000 </r>
       <r>  -12.7809    1.0000 </r>
       <r>  -12.6785    1.0000 </r>
       <r>  -12.5581    1.0000 </r>
       <r>  -12.3627    1.0000 </r>
       <r>  -12.3333    1.0000 </r>
       <r>  -12.1513    1.0000 </r>
       <r>  -12.0849    1.0000 </r>
       <r>  -11.9704    1.0000 </r>
       <r>  -11.9283    1.0000 </r>
       <r>  -11.7522    1.0000 </r>
       <r>  -11.6458    1.0000 </r>
       <r>  -11.5100    1.0000 </r>
       <r>  -11.3685    1.0000 </r>
       <r>  -11.2511    1.0000 </r>
       <r>  -11.2095    1.0000 </r>
       <r>  -11.0338    1.0000 </r>
       <r>  -11.0098    1.0000 </r>
       <r>  -10.9925    1.0000 </r>
       <r>  -10.9655    1.0000 </r>
       <r>  -10.9139    1.0000 </r>
       <r>  -10.8537    1.0000 </r>
       <r>  -10.8434    1.0000 </r>
       <r>  -10.7945    1.0000 </r>
       <r>  -10.7699    1.0000 </r>
       <r>  -10.6202    1.0000 </r>
       <r>  -10.5737    1.0000 </r>
       <r>  -10.5339    1.0000 </r>
       <r>  -10.4799    1.0000 </r>
       <r>  -10.3955    1.0000 </r>
       <r>  -10.3801    1.0000 </r>
       <r>  -10.3579    1.0000 </r>
       <r>  -10.2537    1.0000 </r>
       <r>  -10.0765    1.0000 </r>
       <r>  -10.0521    1.0000 </r>
       <r>  -10.0125    1.0000 </r>
       <r>   -9.9989    1.0000 </r>
       <r>   -9.9403    1.0000 </r>
       <r>   -9.8906    1.0000 </r>
       <r>   -9.7723    1.0000 </r>
       <r>   -9.7355    1.0000 </r>
       <r>   -9.6982    1.0000 </r>
       <r>   -9.6500    1.0000 </r>
       <r>   -9.6323    1.0000 </r>
       <r>   -9.5982    1.0000 </r>
       <r>   -9.5594    1.0000 </r>
       <r>   -9.4814    1.0000 </r>
       <r>   -9.4635    1.0000 </r>
       <r>   -9.4328    1.0000 </r>
       <r>   -9.3749    1.0000 </r>
       <r>   -9.3094    1.0000 </r>
       <r>   -9.2058    1.0000 </r>
       <r>   -8.9937    1.0000 </r>
       <r>   -8.8747    1.0000 </r>
       <r>   -8.8525    1.0000 </r>
       <r>   -8.7928    1.0000 </r>
       <r>   -8.7317    1.0000 </r>
       <r>   -8.6983    1.0000 </r>
       <r>   -8.6781    1.0000 </r>
       <r>   -8.6262    1.0000 </r>
       <r>   -8.5509    1.0000 </r>
       <r>   -8.5247    1.0000 </r>
       <r>   -8.4923    1.0000 </r>
       <r>   -8.4073    1.0000 </r>
       <r>   -8.3472    1.0000 </r>
       <r>   -8.2760    1.0000 </r>
       <r>   -8.2371    1.0000 </r>
       <r>   -8.2033    1.0000 </r>
       <r>   -8.1683    1.0000 </r>
       <r>   -8.1048    1.0000 </r>
       <r>   -8.0551    1.0000 </r>
       <r>   -8.0135    1.0000 </r>
       <r>   -7.9995    1.0000 </r>
       <r>   -7.9257    1.0000 </r>
       <r>   -7.7818    1.0000 </r>
       <r>   -7.7428    1.0000 </r>
       <r>   -7.6646    1.0000 </r>
       <r>   -7.5834    1.0000 </r>
       <r>   -7.5215    1.0000 </r>
       <r>   -7.4743    1.0000 </r>
       <r>   -7.3454    1.0000 </r>
       <r>   -7.3076    1.0000 </r>
       <r>   -7.2637    1.0000 </r>
       <r>   -7.0738    1.0000 </r>
       <r>   -6.9788    1.0000 </r>
       <r>   -6.9387    1.0000 </r>
       <r>   -6.8987    1.0000 </r>
       <r>   -6.7138    1.0000 </r>
       <r>   -6.6440    1.0000 </r>
       <r>   -6.6133    1.0000 </r>
       <r>   -6.5090    1.0000 </r>
       <r>   -6.2524    1.0000 </r>
       <r>   -6.2209    1.0000 </r>
       <r>   -6.1103    1.0000 </r>
       <r>   -6.1024    1.0000 </r>
       <r>   -6.0102    1.0000 </r>
       <r>   -5.9373    1.0000 </r>
       <r>   -5.8049    1.0000 </r>
       <r>   -5.7368    1.0000 </r>
       <r>   -5.7072    1.0000 </r>
       <r>   -5.5867    1.0000 </r>
       <r>   -5.4957    1.0000 </r>
       <r>   -5.1735    1.0000 </r>
       <r>   -5.1280    1.0000 </r>
       <r>   -4.7402    1.0000 </r>
       <r>   -4.6828    1.0000 </r>
       <r>   -4.5602    1.0000 </r>
       <r>   -4.5126    1.0000 </r>
       <r>   -4.4225    1.0000 </r>
       <r>   -3.4963    0.9931 </r>
       <r>   -2.9388    0.0694 </r>
       <r>   -2.4520    0.0000 </r>
       <r>   -2.1144    0.0000 </r>
       <r>   -2.0167    0.0000 </r>
       <r>   -1.5662    0.0000 </r>
       <r>   -1.4706    0.0000 </r>
       <r>   -1.4179    0.0000 </r>
       <r>   -1.3641    0.0000 </r>
       <r>   -1.2917    0.0000 </r>
       <r>   -1.2737    0.0000 </r>
       <r>   -1.0671    0.0000 </r>
       <r>   -1.0444    0.0000 </r>
       <r>   -0.9248    0.0000 </r>
       <r>   -0.8493    0.0000 </r>
       <r>   -0.7288    0.0000 </r>
       <r>   -0.4732    0.0000 </r>
       <r>   -0.1474    0.0000 </r>
       <r>   -0.1054    0.0000 </r>
       <r>   -0.0369    0.0000 </r>
       <r>    0.0809    0.0000 </r>
       <r>    0.1111    0.0000 </r>
       <r>    0.2143    0.0000 </r>
       <r>    0.2620    0.0000 </r>
       <r>    0.3022    0.0000 </r>
       <r>    0.3218    0.0000 </r>
       <r>    0.7834    0.0000 </r>
       <r>    0.7960    0.0000 </r>
       <r>    0.8499    0.0000 </r>
       <r>    1.0575    0.0000 </r>
       <r>    1.0648    0.0000 </r>
       <r>    1.1261    0.0000 </r>
       <r>    1.1293    0.0000 </r>
       <r>    1.1831    0.0000 </r>
       <r>    1.2391    0.0000 </r>
       <r>    1.2916    0.0000 </r>
       <r>    1.2987    0.0000 </r>
       <r>    1.3619    0.0000 </r>
       <r>    1.3972    0.0000 </r>
       <r>    1.4181    0.0000 </r>
       <r>    1.4430    0.0000 </r>
       <r>    1.4478    0.0000 </r>
       <r>    1.4655    0.0000 </r>
       <r>    1.5493    0.0000 </r>
       <r>    1.6085    0.0000 </r>
       <r>    1.6246    0.0000 </r>
       <r>    1.6901    0.0000 </r>
       <r>    1.7069    0.0000 </r>
       <r>    1.7483    0.0000 </r>
      </set>
      <set comment="kpoint 3">
       <r>  -22.8250    1.0000 </r>
       <r>  -22.7506    1.0000 </r>
       <r>  -22.6857    1.0000 </r>
       <r>  -22.6352    1.0000 </r>
       <r>  -22.5889    1.0000 </r>
       <r>  -22.5442    1.0000 </r>
       <r>  -22.3032    1.0000 </r>
       <r>  -22.2442    1.0000 </r>
       <r>  -22.1999    1.0000 </r>
       <r>  -22.1807    1.0000 </r>
       <r>  -21.7067    1.0000 </r>
       <r>  -21.6762    1.0000 </r>
       <r>  -21.5381    1.0000 </r>
       <r>  -21.5184    1.0000 </r>
       <r>  -20.8826    1.0000 </r>
       <r>  -20.8290    1.0000 </r>
       <r>  -20.6987    1.0000 </r>
       <r>  -20.6600    1.0000 </r>
       <r>  -19.8906    1.0000 </r>
       <r>  -19.8821    1.0000 </r>
       <r>  -19.6281    1.0000 </r>
       <r>  -19.5904    1.0000 </r>
       <r>  -19.5256    1.0000 </r>
       <r>  -19.4804    1.0000 </r>
       <r>  -19.3963    1.0000 </r>
       <r>  -19.3694    1.0000 </r>
       <r>  -19.2672    1.0000 </r>
       <r>  -19.2356    1.0000 </r>
       <r>  -19.0538    1.0000 </r>
       <r>  -19.0326    1.0000 </r>
       <r>  -18.9615    1.0000 </r>
       <r>  -18.9311    1.0000 </r>
       <r>  -18.6110    1.0000 </r>
       <r>  -18.5916    1.0000 </r>
       <r>  -18.4566    1.0000 </r>
       <r>  -18.4270    1.0000 </r>
       <r>  -18.3057    1.0000 </r>
       <r>  -18.2952    1.0000 </r>
       <r>  -18.1505    1.0000 </r>
       <r>  -18.0924    1.0000 </r>
       <r>  -17.7519    1.0000 </r>
       <r>  -17.6851    1.0000 </r>
       <r>  -17.6571    1.0000 </r>
       <r>  -17.6385    1.0000 </r>
       <r>  -16.9797    1.0000 </r>
       <r>  -16.8712    1.0000 </r>
       <r>  -16.2948    1.0000 </r>
       <r>  -16.2322    1.0000 </r>
       <r>  -16.0622    1.0000 </r>
       <r>  -16.0329    1.0000 </r>
       <r>  -15.9359    1.0000 </r>
       <r>  -15.8683    1.0000 </r>
       <r>  -15.3313    1.0000 </r>
       <r>  -15.2398    1.0000 </r>
       <r>  -15.1161    1.0000 </r>
       <r>  -15.0689    1.0000 </r>
       <r>  -14.8735    1.0000 </r>
       <r>  -14.8467    1.0000 </r>
       <r>  -14.7519    1.0000 </r>
       <r>  -14.6625    1.0000 </r>
       <r>  -14.0132    1.0000 </r>
       <r>  -13.9617    1.0000 </r>
       <r>  -13.7534    1.0000 </r>
       <r>  -13.7030    1.0000 </r>
       <r>  -13.6888    1.0000 </r>
       <r>  -13.6498    1.0000 </r>
       <r>  -13.6228    1.0000 </r>
       <r>  -13.5858    1.0000 </r>
       <r>  -13.5550    1.0000 </r>
       <r>  -13.5295    1.0000 </r>
       <r>  -13.4774    1.0000 </r>
       <r>  -13.4731    1.0000 </r>
       <r>  -13.4447    1.0000 </r>
       <r>  -13.3813    1.0000 </r>
       <r>  -13.2225    1.0000 </r>
       <r>  -13.0488    1.0000 </r>
       <r>  -12.3464    1.0000 </r>
       <r>  -12.3264    1.0000 </r>
       <r>  -12.1703    1.0000 </r>
       <r>  -12.1388    1.0000 </r>
       <r>  -12.1048    1.0000 </r>
       <r>  -12.0601    1.0000 </r>
       <r>  -11.9773    1.0000 </r>
       <r>  -11.9671    1.0000 </r>
       <r>  -11.8638    1.0000 </r>
       <r>  -11.8311    1.0000 </r>
       <r>  -11.8079    1.0000 </r>
       <r>  -11.7633    1.0000 </r>
       <r>  -11.6633    1.0000 </r>
       <r>  -11.6253    1.0000 </r>
       <r>  -11.2954    1.0000 </r>
       <r>  -11.2492    1.0000 </r>
       <r>  -11.1994    1.0000 </r>
       <r>  -11.1690    1.0000 </r>
       <r>  -11.0663    1.0000 </r>
       <r>  -10.9878    1.0000 </r>
       <r>  -10.7639    1.0000 </r>
       <r>  -10.7084    1.0000 </r>
       <r>  -10.6576    1.0000 </r>
       <r>  -10.6433    1.0000 </r>
       <r>  -10.5913    1.0000 </r>
       <r>  -10.5394    1.0000 </r>
       <r>  -10.5047    1.0000 </r>
       <r>  -10.4984    1.0000 </r>
       <r>  -10.4764    1.0000 </r>
       <r>  -10.4539    1.0000 </r>
       <r>  -10.3448    1.0000 </r>
       <r>  -10.3060    1.0000 </r>
       <r>  -10.2714    1.0000 </r>
       <r>  -10.2474    1.0000 </r>
       <r>  -10.2283    1.0000 </r>
       <r>  -10.1857    1.0000 </r>
       <r>  -10.1475    1.0000 </r>
       <r>  -10.1327    1.0000 </r>
       <r>  -10.0535    1.0000 </r>
       <r>  -10.0330    1.0000 </r>
       <r>  -10.0249    1.0000 </r>
       <r>   -9.9959    1.0000 </r>
       <r>   -9.7503    1.0000 </r>
       <r>   -9.6908    1.0000 </r>
       <r>   -9.3710    1.0000 </r>
       <r>   -9.3332    1.0000 </r>
       <r>   -9.3170    1.0000 </r>
[...]
       <r>   -22.6211    15.5110     7.4292 </r>
       <r>   -22.5243    16.6023     9.0353 </r>
       <r>   -22.4276    15.5634    10.5410 </r>
       <r>   -22.3309    13.8668    11.8825 </r>
       <r>   -22.2341    13.5694    13.1952 </r>
       <r>   -22.1374    14.1954    14.5685 </r>
       <r>   -22.0406    14.3731    15.9590 </r>
       <r>   -21.9439    14.1285    17.3258 </r>
       <r>   -21.8471    13.9825    18.6785 </r>
       <r>   -21.7504    13.7225    20.0061 </r>
       <r>   -21.6537    12.9299    21.2570 </r>
       <r>   -21.5569    11.8819    22.4065 </r>
       <r>   -21.4602    11.2651    23.4963 </r>
       <r>   -21.3634    11.4859    24.6075 </r>
       <r>   -21.2667    12.7138    25.8374 </r>
       <r>   -21.1699    14.7665    27.2660 </r>
       <r>   -21.0732    16.6310    28.8749 </r>
       <r>   -20.9765    16.7266    30.4931 </r>
       <r>   -20.8797    14.6572    31.9111 </r>
       <r>   -20.7830    12.2983    33.1009 </r>
       <r>   -20.6862    11.6813    34.2309 </r>
       <r>   -20.5895    12.5826    35.4482 </r>
       <r>   -20.4927    13.3140    36.7363 </r>
       <r>   -20.3960    13.2116    38.0144 </r>
       <r>   -20.2993    13.2756    39.2987 </r>
       <r>   -20.2025    14.3320    40.6852 </r>
       <r>   -20.1058    15.7522    42.2091 </r>
       <r>   -20.0090    16.3442    43.7903 </r>
       <r>   -19.9123    15.5741    45.2970 </r>
       <r>   -19.8155    13.7182    46.6241 </r>
       <r>   -19.7188    12.2676    47.8110 </r>
       <r>   -19.6221    13.1906    49.0871 </r>
       <r>   -19.5253    15.7095    50.6068 </r>
       <r>   -19.4286    16.5733    52.2102 </r>
       <r>   -19.3318    14.8867    53.6504 </r>
       <r>   -19.2351    13.1950    54.9269 </r>
       <r>   -19.1383    13.3960    56.2228 </r>
       <r>   -19.0416    14.5771    57.6331 </r>
       <r>   -18.9449    14.7380    59.0589 </r>
       <r>   -18.8481    13.4948    60.3644 </r>
       <r>   -18.7514    13.0405    61.6260 </r>
       <r>   -18.6546    15.0517    63.0821 </r>
       <r>   -18.5579    17.4365    64.7690 </r>
       <r>   -18.4611    17.3563    66.4481 </r>
       <r>   -18.3644    15.7702    67.9737 </r>
       <r>   -18.2677    15.5639    69.4794 </r>
       <r>   -18.1709    17.0946    71.1332 </r>
       <r>   -18.0742    17.8857    72.8635 </r>
       <r>   -17.9774    16.1443    74.4254 </r>
       <r>   -17.8807    13.5402    75.7353 </r>
       <r>   -17.7839    12.7298    76.9668 </r>
       <r>   -17.6872    13.1488    78.2388 </r>
       <r>   -17.5905    12.7405    79.4714 </r>
       <r>   -17.4937    11.7312    80.6063 </r>
       <r>   -17.3970    11.2983    81.6993 </r>
       <r>   -17.3002    11.3190    82.7944 </r>
       <r>   -17.2035    11.3128    83.8888 </r>
       <r>   -17.1067    11.2864    84.9807 </r>
       <r>   -17.0100    11.2582    86.0698 </r>
       <r>   -16.9133    10.8350    87.1181 </r>
       <r>   -16.8165    10.0311    88.0885 </r>
       <r>   -16.7198    10.1568    89.0711 </r>
       <r>   -16.6230    12.0857    90.2403 </r>
       <r>   -16.5263    14.5003    91.6431 </r>
       <r>   -16.4295    15.7946    93.1711 </r>
       <r>   -16.3328    16.1702    94.7355 </r>
       <r>   -16.2361    16.6339    96.3447 </r>
       <r>   -16.1393    17.4256    98.0305 </r>
       <r>   -16.0426    17.8078    99.7533 </r>
       <r>   -15.9458    17.1333   101.4108 </r>
       <r>   -15.8491    15.5334   102.9135 </r>
       <r>   -15.7523    13.5141   104.2209 </r>
       <r>   -15.6556    11.8195   105.3644 </r>
       <r>   -15.5589    11.0325   106.4317 </r>
       <r>   -15.4621    11.8416   107.5773 </r>
       <r>   -15.3654    15.0880   109.0369 </r>
       <r>   -15.2686    19.6892   110.9417 </r>
       <r>   -15.1719    22.9548   113.1624 </r>
       <r>   -15.0751    23.6414   115.4496 </r>
       <r>   -14.9784    22.3847   117.6151 </r>
       <r>   -14.8817    19.8457   119.5351 </r>
       <r>   -14.7849    16.2444   121.1066 </r>
       <r>   -14.6882    12.4305   122.3092 </r>
       <r>   -14.5914     9.8312   123.2603 </r>
       <r>   -14.4947     9.1243   124.1430 </r>
       <r>   -14.3979     9.6299   125.0746 </r>
       <r>   -14.3012    10.2352   126.0648 </r>
       <r>   -14.2045    10.9353   127.1227 </r>
       <r>   -14.1077    12.3386   128.3164 </r>
       <r>   -14.0110    13.9870   129.6695 </r>
       <r>   -13.9142    14.9853   131.1192 </r>
       <r>   -13.8175    15.5394   132.6226 </r>
       <r>   -13.7207    16.6151   134.2299 </r>
       <r>   -13.6240    18.2542   135.9959 </r>
       <r>   -13.5273    19.4830   137.8807 </r>
       <r>   -13.4305    19.9012   139.8061 </r>
       <r>   -13.3338    19.9674   141.7378 </r>
       <r>   -13.2370    19.6685   143.6405 </r>
       <r>   -13.1403    18.1638   145.3978 </r>
       <r>   -13.0435    15.8577   146.9319 </r>
       <r>   -12.9468    14.7001   148.3540 </r>
       <r>   -12.8501    15.0994   149.8148 </r>
       <r>   -12.7533    15.2919   151.2942 </r>
       <r>   -12.6566    14.1088   152.6591 </r>
       <r>   -12.5598    12.4717   153.8656 </r>
       <r>   -12.4631    12.1007   155.0363 </r>
       <r>   -12.3663    13.6490   156.3567 </r>
       <r>   -12.2696    16.5562   157.9584 </r>
       <r>   -12.1729    20.3122   159.9235 </r>
       <r>   -12.0761    24.0243   162.2477 </r>
       <r>   -11.9794    25.8910   164.7524 </r>
       <r>   -11.8826    25.2507   167.1952 </r>
       <r>   -11.7859    23.0539   169.4255 </r>
       <r>   -11.6891    20.1427   171.3742 </r>
       <r>   -11.5924    16.9251   173.0116 </r>
       <r>   -11.4957    14.3691   174.4017 </r>
       <r>   -11.3989    14.1105   175.7668 </r>
       <r>   -11.3022    16.7796   177.3901 </r>
       <r>   -11.2054    20.9969   179.4214 </r>
       <r>   -11.1087    25.3075   181.8697 </r>
       <r>   -11.0119    29.3185   184.7061 </r>
       <r>   -10.9152    32.2515   187.8262 </r>
       <r>   -10.8185    33.5811   191.0749 </r>
       <r>   -10.7217    34.4424   194.4070 </r>
       <r>   -10.6250    36.1631   197.9055 </r>
       <r>   -10.5282    38.3630   201.6168 </r>
       <r>   -10.4315    39.2713   205.4160 </r>
       <r>   -10.3347    37.9171   209.0843 </r>
       <r>   -10.2380    35.3662   212.5057 </r>
       <r>   -10.1413    33.7279   215.7686 </r>
       <r>   -10.0445    33.4959   219.0091 </r>
       <r>    -9.9478    32.6222   222.1651 </r>
       <r>    -9.8510    30.9314   225.1575 </r>
       <r>    -9.7543    31.7026   228.2245 </r>
       <r>    -9.6575    35.9215   231.6996 </r>
       <r>    -9.5608    40.8343   235.6500 </r>
       <r>    -9.4641    44.1790   239.9240 </r>
       <r>    -9.3673    44.7821   244.2564 </r>
       <r>    -9.2706    41.5107   248.2723 </r>
       <r>    -9.1738    35.3331   251.6905 </r>
       <r>    -9.0771    30.1787   254.6101 </r>
       <r>    -8.9803    29.2102   257.4359 </r>
       <r>    -8.8836    31.7925   260.5116 </r>
       <r>    -8.7869    35.1882   263.9158 </r>
       <r>    -8.6901    36.8869   267.4844 </r>
       <r>    -8.5934    35.7876   270.9466 </r>
       <r>    -8.4966    33.1444   274.1531 </r>
       <r>    -8.3999    31.3128   277.1824 </r>
       <r>    -8.3031    31.1531   280.1962 </r>
       <r>    -8.2064    31.3966   283.2336 </r>
       <r>    -8.1097    30.4584   286.1802 </r>
       <r>    -8.0129    28.1472   288.9033 </r>
       <r>    -7.9162    25.8487   291.4040 </r>
       <r>    -7.8194    25.8321   293.9030 </r>
       <r>    -7.7227    28.5495   296.6650 </r>
       <r>    -7.6259    31.0003   299.6640 </r>
       <r>    -7.5292    30.5786   302.6223 </r>
       <r>    -7.4325    28.4689   305.3765 </r>
       <r>    -7.3357    27.2060   308.0085 </r>
       <r>    -7.2390    27.2205   310.6419 </r>
       <r>    -7.1422    27.4305   313.2956 </r>
       <r>    -7.0455    27.2069   315.9276 </r>
       <r>    -6.9487    26.4444   318.4859 </r>
       <r>    -6.8520    25.5001   320.9529 </r>
       <r>    -6.7553    25.1819   323.3891 </r>
       <r>    -6.6585    25.0265   325.8102 </r>
       <r>    -6.5618    23.0552   328.0406 </r>
       <r>    -6.4650    19.4814   329.9253 </r>
       <r>    -6.3683    17.4521   331.6137 </r>
       <r>    -6.2715    18.4689   333.4004 </r>
       <r>    -6.1748    20.9485   335.4270 </r>
       <r>    -6.0781    23.5079   337.7012 </r>
       <r>    -5.9813    25.7207   340.1895 </r>
       <r>    -5.8846    26.3772   342.7413 </r>
       <r>    -5.7878    24.6932   345.1302 </r>
       <r>    -5.6911    21.6548   347.2252 </r>
       <r>    -5.5943    18.0507   348.9715 </r>
       <r>    -5.4976    13.8879   350.3150 </r>
       <r>    -5.4009    10.3454   351.3159 </r>
       <r>    -5.3041     9.5798   352.2426 </r>
       <r>    -5.2074    11.4432   353.3497 </r>
       <r>    -5.1106    12.6264   354.5712 </r>
       <r>    -5.0139    11.1194   355.6469 </r>
       <r>    -4.9171     8.9493   356.5127 </r>
       <r>    -4.8204     8.7572   357.3599 </r>
       <r>    -4.7237    10.6376   358.3890 </r>
       <r>    -4.6269    13.2363   359.6695 </r>
       <r>    -4.5302    15.2874   361.1485 </r>
       <r>    -4.4334    15.1807   362.6171 </r>
       <r>    -4.3367    11.9860   363.7766 </r>
       <r>    -4.2399     7.4621   364.4985 </r>
       <r>    -4.1432     4.1644   364.9014 </r>
       <r>    -4.0465     2.6652   365.1593 </r>
       <r>    -3.9497     2.1643   365.3686 </r>
       <r>    -3.8530     2.2216   365.5836 </r>
       <r>    -3.7562     2.9065   365.8647 </r>
       <r>    -3.6595     3.8497   366.2372 </r>
       <r>    -3.5627     4.3354   366.6566 </r>
       <r>    -3.4660     4.0465   367.0481 </r>
       <r>    -3.3693     3.2138   367.3590 </r>
       <r>    -3.2725     2.6360   367.6140 </r>
       <r>    -3.1758     2.9757   367.9019 </r>
       <r>    -3.0790     3.9106   368.2802 </r>
       <r>    -2.9823     4.6429   368.7293 </r>
       <r>    -2.8855     4.8423   369.1978 </r>
       <r>    -2.7888     5.0038   369.6819 </r>
       <r>    -2.6921     5.7692   370.2400 </r>
       <r>    -2.5953     6.8679   370.9044 </r>
       <r>    -2.4986     7.4836   371.6284 </r>
       <r>    -2.4018     7.1682   372.3219 </r>
       <r>    -2.3051     6.4217   372.9431 </r>
       <r>    -2.2083     6.5468   373.5765 </r>
       <r>    -2.1116     7.6118   374.3129 </r>
       <r>    -2.0149     7.7737   375.0649 </r>
       <r>    -1.9181     6.2458   375.6692 </r>
       <r>    -1.8214     5.1420   376.1666 </r>
       <r>    -1.7246     7.1640   376.8597 </r>
       <r>    -1.6279    12.6270   378.0813 </r>
       <r>    -1.5311    19.0839   379.9275 </r>
       <r>    -1.4344    23.2799   382.1797 </r>
       <r>    -1.3377    23.6466   384.4673 </r>
       <r>    -1.2409    21.5032   386.5476 </r>
       <r>    -1.1442    19.5998   388.4437 </r>
       <r>    -1.0474    18.6691   390.2498 </r>
       <r>    -0.9507    17.1825   391.9121 </r>
       <r>    -0.8539    14.9750   393.3608 </r>
       <r>    -0.7572    13.3764   394.6549 </r>
       <r>    -0.6605    12.7535   395.8887 </r>
       <r>    -0.5637    12.6214   397.1098 </r>
       <r>    -0.4670    12.2166   398.2916 </r>
       <r>    -0.3702    10.9676   399.3527 </r>
       <r>    -0.2735    10.4027   400.3590 </r>
       <r>    -0.1767    12.9513   401.6120 </r>
       <r>    -0.0800    17.6541   403.3199 </r>
       <r>     0.0167    21.1002   405.3612 </r>
       <r>     0.1135    22.0462   407.4940 </r>
       <r>     0.2102    21.5548   409.5793 </r>
       <r>     0.3070    20.3420   411.5472 </r>
       <r>     0.4037    18.7168   413.3579 </r>
       <r>     0.5005    18.0719   415.1063 </r>
       <r>     0.5972    20.1404   417.0547 </r>
       <r>     0.6939    24.5900   419.4336 </r>
       <r>     0.7907    28.6082   422.2012 </r>
       <r>     0.8874    30.1922   425.1221 </r>
       <r>     0.9842    31.5300   428.1724 </r>
       <r>     1.0809    36.1421   431.6689 </r>
       <r>     1.1777    43.2657   435.8546 </r>
       <r>     1.2744    48.8368   440.5792 </r>
       <r>     1.3711    50.6246   445.4768 </r>
       <r>     1.4679    49.0143   450.2185 </r>
       <r>     1.5646    44.5314   454.5266 </r>
       <r>     1.6614    37.4865   458.1532 </r>
       <r>     1.7581    28.3651   460.8973 </r>
       <r>     1.8549    18.1334   462.6516 </r>
       <r>     1.9516     9.1515   463.5369 </r>
       <r>     2.0483     3.5126   463.8767 </r>
       <r>     2.1451     1.0162   463.9751 </r>
       <r>     2.2418     0.2194   463.9963 </r>
       <r>     2.3386     0.0343   463.9996 </r>
       <r>     2.4353     0.0037   464.0000 </r>
       <r>     2.5321     0.0003   464.0000 </r>
       <r>     2.6288     0.0000   464.0000 </r>
       <r>     2.7255     0.0000   464.0000 </r>
       <r>     2.8223     0.0000   464.0000 </r>
       <r>     2.9190     0.0000   464.0000 </r>
       <r>     3.0158     0.0000   464.0000 </r>
       <r>     3.1125     0.0000   464.0000 </r>
       <r>     3.2093     0.0000   464.0000 </r>
       <r>     3.3060     0.0000   464.0000 </r>
       <r>     3.4027     0.0000   464.0000 </r>
       <r>     3.4995     0.0000   464.0000 </r>
       <r>     3.5962     0.0000   464.0000 </r>
       <r>     3.6930     0.0000   464.0000 </r>
       <r>     3.7897     0.0000   464.0000 </r>
       <r>     3.8865     0.0000   464.0000 </r>
      </set>
     </set>
    </array>
   </total>
  </dos>
 </calculation>
 <structure name="finalpos" >
  <crystal>
   <varray name="basis" >
    <v>      28.05000000       0.00000000       0.00000000 </v>
    <v>       0.00000000       8.10000000       0.00000000 </v>
    <v>       0.00000000       0.00000000      33.50000000 </v>
   </varray>
   <i name="volume">   7611.36750000 </i>
   <varray name="rec_basis" >
    <v>       0.03565062       0.00000000       0.00000000 </v>
    <v>       0.00000000       0.12345679       0.00000000 </v>
    <v>       0.00000000       0.00000000       0.02985075 </v>
   </varray>
  </crystal>
  <varray name="positions" >
   <v>       0.33186774       0.13148025       0.97432836 </v>
   <v>       0.33159964       0.30397654       0.97522388 </v>
   <v>       0.37444207       0.04812469       0.98000000 </v>
   <v>       0.37357219       0.38525802       0.98268657 </v>
   <v>       0.41531551       0.13203580       0.99641791 </v>
   <v>       0.41426738       0.30128642       0.99850746 </v>
   <v>       0.45825312       0.04913877       0.00567164 </v>
   <v>       0.45620677       0.38524938       0.00955224 </v>
   <v>       0.49925134       0.12703951       0.02208955 </v>
   <v>       0.49800713       0.29833951       0.02328358 </v>
   <v>       0.54300178       0.04577519       0.02925373 </v>
   <v>       0.54311230       0.37403210       0.02776119 </v>
   <v>       0.58694474       0.12398148       0.03731343 </v>
   <v>       0.58708734       0.29287407       0.03611940 </v>
   <v>       0.63330125       0.04676494       0.03731343 </v>
   <v>       0.63355437       0.37353951       0.03850746 </v>
   <v>       0.67756863       0.12531235       0.03820896 </v>
   <v>       0.67835294       0.29315802       0.03880597 </v>
   <v>       0.72237433       0.04441444       0.02985075 </v>
   <v>       0.72252763       0.37420123       0.03283582 </v>
   <v>       0.76542246       0.12760494       0.02298507 </v>
   <v>       0.76756506       0.29542593       0.02597015 </v>
   <v>       0.80780036       0.04528136       0.01044776 </v>
   <v>       0.80934759       0.37355185       0.01432836 </v>
   <v>       0.85076649       0.12424198       0.00149254 </v>
   <v>       0.85180036       0.29133333       0.00328358 </v>
   <v>       0.89182531       0.04043617       0.98537313 </v>
   <v>       0.89363280       0.37412346       0.98865672 </v>
   <v>       0.93488057       0.12205901       0.97462687 </v>
   <v>       0.93537255       0.29243457       0.97582090 </v>
   <v>       0.97612478       0.04324370       0.95850746 </v>
   <v>       0.97708734       0.37714815       0.96537313 </v>
   <v>       0.02019900       0.12260185       0.95402985 </v>
   <v>       0.02061522       0.29606049       0.95791045 </v>
   <v>       0.06367914       0.04135741       0.94716418 </v>
   <v>       0.06421640       0.37588765       0.95014925 </v>
   <v>       0.10823030       0.12403333       0.94656716 </v>
   <v>       0.10875971       0.29351852       0.94865672 </v>
   <v>       0.15228057       0.04518543       0.94179104 </v>
   <v>       0.15234510       0.37922099       0.94537313 </v>
   <v>       0.19688663       0.12751235       0.94656716 </v>
   <v>       0.19621640       0.30057160       0.94955224 </v>
   <v>       0.24132799       0.04362642       0.94835821 </v>
   <v>       0.24121283       0.38539753       0.95432836 </v>
   <v>       0.28190410       0.12784568       0.96208955 </v>
   <v>       0.28201212       0.30120741       0.96358209 </v>
   <v>       0.33794225       0.63258148       0.95761194 </v>
   <v>       0.33827772       0.80144568       0.95522388 </v>
   <v>       0.37787166       0.54847654       0.97253731 </v>
   <v>       0.37820321       0.88543457       0.96985075 </v>
   <v>       0.42133690       0.62964321       0.98149254 </v>
   <v>       0.42169697       0.80241975       0.98029851 </v>
   <v>       0.46024599       0.54932222       0.00029851 </v>
   <v>       0.46226738       0.88342716       0.99611940 </v>
   <v>       0.50263458       0.63116667       0.01074627 </v>
   <v>       0.50288057       0.80077407       0.00925373 </v>
   <v>       0.54465241       0.54316420       0.02298507 </v>
   <v>       0.54504456       0.87795185       0.02298507 </v>
   <v>       0.59018538       0.62554691       0.02597015 </v>
   <v>       0.58984670       0.79491852       0.02776119 </v>
   <v>       0.63376471       0.54130370       0.03134328 </v>
   <v>       0.63346168       0.87807778       0.03313433 </v>
   <v>       0.67772906       0.62590864       0.03014925 </v>
   <v>       0.67758289       0.79632346       0.03104478 </v>
   <v>       0.72212478       0.54329753       0.02865672 </v>
   <v>       0.72076649       0.87562469       0.02597015 </v>
   <v>       0.76399287       0.62177654       0.01611940 </v>
   <v>       0.76326560       0.79378272       0.01432836 </v>
   <v>       0.80845276       0.54218642       0.00895522 </v>
   <v>       0.80574688       0.87596914       0.00388060 </v>
   <v>       0.84859180       0.62529136       0.99373134 </v>
   <v>       0.84681640       0.79362346       0.98895522 </v>
   <v>       0.89181105       0.54206420       0.98238806 </v>
   <v>       0.88894474       0.87641728       0.97701493 </v>
   <v>       0.93216756       0.62540247       0.96686567 </v>
   <v>       0.93127986       0.79606173       0.96298507 </v>
   <v>       0.97618538       0.54512593       0.95970149 </v>
   <v>       0.97415330       0.87565309       0.95283582 </v>
   <v>       0.01887198       0.62266543       0.94746269 </v>
   <v>       0.01752724       0.79238148       0.94388060 </v>
   <v>       0.06361105       0.54740617       0.94447761 </v>
   <v>       0.06216898       0.87547160       0.94029851 </v>
   <v>       0.10722353       0.62751728       0.93611940 </v>
   <v>       0.10722781       0.79713210       0.93462687 </v>
   <v>       0.15226988       0.54782099       0.93880597 </v>
   <v>       0.15229198       0.87803827       0.93552239 </v>
   <v>       0.19742282       0.62602099       0.93701493 </v>
   <v>       0.19688948       0.79502469       0.93492537 </v>
   <v>       0.24253119       0.54678272       0.94388060 </v>
   <v>       0.24153868       0.87830370       0.94149254 </v>
   <v>       0.28601355       0.62967407       0.94597015 </v>
   <v>       0.28602175       0.80114074       0.94477612 </v>
  </varray>
 </structure>
</modeling>
