unknown system                          
            1
    28.050000    0.000000    0.000000
     0.000000    8.100000    0.000000
     0.000000    0.000000   33.500000
   C 
    92
Direct configuration=     1
   0.33186774  0.13148025  0.97432836
   0.33159964  0.30397654  0.97522388
   0.37444207  0.04812469  0.98000000
   0.37357219  0.38525802  0.98268657
   0.41531551  0.13203580  0.99641791
   0.41426738  0.30128642  0.99850746
   0.45825312  0.04913877  0.00567164
   0.45620677  0.38524938  0.00955224
   0.49925134  0.12703951  0.02208955
   0.49800713  0.29833951  0.02328358
   0.54300178  0.04577519  0.02925373
   0.54311230  0.37403210  0.02776119
   0.58694474  0.12398148  0.03731343
   0.58708734  0.29287407  0.03611940
   0.63330125  0.04676494  0.03731343
   0.63355437  0.37353951  0.03850746
   0.67756863  0.12531235  0.03820896
   0.67835294  0.29315802  0.03880597
   0.72237433  0.04441444  0.02985075
   0.72252763  0.37420123  0.03283582
   0.76542246  0.12760494  0.02298507
   0.76756506  0.29542593  0.02597015
   0.80780036  0.04528136  0.01044776
   0.80934759  0.37355185  0.01432836
   0.85076649  0.12424198  0.00149254
   0.85180036  0.29133333  0.00328358
   0.89182531  0.04043617  0.98537313
   0.89363280  0.37412346  0.98865672
   0.93488057  0.12205901  0.97462687
   0.93537255  0.29243457  0.97582090
   0.97612478  0.04324370  0.95850746
   0.97708734  0.37714815  0.96537313
   0.02019900  0.12260185  0.95402985
   0.02061522  0.29606049  0.95791045
   0.06367914  0.04135741  0.94716418
   0.06421640  0.37588765  0.95014925
   0.10823030  0.12403333  0.94656716
   0.10875971  0.29351852  0.94865672
   0.15228057  0.04518543  0.94179104
   0.15234510  0.37922099  0.94537313
   0.19688663  0.12751235  0.94656716
   0.19621640  0.30057160  0.94955224
   0.24132799  0.04362642  0.94835821
   0.24121283  0.38539753  0.95432836
   0.28190410  0.12784568  0.96208955
   0.28201212  0.30120741  0.96358209
   0.33794225  0.63258148  0.95761194
   0.33827772  0.80144568  0.95522388
   0.37787166  0.54847654  0.97253731
   0.37820321  0.88543457  0.96985075
   0.42133690  0.62964321  0.98149254
   0.42169697  0.80241975  0.98029851
   0.46024599  0.54932222  0.00029851
   0.46226738  0.88342716  0.99611940
   0.50263458  0.63116667  0.01074627
   0.50288057  0.80077407  0.00925373
   0.54465241  0.54316420  0.02298507
   0.54504456  0.87795185  0.02298507
   0.59018538  0.62554691  0.02597015
   0.58984670  0.79491852  0.02776119
   0.63376471  0.54130370  0.03134328
   0.63346168  0.87807778  0.03313433
   0.67772906  0.62590864  0.03014925
   0.67758289  0.79632346  0.03104478
   0.72212478  0.54329753  0.02865672
   0.72076649  0.87562469  0.02597015
   0.76399287  0.62177654  0.01611940
   0.76326560  0.79378272  0.01432836
   0.80845276  0.54218642  0.00895522
   0.80574688  0.87596914  0.00388060
   0.84859180  0.62529136  0.99373134
   0.84681640  0.79362346  0.98895522
   0.89181105  0.54206420  0.98238806
   0.88894474  0.87641728  0.97701493
   0.93216756  0.62540247  0.96686567
   0.93127986  0.79606173  0.96298507
   0.97618538  0.54512593  0.95970149
   0.97415330  0.87565309  0.95283582
   0.01887198  0.62266543  0.94746269
   0.01752724  0.79238148  0.94388060
   0.06361105  0.54740617  0.94447761
   0.06216898  0.87547160  0.94029851
   0.10722353  0.62751728  0.93611940
   0.10722781  0.79713210  0.93462687
   0.15226988  0.54782099  0.93880597
   0.15229198  0.87803827  0.93552239
   0.19742282  0.62602099  0.93701493
   0.19688948  0.79502469  0.93492537
   0.24253119  0.54678272  0.94388060
   0.24153868  0.87830370  0.94149254
   0.28601355  0.62967407  0.94597015
   0.28602175  0.80114074  0.94477612
