  92  92   0   0
  0.8273226E+02  0.2805000E-08  0.8100000E-09  0.3350000E-08  0.5000000E-15
   1.0000000000000000E-004
  CAR 
 unknown system                          
      3.78662391    -25.22221344  301     -3.13466759      1.00000000
    -25.222  0.0000E+00  0.0000E+00
    -25.126  0.0000E+00  0.0000E+00
    -25.029  0.0000E+00  0.0000E+00
    -24.932  0.0000E+00  0.0000E+00
    -24.835  0.0000E+00  0.0000E+00
    -24.739  0.0000E+00  0.0000E+00
    -24.642  0.0000E+00  0.0000E+00
    -24.545  0.0000E+00  0.0000E+00
    -24.449  0.0000E+00  0.0000E+00
    -24.352  0.3444E-14  0.3331E-15
    -24.255  0.7325E-12  0.7117E-13
    -24.159  0.9492E-10  0.9249E-11
    -24.062  0.7809E-08  0.7644E-09
    -23.965  0.4095E-06  0.4036E-07
    -23.868  0.1375E-04  0.1370E-05
    -23.772  0.2974E-03  0.3013E-04
    -23.675  0.4179E-02  0.4343E-03
    -23.578  0.3854E-01  0.4161E-02
    -23.482  0.2364E+00  0.2702E-01
    -23.385  0.9814E+00  0.1219E+00
    -23.288  0.2831E+01  0.3956E+00
    -23.192  0.5897E+01  0.9659E+00
    -23.095  0.9362E+01  0.1871E+01
    -22.998  0.1199E+02  0.3031E+01
    -22.902  0.1311E+02  0.4298E+01
    -22.805  0.1344E+02  0.5598E+01
    -22.708  0.1467E+02  0.7017E+01
    -22.611  0.1651E+02  0.8613E+01
    -22.515  0.1635E+02  0.1019E+02
    -22.418  0.1371E+02  0.1152E+02
    -22.321  0.1156E+02  0.1264E+02
    -22.225  0.1186E+02  0.1378E+02
    -22.128  0.1333E+02  0.1507E+02
    -22.031  0.1416E+02  0.1644E+02
    -21.935  0.1412E+02  0.1781E+02
    -21.838  0.1374E+02  0.1913E+02
    -21.741  0.1339E+02  0.2043E+02
    -21.644  0.1282E+02  0.2167E+02
    -21.548  0.1186E+02  0.2282E+02
    -21.451  0.1126E+02  0.2390E+02
    -21.354  0.1185E+02  0.2505E+02
    -21.258  0.1341E+02  0.2635E+02
    -21.161  0.1517E+02  0.2781E+02
    -21.064  0.1640E+02  0.2940E+02
    -20.968  0.1603E+02  0.3095E+02
    -20.871  0.1383E+02  0.3229E+02
    -20.774  0.1168E+02  0.3342E+02
    -20.677  0.1160E+02  0.3454E+02
    -20.581  0.1300E+02  0.3579E+02
    -20.484  0.1380E+02  0.3713E+02
    -20.387  0.1352E+02  0.3844E+02
    -20.291  0.1335E+02  0.3973E+02
    -20.194  0.1391E+02  0.4107E+02
    -20.097  0.1468E+02  0.4249E+02
    -20.001  0.1512E+02  0.4395E+02
    -19.904  0.1492E+02  0.4540E+02
    -19.807  0.1382E+02  0.4673E+02
    -19.711  0.1279E+02  0.4797E+02
    -19.614  0.1388E+02  0.4931E+02
    -19.517  0.1630E+02  0.5089E+02
    -19.420  0.1659E+02  0.5249E+02
    -19.324  0.1426E+02  0.5387E+02
    -19.227  0.1259E+02  0.5509E+02
    -19.130  0.1349E+02  0.5639E+02
    -19.034  0.1517E+02  0.5786E+02
    -18.937  0.1493E+02  0.5930E+02
    -18.840  0.1287E+02  0.6055E+02
    -18.744  0.1204E+02  0.6171E+02
    -18.647  0.1417E+02  0.6308E+02
    -18.550  0.1691E+02  0.6472E+02
    -18.453  0.1728E+02  0.6639E+02
    -18.357  0.1595E+02  0.6793E+02
    -18.260  0.1567E+02  0.6945E+02
    -18.163  0.1699E+02  0.7109E+02
    -18.067  0.1776E+02  0.7281E+02
    -17.970  0.1642E+02  0.7439E+02
    -17.873  0.1417E+02  0.7576E+02
    -17.777  0.1286E+02  0.7701E+02
    -17.680  0.1227E+02  0.7819E+02
    -17.583  0.1135E+02  0.7929E+02
    -17.487  0.1056E+02  0.8031E+02
    -17.390  0.1085E+02  0.8136E+02
    -17.293  0.1178E+02  0.8250E+02
    -17.196  0.1231E+02  0.8369E+02
    -17.100  0.1227E+02  0.8488E+02
    -17.003  0.1179E+02  0.8602E+02
    -16.906  0.1098E+02  0.8708E+02
    -16.810  0.1065E+02  0.8811E+02
    -16.713  0.1162E+02  0.8923E+02
    -16.616  0.1329E+02  0.9052E+02
    -16.520  0.1439E+02  0.9191E+02
    -16.423  0.1488E+02  0.9335E+02
    -16.326  0.1552E+02  0.9485E+02
    -16.229  0.1647E+02  0.9644E+02
    -16.133  0.1742E+02  0.9812E+02
    -16.036  0.1791E+02  0.9986E+02
    -15.939  0.1743E+02  0.1015E+03
    -15.843  0.1595E+02  0.1031E+03
    -15.746  0.1406E+02  0.1044E+03
    -15.649  0.1222E+02  0.1056E+03
    -15.553  0.1077E+02  0.1067E+03
    -15.456  0.1114E+02  0.1077E+03
    -15.359  0.1443E+02  0.1091E+03
    -15.263  0.1919E+02  0.1110E+03
    -15.166  0.2297E+02  0.1132E+03
    -15.069  0.2431E+02  0.1156E+03
    -14.972  0.2272E+02  0.1178E+03
    -14.876  0.1921E+02  0.1196E+03
    -14.779  0.1546E+02  0.1211E+03
    -14.682  0.1205E+02  0.1223E+03
    -14.586  0.9450E+01  0.1232E+03
    -14.489  0.8799E+01  0.1240E+03
    -14.392  0.1012E+02  0.1250E+03
    -14.296  0.1171E+02  0.1262E+03
    -14.199  0.1221E+02  0.1273E+03
    -14.102  0.1241E+02  0.1285E+03
    -14.005  0.1344E+02  0.1298E+03
    -13.909  0.1458E+02  0.1312E+03
    -13.812  0.1519E+02  0.1327E+03
    -13.715  0.1643E+02  0.1343E+03
    -13.619  0.1858E+02  0.1361E+03
    -13.522  0.2007E+02  0.1380E+03
    -13.425  0.1999E+02  0.1400E+03
    -13.329  0.1926E+02  0.1418E+03
    -13.232  0.1891E+02  0.1437E+03
    -13.135  0.1806E+02  0.1454E+03
    -13.039  0.1586E+02  0.1469E+03
    -12.942  0.1422E+02  0.1483E+03
    -12.845  0.1473E+02  0.1497E+03
    -12.748  0.1563E+02  0.1513E+03
    -12.652  0.1481E+02  0.1527E+03
    -12.555  0.1313E+02  0.1540E+03
    -12.458  0.1266E+02  0.1552E+03
    -12.362  0.1393E+02  0.1565E+03
    -12.265  0.1663E+02  0.1581E+03
    -12.168  0.2072E+02  0.1601E+03
    -12.072  0.2500E+02  0.1626E+03
    -11.975  0.2707E+02  0.1652E+03
    -11.878  0.2582E+02  0.1677E+03
    -11.781  0.2222E+02  0.1698E+03
    -11.685  0.1798E+02  0.1716E+03
    -11.588  0.1465E+02  0.1730E+03
    -11.491  0.1367E+02  0.1743E+03
    -11.395  0.1559E+02  0.1758E+03
    -11.298  0.1908E+02  0.1777E+03
    -11.201  0.2277E+02  0.1799E+03
    -11.105  0.2686E+02  0.1825E+03
    -11.008  0.3121E+02  0.1855E+03
    -10.911  0.3390E+02  0.1887E+03
    -10.814  0.3363E+02  0.1920E+03
    -10.718  0.3218E+02  0.1951E+03
    -10.621  0.3286E+02  0.1983E+03
    -10.524  0.3665E+02  0.2018E+03
    -10.428  0.4020E+02  0.2057E+03
    -10.331  0.3954E+02  0.2095E+03
    -10.234  0.3551E+02  0.2130E+03
    -10.138  0.3258E+02  0.2161E+03
    -10.041  0.3280E+02  0.2193E+03
     -9.944  0.3412E+02  0.2226E+03
     -9.848  0.3471E+02  0.2260E+03
     -9.751  0.3560E+02  0.2294E+03
     -9.654  0.3770E+02  0.2330E+03
     -9.557  0.3979E+02  0.2369E+03
     -9.461  0.4056E+02  0.2408E+03
     -9.364  0.3966E+02  0.2446E+03
     -9.267  0.3704E+02  0.2482E+03
     -9.171  0.3352E+02  0.2515E+03
     -9.074  0.3114E+02  0.2545E+03
     -8.977  0.3138E+02  0.2575E+03
     -8.881  0.3356E+02  0.2608E+03
     -8.784  0.3557E+02  0.2642E+03
     -8.687  0.3607E+02  0.2677E+03
     -8.590  0.3562E+02  0.2711E+03
     -8.494  0.3477E+02  0.2745E+03
     -8.397  0.3306E+02  0.2777E+03
     -8.300  0.3101E+02  0.2807E+03
     -8.204  0.2960E+02  0.2836E+03
     -8.107  0.2845E+02  0.2863E+03
     -8.010  0.2676E+02  0.2889E+03
     -7.914  0.2522E+02  0.2913E+03
     -7.817  0.2523E+02  0.2938E+03
     -7.720  0.2658E+02  0.2963E+03
     -7.624  0.2753E+02  0.2990E+03
     -7.527  0.2735E+02  0.3016E+03
     -7.430  0.2706E+02  0.3043E+03
     -7.333  0.2727E+02  0.3069E+03
     -7.237  0.2740E+02  0.3095E+03
     -7.140  0.2740E+02  0.3122E+03
     -7.043  0.2755E+02  0.3149E+03
     -6.947  0.2715E+02  0.3175E+03
     -6.850  0.2554E+02  0.3200E+03
     -6.753  0.2380E+02  0.3223E+03
     -6.657  0.2313E+02  0.3245E+03
     -6.560  0.2255E+02  0.3267E+03
     -6.463  0.2084E+02  0.3287E+03
     -6.366  0.1890E+02  0.3305E+03
     -6.270  0.1848E+02  0.3323E+03
     -6.173  0.2016E+02  0.3343E+03
     -6.076  0.2294E+02  0.3365E+03
     -5.980  0.2535E+02  0.3389E+03
     -5.883  0.2643E+02  0.3415E+03
     -5.786  0.2590E+02  0.3440E+03
     -5.690  0.2389E+02  0.3463E+03
     -5.593  0.2060E+02  0.3483E+03
     -5.496  0.1633E+02  0.3499E+03
     -5.400  0.1217E+02  0.3510E+03
     -5.303  0.1032E+02  0.3520E+03
     -5.206  0.1161E+02  0.3532E+03
     -5.109  0.1305E+02  0.3544E+03
     -5.013  0.1169E+02  0.3556E+03
     -4.916  0.8775E+01  0.3564E+03
     -4.819  0.7159E+01  0.3571E+03
     -4.723  0.7917E+01  0.3579E+03
     -4.626  0.1045E+02  0.3589E+03
     -4.529  0.1344E+02  0.3602E+03
     -4.433  0.1507E+02  0.3616E+03
     -4.336  0.1364E+02  0.3629E+03
     -4.239  0.9514E+01  0.3639E+03
     -4.142  0.5313E+01  0.3644E+03
     -4.046  0.3308E+01  0.3647E+03
     -3.949  0.3411E+01  0.3650E+03
     -3.852  0.4113E+01  0.3654E+03
     -3.756  0.4316E+01  0.3658E+03
     -3.659  0.3853E+01  0.3662E+03
     -3.562  0.3282E+01  0.3665E+03
     -3.466  0.3205E+01  0.3668E+03
     -3.369  0.3337E+01  0.3672E+03
     -3.272  0.3262E+01  0.3675E+03
     -3.175  0.3543E+01  0.3678E+03
     -3.079  0.4673E+01  0.3683E+03
     -2.982  0.6125E+01  0.3689E+03
     -2.885  0.7469E+01  0.3696E+03
     -2.789  0.8948E+01  0.3705E+03
     -2.692  0.9841E+01  0.3714E+03
     -2.595  0.8497E+01  0.3722E+03
     -2.499  0.5262E+01  0.3727E+03
     -2.402  0.2681E+01  0.3730E+03
     -2.305  0.2678E+01  0.3733E+03
     -2.209  0.5158E+01  0.3738E+03
     -2.112  0.7847E+01  0.3745E+03
     -2.015  0.7980E+01  0.3753E+03
     -1.918  0.6057E+01  0.3759E+03
     -1.822  0.5745E+01  0.3764E+03
     -1.725  0.9362E+01  0.3773E+03
     -1.628  0.1553E+02  0.3788E+03
     -1.532  0.2093E+02  0.3809E+03
     -1.435  0.2312E+02  0.3831E+03
     -1.338  0.2189E+02  0.3852E+03
     -1.242  0.1912E+02  0.3871E+03
     -1.145  0.1738E+02  0.3887E+03
     -1.048  0.1706E+02  0.3904E+03
     -0.951  0.1651E+02  0.3920E+03
     -0.855  0.1551E+02  0.3935E+03
     -0.758  0.1482E+02  0.3949E+03
     -0.661  0.1414E+02  0.3963E+03
     -0.565  0.1304E+02  0.3975E+03
     -0.468  0.1171E+02  0.3987E+03
     -0.371  0.1064E+02  0.3997E+03
     -0.275  0.1146E+02  0.4008E+03
     -0.178  0.1503E+02  0.4023E+03
     -0.081  0.1917E+02  0.4041E+03
      0.015  0.2110E+02  0.4062E+03
      0.112  0.2079E+02  0.4082E+03
      0.209  0.2025E+02  0.4101E+03
      0.306  0.2011E+02  0.4121E+03
      0.402  0.1912E+02  0.4139E+03
      0.499  0.1767E+02  0.4156E+03
      0.596  0.1857E+02  0.4174E+03
      0.692  0.2307E+02  0.4197E+03
      0.789  0.2866E+02  0.4224E+03
      0.886  0.3221E+02  0.4255E+03
      0.982  0.3386E+02  0.4288E+03
      1.079  0.3593E+02  0.4323E+03
      1.176  0.3970E+02  0.4361E+03
      1.273  0.4490E+02  0.4405E+03
      1.369  0.4977E+02  0.4453E+03
      1.466  0.5149E+02  0.4503E+03
      1.563  0.4805E+02  0.4549E+03
      1.659  0.3961E+02  0.4587E+03
      1.756  0.2807E+02  0.4615E+03
      1.853  0.1625E+02  0.4630E+03
      1.949  0.7175E+01  0.4637E+03
      2.046  0.2276E+01  0.4639E+03
      2.143  0.4980E+00  0.4640E+03
      2.239  0.7344E-01  0.4640E+03
      2.336  0.7202E-02  0.4640E+03
      2.433  0.4658E-03  0.4640E+03
      2.530  0.1975E-04  0.4640E+03
      2.626  0.5458E-06  0.4640E+03
      2.723  0.9776E-08  0.4640E+03
      2.820  0.1129E-09  0.4640E+03
      2.916  0.8382E-12  0.4640E+03
      3.013  0.3444E-14  0.4640E+03
      3.110  0.0000E+00  0.4640E+03
      3.206  0.0000E+00  0.4640E+03
      3.303  0.0000E+00  0.4640E+03
      3.400  0.0000E+00  0.4640E+03
      3.497  0.0000E+00  0.4640E+03
      3.593  0.0000E+00  0.4640E+03
      3.690  0.0000E+00  0.4640E+03
      3.787  0.0000E+00  0.4640E+03
