 vasp.6.5.0 16Dec24 (build Feb 19 2025 19:45:31) complex                         
 executed on              LinuxNV date 2025.10.25  10:30:27
 running    2 mpi-ranks, on    1 nodes
 distrk:  each k-point on    2 cores,    1 groups
 distr:  one band on NCORE=   1 cores,    2 groups
 Offloading initialized ...    2 GPUs detected


--------------------------------------------------------------------------------------------------------


 INCAR:
   ISTART = 0            (Not Read existing wavefunction
   ISPIN = 1            (Non-Spin polarised DFT, Default\=1)
   ICHARG = 2            (The initial guess charge density is generated by superposition of atomic charge density)
   LREAL = Auto         (Projection operators: automatic)
   ENCUT = 500          (Cut-off energy for plane wave basis set, in eV)
   LWAVE = .FALSE.       (Write WAVECAR or not)
   LCHARG = .FALSE.       (Write CHGCAR or not)
   PREC = Accurate   (Precision level)
   KGAMMA = .TRUE.
   ALGO = Normal
   NSW = 0           (Default: NSW \= 0)
   IBRION = -1           (Ions are not moved)
   ISMEAR = 0
   EDIFF = 1E-06        (SCF energy convergence
   NELM = 150          (Max electronic SCF steps)

 POTCAR:    PAW_PBE C 08Apr2002                   
 POTCAR:    PAW_PBE C 08Apr2002                   
   SHA256 =  253f7b50bb8d59471dbedb8285d89021f4a42ed1a2c5d38a03a736e69125dd95 C/POTCAR              
   COPYR  = (c) Copyright 08Apr2002 Georg Kresse                                                    
   COPYR  = This file is part of the software VASP. Any use, copying, and all other rights are regul
   COPYR  = If you do not have a valid VASP license, you may not use, copy or distribute this file. 
   VRHFIN =C: s2p2                                                                                  
   LEXCH  = PE                                                                                      
   EATOM  =   147.1560 eV,   10.8157 Ry                                                             
                                                                                                    
   TITEL  = PAW_PBE C 08Apr2002                                                                     
   LULTRA =        F    use ultrasoft PP ?                                                          
   IUNSCR =        1    unscreen: 0-lin 1-nonlin 2-no                                               
   RPACOR =    1.200    partial core radius                                                         
   POMASS =   12.011; ZVAL   =    4.000    mass and valenz                                          
   RCORE  =    1.500    outmost cutoff radius                                                       
   RWIGS  =    1.630; RWIGS  =    0.863    wigner-seitz radius (au A)                               
   ENMAX  =  400.000; ENMIN  =  300.000 eV                                                          
   ICORE  =        2    local potential                                                             
   LCOR   =        T    correct aug charges                                                         
   LPAW   =        T    paw PP                                                                      
   EAUG   =  644.873                                                                                
   DEXC   =    0.000                                                                                
   RMAX   =    1.529    core radius for proj-oper                                                   
   RAUG   =    1.300    factor for augmentation sphere                                              
   RDEP   =    1.501    radius for radial grids                                                     
   RDEPT  =    1.300    core radius for aug-charge                                                  
                                                                                                    
   Atomic configuration                                                                             
    4 entries                                                                                       
     n  l   j            E        occ.                                                              
     1  0  0.50      -273.3789   2.0000                                                             
     2  0  0.50       -13.7508   2.0000                                                             
     2  1  0.50        -5.2854   2.0000                                                             
     3  2  1.50        -5.4423   0.0000                                                             
   Description                                                                                      
     l       E           TYP  RCUT    TYP  RCUT                                                     
     0    -13.7508458     23  1.200                                                                 
     0     -8.2022199     23  1.200                                                                 
     1     -5.2854383     23  1.500                                                                 
     1     34.0145650     23  1.500                                                                 
     2     -5.4423304      7  1.500                                                                 
  local pseudopotential read in
  partial core-charges read in
  partial kinetic energy density read in
  atomic valenz-charges read in
  non local Contribution for L=            0  read in
    real space projection operators read in
  non local Contribution for L=            0  read in
    real space projection operators read in
  non local Contribution for L=            1  read in
    real space projection operators read in
  non local Contribution for L=            1  read in
    real space projection operators read in
    PAW grid and wavefunctions read in
 
   number of l-projection  operators is LMAX  =            4
   number of lm-projection operators is LMMAX =            8
 
 Optimization of the real space projectors (new method)

 maximal supplied QI-value         = 25.13
 optimisation between [QCUT,QGAM] = [ 11.31, 22.87] = [ 35.82,146.48] Ry 
 Optimized for a Real-space Cutoff    1.03 Angstroem

   l    n(q)    QCUT    max X(q) W(low)/X(q) W(high)/X(q)  e(spline) 
   0      7    11.310   115.676    0.20E-03    0.90E-03    0.20E-06
   0      7    11.310    87.132    0.20E-03    0.89E-03    0.19E-06
   1      6    11.310     4.429    0.16E-03    0.28E-03    0.12E-06
   1      6    11.310     2.733    0.12E-03    0.21E-03    0.99E-07
  PAW_PBE C 08Apr2002                   :
 energy of atom  1       EATOM= -147.1560
 kinetic energy error for atom=    0.0076 (will be added to EATOM!!)
 
 
 POSCAR:  C
  positions in cartesian coordinates
  No initial velocities read in


 exchange-correlation table for PE
   RHO(1)=    0.500       N(1)  =     2000
   RHO(2)=  100.500       N(2)  =     4000
 


--------------------------------------------------------------------------------------------------------


 ion  position               nearest neighbor table
   1  0.013  0.109  0.523-   2 1.37   3 1.43  45 1.44  46 1.96
   2  0.011  0.275  0.516-   1 1.37  46 1.42   4 1.44  45 2.04
   3  0.056  0.022  0.514-  50 1.37   5 1.42   1 1.43
   4  0.052  0.354  0.498-  49 1.36   6 1.37   2 1.44
   5  0.098  0.106  0.502-   6 1.40   3 1.42   7 1.42
   6  0.094  0.273  0.492-   4 1.37   5 1.40   8 1.44
   7  0.140  0.023  0.489-   9 1.39  54 1.39   5 1.42
   8  0.135  0.351  0.474-  53 1.37  10 1.42   6 1.44
   9  0.181  0.100  0.475-  10 1.37  11 1.38   7 1.39
  10  0.178  0.264  0.465-   9 1.37   8 1.42  12 1.43
  11  0.223  0.020  0.465-  58 1.38  13 1.38   9 1.38
  12  0.221  0.348  0.455-  14 1.41  10 1.43  57 1.46
  13  0.266  0.103  0.461-  11 1.38  15 1.39  14 1.42
  14  0.266  0.275  0.454-  16 1.38  12 1.41  13 1.42
  15  0.310  0.025  0.462-  13 1.39  62 1.39  17 1.40
  16  0.310  0.355  0.453-  14 1.38  18 1.39  61 1.42
  17  0.354  0.108  0.465-  18 1.38  15 1.40  19 1.41
  18  0.353  0.277  0.461-  17 1.38  16 1.39  20 1.45
  19  0.398  0.028  0.470-  21 1.38  66 1.38  17 1.41
  20  0.397  0.365  0.469-  65 1.35  22 1.43  18 1.45
  21  0.435  0.108  0.489-  19 1.38  22 1.38  23 1.41
  22  0.437  0.278  0.485-  21 1.38  24 1.39  20 1.43
  23  0.480  0.030  0.494-  25 1.36  70 1.39  21 1.41
  24  0.480  0.358  0.491-  22 1.39  69 1.42  26 1.42
  25  0.520  0.110  0.505-  23 1.36  26 1.37  27 1.39
  26  0.521  0.278  0.507-  25 1.37  24 1.42  28 1.44
  27  0.563  0.027  0.513-  74 1.36  25 1.39  29 1.42
  28  0.566  0.360  0.515-  73 1.33  30 1.41  26 1.44
  29  0.607  0.102  0.523-  30 1.39  27 1.42  31 1.44
  30  0.608  0.274  0.523-  29 1.39  32 1.41  28 1.41
  31  0.651  0.016  0.531-  33 1.41  78 1.42  29 1.44
  32  0.653  0.351  0.530-  77 1.37  30 1.41  34 1.44
  33  0.694  0.092  0.541-  34 1.37  31 1.41  35 1.46
  34  0.696  0.260  0.536-  33 1.37  36 1.44  32 1.44
  35  0.739  0.005  0.545-  82 1.35  37 1.46  33 1.46
  36  0.741  0.341  0.536-  81 1.38  38 1.42  34 1.44
  37  0.784  0.096  0.546-  38 1.39  35 1.46  39 1.46
  38  0.786  0.266  0.543-  37 1.39  36 1.42  40 1.46
  39  0.831  0.022  0.545-  86 1.36  41 1.39  37 1.46
  40  0.831  0.353  0.537-  85 1.39  42 1.41  38 1.46
  41  0.874  0.109  0.545-  42 1.36  39 1.39  43 1.50
  42  0.875  0.271  0.534-  41 1.36  40 1.41  44 1.41
  43  0.921  0.020  0.542-  90 1.37  45 1.39  41 1.50
  44  0.918  0.353  0.525-  89 1.35  46 1.38  42 1.41
  45  0.963  0.100  0.533-  43 1.39   1 1.44  46 1.44   2 2.04
  46  0.962  0.274  0.525-  44 1.38   2 1.42  45 1.44   1 1.96
  47  0.008  0.610  0.504-  48 1.41  49 1.42  91 1.45  92 1.98
  48  0.010  0.780  0.512-  50 1.38  47 1.41  92 1.43  91 2.04
  49  0.050  0.521  0.494-   4 1.36  51 1.42  47 1.42
  50  0.054  0.855  0.508-   3 1.37  48 1.38  52 1.42
  51  0.092  0.608  0.482-  52 1.36  49 1.42  53 1.43
  52  0.092  0.774  0.488-  51 1.36  54 1.41  50 1.42
  53  0.134  0.520  0.471-   8 1.37  51 1.43  55 1.45
  54  0.136  0.855  0.481-  56 1.39   7 1.39  52 1.41
  55  0.177  0.605  0.459-  56 1.41  57 1.43  53 1.45
  56  0.176  0.776  0.467-  58 1.38  54 1.39  55 1.41
  57  0.221  0.527  0.449-  59 1.41  55 1.43  12 1.46
  58  0.219  0.852  0.459-  11 1.38  56 1.38  60 1.43
  59  0.264  0.609  0.443-  57 1.41  60 1.41  61 1.43
  60  0.265  0.779  0.451-  62 1.39  59 1.41  58 1.43
  61  0.309  0.526  0.444-  16 1.42  63 1.42  59 1.43
  62  0.309  0.855  0.455-  60 1.39  15 1.39  64 1.39
  63  0.354  0.608  0.449-  64 1.39  65 1.41  61 1.42
  64  0.353  0.779  0.453-  63 1.39  62 1.39  66 1.44
  65  0.397  0.526  0.458-  20 1.35  63 1.41  67 1.43
  66  0.396  0.859  0.465-  19 1.38  68 1.38  64 1.44
  67  0.442  0.604  0.467-  69 1.39  65 1.43  68 1.44
  68  0.440  0.782  0.469-  66 1.38  67 1.44  70 1.47
  69  0.483  0.528  0.481-  67 1.39  71 1.41  24 1.42
  70  0.483  0.865  0.484-  23 1.39  72 1.41  68 1.47
  71  0.526  0.606  0.492-  72 1.40  69 1.41  73 1.43
  72  0.525  0.778  0.494-  71 1.40  70 1.41  74 1.41
  73  0.566  0.523  0.509-  28 1.33  75 1.40  71 1.43
  74  0.566  0.860  0.509-  27 1.36  72 1.41  76 1.41
  75  0.609  0.604  0.516-  76 1.34  73 1.40  77 1.45
  76  0.608  0.769  0.516-  75 1.34  78 1.41  74 1.41
  77  0.654  0.517  0.523-  32 1.37  79 1.42  75 1.45
  78  0.652  0.841  0.528-  80 1.40  76 1.41  31 1.42
  79  0.699  0.592  0.527-  80 1.38  81 1.40  77 1.42
  80  0.695  0.760  0.533-  79 1.38  78 1.40  82 1.41
  81  0.743  0.511  0.532-  36 1.38  79 1.40  83 1.45
  82  0.739  0.839  0.541-  35 1.35  84 1.39  80 1.41
  83  0.787  0.604  0.530-  84 1.38  85 1.40  81 1.45
  84  0.784  0.771  0.538-  83 1.38  82 1.39  86 1.46
  85  0.831  0.523  0.532-  40 1.39  83 1.40  87 1.40
  86  0.830  0.855  0.541-  39 1.36  88 1.42  84 1.46
  87  0.874  0.604  0.527-  89 1.39  88 1.39  85 1.40
  88  0.874  0.775  0.532-  87 1.39  90 1.40  86 1.42
  89  0.917  0.519  0.523-  44 1.35  91 1.38  87 1.39
  90  0.918  0.858  0.530-  43 1.37  92 1.40  88 1.40
  91  0.959  0.603  0.516-  89 1.38  92 1.40  47 1.45  48 2.04
  92  0.961  0.773  0.523-  91 1.40  90 1.40  48 1.43  47 1.98
 
  LATTYP: Found a simple orthorhombic cell.
 ALAT       =     8.1000000000
 B/A-ratio  =     3.4629629630
 C/A-ratio  =     4.1358024691
  
  Lattice vectors:
  
 A1 = (   0.0000000000,  -8.1000000000,   0.0000000000)
 A2 = (  28.0500000000,   0.0000000000,   0.0000000000)
 A3 = (   0.0000000000,   0.0000000000,  33.5000000000)


Analysis of symmetry for initial positions (statically):
=====================================================================
 Subroutine PRICEL returns:
 Original cell was already a primitive cell.
 

 Routine SETGRP: Setting up the symmetry group for a 
 simple orthorhombic supercell.


 Subroutine GETGRP returns: Found  1 space group operations
 (whereof  1 operations were pure point group operations)
 out of a pool of  8 trial point group operations.


The static configuration has the point symmetry C_1 .


Analysis of symmetry for dynamics (positions and initial velocities):
=====================================================================
 Subroutine PRICEL returns:
 Original cell was already a primitive cell.
 

 Routine SETGRP: Setting up the symmetry group for a 
 simple orthorhombic supercell.


 Subroutine GETGRP returns: Found  1 space group operations
 (whereof  1 operations were pure point group operations)
 out of a pool of  8 trial point group operations.


The dynamic configuration has the point symmetry C_1 .


 Subroutine INISYM returns: Found  1 space group operations
 (whereof  1 operations are pure point group operations),
 and found     1 'primitive' translations


----------------------------------------------------------------------------------------

                                     Primitive cell                                     

  volume of cell :    7611.3675

  direct lattice vectors                    reciprocal lattice vectors
    28.050000000  0.000000000  0.000000000     0.035650624  0.000000000  0.000000000
     0.000000000  8.100000000  0.000000000     0.000000000  0.123456790  0.000000000
     0.000000000  0.000000000 33.500000000     0.000000000  0.000000000  0.029850746

  length of vectors
    28.050000000  8.100000000 33.500000000     0.035650624  0.123456790  0.029850746

  position of ions in fractional coordinates (direct lattice)
     0.013006702  0.108724321  0.523423881
     0.011279109  0.274608642  0.515898507
     0.055976471  0.022182840  0.514053731
     0.052039216  0.353874074  0.497785075
     0.097841355  0.105739383  0.501838806
     0.094191087  0.272728395  0.492000000
     0.139762923  0.023462716  0.489080597
     0.135149020  0.351022222  0.474059701
     0.180778966  0.100383086  0.474782090
     0.177620677  0.264022222  0.465167164
     0.222638146  0.020170988  0.464570149
     0.220549376  0.348295062  0.454877612
     0.265641355  0.102750247  0.460925373
     0.266057041  0.275200000  0.454035821
     0.309672371  0.025325309  0.461656716
     0.309520143  0.355116049  0.452808955
     0.353509447  0.107778025  0.465355224
     0.352762567  0.277158025  0.460940299
     0.397561497  0.027796543  0.470364179
     0.396616756  0.364739506  0.469265672
     0.435040998  0.107843580  0.488555224
     0.436745098  0.277718519  0.484979104
     0.479611408  0.030300988  0.493668657
     0.480270945  0.357629630  0.490650746
     0.520299465  0.109703951  0.504794030
     0.521115865  0.278223457  0.507035821
     0.562730838  0.026690247  0.512608955
     0.565693405  0.360450617  0.514808955
     0.606609626  0.102234198  0.523334328
     0.608352941  0.273951852  0.522964179
     0.650616756  0.015541605  0.530513433
     0.652549020  0.351459259  0.530086567
     0.693914439  0.092163704  0.541170149
     0.695932264  0.259814815  0.535740299
     0.739333333  0.004733444  0.544617910
     0.741422460  0.341469136  0.535716418
     0.784049911  0.095674198  0.545680597
     0.786139037  0.266375309  0.543113433
     0.831436720  0.021864815  0.545382090
     0.831069519  0.352865432  0.537104478
     0.874021390  0.109083827  0.545346269
     0.875155080  0.271086420  0.534277612
     0.920573975  0.019871975  0.541591045
     0.918267380  0.352796296  0.525116418
     0.963215686  0.099877407  0.533259701
     0.961768271  0.273819753  0.524788060
     0.008244242  0.609660494  0.504029851
     0.009939929  0.780135802  0.512456716
     0.050032086  0.520525926  0.493623881
     0.053907308  0.854851852  0.507614925
     0.091547237  0.607655556  0.481650746
     0.091960784  0.773703704  0.487997015
     0.133658824  0.519677778  0.470680597
     0.135836007  0.855072840  0.481229851
     0.176679501  0.605188889  0.458904478
     0.176351159  0.775556790  0.466931343
     0.220756863  0.527448148  0.449134328
     0.219218182  0.852404938  0.458519403
     0.264375401  0.608525926  0.442662687
     0.264539394  0.778618519  0.451014925
     0.309479144  0.526204938  0.444071642
     0.308660250  0.855455556  0.455241791
     0.354059893  0.607955556  0.448958209
     0.353028877  0.778553086  0.452602985
     0.396919786  0.525879012  0.458441791
     0.396270945  0.859041975  0.464656716
     0.441711230  0.604461728  0.466605970
     0.439942959  0.782092593  0.469107463
     0.482752228  0.527595062  0.480623881
     0.483119430  0.864758025  0.483701493
     0.525657754  0.606258025  0.492038806
     0.525016043  0.778297531  0.494032836
     0.566071301  0.522609877  0.508671642
     0.566074866  0.859695062  0.508558209
     0.609319073  0.604045679  0.516397015
     0.608356506  0.768914815  0.515531343
     0.653736185  0.517158025  0.522647761
     0.651768271  0.840944444  0.527647761
     0.698909091  0.592416049  0.527477612
     0.695429590  0.760491358  0.532617910
     0.742566845  0.511492593  0.531552239
     0.739204991  0.839192593  0.541397015
     0.786752228  0.603608642  0.529925373
     0.784377897  0.770750617  0.537886567
     0.830659537  0.523000000  0.532131343
     0.830356506  0.854965432  0.540740299
     0.874203209  0.604082716  0.527358209
     0.874199643  0.775035802  0.531940299
     0.916705882  0.519075309  0.522623881
     0.918046346  0.858150617  0.530074627
     0.958573975  0.602737037  0.515659701
     0.960584670  0.772718519  0.522838806

  ion indices of the primitive-cell ions
   primitive index   ion index
                 1           1
                 2           2
                 3           3
                 4           4
                 5           5
                 6           6
                 7           7
                 8           8
                 9           9
                10          10
                11          11
                12          12
                13          13
                14          14
                15          15
                16          16
                17          17
                18          18
                19          19
                20          20
                21          21
                22          22
                23          23
                24          24
                25          25
                26          26
                27          27
                28          28
                29          29
                30          30
                31          31
                32          32
                33          33
                34          34
                35          35
                36          36
                37          37
                38          38
                39          39
                40          40
                41          41
                42          42
                43          43
                44          44
                45          45
                46          46
                47          47
                48          48
                49          49
                50          50
                51          51
                52          52
                53          53
                54          54
                55          55
                56          56
                57          57
                58          58
                59          59
                60          60
                61          61
                62          62
                63          63
                64          64
                65          65
                66          66
                67          67
                68          68
                69          69
                70          70
                71          71
                72          72
                73          73
                74          74
                75          75
                76          76
                77          77
                78          78
                79          79
                80          80
                81          81
                82          82
                83          83
                84          84
                85          85
                86          86
                87          87
                88          88
                89          89
                90          90
                91          91
                92          92

----------------------------------------------------------------------------------------

 
 
 KPOINTS: K-Spacing Value to Generate K-Mesh: 0.03

Automatic generation of k-mesh.
 Grid dimensions read from file:
 generate k-points for:    1    4    1

 Generating k-lattice:

  Cartesian coordinates                     Fractional coordinates (reciprocal lattice)
     0.035650624  0.000000000  0.000000000     1.000000000  0.000000000  0.000000000
     0.000000000  0.030864198  0.000000000     0.000000000  0.250000000  0.000000000
     0.000000000  0.000000000  0.029850746     0.000000000  0.000000000  1.000000000

  Length of vectors
     0.035650624  0.030864198  0.029850746

  Shift w.r.t. Gamma in fractional coordinates (k-lattice)
     0.000000000  0.000000000  0.000000000

 
 Subroutine IBZKPT returns following result:
 ===========================================
 
 Found      3 irreducible k-points:
 
 Following reciprocal coordinates:
            Coordinates               Weight
  0.000000  0.000000  0.000000      1.000000
  0.000000  0.250000  0.000000      2.000000
  0.000000  0.500000  0.000000      1.000000
 
 Following cartesian coordinates:
            Coordinates               Weight
  0.000000  0.000000  0.000000      1.000000
  0.000000  0.030864  0.000000      2.000000
  0.000000  0.061728  0.000000      1.000000
 


--------------------------------------------------------------------------------------------------------




 Dimension of arrays:
   k-points           NKPTS =      3   k-points in BZ     NKDIM =      3   number of bands    NBANDS=    232
   number of dos      NEDOS =    301   number of ions     NIONS =     92
   non local maximal  LDIM  =      4   non local SUM 2l+1 LMDIM =      8
   total plane-waves  NPLWV = ******
   max r-space proj   IRMAX =   1967   max aug-charges    IRDMAX=   5083
   dimension x,y,z NGX =   210 NGY =   60 NGZ =  250
   dimension x,y,z NGXF=   420 NGYF=  120 NGZF=  500
   support grid    NGXF=   420 NGYF=  120 NGZF=  500
   ions per type =              92
   NGX,Y,Z   is equivalent  to a cutoff of  12.45, 12.31, 12.41 a.u.
   NGXF,Y,Z  is equivalent  to a cutoff of  24.89, 24.63, 24.81 a.u.

 SYSTEM =  unknown system                          
 POSCAR =   C                                      

 Startparameter for this run:
   NWRITE =      2    write-flag & timer
   PREC   = accura    normal or accurate (medium, high low for compatibility)
   ISTART =      0    job   : 0-new  1-cont  2-samecut
   ICHARG =      2    charge: 1-file 2-atom 10-const
   ISPIN  =      1    spin polarized calculation?
   LNONCOLLINEAR =      F non collinear calculations
   LSORBIT =      F    spin-orbit coupling
   INIWAV =      1    electr: 0-lowe 1-rand  2-diag
   LASPH  =      F    aspherical Exc in radial PAW
 Electronic Relaxation 1
   ENCUT  =  500.0 eV  36.75 Ry    6.06 a.u.  51.14 14.77 61.08*2*pi/ulx,y,z
   ENINI  =  500.0     initial cutoff
   ENAUG  =  644.9 eV  augmentation charge cutoff
   NELM   =    150;   NELMIN=  2; NELMDL= -5     # of ELM steps 
   EDIFF  = 0.1E-05   stopping-criterion for ELM
   LREAL  =      T    real-space projection
   NLSPLINE    = F    spline interpolate recip. space projectors
   LCOMPAT=      F    compatible to vasp.4.4
   GGA_COMPAT  = T    GGA compatible to vasp.4.4-vasp.4.6
   LMAXPAW     = -100 max onsite density
   LMAXMIX     =    2 max onsite mixed and CHGCAR
   VOSKOWN=      0    Vosko Wilk Nusair interpolation
   ROPT   =   -0.00025
 Ionic relaxation
   EDIFFG = 0.1E-04   stopping-criterion for IOM
   NSW    =      0    number of steps for IOM
   NBLOCK =      1;   KBLOCK =      1    inner block; outer block 
   IBRION =     -1    ionic relax: 0-MD 1-quasi-New 2-CG
   NFREE  =      0    steps in history (QN), initial steepest desc. (CG)
   ISIF   =      2    stress and relaxation
   IWAVPR =     10    prediction:  0-non 1-charg 2-wave 3-comb
   ISYM   =      2    0-nonsym 1-usesym 2-fastsym
   LCORR  =      T    Harris-Foulkes like correction to forces

   POTIM  = 0.5000    time-step for ionic-motion
   TEIN   =    0.0    initial temperature
   TEBEG  =    0.0;   TEEND  =   0.0 temperature during run
   SMASS  =  -3.00    Nose mass-parameter (am)
   estimated Nose-frequenzy (Omega)   =  0.10E-29 period in steps = 0.13E+47 mass=  -0.180E-25a.u.
   SCALEE = 1.0000    scale energy and forces
   NPACO  =    256;   APACO  = 10.0  distance and # of slots for P.C.
   PSTRESS=    0.0 pullay stress

  Mass of Ions in am
   POMASS =  12.01
  Ionic Valenz
   ZVAL   =   4.00
  Atomic Wigner-Seitz radii
   RWIGS  =  -1.00
  virtual crystal weights 
   VCA    =   1.00
   NELECT =     368.0000    total number of electrons
   NUPDOWN=      -1.0000    fix difference up-down

 DOS related values:
   EMIN   =  10.00;   EMAX   =-10.00  energy-range for DOS
   EFERMI =   0.00;   METHOD = LEGACY      
   ISMEAR =     0;   SIGMA  =   0.20  broadening in eV -4-tet -1-fermi 0-gaus
   EFERMI_NEDOS =   21; number of points for ismear=-14 and -15

 Electronic relaxation 2 (details)
   IALGO  =     38    algorithm
   LDIAG  =      T    sub-space diagonalisation (order eigenvalues)
   LSUBROT=      F    optimize rotation matrix (better conditioning)
   TURBO    =      0    0=normal 1=particle mesh
   IRESTART =      0    0=no restart 2=restart with 2 vectors
   NREBOOT  =      0    no. of reboots
   NMIN     =      0    reboot dimension
   EREF     =   0.00    reference energy to select bands
   IMIX   =      4    mixing-type and parameters
     AMIX     =   0.40;   BMIX     =  1.00
     AMIX_MAG =   1.60;   BMIX_MAG =  1.00
     AMIN     =   0.10
     WC   =   100.;   INIMIX=   1;  MIXPRE=   1;  MAXMIX= -45

 Intra band minimization:
   WEIMIN = 0.0000     energy-eigenvalue tresh-hold
   EBREAK =  0.11E-08  absolut break condition
   DEPER  =   0.30     relativ break condition  

   TIME   =   0.40     timestep for ELM

  volume/ion in A,a.u.               =      82.73       558.30
  Fermi-wavevector in a.u.,A,eV,Ry     =   0.596398  1.127030  4.839472  0.355691
  Thomas-Fermi vector in A             =   1.646729
 
 Write flags
   LWAVE        =      F    write WAVECAR
   LDOWNSAMPLE  =      F    k-point downsampling of WAVECAR
   LCHARG       =      F    write CHGCAR
   LVTOT        =      F    write LOCPOT, total local potential
   LVHAR        =      F    write LOCPOT, Hartree potential only
   WRT_POTENTIAL= false  ! write potential to hdf5 file
   LELF         =      F    write electronic localiz. function (ELF)
   LORBIT       =      0    0 simple, 1 ext, 2 COOP (PROOUT), +10 PAW based schemes


 Python interface
   PLUGINS active      =      F    recompile with -DPLUGINS to activate
 
 Dipole corrections
   LMONO      =      F    monopole corrections only (constant potential shift)
   LDIPOL     =      F    correct potential (dipole corrections)
   IDIPOL     =      0    1-x, 2-y, 3-z, 4-all directions 
   EPSILON    =  1.0000000 bulk dielectric constant
   LVACPOTAV  =      F  vacuum potentials using an averaging scheme for the charge density
   VACPOTFLAT =  0.1000000 required flatness to determine vacuum potential
 
Coulomb truncation method
  LTRUNCATE          =      F  Coulomb kernel truncation to be used
  IDIMENSIONALITY    =      3  Dimensionality of cutoff (0 molecules / 2 surfaces)
  ISURFACE           =     -1  Direction of surface normal
  LCOARSEN           =      F  Coarsen the charge grid before padding, preferred

 
 Exchange correlation treatment:
   GGA     = PE    functional components
   XC_C    = 1    coefficients multiplying the functional components
   LIBXC   =     F    Libxc                    
   VOSKOWN =     0    Vosko Wilk Nusair interpolation
   LHFCALC =     F    Hartree Fock is set to
   LHFONE  =     F    Hartree Fock one center treatment
   AEXX    =    0.0000 exact exchange contribution

 Parameters of functionals:
   PE:
     No parameter
 
 Van der Waals corrections
   IVDW    =     0    specifies the selected vdW correction

 Linear response parameters
   LEPSILON=     F    determine dielectric tensor
   LRPA    =     F    only Hartree local field effects (RPA)
   LNABLA  =     F    use nabla operator in PAW spheres
   LVEL    =     F    velocity operator in full k-point grid
   CSHIFT  =0.1000    complex shift for real part using Kramers Kronig
   OMEGAMAX=  -1.0    maximum frequency
   DEG_THRESHOLD= 0.2000000E-02 threshold for treating states as degnerate
   RTIME   =   -0.100 relaxation time in fs
  (WPLASMAI=    0.000 imaginary part of plasma frequency in eV, 0.658/RTIME)
   DFIELD  = 0.0000000 0.0000000 0.0000000 field for delta impulse in time
 
  Optional k-point grid parameters
   LKPOINTS_OPT  =     F    use optional k-point grid
   KPOINTS_OPT_MODE=     1    mode for optional k-point grid
 
 Orbital magnetization related:
   ORBITALMAG=     F  switch on orbital magnetization
   LCHIMAG   =     F  perturbation theory with respect to B field
   DQ        =  0.001000  dq finite difference perturbation B field
   LLRAUG    =     F  two centre corrections for induced B field
   LBONE     =     F  B-component reconstruction in AE one-centre
   LVGVCALC  =     T  calculate vGv susceptibility
   LVGVAPPL  =     F  apply vGv susceptibility instead of pGv for G=0

 Random number generation:
   RANDOM_GENERATOR = DEFAULT
   PCG_SEED         = not used


--------------------------------------------------------------------------------------------------------


 Static calculation
 charge density and potential will be updated during run
 non-spin polarized calculation
 Variant of blocked Davidson
 Davidson routine will perform the subspace rotation
 perform sub-space diagonalisation
    after iterative eigenvector-optimisation
 modified Broyden-mixing scheme, WC =      100.0
 initial mixing is a Kerker type mixing with AMIX =  0.4000 and BMIX =      1.0000
 Hartree-type preconditioning will be used
 using additional bands            48
 real space projection scheme for non local part
 use partial core corrections
 calculate Harris-corrections to forces 
   (improved forces if not selfconsistent)
 use gradient corrections 
 use of overlap-Matrix (Vanderbilt PP)
 Gauss-broadening in eV      SIGMA  =   0.20


--------------------------------------------------------------------------------------------------------


  energy-cutoff  :      500.00
  volume of cell :     7611.37
      direct lattice vectors                 reciprocal lattice vectors
    28.050000000  0.000000000  0.000000000     0.035650624  0.000000000  0.000000000
     0.000000000  8.100000000  0.000000000     0.000000000  0.123456790  0.000000000
     0.000000000  0.000000000 33.500000000     0.000000000  0.000000000  0.029850746

  length of vectors
    28.050000000  8.100000000 33.500000000     0.035650624  0.123456790  0.029850746


 
 k-points in units of 2pi/SCALE and weight: K-Spacing Value to Generate K-Mesh: 0.03
   0.00000000  0.00000000  0.00000000       0.250
   0.00000000  0.03086420  0.00000000       0.500
   0.00000000  0.06172840  0.00000000       0.250
 
 k-points in reciprocal lattice and weights: K-Spacing Value to Generate K-Mesh: 0.03
   0.00000000  0.00000000  0.00000000       0.250
   0.00000000  0.25000000  0.00000000       0.500
   0.00000000  0.50000000  0.00000000       0.250
 
 position of ions in fractional coordinates (direct lattice) 
   0.01300670  0.10872432  0.52342388
   0.01127911  0.27460864  0.51589851
   0.05597647  0.02218284  0.51405373
   0.05203922  0.35387407  0.49778507
   0.09784135  0.10573938  0.50183881
   0.09419109  0.27272840  0.49200000
   0.13976292  0.02346272  0.48908060
   0.13514902  0.35102222  0.47405970
   0.18077897  0.10038309  0.47478209
   0.17762068  0.26402222  0.46516716
   0.22263815  0.02017099  0.46457015
   0.22054938  0.34829506  0.45487761
   0.26564135  0.10275025  0.46092537
   0.26605704  0.27520000  0.45403582
   0.30967237  0.02532531  0.46165672
   0.30952014  0.35511605  0.45280896
   0.35350945  0.10777802  0.46535522
   0.35276257  0.27715802  0.46094030
   0.39756150  0.02779654  0.47036418
   0.39661676  0.36473951  0.46926567
   0.43504100  0.10784358  0.48855522
   0.43674510  0.27771852  0.48497910
   0.47961141  0.03030099  0.49366866
   0.48027094  0.35762963  0.49065075
   0.52029947  0.10970395  0.50479403
   0.52111586  0.27822346  0.50703582
   0.56273084  0.02669025  0.51260896
   0.56569340  0.36045062  0.51480896
   0.60660963  0.10223420  0.52333433
   0.60835294  0.27395185  0.52296418
   0.65061676  0.01554160  0.53051343
   0.65254902  0.35145926  0.53008657
   0.69391444  0.09216370  0.54117015
   0.69593226  0.25981481  0.53574030
   0.73933333  0.00473344  0.54461791
   0.74142246  0.34146914  0.53571642
   0.78404991  0.09567420  0.54568060
   0.78613904  0.26637531  0.54311343
   0.83143672  0.02186481  0.54538209
   0.83106952  0.35286543  0.53710448
   0.87402139  0.10908383  0.54534627
   0.87515508  0.27108642  0.53427761
   0.92057398  0.01987198  0.54159104
   0.91826738  0.35279630  0.52511642
   0.96321569  0.09987741  0.53325970
   0.96176827  0.27381975  0.52478806
   0.00824424  0.60966049  0.50402985
   0.00993993  0.78013580  0.51245672
   0.05003209  0.52052593  0.49362388
   0.05390731  0.85485185  0.50761493
   0.09154724  0.60765556  0.48165075
   0.09196078  0.77370370  0.48799701
   0.13365882  0.51967778  0.47068060
   0.13583601  0.85507284  0.48122985
   0.17667950  0.60518889  0.45890448
   0.17635116  0.77555679  0.46693134
   0.22075686  0.52744815  0.44913433
   0.21921818  0.85240494  0.45851940
   0.26437540  0.60852593  0.44266269
   0.26453939  0.77861852  0.45101493
   0.30947914  0.52620494  0.44407164
   0.30866025  0.85545556  0.45524179
   0.35405989  0.60795556  0.44895821
   0.35302888  0.77855309  0.45260299
   0.39691979  0.52587901  0.45844179
   0.39627094  0.85904198  0.46465672
   0.44171123  0.60446173  0.46660597
   0.43994296  0.78209259  0.46910746
   0.48275223  0.52759506  0.48062388
   0.48311943  0.86475802  0.48370149
   0.52565775  0.60625802  0.49203881
   0.52501604  0.77829753  0.49403284
   0.56607130  0.52260988  0.50867164
   0.56607487  0.85969506  0.50855821
   0.60931907  0.60404568  0.51639701
   0.60835651  0.76891481  0.51553134
   0.65373619  0.51715802  0.52264776
   0.65176827  0.84094444  0.52764776
   0.69890909  0.59241605  0.52747761
   0.69542959  0.76049136  0.53261791
   0.74256684  0.51149259  0.53155224
   0.73920499  0.83919259  0.54139701
   0.78675223  0.60360864  0.52992537
   0.78437790  0.77075062  0.53788657
   0.83065954  0.52300000  0.53213134
   0.83035651  0.85496543  0.54074030
   0.87420321  0.60408272  0.52735821
   0.87419964  0.77503580  0.53194030
   0.91670588  0.51907531  0.52262388
   0.91804635  0.85815062  0.53007463
   0.95857398  0.60273704  0.51565970
   0.96058467  0.77271852  0.52283881
 
 position of ions in cartesian coordinates  (Angst):
   0.36483800  0.88066700 17.53470000
   0.31637900  2.22433000 17.28260000
   1.57014000  0.17968100 17.22080000
   1.45970000  2.86638000 16.67580000
   2.74445000  0.85648900 16.81160000
   2.64206000  2.20910000 16.48200000
   3.92035000  0.19004800 16.38420000
   3.79093000  2.84328000 15.88100000
   5.07085000  0.81310300 15.90520000
   4.98226000  2.13858000 15.58310000
   6.24500000  0.16338500 15.56310000
   6.18641000  2.82119000 15.23840000
   7.45124000  0.83227700 15.44100000
   7.46290000  2.22912000 15.21020000
   8.68631000  0.20513500 15.46550000
   8.68204000  2.87644000 15.16910000
   9.91594000  0.87300200 15.58940000
   9.89499000  2.24498000 15.44150000
  11.15160000  0.22515200 15.75720000
  11.12510000  2.95439000 15.72040000
  12.20290000  0.87353300 16.36660000
  12.25070000  2.24952000 16.24680000
  13.45310000  0.24543800 16.53790000
  13.47160000  2.89680000 16.43680000
  14.59440000  0.88860200 16.91060000
  14.61730000  2.25361000 16.98570000
  15.78460000  0.21619100 17.17240000
  15.86770000  2.91965000 17.24610000
  17.01540000  0.82809700 17.53170000
  17.06430000  2.21901000 17.51930000
  18.24980000  0.12588700 17.77220000
  18.30400000  2.84682000 17.75790000
  19.46430000  0.74652600 18.12920000
  19.52090000  2.10450000 17.94730000
  20.73830000  0.03834090 18.24470000
  20.79690000  2.76590000 17.94650000
  21.99260000  0.77496100 18.28030000
  22.05120000  2.15764000 18.19430000
  23.32180000  0.17710500 18.27030000
  23.31150000  2.85821000 17.99300000
  24.51630000  0.88357900 18.26910000
  24.54810000  2.19580000 17.89830000
  25.82210000  0.16096300 18.14330000
  25.75740000  2.85765000 17.59140000
  27.01820000  0.80900700 17.86420000
  26.97760000  2.21794000 17.58040000
   0.23125100  4.93825000 16.88500000
   0.27881500  6.31910000 17.16730000
   1.40340000  4.21626000 16.53640000
   1.51210000  6.92430000 17.00510000
   2.56790000  4.92201000 16.13530000
   2.57950000  6.26700000 16.34790000
   3.74913000  4.20939000 15.76780000
   3.81020000  6.92609000 16.12120000
   4.95586000  4.90203000 15.37330000
   4.94665000  6.28201000 15.64220000
   6.19223000  4.27233000 15.04600000
   6.14907000  6.90448000 15.36040000
   7.41573000  4.92906000 14.82920000
   7.42033000  6.30681000 15.10900000
   8.68089000  4.26226000 14.87640000
   8.65792000  6.92919000 15.25060000
   9.93138000  4.92444000 15.04010000
   9.90246000  6.30628000 15.16220000
  11.13360000  4.25962000 15.35780000
  11.11540000  6.95824000 15.56600000
  12.39000000  4.89614000 15.63130000
  12.34040000  6.33495000 15.71510000
  13.54120000  4.27352000 16.10090000
  13.55150000  7.00454000 16.20400000
  14.74470000  4.91069000 16.48330000
  14.72670000  6.30421000 16.55010000
  15.87830000  4.23314000 17.04050000
  15.87840000  6.96353000 17.03670000
  17.09140000  4.89277000 17.29930000
  17.06440000  6.22821000 17.27030000
  18.33730000  4.18898000 17.50870000
  18.28210000  6.81165000 17.67620000
  19.60440000  4.79857000 17.67050000
  19.50680000  6.15998000 17.84270000
  20.82900000  4.14309000 17.80700000
  20.73470000  6.79746000 18.13680000
  22.06840000  4.88923000 17.75250000
  22.00180000  6.24308000 18.01920000
  23.30000000  4.23630000 17.82640000
  23.29150000  6.92522000 18.11480000
  24.52140000  4.89307000 17.66650000
  24.52130000  6.27779000 17.82000000
  25.71360000  4.20451000 17.50790000
  25.75120000  6.95102000 17.75750000
  26.88800000  4.88217000 17.27460000
  26.94440000  6.25902000 17.51510000
 


--------------------------------------------------------------------------------------------------------


 k-point     1 :   0.0000 0.0000 0.0000  plane waves:  193173
 k-point     2 :   0.0000 0.2500 0.0000  plane waves:  193166
 k-point     3 :   0.0000 0.5000 0.0000  plane waves:  193226

 maximum and minimum number of plane-waves per node :    193226   193166

 maximum number of plane-waves:    193226
 maximum index in each direction: 
   IXMAX=   51   IYMAX=   14   IZMAX=   61
   IXMIN=  -51   IYMIN=  -15   IZMIN=  -61


 serial   3D FFT for wavefunctions
 parallel 3D FFT for charge:
    minimum data exchange during FFTs selected (reduces bandwidth)


 total amount of memory used by VASP MPI-rank0  2294499. kBytes
=======================================================================

   base                                    :      30000. kBytes
   nonlr-proj                              :      15065. kBytes
   fftplans                                :     436558. kBytes
   grid                                    :     732614. kBytes
   one-center                              :        282. kBytes
   wavefun                                 :    1079980. kBytes
 
     INWAV:  cpu time      0.0000: real time      0.0000
 Broyden mixing: mesh for mixing (old mesh)
   NGX =103   NGY = 29   NGZ =123
  (NGX  =420   NGY  =120   NGZ  =500)
  gives a total of 367401 points

 initial charge density was supplied:
 charge density of overlapping atoms calculated
 number of electron     368.0000000 magnetization 
 keeping initial charge density in first step


--------------------------------------------------------------------------------------------------------


 Maximum index for non-local projection operator          1871
 Maximum index for augmentation-charges          2384 (set IRDMAX)


--------------------------------------------------------------------------------------------------------


 First call to EWALD:  gamma=   0.090
 Maximum number of real-space cells   2x   6x   2
 Maximum number of reciprocal cells   4x   1x   4

    FEWALD:  cpu time      0.1590: real time      0.1591


--------------------------------------- Ionic step        1  -------------------------------------------




--------------------------------------- Iteration      1(   1)  ---------------------------------------


    POTLOK:  cpu time      0.4184: real time      0.4356
    SETDIJ:  cpu time      0.0419: real time      0.0419
     EDDAV:  cpu time     11.0173: real time     11.0216
       DOS:  cpu time      0.0008: real time      0.0008
    --------------------------------------------
      LOOP:  cpu time     11.4784: real time     11.4999

 eigenvalue-minimisations  :  1712
 total energy-change (2. order) : 0.3665276E+04  (-0.1193993E+05)
 number of electron     368.0000000 magnetization 
 augmentation part      368.0000000 magnetization 

 Free energy of the ion-electron system (eV)
  ---------------------------------------------------
  alpha Z        PSCENC =        91.34886789
  Ewald energy   TEWEN  =    120134.53712875
  -Hartree energ DENC   =   -129458.67819953
  -exchange      EXHF   =         0.00000000
  -V(xc)+E(xc)   XCENC  =      1221.70009671
  PAW double counting   =      9984.02826696   -10036.41360137
  entropy T*S    EENTRO =        -0.88997885
  eigenvalues    EBANDS =     -1808.01127501
  atomic energy  EATOM  =     13537.65479391
  Solvation  Ediel_sol  =         0.00000000
  ---------------------------------------------------
  free energy    TOTEN  =      3665.27609945 eV

  energy without entropy =     3666.16607831  energy(sigma->0) =     3665.72108888


--------------------------------------------------------------------------------------------------------




--------------------------------------- Iteration      1(   2)  ---------------------------------------


     EDDAV:  cpu time     13.0388: real time     13.0437
       DOS:  cpu time      0.0007: real time      0.0007
    --------------------------------------------
      LOOP:  cpu time     13.0395: real time     13.0444

 eigenvalue-minimisations  :  2136
 total energy-change (2. order) :-0.3490052E+04  (-0.3228633E+04)
 number of electron     368.0000000 magnetization 
 augmentation part      368.0000000 magnetization 

 Free energy of the ion-electron system (eV)
  ---------------------------------------------------
  alpha Z        PSCENC =        91.34886789
  Ewald energy   TEWEN  =    120134.53712875
  -Hartree energ DENC   =   -129458.67819953
  -exchange      EXHF   =         0.00000000
  -V(xc)+E(xc)   XCENC  =      1221.70009671
  PAW double counting   =      9984.02826696   -10036.41360137
  entropy T*S    EENTRO =        -0.12780431
  eigenvalues    EBANDS =     -5298.82592621
  atomic energy  EATOM  =     13537.65479391
  Solvation  Ediel_sol  =         0.00000000
  ---------------------------------------------------
  free energy    TOTEN  =       175.22362279 eV

  energy without entropy =      175.35142711  energy(sigma->0) =      175.28752495


--------------------------------------------------------------------------------------------------------




--------------------------------------- Iteration      1(   3)  ---------------------------------------


     EDDAV:  cpu time     11.2854: real time     11.2896
       DOS:  cpu time      0.0006: real time      0.0006
    --------------------------------------------
      LOOP:  cpu time     11.2860: real time     11.2903

 eigenvalue-minimisations  :  1792
 total energy-change (2. order) :-0.1008896E+04  (-0.9873078E+03)
 number of electron     368.0000000 magnetization 
 augmentation part      368.0000000 magnetization 

 Free energy of the ion-electron system (eV)
  ---------------------------------------------------
  alpha Z        PSCENC =        91.34886789
  Ewald energy   TEWEN  =    120134.53712875
  -Hartree energ DENC   =   -129458.67819953
  -exchange      EXHF   =         0.00000000
  -V(xc)+E(xc)   XCENC  =      1221.70009671
  PAW double counting   =      9984.02826696   -10036.41360137
  entropy T*S    EENTRO =        -0.05804341
  eigenvalues    EBANDS =     -6307.79203584
  atomic energy  EATOM  =     13537.65479391
  Solvation  Ediel_sol  =         0.00000000
  ---------------------------------------------------
  free energy    TOTEN  =      -833.67272593 eV

  energy without entropy =     -833.61468252  energy(sigma->0) =     -833.64370422


--------------------------------------------------------------------------------------------------------




--------------------------------------- Iteration      1(   4)  ---------------------------------------


     EDDAV:  cpu time     10.9585: real time     10.9626
       DOS:  cpu time      0.0007: real time      0.0007
    --------------------------------------------
      LOOP:  cpu time     10.9592: real time     10.9633

 eigenvalue-minimisations  :  1728
 total energy-change (2. order) :-0.6231747E+02  (-0.6117507E+02)
 number of electron     368.0000000 magnetization 
 augmentation part      368.0000000 magnetization 

 Free energy of the ion-electron system (eV)
  ---------------------------------------------------
  alpha Z        PSCENC =        91.34886789
  Ewald energy   TEWEN  =    120134.53712875
  -Hartree energ DENC   =   -129458.67819953
  -exchange      EXHF   =         0.00000000
  -V(xc)+E(xc)   XCENC  =      1221.70009671
  PAW double counting   =      9984.02826696   -10036.41360137
  entropy T*S    EENTRO =        -0.06961072
  eigenvalues    EBANDS =     -6370.09793871
  atomic energy  EATOM  =     13537.65479391
  Solvation  Ediel_sol  =         0.00000000
  ---------------------------------------------------
  free energy    TOTEN  =      -895.99019611 eV

  energy without entropy =     -895.92058539  energy(sigma->0) =     -895.95539075


--------------------------------------------------------------------------------------------------------




--------------------------------------- Iteration      1(   5)  ---------------------------------------


     EDDAV:  cpu time     11.0926: real time     11.0973
       DOS:  cpu time      0.0007: real time      0.0007
    CHARGE:  cpu time      1.2063: real time      1.2084
    MIXING:  cpu time      0.2744: real time      0.2746
    --------------------------------------------
      LOOP:  cpu time     12.5740: real time     12.5809

 eigenvalue-minimisations  :  1760
 total energy-change (2. order) :-0.1600008E+01  (-0.1576203E+01)
 number of electron     367.9999999 magnetization 
 augmentation part       10.1547448 magnetization 

 Broyden mixing:
  rms(total) = 0.45453E+01    rms(broyden)= 0.45447E+01
  rms(prec ) = 0.46625E+01
  weight for this iteration     100.00

 Free energy of the ion-electron system (eV)
  ---------------------------------------------------
  alpha Z        PSCENC =        91.34886789
  Ewald energy   TEWEN  =    120134.53712875
  -Hartree energ DENC   =   -129458.67819953
  -exchange      EXHF   =         0.00000000
  -V(xc)+E(xc)   XCENC  =      1221.70009671
  PAW double counting   =      9984.02826696   -10036.41360137
  entropy T*S    EENTRO =        -0.07019556
  eigenvalues    EBANDS =     -6371.69736218
  atomic energy  EATOM  =     13537.65479391
  Solvation  Ediel_sol  =         0.00000000
  ---------------------------------------------------
  free energy    TOTEN  =      -897.59020442 eV

  energy without entropy =     -897.52000886  energy(sigma->0) =     -897.55510664


--------------------------------------------------------------------------------------------------------




--------------------------------------- Iteration      1(   6)  ---------------------------------------


    POTLOK:  cpu time      0.3196: real time      0.3195
    SETDIJ:  cpu time      0.0402: real time      0.0402
     EDDAV:  cpu time     10.2364: real time     10.2433
       DOS:  cpu time      0.0007: real time      0.0007
    CHARGE:  cpu time      1.1587: real time      1.1594
    MIXING:  cpu time      0.2765: real time      0.2772
    --------------------------------------------
      LOOP:  cpu time     12.0321: real time     12.0404

 eigenvalue-minimisations  :  1584
 total energy-change (2. order) : 0.4948579E+02  (-0.4709613E+01)
 number of electron     367.9999999 magnetization 
 augmentation part        9.7327734 magnetization 

 Broyden mixing:
  rms(total) = 0.26700E+01    rms(broyden)= 0.26699E+01
  rms(prec ) = 0.27281E+01
  weight for this iteration     100.00

 eigenvalues of (default mixing * dielectric matrix)
  average eigenvalue GAMMA=   2.1846
  2.1846

 Free energy of the ion-electron system (eV)
  ---------------------------------------------------
  alpha Z        PSCENC =        91.34886789
  Ewald energy   TEWEN  =    120134.53712875
  -Hartree energ DENC   =   -130029.63679818
  -exchange      EXHF   =         0.00000000
  -V(xc)+E(xc)   XCENC  =      1245.00688196
  PAW double counting   =     18945.42461902   -19005.42535931
  entropy T*S    EENTRO =        -0.08366309
  eigenvalues    EBANDS =     -5766.93088684
  atomic energy  EATOM  =     13537.65479391
  Solvation  Ediel_sol  =         0.00000000
  ---------------------------------------------------
  free energy    TOTEN  =      -848.10441589 eV

  energy without entropy =     -848.02075279  energy(sigma->0) =     -848.06258434


--------------------------------------------------------------------------------------------------------




--------------------------------------- Iteration      1(   7)  ---------------------------------------


    POTLOK:  cpu time      0.3164: real time      0.3196
    SETDIJ:  cpu time      0.0401: real time      0.0401
     EDDAV:  cpu time     10.1523: real time     10.1566
       DOS:  cpu time      0.0007: real time      0.0007
    CHARGE:  cpu time      1.1508: real time      1.1534
    MIXING:  cpu time      0.2770: real time      0.2785
    --------------------------------------------
      LOOP:  cpu time     11.9372: real time     11.9489

 eigenvalue-minimisations  :  1568
 total energy-change (2. order) : 0.1845201E+02  (-0.6539937E+01)
 number of electron     367.9999999 magnetization 
 augmentation part        9.1779301 magnetization 

 Broyden mixing:
  rms(total) = 0.73251E+00    rms(broyden)= 0.73223E+00
  rms(prec ) = 0.74231E+00
  weight for this iteration     100.00

 eigenvalues of (default mixing * dielectric matrix)
  average eigenvalue GAMMA=   2.1943
  2.1943  2.1943

 Free energy of the ion-electron system (eV)
  ---------------------------------------------------
  alpha Z        PSCENC =        91.34886789
  Ewald energy   TEWEN  =    120134.53712875
  -Hartree energ DENC   =   -130795.72164454
  -exchange      EXHF   =         0.00000000
  -V(xc)+E(xc)   XCENC  =      1276.11847066
  PAW double counting   =     36590.45499677   -36657.37426020
  entropy T*S    EENTRO =        -0.09353463
  eigenvalues    EBANDS =     -5006.57722144
  atomic energy  EATOM  =     13537.65479391
  Solvation  Ediel_sol  =         0.00000000
  ---------------------------------------------------
  free energy    TOTEN  =      -829.65240284 eV

  energy without entropy =     -829.55886821  energy(sigma->0) =     -829.60563553


--------------------------------------------------------------------------------------------------------




--------------------------------------- Iteration      1(   8)  ---------------------------------------


    POTLOK:  cpu time      0.3187: real time      0.3188
    SETDIJ:  cpu time      0.0401: real time      0.0401
     EDDAV:  cpu time     10.3527: real time     10.3566
       DOS:  cpu time      0.0008: real time      0.0008
    CHARGE:  cpu time      1.1527: real time      1.1549
    MIXING:  cpu time      0.2810: real time      0.2817
    --------------------------------------------
      LOOP:  cpu time     12.1460: real time     12.1529

 eigenvalue-minimisations  :  1608
 total energy-change (2. order) : 0.2933777E+00  (-0.2396661E+00)
 number of electron     367.9999999 magnetization 
 augmentation part        9.1639439 magnetization 

 Broyden mixing:
  rms(total) = 0.10134E+00    rms(broyden)= 0.10130E+00
  rms(prec ) = 0.12356E+00
  weight for this iteration     100.00

 eigenvalues of (default mixing * dielectric matrix)
  average eigenvalue GAMMA=   1.8527
  1.1823  2.4326  1.9431

 Free energy of the ion-electron system (eV)
  ---------------------------------------------------
  alpha Z        PSCENC =        91.34886789
  Ewald energy   TEWEN  =    120134.53712875
  -Hartree energ DENC   =   -130888.61071853
  -exchange      EXHF   =         0.00000000
  -V(xc)+E(xc)   XCENC  =      1275.88236529
  PAW double counting   =     40808.67469389   -40872.93034086
  entropy T*S    EENTRO =        -0.09066113
  eigenvalues    EBANDS =     -4915.82515439
  atomic energy  EATOM  =     13537.65479391
  Solvation  Ediel_sol  =         0.00000000
  ---------------------------------------------------
  free energy    TOTEN  =      -829.35902519 eV

  energy without entropy =     -829.26836406  energy(sigma->0) =     -829.31369462


--------------------------------------------------------------------------------------------------------




--------------------------------------- Iteration      1(   9)  ---------------------------------------


    POTLOK:  cpu time      0.3192: real time      0.3191
    SETDIJ:  cpu time      0.0403: real time      0.0403
     EDDAV:  cpu time     10.4708: real time     10.4746
       DOS:  cpu time      0.0007: real time      0.0007
    CHARGE:  cpu time      1.1555: real time      1.1556
    MIXING:  cpu time      0.2871: real time      0.2870
    --------------------------------------------
      LOOP:  cpu time     12.2736: real time     12.2774

 eigenvalue-minimisations  :  1632
 total energy-change (2. order) : 0.1062553E+00  (-0.2682868E-01)
 number of electron     367.9999999 magnetization 
 augmentation part        9.1412899 magnetization 

 Broyden mixing:
  rms(total) = 0.57060E-01    rms(broyden)= 0.57051E-01
  rms(prec ) = 0.78826E-01
  weight for this iteration     100.00

 eigenvalues of (default mixing * dielectric matrix)
  average eigenvalue GAMMA=   1.6540
  2.1945  2.1945  1.0080  1.2191

 Free energy of the ion-electron system (eV)
  ---------------------------------------------------
  alpha Z        PSCENC =        91.34886789
  Ewald energy   TEWEN  =    120134.53712875
  -Hartree energ DENC   =   -130957.47922722
  -exchange      EXHF   =         0.00000000
  -V(xc)+E(xc)   XCENC  =      1277.26320759
  PAW double counting   =     41376.61664441   -41440.92175637
  entropy T*S    EENTRO =        -0.09059175
  eigenvalues    EBANDS =     -4848.18183706
  atomic energy  EATOM  =     13537.65479391
  Solvation  Ediel_sol  =         0.00000000
  ---------------------------------------------------
  free energy    TOTEN  =      -829.25276985 eV

  energy without entropy =     -829.16217810  energy(sigma->0) =     -829.20747398


--------------------------------------------------------------------------------------------------------




--------------------------------------- Iteration      1(  10)  ---------------------------------------


    POTLOK:  cpu time      0.3191: real time      0.3191
    SETDIJ:  cpu time      0.0402: real time      0.0402
     EDDAV:  cpu time     11.2371: real time     11.2413
       DOS:  cpu time      0.0007: real time      0.0007
    CHARGE:  cpu time      1.1549: real time      1.1554
    MIXING:  cpu time      0.2914: real time      0.2930
    --------------------------------------------
      LOOP:  cpu time     13.0434: real time     13.0498

 eigenvalue-minimisations  :  1784
 total energy-change (2. order) : 0.3440504E-01  (-0.4638299E-02)
 number of electron     367.9999999 magnetization 
 augmentation part        9.1305766 magnetization 

 Broyden mixing:
  rms(total) = 0.38241E-01    rms(broyden)= 0.38239E-01
  rms(prec ) = 0.58258E-01
  weight for this iteration     100.00

 eigenvalues of (default mixing * dielectric matrix)
  average eigenvalue GAMMA=   1.6950
  2.4174  2.4174  1.5638  1.2224  0.8539

 Free energy of the ion-electron system (eV)
  ---------------------------------------------------
  alpha Z        PSCENC =        91.34886789
  Ewald energy   TEWEN  =    120134.53712875
  -Hartree energ DENC   =   -131001.08063479
  -exchange      EXHF   =         0.00000000
  -V(xc)+E(xc)   XCENC  =      1277.58932306
  PAW double counting   =     41188.91639387   -41253.12303759
  entropy T*S    EENTRO =        -0.09076018
  eigenvalues    EBANDS =     -4804.97043972
  atomic energy  EATOM  =     13537.65479391
  Solvation  Ediel_sol  =         0.00000000
  ---------------------------------------------------
  free energy    TOTEN  =      -829.21836481 eV

  energy without entropy =     -829.12760463  energy(sigma->0) =     -829.17298472


--------------------------------------------------------------------------------------------------------




--------------------------------------- Iteration      1(  11)  ---------------------------------------


    POTLOK:  cpu time      0.3194: real time      0.3194
    SETDIJ:  cpu time      0.0401: real time      0.0401
     EDDAV:  cpu time      9.9337: real time      9.9375
       DOS:  cpu time      0.0008: real time      0.0008
    CHARGE:  cpu time      1.1628: real time      1.1650
    MIXING:  cpu time      0.2956: real time      0.2980
    --------------------------------------------
      LOOP:  cpu time     11.7524: real time     11.7608

 eigenvalue-minimisations  :  1528
 total energy-change (2. order) : 0.3238388E-01  (-0.2121739E-02)
 number of electron     367.9999999 magnetization 
 augmentation part        9.1263436 magnetization 

 Broyden mixing:
  rms(total) = 0.24653E-01    rms(broyden)= 0.24652E-01
  rms(prec ) = 0.39144E-01
  weight for this iteration     100.00

 eigenvalues of (default mixing * dielectric matrix)
  average eigenvalue GAMMA=   1.7791
  3.0707  2.4997  1.9407  0.9501  1.1066  1.1066

 Free energy of the ion-electron system (eV)
  ---------------------------------------------------
  alpha Z        PSCENC =        91.34886789
  Ewald energy   TEWEN  =    120134.53712875
  -Hartree energ DENC   =   -131066.13224167
  -exchange      EXHF   =         0.00000000
  -V(xc)+E(xc)   XCENC  =      1278.12810627
  PAW double counting   =     41084.83544044   -41148.92073676
  entropy T*S    EENTRO =        -0.09086710
  eigenvalues    EBANDS =     -4740.54647265
  atomic energy  EATOM  =     13537.65479391
  Solvation  Ediel_sol  =         0.00000000
  ---------------------------------------------------
  free energy    TOTEN  =      -829.18598093 eV

  energy without entropy =     -829.09511383  energy(sigma->0) =     -829.14054738


--------------------------------------------------------------------------------------------------------




--------------------------------------- Iteration      1(  12)  ---------------------------------------


    POTLOK:  cpu time      0.3186: real time      0.3187
    SETDIJ:  cpu time      0.0403: real time      0.0404
     EDDAV:  cpu time     10.0960: real time     10.1000
       DOS:  cpu time      0.0008: real time      0.0008
    CHARGE:  cpu time      1.1538: real time      1.1558
    MIXING:  cpu time      0.3065: real time      0.3067
    --------------------------------------------
      LOOP:  cpu time     11.9160: real time     11.9223

 eigenvalue-minimisations  :  1560
 total energy-change (2. order) : 0.6604010E-02  (-0.2732589E-02)
 number of electron     367.9999999 magnetization 
 augmentation part        9.1187377 magnetization 

 Broyden mixing:
  rms(total) = 0.15524E-01    rms(broyden)= 0.15520E-01
  rms(prec ) = 0.23536E-01
  weight for this iteration     100.00

 eigenvalues of (default mixing * dielectric matrix)
  average eigenvalue GAMMA=   2.0573
  4.7939  2.2937  2.2937  1.9431  1.0329  1.0220  1.0220

 Free energy of the ion-electron system (eV)
  ---------------------------------------------------
  alpha Z        PSCENC =        91.34886789
  Ewald energy   TEWEN  =    120134.53712875
  -Hartree energ DENC   =   -131136.48708800
  -exchange      EXHF   =         0.00000000
  -V(xc)+E(xc)   XCENC  =      1278.81173048
  PAW double counting   =     41132.10839945   -41196.16903052
  entropy T*S    EENTRO =        -0.09089326
  eigenvalues    EBANDS =     -4670.89328562
  atomic energy  EATOM  =     13537.65479391
  Solvation  Ediel_sol  =         0.00000000
  ---------------------------------------------------
  free energy    TOTEN  =      -829.17937692 eV

  energy without entropy =     -829.08848366  energy(sigma->0) =     -829.13393029


--------------------------------------------------------------------------------------------------------




--------------------------------------- Iteration      1(  13)  ---------------------------------------


    POTLOK:  cpu time      0.3191: real time      0.3193
    SETDIJ:  cpu time      0.0400: real time      0.0400
     EDDAV:  cpu time     10.0513: real time     10.0550
       DOS:  cpu time      0.0008: real time      0.0008
    CHARGE:  cpu time      1.1550: real time      1.1555
    MIXING:  cpu time      0.3129: real time      0.3137
    --------------------------------------------
      LOOP:  cpu time     11.8790: real time     11.8843

 eigenvalue-minimisations  :  1552
 total energy-change (2. order) :-0.1310089E-01  (-0.9146594E-03)
 number of electron     367.9999999 magnetization 
 augmentation part        9.1157645 magnetization 

 Broyden mixing:
  rms(total) = 0.84308E-02    rms(broyden)= 0.84282E-02
  rms(prec ) = 0.12012E-01
  weight for this iteration     100.00

 eigenvalues of (default mixing * dielectric matrix)
  average eigenvalue GAMMA=   2.0651
  5.4672  2.5552  2.1081  2.1081  1.1980  1.1980  0.9433  0.9433

 Free energy of the ion-electron system (eV)
  ---------------------------------------------------
  alpha Z        PSCENC =        91.34886789
  Ewald energy   TEWEN  =    120134.53712875
  -Hartree energ DENC   =   -131188.55071546
  -exchange      EXHF   =         0.00000000
  -V(xc)+E(xc)   XCENC  =      1279.02260167
  PAW double counting   =     41098.77965829   -41162.84022846
  entropy T*S    EENTRO =        -0.09094769
  eigenvalues    EBANDS =     -4619.05363669
  atomic energy  EATOM  =     13537.65479391
  Solvation  Ediel_sol  =         0.00000000
  ---------------------------------------------------
  free energy    TOTEN  =      -829.19247781 eV

  energy without entropy =     -829.10153012  energy(sigma->0) =     -829.14700396


--------------------------------------------------------------------------------------------------------




--------------------------------------- Iteration      1(  14)  ---------------------------------------


    POTLOK:  cpu time      0.3205: real time      0.3206
    SETDIJ:  cpu time      0.0401: real time      0.0402
     EDDAV:  cpu time     10.2574: real time     10.2611
       DOS:  cpu time      0.0007: real time      0.0007
    CHARGE:  cpu time      1.1562: real time      1.1568
    MIXING:  cpu time      0.3195: real time      0.3221
    --------------------------------------------
      LOOP:  cpu time     12.0945: real time     12.1015

 eigenvalue-minimisations  :  1592
 total energy-change (2. order) :-0.1564098E-01  (-0.1059281E-03)
 number of electron     367.9999999 magnetization 
 augmentation part        9.1154057 magnetization 

 Broyden mixing:
  rms(total) = 0.60053E-02    rms(broyden)= 0.60049E-02
  rms(prec ) = 0.82854E-02
  weight for this iteration     100.00

 eigenvalues of (default mixing * dielectric matrix)
  average eigenvalue GAMMA=   2.1984
  6.2893  2.7776  2.7776  1.8361  1.8361  1.2622  1.1315  0.9377  0.9377

 Free energy of the ion-electron system (eV)
  ---------------------------------------------------
  alpha Z        PSCENC =        91.34886789
  Ewald energy   TEWEN  =    120134.53712875
  -Hartree energ DENC   =   -131201.45493442
  -exchange      EXHF   =         0.00000000
  -V(xc)+E(xc)   XCENC  =      1279.00869382
  PAW double counting   =     41075.71173145   -41139.77504956
  entropy T*S    EENTRO =        -0.09090397
  eigenvalues    EBANDS =     -4606.14844664
  atomic energy  EATOM  =     13537.65479391
  Solvation  Ediel_sol  =         0.00000000
  ---------------------------------------------------
  free energy    TOTEN  =      -829.20811879 eV

  energy without entropy =     -829.11721481  energy(sigma->0) =     -829.16266680


--------------------------------------------------------------------------------------------------------




--------------------------------------- Iteration      1(  15)  ---------------------------------------


    POTLOK:  cpu time      0.3199: real time      0.3196
    SETDIJ:  cpu time      0.0401: real time      0.0401
     EDDAV:  cpu time     10.0484: real time     10.0543
       DOS:  cpu time      0.0007: real time      0.0007
    CHARGE:  cpu time      1.1549: real time      1.1579
    MIXING:  cpu time      0.3305: real time      0.3316
    --------------------------------------------
      LOOP:  cpu time     11.8945: real time     11.9043

 eigenvalue-minimisations  :  1552
 total energy-change (2. order) :-0.2166313E-01  (-0.2137586E-03)
 number of electron     367.9999999 magnetization 
 augmentation part        9.1146551 magnetization 

 Broyden mixing:
  rms(total) = 0.33094E-02    rms(broyden)= 0.33089E-02
  rms(prec ) = 0.43753E-02
  weight for this iteration     100.00

 eigenvalues of (default mixing * dielectric matrix)
  average eigenvalue GAMMA=   2.2301
  7.1105  3.4652  2.2580  2.0492  1.7487  1.3719  1.3719  1.0368  0.9442  0.9442

 Free energy of the ion-electron system (eV)
  ---------------------------------------------------
  alpha Z        PSCENC =        91.34886789
  Ewald energy   TEWEN  =    120134.53712875
  -Hartree energ DENC   =   -131213.84307425
  -exchange      EXHF   =         0.00000000
  -V(xc)+E(xc)   XCENC  =      1279.01609039
  PAW double counting   =     41105.68372804   -41169.75173745
  entropy T*S    EENTRO =        -0.09092810
  eigenvalues    EBANDS =     -4593.78465109
  atomic energy  EATOM  =     13537.65479391
  Solvation  Ediel_sol  =         0.00000000
  ---------------------------------------------------
  free energy    TOTEN  =      -829.22978192 eV

  energy without entropy =     -829.13885382  energy(sigma->0) =     -829.18431787


--------------------------------------------------------------------------------------------------------




--------------------------------------- Iteration      1(  16)  ---------------------------------------


    POTLOK:  cpu time      0.3197: real time      0.3197
    SETDIJ:  cpu time      0.0403: real time      0.0403
     EDDAV:  cpu time     10.3758: real time     10.3795
       DOS:  cpu time      0.0008: real time      0.0008
    CHARGE:  cpu time      1.1659: real time      1.1684
    MIXING:  cpu time      0.3424: real time      0.3429
    --------------------------------------------
      LOOP:  cpu time     12.2448: real time     12.2515

 eigenvalue-minimisations  :  1616
 total energy-change (2. order) :-0.7692278E-02  (-0.3748680E-04)
 number of electron     367.9999999 magnetization 
 augmentation part        9.1146053 magnetization 

 Broyden mixing:
  rms(total) = 0.22862E-02    rms(broyden)= 0.22861E-02
  rms(prec ) = 0.28759E-02
  weight for this iteration     100.00

 eigenvalues of (default mixing * dielectric matrix)
  average eigenvalue GAMMA=   2.3366
  7.7866  4.0390  2.4658  2.4658  1.8904  1.5223  1.5223  0.9677  0.9677  1.0374
  1.0374

 Free energy of the ion-electron system (eV)
  ---------------------------------------------------
  alpha Z        PSCENC =        91.34886789
  Ewald energy   TEWEN  =    120134.53712875
  -Hartree energ DENC   =   -131217.30474151
  -exchange      EXHF   =         0.00000000
  -V(xc)+E(xc)   XCENC  =      1278.99164274
  PAW double counting   =     41084.80766058   -41148.87698794
  entropy T*S    EENTRO =        -0.09093005
  eigenvalues    EBANDS =     -4590.30490856
  atomic energy  EATOM  =     13537.65479391
  Solvation  Ediel_sol  =         0.00000000
  ---------------------------------------------------
  free energy    TOTEN  =      -829.23747420 eV

  energy without entropy =     -829.14654415  energy(sigma->0) =     -829.19200917


--------------------------------------------------------------------------------------------------------




--------------------------------------- Iteration      1(  17)  ---------------------------------------


    POTLOK:  cpu time      0.3192: real time      0.3193
    SETDIJ:  cpu time      0.0405: real time      0.0405
     EDDAV:  cpu time     10.0146: real time     10.0182
       DOS:  cpu time      0.0007: real time      0.0007
    CHARGE:  cpu time      1.1557: real time      1.1576
    MIXING:  cpu time      0.3501: real time      0.3504
    --------------------------------------------
      LOOP:  cpu time     11.8809: real time     11.8867

 eigenvalue-minimisations  :  1544
 total energy-change (2. order) :-0.6060914E-02  (-0.4369952E-04)
 number of electron     367.9999999 magnetization 
 augmentation part        9.1145681 magnetization 

 Broyden mixing:
  rms(total) = 0.10726E-02    rms(broyden)= 0.10725E-02
  rms(prec ) = 0.13752E-02
  weight for this iteration     100.00

 eigenvalues of (default mixing * dielectric matrix)
  average eigenvalue GAMMA=   2.3333
  8.3679  4.4942  2.4475  2.2512  2.1668  1.4819  1.4819  1.2229  1.2229  0.9460
  0.9460  0.9709

 Free energy of the ion-electron system (eV)
  ---------------------------------------------------
  alpha Z        PSCENC =        91.34886789
  Ewald energy   TEWEN  =    120134.53712875
  -Hartree energ DENC   =   -131219.75269415
  -exchange      EXHF   =         0.00000000
  -V(xc)+E(xc)   XCENC  =      1278.98948377
  PAW double counting   =     41094.60387569   -41158.66649776
  entropy T*S    EENTRO =        -0.09093346
  eigenvalues    EBANDS =     -4587.86755975
  atomic energy  EATOM  =     13537.65479391
  Solvation  Ediel_sol  =         0.00000000
  ---------------------------------------------------
  free energy    TOTEN  =      -829.24353511 eV

  energy without entropy =     -829.15260165  energy(sigma->0) =     -829.19806838


--------------------------------------------------------------------------------------------------------




--------------------------------------- Iteration      1(  18)  ---------------------------------------


    POTLOK:  cpu time      0.3198: real time      0.3197
    SETDIJ:  cpu time      0.0402: real time      0.0403
     EDDAV:  cpu time     10.3914: real time     10.3951
       DOS:  cpu time      0.0007: real time      0.0007
    CHARGE:  cpu time      1.1539: real time      1.1560
    MIXING:  cpu time      0.3635: real time      0.3634
    --------------------------------------------
      LOOP:  cpu time     12.2696: real time     12.2752

 eigenvalue-minimisations  :  1616
 total energy-change (2. order) :-0.1539253E-02  (-0.5348673E-05)
 number of electron     367.9999999 magnetization 
 augmentation part        9.1144485 magnetization 

 Broyden mixing:
  rms(total) = 0.66416E-03    rms(broyden)= 0.66409E-03
  rms(prec ) = 0.87371E-03
  weight for this iteration     100.00

 eigenvalues of (default mixing * dielectric matrix)
  average eigenvalue GAMMA=   2.4058
  8.9107  4.9818  2.9135  2.6045  1.8399  1.8399  1.5071  1.5071  0.9458  0.9458
  0.9889  1.1450  1.1450

 Free energy of the ion-electron system (eV)
  ---------------------------------------------------
  alpha Z        PSCENC =        91.34886789
  Ewald energy   TEWEN  =    120134.53712875
  -Hartree energ DENC   =   -131220.53620526
  -exchange      EXHF   =         0.00000000
  -V(xc)+E(xc)   XCENC  =      1278.99007036
  PAW double counting   =     41092.87642909   -41156.94078564
  entropy T*S    EENTRO =        -0.09093825
  eigenvalues    EBANDS =     -4587.08443521
  atomic energy  EATOM  =     13537.65479391
  Solvation  Ediel_sol  =         0.00000000
  ---------------------------------------------------
  free energy    TOTEN  =      -829.24507436 eV

  energy without entropy =     -829.15413611  energy(sigma->0) =     -829.19960524


--------------------------------------------------------------------------------------------------------




--------------------------------------- Iteration      1(  19)  ---------------------------------------


    POTLOK:  cpu time      0.3196: real time      0.3196
    SETDIJ:  cpu time      0.0403: real time      0.0402
     EDDAV:  cpu time      9.5743: real time      9.5803
       DOS:  cpu time      0.0007: real time      0.0007
    CHARGE:  cpu time      1.1514: real time      1.1545
    MIXING:  cpu time      0.3723: real time      0.3727
    --------------------------------------------
      LOOP:  cpu time     11.4586: real time     11.4682

 eigenvalue-minimisations  :  1456
 total energy-change (2. order) :-0.1360271E-02  (-0.5672414E-05)
 number of electron     367.9999999 magnetization 
 augmentation part        9.1145238 magnetization 

 Broyden mixing:
  rms(total) = 0.39796E-03    rms(broyden)= 0.39794E-03
  rms(prec ) = 0.48148E-03
  weight for this iteration     100.00

 eigenvalues of (default mixing * dielectric matrix)
  average eigenvalue GAMMA=   2.3945
  8.9443  5.5469  3.1708  2.2995  2.2995  2.0233  1.4984  1.4984  1.2164  1.2164
  0.9418  0.9418  0.9462  0.9787

 Free energy of the ion-electron system (eV)
  ---------------------------------------------------
  alpha Z        PSCENC =        91.34886789
  Ewald energy   TEWEN  =    120134.53712875
  -Hartree energ DENC   =   -131220.82277768
  -exchange      EXHF   =         0.00000000
  -V(xc)+E(xc)   XCENC  =      1278.98451782
  PAW double counting   =     41089.56347328   -41153.62570756
  entropy T*S    EENTRO =        -0.09093177
  eigenvalues    EBANDS =     -4586.79579927
  atomic energy  EATOM  =     13537.65479391
  Solvation  Ediel_sol  =         0.00000000
  ---------------------------------------------------
  free energy    TOTEN  =      -829.24643463 eV

  energy without entropy =     -829.15550287  energy(sigma->0) =     -829.20096875


--------------------------------------------------------------------------------------------------------




--------------------------------------- Iteration      1(  20)  ---------------------------------------


    POTLOK:  cpu time      0.3196: real time      0.3196
    SETDIJ:  cpu time      0.0407: real time      0.0407
     EDDAV:  cpu time      9.2059: real time      9.2093
       DOS:  cpu time      0.0007: real time      0.0007
    CHARGE:  cpu time      1.1547: real time      1.1562
    MIXING:  cpu time      0.3845: real time      0.3847
    --------------------------------------------
      LOOP:  cpu time     11.1062: real time     11.1112

 eigenvalue-minimisations  :  1376
 total energy-change (2. order) :-0.3504312E-03  (-0.6635836E-06)
 number of electron     367.9999999 magnetization 
 augmentation part        9.1144883 magnetization 

 Broyden mixing:
  rms(total) = 0.23622E-03    rms(broyden)= 0.23621E-03
  rms(prec ) = 0.28748E-03
  weight for this iteration     100.00

 eigenvalues of (default mixing * dielectric matrix)
  average eigenvalue GAMMA=   2.4566
  9.2070  5.9361  3.7555  2.6382  2.5056  1.8937  1.5314  1.5314  1.6443  1.1860
  1.1578  0.9497  0.9497  0.9809  0.9809

 Free energy of the ion-electron system (eV)
  ---------------------------------------------------
  alpha Z        PSCENC =        91.34886789
  Ewald energy   TEWEN  =    120134.53712875
  -Hartree energ DENC   =   -131221.03539844
  -exchange      EXHF   =         0.00000000
  -V(xc)+E(xc)   XCENC  =      1278.98600558
  PAW double counting   =     41090.79045250   -41154.85342061
  entropy T*S    EENTRO =        -0.09093261
  eigenvalues    EBANDS =     -4586.58428202
  atomic energy  EATOM  =     13537.65479391
  Solvation  Ediel_sol  =         0.00000000
  ---------------------------------------------------
  free energy    TOTEN  =      -829.24678507 eV

  energy without entropy =     -829.15585245  energy(sigma->0) =     -829.20131876


--------------------------------------------------------------------------------------------------------




--------------------------------------- Iteration      1(  21)  ---------------------------------------


    POTLOK:  cpu time      0.3197: real time      0.3197
    SETDIJ:  cpu time      0.0403: real time      0.0403
     EDDAV:  cpu time      8.6074: real time      8.6105
       DOS:  cpu time      0.0007: real time      0.0007
    CHARGE:  cpu time      1.1664: real time      1.1677
    MIXING:  cpu time      0.3968: real time      0.3970
    --------------------------------------------
      LOOP:  cpu time     10.5314: real time     10.5358

 eigenvalue-minimisations  :  1256
 total energy-change (2. order) :-0.2507523E-03  (-0.3326728E-06)
 number of electron     367.9999999 magnetization 
 augmentation part        9.1144731 magnetization 

 Broyden mixing:
  rms(total) = 0.98274E-04    rms(broyden)= 0.98263E-04
  rms(prec ) = 0.12120E-03
  weight for this iteration     100.00

 eigenvalues of (default mixing * dielectric matrix)
  average eigenvalue GAMMA=   2.4141
  9.2162  6.2192  3.9465  2.6944  2.4316  1.9421  1.9421  1.5158  1.5158  1.2113
  1.2113  1.0327  0.9463  0.9463  0.9270  0.9270

 Free energy of the ion-electron system (eV)
  ---------------------------------------------------
  alpha Z        PSCENC =        91.34886789
  Ewald energy   TEWEN  =    120134.53712875
  -Hartree energ DENC   =   -131221.15534959
  -exchange      EXHF   =         0.00000000
  -V(xc)+E(xc)   XCENC  =      1278.98584494
  PAW double counting   =     41090.09758220   -41154.16136719
  entropy T*S    EENTRO =        -0.09093474
  eigenvalues    EBANDS =     -4586.46360199
  atomic energy  EATOM  =     13537.65479391
  Solvation  Ediel_sol  =         0.00000000
  ---------------------------------------------------
  free energy    TOTEN  =      -829.24703582 eV

  energy without entropy =     -829.15610108  energy(sigma->0) =     -829.20156845


[...]
   -.158E+02 -.129E+02 0.103E+03   0.172E+02 0.131E+02 -.102E+03   -.124E+00 -.143E+00 0.104E+01   -.126E-04 0.118E-06 -.743E-06
   -.150E+02 -.367E+01 0.778E+02   0.148E+02 0.346E+01 -.788E+02   -.219E+01 -.463E+00 0.216E+01   -.949E-05 0.145E-05 -.178E-05
   -.742E+01 0.821E+01 0.458E+02   0.688E+01 -.947E+01 -.456E+02   -.875E+00 -.130E+01 -.999E+00   -.820E-05 0.257E-05 -.302E-05
   0.248E+02 0.990E+01 -.103E+03   -.246E+02 -.102E+02 0.104E+03   0.132E+01 0.648E+00 -.278E+01   -.693E-05 -.349E-06 -.501E-06
   0.165E+02 -.172E+02 -.385E+02   -.169E+02 0.178E+02 0.385E+02   -.294E+00 0.501E+00 -.301E+00   -.759E-05 0.104E-05 -.123E-05
   0.137E+02 0.488E+01 -.376E+02   -.149E+02 -.563E+01 0.372E+02   -.240E+00 -.835E+00 -.688E-01   -.107E-05 0.391E-05 0.958E-06
   -.713E+01 -.488E+01 -.229E+01   0.779E+01 0.567E+01 0.197E+01   -.137E+00 0.626E+00 0.770E+00   -.277E-05 0.996E-06 -.168E-05
   0.281E+01 0.516E+01 -.623E+02   -.237E+01 -.457E+01 0.626E+02   0.773E+00 -.519E-01 0.896E+00   0.206E-05 -.238E-05 0.347E-06
   0.164E+02 -.223E+02 -.105E+03   -.161E+02 0.235E+02 0.106E+03   -.981E-02 -.149E+00 -.153E+01   0.388E-05 0.735E-06 0.190E-05
   0.256E+01 -.106E+02 -.644E+02   -.189E+01 0.110E+02 0.647E+02   0.151E+01 -.706E+00 0.328E+00   0.481E-05 0.181E-06 0.923E-06
   0.164E+02 0.165E+02 -.930E+02   -.169E+02 -.185E+02 0.931E+02   -.917E+00 -.981E+00 -.467E+00   0.829E-05 0.297E-05 0.187E-05
   0.470E+01 0.121E+02 -.942E+02   -.468E+01 -.119E+02 0.947E+02   0.616E+00 0.340E+00 -.409E+00   0.830E-05 0.105E-05 0.177E-05
   0.721E+01 -.407E+01 -.829E+02   -.683E+01 0.353E+01 0.830E+02   -.554E+00 -.331E+00 0.884E+00   0.984E-05 0.289E-05 0.206E-05
   0.137E+02 -.721E+01 -.920E+02   -.140E+02 0.632E+01 0.915E+02   -.184E+00 -.334E+00 0.123E+01   0.957E-05 -.106E-05 0.259E-05
   0.299E+01 0.126E+02 -.117E+03   -.267E+01 -.133E+02 0.118E+03   -.176E+00 -.645E+00 -.180E+01   0.683E-05 0.415E-06 0.848E-06
   0.903E+01 0.114E+02 -.181E+03   -.837E+01 -.122E+02 0.182E+03   0.480E+00 0.432E+00 -.182E+01   0.455E-05 0.212E-05 -.372E-07
   0.215E+01 -.111E+02 -.979E+02   -.202E+01 0.117E+02 0.977E+02   0.235E+00 0.115E+01 0.745E+00   0.295E-05 -.184E-05 0.564E-06
   0.498E+01 -.242E+02 -.167E+03   -.533E+01 0.259E+02 0.167E+03   0.624E-02 0.205E+01 0.424E+00   -.991E-06 -.903E-05 -.125E-05
   0.350E+01 0.160E+02 -.648E+02   -.358E+01 -.164E+02 0.645E+02   0.970E-02 0.115E+01 0.922E+00   0.797E-06 0.132E-05 -.810E-08
   0.702E+01 0.121E+02 -.157E+03   -.671E+01 -.126E+02 0.157E+03   0.995E+00 0.267E+00 0.385E+00   0.160E-05 0.309E-06 -.130E-05
   -.811E+01 -.152E+02 -.153E+03   0.843E+01 0.154E+02 0.153E+03   -.598E+00 -.232E+00 -.168E+01   -.257E-05 -.664E-06 -.128E-05
   -.198E+01 -.122E+02 -.163E+03   0.296E+00 0.128E+02 0.164E+03   -.108E+01 -.346E+00 0.556E+00   -.173E-06 -.122E-05 -.567E-06
   0.611E+01 0.103E+02 -.905E+02   -.673E+01 -.105E+02 0.901E+02   -.689E+00 -.171E+00 0.123E+00   0.107E-05 0.608E-06 -.691E-06
   -.302E+02 0.895E+01 -.210E+03   0.321E+02 -.916E+01 0.211E+03   0.112E+01 -.118E+01 -.190E+01   -.643E-05 0.234E-05 -.160E-05
   -.111E+02 -.575E+01 -.562E+02   0.110E+02 0.577E+01 0.558E+02   -.649E+00 0.109E+00 0.169E+01   0.150E-06 -.262E-06 -.181E-06
   -.287E+02 -.533E+01 -.219E+03   0.275E+02 0.606E+01 0.220E+03   0.492E+00 0.105E+01 -.224E+01   -.331E-05 0.703E-06 -.202E-07
   -.118E+02 0.127E+02 -.953E+01   0.120E+02 -.138E+02 0.882E+01   0.172E+00 -.579E+00 0.895E+00   -.447E-05 -.160E-05 0.140E-06
   -.306E+02 0.548E+02 -.168E+03   0.271E+02 -.552E+02 0.169E+03   0.900E+00 0.280E+01 -.278E+00   0.112E-06 0.487E-05 -.139E-05
   -.121E+02 -.547E+02 -.683E+02   0.833E+01 0.553E+02 0.700E+02   0.577E+00 -.204E+01 -.505E+00   -.277E-05 -.142E-05 -.735E-06
   0.160E+02 0.573E+02 0.549E+02   -.122E+02 -.582E+02 -.563E+02   -.882E+00 0.580E+00 0.103E+01   0.148E-05 0.191E-05 -.205E-05
   0.177E+01 -.603E+02 -.521E+02   0.135E+01 0.613E+02 0.508E+02   -.568E+00 -.327E+01 0.100E+00   -.157E-05 -.429E-05 -.101E-05
   0.399E+02 -.242E+01 0.608E+02   -.404E+02 0.365E+01 -.608E+02   -.947E+00 0.982E+00 -.662E+00   0.280E-05 -.393E-05 -.269E-05
   -.687E+01 0.928E+01 -.872E+02   0.734E+01 -.940E+01 0.882E+02   -.154E+01 0.106E+00 -.112E+01   0.317E-05 -.191E-05 -.217E-05
   0.306E+02 0.924E+01 0.110E+03   -.307E+02 -.101E+02 -.110E+03   -.114E+00 -.579E+00 0.565E+00   0.368E-06 -.204E-06 -.168E-05
   0.271E+02 -.144E+02 0.540E+02   -.271E+02 0.151E+02 -.544E+02   0.103E+01 0.825E-01 0.997E+00   0.236E-05 -.151E-05 -.258E-05
   0.278E+02 -.976E+01 0.122E+03   -.270E+02 0.105E+02 -.122E+03   0.140E+00 0.408E+00 -.730E+00   0.797E-06 -.203E-05 -.128E-05
   0.182E+02 0.943E+01 0.270E+02   -.190E+02 -.908E+01 -.265E+02   0.556E+00 0.102E+00 0.186E+00   0.578E-05 -.218E-05 -.304E-05
   0.366E+02 0.123E+02 0.175E+03   -.372E+02 -.122E+02 -.176E+03   -.202E+00 0.185E+00 0.108E+01   0.217E-05 0.508E-05 0.812E-06
   0.241E+02 0.405E+01 0.840E+02   -.246E+02 -.552E+01 -.841E+02   0.745E+00 -.552E+00 -.152E+01   0.502E-05 0.200E-05 -.174E-05
   0.315E+02 0.583E+01 0.213E+03   -.321E+02 -.772E+01 -.212E+03   -.941E+00 -.101E+01 0.894E-01   0.392E-05 0.179E-05 0.134E-05
   0.171E+02 0.151E+02 0.142E+03   -.164E+02 -.150E+02 -.142E+03   0.174E+01 0.115E+01 0.110E+01   -.504E-06 0.149E-05 0.217E-05
   0.122E+02 0.777E+01 0.267E+03   -.116E+02 -.709E+01 -.268E+03   0.179E+00 -.281E+00 0.150E+01   -.199E-05 0.246E-05 0.399E-05
   0.121E+02 -.603E+01 0.164E+03   -.129E+02 0.512E+01 -.164E+03   -.243E+00 -.982E+00 -.673E+00   -.171E-05 0.226E-06 0.241E-05
   -.545E+01 -.136E+01 0.244E+03   0.540E+01 0.789E+00 -.244E+03   0.161E+00 -.336E+00 0.796E+00   -.662E-05 -.359E-05 0.365E-05
   -.243E+01 0.981E+01 0.115E+03   0.248E+01 -.926E+01 -.114E+03   0.187E+00 0.683E+00 -.691E+00   -.722E-05 0.114E-05 0.158E-05
   -.232E+02 0.951E+01 0.214E+03   0.225E+02 -.929E+01 -.215E+03   0.129E+00 0.794E-01 -.183E+00   -.759E-05 0.100E-05 0.397E-06
   -.256E+02 -.122E+02 0.185E+03   0.262E+02 0.120E+02 -.186E+03   0.462E+00 -.459E+00 0.143E+01   -.127E-04 -.132E-05 0.435E-06
   -.301E+02 -.113E+02 0.177E+03   0.309E+02 0.121E+02 -.177E+03   0.103E+01 -.593E-01 0.111E+01   -.102E-04 -.257E-05 -.213E-05
   -.684E+01 0.141E+02 0.993E+02   0.591E+01 -.144E+02 -.987E+02   0.887E+00 0.601E+00 -.146E+01   -.131E-04 0.223E-05 -.209E-05
   -.347E+02 0.128E+01 0.165E+03   0.338E+02 0.475E+00 -.165E+03   -.242E+00 0.131E+01 0.270E+00   -.616E-05 -.390E-05 -.384E-05
   -.411E+02 -.237E+01 0.132E+03   0.427E+02 0.981E+00 -.132E+03   0.798E+00 -.814E+00 0.617E+00   -.608E-05 -.133E-05 -.280E-05
   -.295E+02 -.162E+01 0.104E+03   0.300E+02 0.673E+00 -.104E+03   0.226E+00 -.103E+01 0.430E+00   -.665E-06 -.895E-06 -.291E-05
   -.142E+02 0.139E+02 0.839E+02   0.133E+02 -.144E+02 -.845E+02   -.895E+00 -.523E+00 0.530E+00   0.111E-05 0.842E-06 -.130E-05
   -.232E+02 0.101E+02 0.747E+02   0.235E+02 -.983E+01 -.752E+02   -.436E+00 0.388E+00 0.919E+00   0.588E-05 -.161E-05 -.344E-06
   -.984E+01 -.273E+01 0.447E+02   0.102E+02 0.243E+01 -.448E+02   -.912E-01 -.199E+00 -.496E+00   0.561E-05 -.141E-05 0.294E-06
   0.116E+02 -.175E+02 -.254E+02   -.120E+02 0.191E+02 0.251E+02   0.194E+00 0.513E+00 -.449E+00   0.827E-05 0.309E-06 0.206E-05
   -.546E+01 0.100E+02 -.265E+02   0.498E+01 -.105E+02 0.268E+02   -.340E+00 -.911E+00 -.897E+00   0.895E-05 -.207E-05 0.201E-05
   -.774E+01 0.177E+02 -.343E+02   0.804E+01 -.193E+02 0.344E+02   0.213E+00 -.541E+00 -.769E+00   0.659E-05 0.119E-05 0.635E-06
   -.305E+00 -.211E+02 -.662E+01   0.620E+00 0.226E+02 0.589E+01   0.754E+00 0.432E+00 0.145E+01   0.851E-05 -.206E-05 0.141E-05
   0.104E+00 -.988E+01 -.697E+01   -.171E-01 0.104E+02 0.635E+01   -.184E+00 -.727E-01 0.134E+01   0.738E-05 -.968E-06 0.131E-05
   0.544E+01 -.547E-01 -.809E+02   -.619E+01 0.128E+01 0.812E+02   0.265E+00 0.145E+01 -.684E+00   0.738E-05 -.170E-05 0.116E-05
   -.669E+01 0.126E+02 -.120E+02   0.647E+01 -.127E+02 0.115E+02   -.149E+01 0.825E+00 0.359E+00   0.416E-05 0.267E-05 0.758E-06
   0.601E+01 -.127E+02 -.824E+02   -.575E+01 0.125E+02 0.820E+02   0.791E+00 0.826E-01 0.330E+00   0.922E-05 0.924E-07 0.163E-05
   -.117E+02 -.218E+01 -.368E+02   0.129E+02 0.203E+01 0.373E+02   -.756E+00 0.559E+00 -.128E+01   -.198E-05 -.146E-05 -.623E-06
   0.937E+01 0.171E+02 -.150E+03   -.102E+02 -.178E+02 0.150E+03   0.653E+00 0.131E+01 -.913E+00   -.857E-06 0.188E-05 -.639E-06
   0.284E+01 0.779E+01 0.208E+02   -.339E+01 -.793E+01 -.215E+02   -.680E+00 -.907E+00 0.216E+01   -.187E-06 -.371E-06 0.676E-06
   -.133E+02 -.140E+02 -.882E+02   0.147E+02 0.142E+02 0.881E+02   0.715E+00 -.962E+00 -.233E+00   -.777E-05 0.255E-05 0.123E-06
   -.221E+00 -.234E+01 -.449E+02   -.498E-01 0.214E+01 0.452E+02   -.146E+00 -.707E+00 -.105E+01   -.161E-05 -.103E-05 -.352E-06
   -.490E+00 0.186E+02 -.125E+03   0.791E-01 -.197E+02 0.126E+03   -.255E+00 -.489E+00 -.103E+01   -.216E-05 0.631E-05 0.527E-06
   -.155E+01 -.322E+00 -.732E+01   0.128E+01 0.131E+01 0.706E+01   -.298E+00 0.190E+00 0.671E+00   -.183E-05 -.245E-05 0.262E-06
   -.278E+01 -.109E+02 -.479E+02   0.234E+01 0.106E+02 0.478E+02   -.151E+00 -.524E+00 0.829E-01   -.132E-05 0.328E-06 -.301E-06
   -.130E+02 -.508E+00 -.702E+01   0.131E+02 0.111E+01 0.681E+01   0.103E+01 0.778E+00 -.964E+00   -.366E-05 -.283E-05 0.823E-07
   -.174E+02 -.228E+01 -.508E+02   0.177E+02 0.201E+01 0.503E+02   0.825E+00 -.108E+01 0.178E+01   -.152E-05 -.251E-05 -.583E-06
   -.670E+01 0.585E+02 0.147E+02   0.401E+01 -.594E+02 -.146E+02   0.149E+01 0.229E+01 0.508E+00   -.206E-05 0.315E-05 0.789E-08
   -.154E+02 -.566E+02 -.849E+02   0.110E+02 0.574E+02 0.864E+02   0.869E+00 -.979E+00 -.156E+01   -.120E-05 -.212E-05 -.828E-06
 -----------------------------------------------------------------------------------------------
   0.287E+00 0.248E+00 0.201E+01   -.281E-12 0.355E-13 -.270E-12   -.145E+00 -.236E+00 -.204E+01   -.944E-05 -.180E-05 -.236E-04
 
 
 POSITION                                       TOTAL-FORCE (eV/Angst)
 -----------------------------------------------------------------------------------
      0.36484      0.88067     17.53470         4.038875     -1.358674     -0.601009
      0.31638      2.22433     17.28260         3.633252      0.469549     -1.296445
      1.57014      0.17968     17.22080        -0.536903      1.132044      0.509900
      1.45970      2.86638     16.67580        -3.112311     -0.758619      1.549619
      2.74445      0.85649     16.81160        -0.177467      0.612783     -0.527362
      2.64206      2.20910     16.48200         2.064367     -0.957221     -0.404307
      3.92035      0.19005     16.38420        -0.942536     -1.096302     -0.173210
      3.79093      2.84328     15.88100        -0.830737     -0.721071      0.391505
      5.07085      0.81310     15.90520        -0.695779      0.819934     -0.142393
      4.98226      2.13858     15.58310         0.793693      2.091190      0.856466
      6.24500      0.16338     15.56310        -0.474151     -0.687346      0.225692
      6.18641      2.82119     15.23840         0.174438      2.931272     -1.149424
      7.45124      0.83228     15.44100         0.794854      2.086484     -0.448942
      7.46290      2.22912     15.21020        -1.662781     -2.179298      1.071930
      8.68631      0.20513     15.46550         0.131872     -1.068677     -0.304143
      8.68204      2.87644     15.16910         0.187377      2.020307     -1.180272
      9.91594      0.87300     15.58940        -0.650630      0.671436     -0.393070
      9.89499      2.24498     15.44150         1.247424      0.093426      1.332343
     11.15160      0.22515     15.75720        -2.366687     -0.665769      1.174418
     11.12510      2.95439     15.72040        -1.414476     -2.560353     -0.787011
     12.20290      0.87353     16.36660         1.490596      0.342493     -1.224700
     12.25070      2.24952     16.24680        -0.687908      1.164720     -0.291068
     13.45310      0.24544     16.53790        -1.436839     -1.584822     -0.513289
     13.47160      2.89680     16.43680         0.521407      1.409378      0.449222
     14.59440      0.88860     16.91060         1.211696      0.534386      1.252157
     14.61730      2.25361     16.98570         0.331875      1.051149     -0.697343
     15.78460      0.21619     17.17240         2.177633     -0.251688      0.584583
     15.86770      2.91965     17.24610        -1.439726     -2.965346     -0.377190
     17.01540      0.82810     17.53170         0.640149      0.555452      0.051318
     17.06430      2.21901     17.51930        -0.178662     -0.869658      1.015427
     18.24980      0.12589     17.77220        -0.494625     -1.221170      0.727794
     18.30400      2.84682     17.75790         0.140434     -1.287665     -1.236145
     19.46430      0.74653     18.12920         1.133985     -0.380429     -0.829716
     19.52090      2.10450     17.94730         0.364177      1.757764      0.559078
     20.73830      0.03834     18.24470        -0.344202      3.719169      0.366827
     20.79690      2.76590     17.94650        -0.071158      0.750730      0.630100
     21.99260      0.77496     18.28030         1.300225     -0.246583      0.437156
     22.05120      2.15764     18.19430        -0.275817     -0.089412     -1.038723
     23.32180      0.17710     18.27030        -2.769541      0.281608      0.794603
     23.31150      2.85821     17.99300        -1.306187     -0.337224     -0.216074
     24.51630      0.88358     18.26910         3.021926     -1.389790     -1.073146
     24.54810      2.19580     17.89830        -0.714773      0.134914      1.361560
     25.82210      0.16096     18.14330        -0.714613      1.775888     -0.686703
     25.75740      2.85765     17.59140         0.427890     -1.666186      0.179682
     27.01820      0.80901     17.86420        -2.603052      2.376477      0.692231
     26.97760      2.21794     17.58040        -3.180020     -1.450849      1.135566
      0.23125      4.93825     16.88500         2.874242     -0.327292     -0.423862
      0.27881      6.31910     17.16730         2.555099     -2.277288     -1.176730
      1.40340      4.21626     16.53640        -1.438693      2.208304     -0.611954
      1.51210      6.92430     17.00510        -1.069935     -0.013973     -0.134522
      2.56790      4.92201     16.13530        -0.254916     -1.490794      0.193837
      2.57950      6.26700     16.34790         1.064399      0.807253      0.557401
      3.74913      4.20939     15.76780         0.930092      1.184429     -1.018712
      3.81020      6.92609     16.12120        -0.195164      0.460582      0.748295
      4.95586      4.90203     15.37330        -0.810310      0.212135      0.743848
      4.94665      6.28201     15.64220         0.202915     -2.022395     -1.571947
      6.19223      4.27233     15.04600        -1.526108     -2.895301      0.330819
      6.14907      6.90448     15.36040         2.437735      1.235408      0.914997
      7.41573      4.92906     14.82920         0.779968      0.398080      1.017911
      7.42033      6.30681     15.10900        -1.036335     -1.886311     -0.868049
      8.68089      4.26226     14.87640         0.103565     -0.908778      0.683075
      8.65792      6.92919     15.25060         0.237003      1.236738     -0.087588
      9.93138      4.92444     15.04010        -0.631300      0.306734     -0.522868
      9.90246      6.30628     15.16220         1.034203     -0.612827      0.532107
     11.13360      4.25962     15.35780         1.877161      0.706196      0.649923
     11.11540      6.95824     15.56600        -0.047066      0.258558     -0.894326
     12.39000      4.89614     15.63130        -1.117689      3.065235     -0.270898
     12.34040      6.33495     15.71510         2.403943     -2.207067      0.536181
     13.54120      4.27352     16.10090         0.660161     -1.975823      0.800053
     13.55150      7.00454     16.20400        -1.798799     -1.039355     -0.122233
     14.74470      4.91069     16.48330        -0.162049      0.617046      0.463147
     14.72670      6.30421     16.55010         0.245935     -0.500082     -0.548708
     15.87830      4.23314     17.04050        -0.177740      2.164782     -0.776025
     15.87840      6.96353     17.03670        -0.825553     -1.414043     -0.644378
     17.09140      4.89277     17.29930         0.516136     -2.102161     -0.678922
     17.06440      6.22821     17.27030         1.066904      1.945311      0.724162
     18.33730      4.18898     17.50870        -0.098476      0.435935      0.719624
     18.28210      6.81165     17.67620        -0.490354      2.681106     -0.316662
     19.60440      4.79857     17.67050        -1.708930      0.662302     -0.123814
     19.50680      6.15998     17.84270         1.047974     -0.179523     -0.009993
     20.82900      4.14309     17.80700         0.441002      0.411610     -0.814283
     20.73470      6.79746     18.13680        -0.145125      0.592408     -0.417120
     22.06840      4.88923     17.75250        -1.239171     -1.045045      1.407828
     22.00180      6.24308     18.01920         2.184053     -0.803205     -0.364579
     23.30000      4.23630     17.82640        -0.418866     -0.909819     -0.777978
     23.29150      6.92522     18.11480        -0.667724     -1.589915     -0.528104
     24.52140      4.89307     17.66650        -0.567439      1.181769      0.414779
     24.52130      6.27779     17.82000        -0.594532     -0.899161     -0.075665
     25.71360      4.20451     17.50790         1.156159      1.382206     -1.175938
     25.75120      6.95102     17.75750         1.177458     -1.348887      1.255371
     26.88800      4.88217     17.27460        -1.203000      1.464839      0.623490
     26.94440      6.25902     17.51510        -3.517398     -0.158322     -0.118479
 -----------------------------------------------------------------------------------
    total drift:                                0.141896      0.011865     -0.034453


--------------------------------------------------------------------------------------------------------



  FREE ENERGIE OF THE ION-ELECTRON SYSTEM (eV)
  ---------------------------------------------------
  free  energy   TOTEN  =      -829.24714009 eV

  energy  without entropy=     -829.15620624  energy(sigma->0) =     -829.20167317
 


--------------------------------------------------------------------------------------------------------


    POTLOK:  cpu time      0.4539: real time      0.4538


--------------------------------------------------------------------------------------------------------


     LOOP+:  cpu time    332.2516: real time    332.4555
    4ORBIT:  cpu time      0.0000: real time      0.0000

 total amount of memory used by VASP MPI-rank0  2294499. kBytes
=======================================================================

   base                                    :      30000. kBytes
   nonlr-proj                              :      15065. kBytes
   fftplans                                :     436558. kBytes
   grid                                    :     732614. kBytes
   one-center                              :        282. kBytes
   wavefun                                 :    1079980. kBytes
 
  
  
 General timing and accounting informations for this job:
 ========================================================
  
                  Total CPU time used (sec):      365.389
                            User time (sec):      357.180
                          System time (sec):        8.208
                         Elapsed time (sec):      365.699
  
                   Maximum memory used (kb):     3731740.
                   Average memory used (kb):          N/A
  
                          Minor page faults:      3178733
                          Major page faults:         4981
                 Voluntary context switches:         9681
