<?xml version="1.0" encoding="ISO-8859-1"?>
<modeling>
 <generator>
  <i name="program" type="string">vasp </i>
  <i name="version" type="string">6.5.0  </i>
  <i name="subversion" type="string">16Dec24 (build Feb 19 2025 19:45:31) complex                          parallel </i>
  <i name="platform" type="string">LinuxNV </i>
  <i name="date" type="string">2025 10 25 </i>
  <i name="time" type="string">10:30:27 </i>
 </generator>
 <incar>
  <i type="int" name="ISTART">     0</i>
  <i type="string" name="PREC">Accurate   (Precision level)</i>
  <i type="string" name="ALGO">Normal</i>
  <i type="int" name="ISPIN">     1</i>
  <i type="int" name="ICHARG">     2</i>
  <i type="int" name="NELM">   150</i>
  <i type="int" name="IBRION">    -1</i>
  <i name="EDIFF">      0.00000100</i>
  <i type="int" name="NSW">     0</i>
  <i name="ENCUT">    500.00000000</i>
  <i type="string" name="LREAL">Auto         (Projection operators: automatic)</i>
  <i type="int" name="ISMEAR">     0</i>
  <i type="logical" name="KGAMMA"> T  </i>
  <i type="logical" name="LWAVE"> F  </i>
  <i type="logical" name="LCHARG"> F  </i>
 </incar>
 <primitive_cell>
  <structure name="primitive_cell" >
   <crystal>
    <varray name="basis" >
     <v>      28.05000000       0.00000000       0.00000000 </v>
     <v>       0.00000000       8.10000000       0.00000000 </v>
     <v>       0.00000000       0.00000000      33.50000000 </v>
    </varray>
    <i name="volume">   7611.36750000 </i>
    <varray name="rec_basis" >
     <v>       0.03565062       0.00000000       0.00000000 </v>
     <v>       0.00000000       0.12345679       0.00000000 </v>
     <v>       0.00000000       0.00000000       0.02985075 </v>
    </varray>
   </crystal>
   <varray name="positions" >
    <v>       0.01300670       0.10872432       0.52342388 </v>
    <v>       0.01127911       0.27460864       0.51589851 </v>
    <v>       0.05597647       0.02218284       0.51405373 </v>
    <v>       0.05203922       0.35387407       0.49778507 </v>
    <v>       0.09784135       0.10573938       0.50183881 </v>
    <v>       0.09419109       0.27272840       0.49200000 </v>
    <v>       0.13976292       0.02346272       0.48908060 </v>
    <v>       0.13514902       0.35102222       0.47405970 </v>
    <v>       0.18077897       0.10038309       0.47478209 </v>
    <v>       0.17762068       0.26402222       0.46516716 </v>
    <v>       0.22263815       0.02017099       0.46457015 </v>
    <v>       0.22054938       0.34829506       0.45487761 </v>
    <v>       0.26564135       0.10275025       0.46092537 </v>
    <v>       0.26605704       0.27520000       0.45403582 </v>
    <v>       0.30967237       0.02532531       0.46165672 </v>
    <v>       0.30952014       0.35511605       0.45280896 </v>
    <v>       0.35350945       0.10777802       0.46535522 </v>
    <v>       0.35276257       0.27715802       0.46094030 </v>
    <v>       0.39756150       0.02779654       0.47036418 </v>
    <v>       0.39661676       0.36473951       0.46926567 </v>
    <v>       0.43504100       0.10784358       0.48855522 </v>
    <v>       0.43674510       0.27771852       0.48497910 </v>
    <v>       0.47961141       0.03030099       0.49366866 </v>
    <v>       0.48027094       0.35762963       0.49065075 </v>
    <v>       0.52029947       0.10970395       0.50479403 </v>
    <v>       0.52111586       0.27822346       0.50703582 </v>
    <v>       0.56273084       0.02669025       0.51260896 </v>
    <v>       0.56569340       0.36045062       0.51480896 </v>
    <v>       0.60660963       0.10223420       0.52333433 </v>
    <v>       0.60835294       0.27395185       0.52296418 </v>
    <v>       0.65061676       0.01554160       0.53051343 </v>
    <v>       0.65254902       0.35145926       0.53008657 </v>
    <v>       0.69391444       0.09216370       0.54117015 </v>
    <v>       0.69593226       0.25981481       0.53574030 </v>
    <v>       0.73933333       0.00473344       0.54461791 </v>
    <v>       0.74142246       0.34146914       0.53571642 </v>
    <v>       0.78404991       0.09567420       0.54568060 </v>
    <v>       0.78613904       0.26637531       0.54311343 </v>
    <v>       0.83143672       0.02186481       0.54538209 </v>
    <v>       0.83106952       0.35286543       0.53710448 </v>
    <v>       0.87402139       0.10908383       0.54534627 </v>
    <v>       0.87515508       0.27108642       0.53427761 </v>
    <v>       0.92057398       0.01987198       0.54159104 </v>
    <v>       0.91826738       0.35279630       0.52511642 </v>
    <v>       0.96321569       0.09987741       0.53325970 </v>
    <v>       0.96176827       0.27381975       0.52478806 </v>
    <v>       0.00824424       0.60966049       0.50402985 </v>
    <v>       0.00993993       0.78013580       0.51245672 </v>
    <v>       0.05003209       0.52052593       0.49362388 </v>
    <v>       0.05390731       0.85485185       0.50761493 </v>
    <v>       0.09154724       0.60765556       0.48165075 </v>
    <v>       0.09196078       0.77370370       0.48799701 </v>
    <v>       0.13365882       0.51967778       0.47068060 </v>
    <v>       0.13583601       0.85507284       0.48122985 </v>
    <v>       0.17667950       0.60518889       0.45890448 </v>
    <v>       0.17635116       0.77555679       0.46693134 </v>
    <v>       0.22075686       0.52744815       0.44913433 </v>
    <v>       0.21921818       0.85240494       0.45851940 </v>
    <v>       0.26437540       0.60852593       0.44266269 </v>
    <v>       0.26453939       0.77861852       0.45101493 </v>
    <v>       0.30947914       0.52620494       0.44407164 </v>
    <v>       0.30866025       0.85545556       0.45524179 </v>
    <v>       0.35405989       0.60795556       0.44895821 </v>
    <v>       0.35302888       0.77855309       0.45260299 </v>
    <v>       0.39691979       0.52587901       0.45844179 </v>
    <v>       0.39627094       0.85904198       0.46465672 </v>
    <v>       0.44171123       0.60446173       0.46660597 </v>
    <v>       0.43994296       0.78209259       0.46910746 </v>
    <v>       0.48275223       0.52759506       0.48062388 </v>
    <v>       0.48311943       0.86475802       0.48370149 </v>
    <v>       0.52565775       0.60625802       0.49203881 </v>
    <v>       0.52501604       0.77829753       0.49403284 </v>
    <v>       0.56607130       0.52260988       0.50867164 </v>
    <v>       0.56607487       0.85969506       0.50855821 </v>
    <v>       0.60931907       0.60404568       0.51639701 </v>
    <v>       0.60835651       0.76891481       0.51553134 </v>
    <v>       0.65373619       0.51715802       0.52264776 </v>
    <v>       0.65176827       0.84094444       0.52764776 </v>
    <v>       0.69890909       0.59241605       0.52747761 </v>
    <v>       0.69542959       0.76049136       0.53261791 </v>
    <v>       0.74256684       0.51149259       0.53155224 </v>
    <v>       0.73920499       0.83919259       0.54139701 </v>
    <v>       0.78675223       0.60360864       0.52992537 </v>
    <v>       0.78437790       0.77075062       0.53788657 </v>
    <v>       0.83065954       0.52300000       0.53213134 </v>
    <v>       0.83035651       0.85496543       0.54074030 </v>
    <v>       0.87420321       0.60408272       0.52735821 </v>
    <v>       0.87419964       0.77503580       0.53194030 </v>
    <v>       0.91670588       0.51907531       0.52262388 </v>
    <v>       0.91804635       0.85815062       0.53007463 </v>
    <v>       0.95857398       0.60273704       0.51565970 </v>
    <v>       0.96058467       0.77271852       0.52283881 </v>
   </varray>
  </structure>
  <varray name="primitive_index" >
   <v type="int" >        1 </v>
   <v type="int" >        2 </v>
   <v type="int" >        3 </v>
   <v type="int" >        4 </v>
   <v type="int" >        5 </v>
   <v type="int" >        6 </v>
   <v type="int" >        7 </v>
   <v type="int" >        8 </v>
   <v type="int" >        9 </v>
   <v type="int" >       10 </v>
   <v type="int" >       11 </v>
   <v type="int" >       12 </v>
   <v type="int" >       13 </v>
   <v type="int" >       14 </v>
   <v type="int" >       15 </v>
   <v type="int" >       16 </v>
   <v type="int" >       17 </v>
   <v type="int" >       18 </v>
   <v type="int" >       19 </v>
   <v type="int" >       20 </v>
   <v type="int" >       21 </v>
   <v type="int" >       22 </v>
   <v type="int" >       23 </v>
   <v type="int" >       24 </v>
   <v type="int" >       25 </v>
   <v type="int" >       26 </v>
   <v type="int" >       27 </v>
   <v type="int" >       28 </v>
   <v type="int" >       29 </v>
   <v type="int" >       30 </v>
   <v type="int" >       31 </v>
   <v type="int" >       32 </v>
   <v type="int" >       33 </v>
   <v type="int" >       34 </v>
   <v type="int" >       35 </v>
   <v type="int" >       36 </v>
   <v type="int" >       37 </v>
   <v type="int" >       38 </v>
   <v type="int" >       39 </v>
   <v type="int" >       40 </v>
   <v type="int" >       41 </v>
   <v type="int" >       42 </v>
   <v type="int" >       43 </v>
   <v type="int" >       44 </v>
   <v type="int" >       45 </v>
   <v type="int" >       46 </v>
   <v type="int" >       47 </v>
   <v type="int" >       48 </v>
   <v type="int" >       49 </v>
   <v type="int" >       50 </v>
   <v type="int" >       51 </v>
   <v type="int" >       52 </v>
   <v type="int" >       53 </v>
   <v type="int" >       54 </v>
   <v type="int" >       55 </v>
   <v type="int" >       56 </v>
   <v type="int" >       57 </v>
   <v type="int" >       58 </v>
   <v type="int" >       59 </v>
   <v type="int" >       60 </v>
   <v type="int" >       61 </v>
   <v type="int" >       62 </v>
   <v type="int" >       63 </v>
   <v type="int" >       64 </v>
   <v type="int" >       65 </v>
   <v type="int" >       66 </v>
   <v type="int" >       67 </v>
   <v type="int" >       68 </v>
   <v type="int" >       69 </v>
   <v type="int" >       70 </v>
   <v type="int" >       71 </v>
   <v type="int" >       72 </v>
   <v type="int" >       73 </v>
   <v type="int" >       74 </v>
   <v type="int" >       75 </v>
   <v type="int" >       76 </v>
   <v type="int" >       77 </v>
   <v type="int" >       78 </v>
   <v type="int" >       79 </v>
   <v type="int" >       80 </v>
   <v type="int" >       81 </v>
   <v type="int" >       82 </v>
   <v type="int" >       83 </v>
   <v type="int" >       84 </v>
   <v type="int" >       85 </v>
   <v type="int" >       86 </v>
   <v type="int" >       87 </v>
   <v type="int" >       88 </v>
   <v type="int" >       89 </v>
   <v type="int" >       90 </v>
   <v type="int" >       91 </v>
   <v type="int" >       92 </v>
  </varray>
 </primitive_cell>
 <kpoints>
  <generation param="Gamma">
   <v type="int" name="divisions">       1        4        1 </v>
   <v name="usershift">      0.00000000       0.00000000       0.00000000 </v>
   <v name="genvec1">      1.00000000       0.00000000       0.00000000 </v>
   <v name="genvec2">      0.00000000       0.25000000       0.00000000 </v>
   <v name="genvec3">      0.00000000       0.00000000       1.00000000 </v>
   <v name="shift">      0.00000000       0.00000000       0.00000000 </v>
  </generation>
  <varray name="kpointlist" >
   <v>       0.00000000       0.00000000       0.00000000 </v>
   <v>       0.00000000       0.25000000       0.00000000 </v>
   <v>       0.00000000       0.50000000       0.00000000 </v>
  </varray>
  <varray name="weights" >
   <v>       0.25000000 </v>
   <v>       0.50000000 </v>
   <v>       0.25000000 </v>
  </varray>
 </kpoints>
 <parameters>
  <separator name="general" >
   <i type="string" name="SYSTEM">unknown system</i>
   <i type="logical" name="LCOMPAT"> F  </i>
  </separator>
  <separator name="electronic" >
   <i type="string" name="PREC">accura</i>
   <i name="ENMAX">    500.00000000</i>
   <i name="ENAUG">    644.87300000</i>
   <i name="EDIFF">      0.00000100</i>
   <i type="int" name="IALGO">    38</i>
   <i type="int" name="IWAVPR">    10</i>
   <i type="int" name="NBANDS">   232</i>
   <i type="int" name="NBANDSLOW">    -1</i>
   <i type="int" name="NBANDSHIGH">    -1</i>
   <i name="NELECT">    368.00000000</i>
   <i type="int" name="TURBO">     0</i>
   <i type="int" name="IRESTART">     0</i>
   <i type="int" name="NREBOOT">     0</i>
   <i type="int" name="NMIN">     0</i>
   <i name="EREF">      0.00000000</i>
   <separator name="electronic smearing" >
    <i type="int" name="ISMEAR">     0</i>
    <i name="SIGMA">      0.20000000</i>
    <i name="KSPACING">      0.50000000</i>
    <i type="logical" name="KGAMMA"> T  </i>
    <i type="logical" name="KBLOWUP"> T  </i>
   </separator>
   <separator name="electronic projectors" >
    <i type="logical" name="LREAL"> T  </i>
    <v name="ROPT">     -0.00025000</v>
    <i type="int" name="LMAXPAW">  -100</i>
    <i type="int" name="LMAXMIX">     2</i>
    <i type="logical" name="NLSPLINE"> F  </i>
   </separator>
   <separator name="electronic startup" >
    <i type="int" name="ISTART">     0</i>
    <i type="int" name="ICHARG">     2</i>
    <i type="int" name="INIWAV">     1</i>
   </separator>
   <separator name="electronic spin" >
    <i type="int" name="ISPIN">     1</i>
    <i type="logical" name="LNONCOLLINEAR"> F  </i>
    <v name="MAGMOM">      1.00000000      1.00000000      1.00000000      1.00000000      1.00000000      1.00000000      1.00000000      1.00000000      1.00000000      1.00000000      1.00000000      1.00000000      1.00000000      1.00000000      1.00000000      1.00000000      1.00000000      1.00000000      1.00000000      1.00000000
      1.00000000      1.00000000      1.00000000      1.00000000      1.00000000      1.00000000      1.00000000      1.00000000      1.00000000      1.00000000      1.00000000      1.00000000      1.00000000      1.00000000      1.00000000      1.00000000      1.00000000      1.00000000      1.00000000      1.00000000
      1.00000000      1.00000000      1.00000000      1.00000000      1.00000000      1.00000000      1.00000000      1.00000000      1.00000000      1.00000000      1.00000000      1.00000000      1.00000000      1.00000000      1.00000000      1.00000000      1.00000000      1.00000000      1.00000000      1.00000000
      1.00000000      1.00000000      1.00000000      1.00000000      1.00000000      1.00000000      1.00000000      1.00000000      1.00000000      1.00000000      1.00000000      1.00000000      1.00000000      1.00000000      1.00000000      1.00000000      1.00000000      1.00000000      1.00000000      1.00000000
      1.00000000      1.00000000      1.00000000      1.00000000      1.00000000      1.00000000      1.00000000      1.00000000      1.00000000      1.00000000      1.00000000      1.00000000</v>
    <i name="NUPDOWN">     -1.00000000</i>
    <i type="logical" name="LSORBIT"> F  </i>
    <v name="SAXIS">      0.00000000      0.00000000      1.00000000</v>
    <i type="logical" name="LSPIRAL"> F  </i>
    <v name="QSPIRAL">      0.00000000      0.00000000      0.00000000</v>
    <i type="logical" name="LZEROZ"> F  </i>
   </separator>
   <separator name="electronic exchange-correlation" >
    <i type="logical" name="LASPH"> F  </i>
   </separator>
   <separator name="electronic convergence" >
    <i type="int" name="NELM">   150</i>
    <i type="int" name="NELMDL">    -5</i>
    <i type="int" name="NELMIN">     2</i>
    <i name="ENINI">    500.00000000</i>
    <separator name="electronic convergence detail" >
     <i type="logical" name="LDIAG"> T  </i>
     <i type="logical" name="LSUBROT"> F  </i>
     <i name="WEIMIN">      0.00000000</i>
     <i name="EBREAK">      0.00000000</i>
     <i name="DEPER">      0.30000000</i>
     <i type="int" name="NRMM">     4</i>
     <i name="TIME">      0.40000000</i>
    </separator>
   </separator>
   <separator name="electronic mixer" >
    <i name="AMIX">      0.40000000</i>
    <i name="BMIX">      1.00000000</i>
    <i name="AMIN">      0.10000000</i>
    <i name="AMIX_MAG">      1.60000000</i>
    <i name="BMIX_MAG">      1.00000000</i>
    <separator name="electronic mixer details" >
     <i type="int" name="IMIX">     4</i>
     <i type="logical" name="MIXFIRST"> F  </i>
     <i type="int" name="MAXMIX">   -45</i>
     <i name="WC">    100.00000000</i>
     <i type="int" name="INIMIX">     1</i>
     <i type="int" name="MIXPRE">     1</i>
     <i type="int" name="MREMOVE">     5</i>
    </separator>
   </separator>
   <separator name="electronic dipolcorrection" >
    <i type="logical" name="LDIPOL"> F  </i>
    <i type="logical" name="LMONO"> F  </i>
    <i type="int" name="IDIPOL">     0</i>
    <i name="EPSILON">      1.00000000</i>
    <v name="DIPOL">   -100.00000000   -100.00000000   -100.00000000</v>
    <i name="EFIELD">      0.00000000</i>
    <i type="logical" name="LVACPOTAV"> F  </i>
   </separator>
  </separator>
  <separator name="grids" >
   <i type="int" name="NGX">   210</i>
   <i type="int" name="NGY">    60</i>
   <i type="int" name="NGZ">   250</i>
   <i type="int" name="NGXF">   420</i>
   <i type="int" name="NGYF">   120</i>
   <i type="int" name="NGZF">   500</i>
   <i type="logical" name="ADDGRID"> F  </i>
  </separator>
  <separator name="ionic" >
   <i type="int" name="NSW">     0</i>
   <i type="int" name="IBRION">    -1</i>
   <i type="int" name="MDALGO">     0</i>
   <i type="int" name="ISIF">     2</i>
   <i name="PSTRESS">      0.00000000</i>
   <i name="EDIFFG">      0.00001000</i>
   <i type="int" name="NFREE">     0</i>
   <i name="POTIM">      0.50000000</i>
   <i name="SMASS">     -3.00000000</i>
   <i name="SCALEE">      1.00000000</i>
  </separator>
  <separator name="ionic md" >
   <i name="TEBEG">      0.00010000</i>
   <i name="TEEND">      0.00010000</i>
   <i type="int" name="NBLOCK">     1</i>
   <i type="int" name="KBLOCK">     1</i>
   <i type="int" name="NPACO">   256</i>
   <i name="APACO">     10.00000000</i>
  </separator>
  <separator name="symmetry" >
   <i type="int" name="ISYM">     2</i>
   <i name="SYMPREC">      0.00001000</i>
  </separator>
  <separator name="dos" >
   <i type="int" name="LORBIT">     0</i>
   <v name="RWIGS">     -1.00000000</v>
   <i type="int" name="NEDOS">   301</i>
   <i name="EMIN">     10.00000000</i>
   <i name="EMAX">    -10.00000000</i>
   <i name="EFERMI">      0.00000000</i>
  </separator>
  <separator name="writing" >
   <i type="int" name="NWRITE">     2</i>
   <i type="logical" name="LWAVE"> F  </i>
   <i type="logical" name="LDOWNSAMPLE"> F  </i>
   <i type="logical" name="LCHARG"> F  </i>
   <i type="logical" name="LPARD"> F  </i>
   <i type="logical" name="LVTOT"> F  </i>
   <i type="logical" name="LVHAR"> F  </i>
   <i type="logical" name="LELF"> F  </i>
   <i type="logical" name="LOPTICS"> F  </i>
   <v name="STM">      0.00000000      0.00000000      0.00000000      0.00000000      0.00000000      0.00000000      0.00000000</v>
  </separator>
  <separator name="performance" >
   <i type="int" name="NPAR">     2</i>
   <i type="int" name="NSIM">     4</i>
   <i type="int" name="NBLK">    -1</i>
   <i type="logical" name="LPLANE"> T  </i>
   <i type="logical" name="LSCALAPACK"> T  </i>
   <i type="logical" name="LSCAAWARE"> F  </i>
   <i type="logical" name="LSCALU"> F  </i>
   <i type="logical" name="LASYNC"> F  </i>
   <i type="logical" name="LORBITALREAL"> F  </i>
  </separator>
  <separator name="miscellaneous" >
   <i type="int" name="IDIOT">     3</i>
   <i type="int" name="PHON_NSTRUCT">    -1</i>
   <i type="logical" name="LMUSIC"> F  </i>
   <v name="POMASS">     12.01100000</v>
   <v name="DARWINR">      0.00000000</v>
   <v name="DARWINV">      1.00000000</v>
   <i type="logical" name="LCORR"> T  </i>
  </separator>
  <i type="logical" name="GGA_COMPAT"> T  </i>
  <i type="logical" name="LBERRY"> F  </i>
  <i type="int" name="ICORELEVEL">     0</i>
  <i type="logical" name="LDAU"> F  </i>
  <i type="int" name="I_CONSTRAINED_M">     0</i>
  <separator name="electronic exchange-correlation" >
   <i type="string" name="GGA    ">PE</i>
   <i type="string" name="XC_C">1</i>
   <i type="int" name="VOSKOWN">     0</i>
   <i type="logical" name="LHFCALC"> F  </i>
   <i type="string" name="PRECFOCK"></i>
   <i type="logical" name="LSYMGRAD"> F  </i>
   <i type="logical" name="LHFONE"> F  </i>
   <i type="logical" name="LRHFCALC"> F  </i>
   <i type="logical" name="LTHOMAS"> F  </i>
   <i type="logical" name="LMODELHF"> F  </i>
   <i type="logical" name="LFOCKACE"> F  </i>
   <i name="ENCUT4O">     -1.00000000</i>
   <i type="int" name="EXXOEP">     0</i>
   <i type="int" name="FOURORBIT">     0</i>
   <i name="AEXX">      0.00000000</i>
   <i name="HFALPHA">      0.00000000</i>
   <i name="MCALPHA">      0.00000000</i>
   <i name="ALDAX">      1.00000000</i>
   <i name="AGGAX">      1.00000000</i>
   <i name="AMGGAX">      1.00000000</i>
   <i name="ALDAC">      1.00000000</i>
   <i name="AGGAC">      1.00000000</i>
   <i name="AMGGAC">      1.00000000</i>
   <i type="int" name="NKREDX">     1</i>
   <i type="int" name="NKREDY">     1</i>
   <i type="int" name="NKREDZ">     1</i>
   <i type="logical" name="SHIFTRED"> F  </i>
   <i type="logical" name="ODDONLY"> F  </i>
   <i type="logical" name="EVENONLY"> F  </i>
   <i type="int" name="LMAXFOCK">     0</i>
   <i type="int" name="NMAXFOCKAE">     0</i>
   <i type="logical" name="LFOCKAEDFT"> F  </i>
   <i name="HFSCREEN">      0.00000000</i>
   <i name="HFSCREENC">      0.00000000</i>
   <i type="int" name="NBANDSGWLOW">     0</i>
  </separator>
  <separator name="vdW DFT" >
   <i type="logical" name="LUSE_VDW"> F  </i>
   <i type="int" name="IVDW_NL">    -1</i>
   <i type="logical" name="LSPIN_VDW"> F  </i>
   <i name="ZAB_VDW">     -0.84910000</i>
   <i name="GAMMA_VDW">      1.39626340</i>
   <i name="ALPHA_VDW">      0.00000000</i>
   <i name="PARAM1">      0.12340000</i>
   <i name="PARAM2">      1.00000000</i>
   <i name="BPARAM">      6.30000000</i>
   <i name="CPARAM">      0.00930000</i>
  </separator>
  <separator name="model GW" >
   <i type="int" name="MODEL_GW">     0</i>
   <i name="MODEL_EPS0">     49.63935326</i>
   <i name="MODEL_ALPHA">      1.00000000</i>
  </separator>
  <separator name="linear response parameters" >
   <i type="logical" name="LEPSILON"> F  </i>
   <i type="logical" name="LRPA"> F  </i>
   <i type="logical" name="LNABLA"> F  </i>
   <i type="logical" name="LVEL"> F  </i>
   <i name="CSHIFT">      0.10000000</i>
   <i name="OMEGAMAX">     -1.00000000</i>
   <i name="DEG_THRESHOLD">      0.00200000</i>
   <i name="RTIME">     -0.10000000</i>
   <i name="WPLASMAI">      0.00000000</i>
   <v name="DFIELD">      0.00000000      0.00000000      0.00000000</v>
   <v name="WPLASMA">      0.00000000      0.00000000      0.00000000      0.00000000      0.00000000      0.00000000      0.00000000      0.00000000      0.00000000</v>
  </separator>
  <separator name="orbital magnetization" >
   <i type="logical" name="NUCIND"> F  </i>
   <v name="MAGPOS">      0.00000000      0.00000000      0.00000000</v>
   <i type="logical" name="LNICSALL"> T  </i>
   <i type="logical" name="ORBITALMAG"> F  </i>
   <i type="logical" name="LMAGBLOCH"> F  </i>
   <i type="logical" name="LCHIMAG"> F  </i>
   <i type="logical" name="LGAUGE"> T  </i>
   <i type="int" name="MAGATOM">     0</i>
   <v name="MAGDIPOL">      0.00000000      0.00000000      0.00000000</v>
   <v name="AVECCONST">      0.00000000      0.00000000      0.00000000</v>
  </separator>
  <separator name="response functions" >
   <i type="logical" name="LALL_IN_ONE"> F  </i>
   <i type="int" name="IALL_IN_ONE">    -1</i>
   <i type="int" name="NBANDS_WAVE">    -1</i>
   <i type="logical" name="LFINITE_TEMPERATURE"> F  </i>
   <i type="logical" name="LADDER"> F  </i>
   <i type="logical" name="LRPAFORCE"> F  </i>
   <i type="logical" name="LFXC"> F  </i>
   <i type="logical" name="LHARTREE"> T  </i>
   <i type="int" name="IBSE">     2</i>
   <v type="int" name="KPOINT">    -1     0     0     0</v>
   <i type="logical" name="LTCTC"> F  </i>
   <i type="logical" name="LTCTE"> F  </i>
   <i type="logical" name="LTETE"> F  </i>
   <i type="logical" name="LTRIPLET"> F  </i>
   <i type="logical" name="LFXCEPS"> F  </i>
   <i type="logical" name="LFXHEG"> F  </i>
   <i type="int" name="NATURALO">     2</i>
   <i type="logical" name="LHOLEGF"> F  </i>
   <i type="logical" name="L2ORDER"> F  </i>
   <i type="logical" name="LDMP1"> F  </i>
   <i type="logical" name="LMP2LT"> F  </i>
   <i type="logical" name="LSMP2LT"> F  </i>
   <i type="logical" name="LGWLF"> F  </i>
   <i name="ENCUTGW">     -1.60000002</i>
   <i name="ENCUTGWSOFT">     -1.60000002</i>
   <i name="ENCUTLF">     -1.00000000</i>
   <i type="logical" name="ESF_SPLINES"> F  </i>
   <i name="ESF_CONV">      0.01000000</i>
   <i type="int" name="ESF_NINTER">    15</i>
   <i type="int" name="LMAXMP2">    -1</i>
   <i name="SCISSOR">      0.00000000</i>
   <i type="int" name="NOMEGA">     0</i>
   <i type="int" name="NOMEGAR">     0</i>
   <i type="int" name="NBANDSGW">    -1</i>
   <i type="int" name="NBANDSO">    -1</i>
   <i type="int" name="NBANDSV">    -1</i>
   <i type="int" name="NELMGW">     1</i>
   <i type="int" name="NELMHF">     1</i>
   <i type="int" name="DIM">     3</i>
   <i type="int" name="IESPILON">     4</i>
   <i type="int" name="ANTIRES">     0</i>
   <i name="OMEGAMAX">    -30.00000000</i>
   <i name="OMEGAMIN">    -30.00000000</i>
   <i name="OMEGATL">   -200.00000000</i>
   <i type="int" name="OMEGAGRID">     0</i>
   <i name="CSHIFT">     -0.10000000</i>
   <i type="logical" name="LSELFENERGY"> F  </i>
   <i type="logical" name="LSPECTRAL"> F  </i>
   <i type="logical" name="LSPECTRALGW"> F  </i>
   <i type="logical" name="LSINGLES"> F  </i>
   <i type="logical" name="LFERMIGW"> F  </i>
   <i type="logical" name="ODDONLYGW"> F  </i>
   <i type="logical" name="EVENONLYGW"> F  </i>
   <i type="int" name="NKREDLFX">     1</i>
   <i type="int" name="NKREDLFY">     1</i>
   <i type="int" name="NKREDLFZ">     1</i>
   <i type="int" name="MAXMEM">  2800</i>
   <i type="int" name="TELESCOPE">     0</i>
   <i type="int" name="NTAUPAR">    -1</i>
   <i type="int" name="NOMEGAPAR">    -1</i>
   <i name="DAMP_NEWTON">      0.80000001</i>
   <i name="LAMBDA">      1.00000000</i>
  </separator>
  <separator name="External order field" >
   <i name="OFIELD_KAPPA">      0.00000000</i>
   <v name="OFIELD_K">      0.00000000      0.00000000      0.00000000</v>
   <i name="OFIELD_Q6_NEAR">      0.00000000</i>
   <i name="OFIELD_Q6_FAR">      0.00000000</i>
   <i name="OFIELD_A">      0.00000000</i>
  </separator>
  <separator name="optional k-points parameters" >
   <i type="int" name="KPOINTS_OPT_MODE">     1</i>
   <i type="logical" name="LKPOINTS_OPT"> F  </i>
  </separator>
 </parameters>
 <atominfo>
  <atoms>      92 </atoms>
  <types>       1 </types>
  <array name="atoms" >
   <dimension dim="1">ion</dimension>
   <field type="string">element</field>
   <field type="int">atomtype</field>
   <set>
    <rc><c>C </c><c>   1</c></rc>
    <rc><c>C </c><c>   1</c></rc>
    <rc><c>C </c><c>   1</c></rc>
    <rc><c>C </c><c>   1</c></rc>
    <rc><c>C </c><c>   1</c></rc>
    <rc><c>C </c><c>   1</c></rc>
    <rc><c>C </c><c>   1</c></rc>
    <rc><c>C </c><c>   1</c></rc>
    <rc><c>C </c><c>   1</c></rc>
    <rc><c>C </c><c>   1</c></rc>
    <rc><c>C </c><c>   1</c></rc>
    <rc><c>C </c><c>   1</c></rc>
    <rc><c>C </c><c>   1</c></rc>
    <rc><c>C </c><c>   1</c></rc>
    <rc><c>C </c><c>   1</c></rc>
    <rc><c>C </c><c>   1</c></rc>
    <rc><c>C </c><c>   1</c></rc>
    <rc><c>C </c><c>   1</c></rc>
    <rc><c>C </c><c>   1</c></rc>
    <rc><c>C </c><c>   1</c></rc>
    <rc><c>C </c><c>   1</c></rc>
    <rc><c>C </c><c>   1</c></rc>
    <rc><c>C </c><c>   1</c></rc>
    <rc><c>C </c><c>   1</c></rc>
    <rc><c>C </c><c>   1</c></rc>
    <rc><c>C </c><c>   1</c></rc>
    <rc><c>C </c><c>   1</c></rc>
    <rc><c>C </c><c>   1</c></rc>
    <rc><c>C </c><c>   1</c></rc>
    <rc><c>C </c><c>   1</c></rc>
    <rc><c>C </c><c>   1</c></rc>
    <rc><c>C </c><c>   1</c></rc>
    <rc><c>C </c><c>   1</c></rc>
    <rc><c>C </c><c>   1</c></rc>
    <rc><c>C </c><c>   1</c></rc>
    <rc><c>C </c><c>   1</c></rc>
    <rc><c>C </c><c>   1</c></rc>
    <rc><c>C </c><c>   1</c></rc>
    <rc><c>C </c><c>   1</c></rc>
    <rc><c>C </c><c>   1</c></rc>
    <rc><c>C </c><c>   1</c></rc>
    <rc><c>C </c><c>   1</c></rc>
    <rc><c>C </c><c>   1</c></rc>
    <rc><c>C </c><c>   1</c></rc>
    <rc><c>C </c><c>   1</c></rc>
    <rc><c>C </c><c>   1</c></rc>
    <rc><c>C </c><c>   1</c></rc>
    <rc><c>C </c><c>   1</c></rc>
    <rc><c>C </c><c>   1</c></rc>
    <rc><c>C </c><c>   1</c></rc>
    <rc><c>C </c><c>   1</c></rc>
    <rc><c>C </c><c>   1</c></rc>
    <rc><c>C </c><c>   1</c></rc>
    <rc><c>C </c><c>   1</c></rc>
    <rc><c>C </c><c>   1</c></rc>
    <rc><c>C </c><c>   1</c></rc>
    <rc><c>C </c><c>   1</c></rc>
    <rc><c>C </c><c>   1</c></rc>
    <rc><c>C </c><c>   1</c></rc>
    <rc><c>C </c><c>   1</c></rc>
    <rc><c>C </c><c>   1</c></rc>
    <rc><c>C </c><c>   1</c></rc>
    <rc><c>C </c><c>   1</c></rc>
    <rc><c>C </c><c>   1</c></rc>
    <rc><c>C </c><c>   1</c></rc>
    <rc><c>C </c><c>   1</c></rc>
    <rc><c>C </c><c>   1</c></rc>
    <rc><c>C </c><c>   1</c></rc>
    <rc><c>C </c><c>   1</c></rc>
    <rc><c>C </c><c>   1</c></rc>
    <rc><c>C </c><c>   1</c></rc>
    <rc><c>C </c><c>   1</c></rc>
    <rc><c>C </c><c>   1</c></rc>
    <rc><c>C </c><c>   1</c></rc>
    <rc><c>C </c><c>   1</c></rc>
    <rc><c>C </c><c>   1</c></rc>
    <rc><c>C </c><c>   1</c></rc>
    <rc><c>C </c><c>   1</c></rc>
    <rc><c>C </c><c>   1</c></rc>
    <rc><c>C </c><c>   1</c></rc>
    <rc><c>C </c><c>   1</c></rc>
    <rc><c>C </c><c>   1</c></rc>
    <rc><c>C </c><c>   1</c></rc>
    <rc><c>C </c><c>   1</c></rc>
    <rc><c>C </c><c>   1</c></rc>
    <rc><c>C </c><c>   1</c></rc>
    <rc><c>C </c><c>   1</c></rc>
    <rc><c>C </c><c>   1</c></rc>
    <rc><c>C </c><c>   1</c></rc>
    <rc><c>C </c><c>   1</c></rc>
    <rc><c>C </c><c>   1</c></rc>
    <rc><c>C </c><c>   1</c></rc>
   </set>
  </array>
  <array name="atomtypes" >
   <dimension dim="1">type</dimension>
   <field type="int">atomspertype</field>
   <field type="string">element</field>
   <field>mass</field>
   <field>valence</field>
   <field type="string">pseudopotential</field>
   <set>
    <rc><c>  92</c><c>C </c><c>     12.01100000</c><c>      4.00000000</c><c>  PAW_PBE C 08Apr2002                   </c></rc>
   </set>
  </array>
 </atominfo>
 <structure name="initialpos" >
  <crystal>
   <varray name="basis" >
    <v>      28.05000000       0.00000000       0.00000000 </v>
    <v>       0.00000000       8.10000000       0.00000000 </v>
    <v>       0.00000000       0.00000000      33.50000000 </v>
   </varray>
   <i name="volume">   7611.36750000 </i>
   <varray name="rec_basis" >
    <v>       0.03565062       0.00000000       0.00000000 </v>
    <v>       0.00000000       0.12345679       0.00000000 </v>
    <v>       0.00000000       0.00000000       0.02985075 </v>
   </varray>
  </crystal>
  <varray name="positions" >
   <v>       0.01300670       0.10872432       0.52342388 </v>
   <v>       0.01127911       0.27460864       0.51589851 </v>
   <v>       0.05597647       0.02218284       0.51405373 </v>
   <v>       0.05203922       0.35387407       0.49778507 </v>
   <v>       0.09784135       0.10573938       0.50183881 </v>
   <v>       0.09419109       0.27272840       0.49200000 </v>
   <v>       0.13976292       0.02346272       0.48908060 </v>
   <v>       0.13514902       0.35102222       0.47405970 </v>
   <v>       0.18077897       0.10038309       0.47478209 </v>
   <v>       0.17762068       0.26402222       0.46516716 </v>
   <v>       0.22263815       0.02017099       0.46457015 </v>
   <v>       0.22054938       0.34829506       0.45487761 </v>
   <v>       0.26564135       0.10275025       0.46092537 </v>
   <v>       0.26605704       0.27520000       0.45403582 </v>
   <v>       0.30967237       0.02532531       0.46165672 </v>
   <v>       0.30952014       0.35511605       0.45280896 </v>
   <v>       0.35350945       0.10777802       0.46535522 </v>
   <v>       0.35276257       0.27715802       0.46094030 </v>
   <v>       0.39756150       0.02779654       0.47036418 </v>
   <v>       0.39661676       0.36473951       0.46926567 </v>
   <v>       0.43504100       0.10784358       0.48855522 </v>
   <v>       0.43674510       0.27771852       0.48497910 </v>
   <v>       0.47961141       0.03030099       0.49366866 </v>
   <v>       0.48027094       0.35762963       0.49065075 </v>
   <v>       0.52029947       0.10970395       0.50479403 </v>
   <v>       0.52111586       0.27822346       0.50703582 </v>
   <v>       0.56273084       0.02669025       0.51260896 </v>
   <v>       0.56569340       0.36045062       0.51480896 </v>
   <v>       0.60660963       0.10223420       0.52333433 </v>
   <v>       0.60835294       0.27395185       0.52296418 </v>
   <v>       0.65061676       0.01554160       0.53051343 </v>
   <v>       0.65254902       0.35145926       0.53008657 </v>
   <v>       0.69391444       0.09216370       0.54117015 </v>
   <v>       0.69593226       0.25981481       0.53574030 </v>
   <v>       0.73933333       0.00473344       0.54461791 </v>
   <v>       0.74142246       0.34146914       0.53571642 </v>
   <v>       0.78404991       0.09567420       0.54568060 </v>
   <v>       0.78613904       0.26637531       0.54311343 </v>
   <v>       0.83143672       0.02186481       0.54538209 </v>
   <v>       0.83106952       0.35286543       0.53710448 </v>
   <v>       0.87402139       0.10908383       0.54534627 </v>
   <v>       0.87515508       0.27108642       0.53427761 </v>
   <v>       0.92057398       0.01987198       0.54159104 </v>
   <v>       0.91826738       0.35279630       0.52511642 </v>
   <v>       0.96321569       0.09987741       0.53325970 </v>
   <v>       0.96176827       0.27381975       0.52478806 </v>
   <v>       0.00824424       0.60966049       0.50402985 </v>
   <v>       0.00993993       0.78013580       0.51245672 </v>
   <v>       0.05003209       0.52052593       0.49362388 </v>
   <v>       0.05390731       0.85485185       0.50761493 </v>
   <v>       0.09154724       0.60765556       0.48165075 </v>
   <v>       0.09196078       0.77370370       0.48799701 </v>
   <v>       0.13365882       0.51967778       0.47068060 </v>
   <v>       0.13583601       0.85507284       0.48122985 </v>
   <v>       0.17667950       0.60518889       0.45890448 </v>
   <v>       0.17635116       0.77555679       0.46693134 </v>
   <v>       0.22075686       0.52744815       0.44913433 </v>
   <v>       0.21921818       0.85240494       0.45851940 </v>
   <v>       0.26437540       0.60852593       0.44266269 </v>
   <v>       0.26453939       0.77861852       0.45101493 </v>
   <v>       0.30947914       0.52620494       0.44407164 </v>
   <v>       0.30866025       0.85545556       0.45524179 </v>
   <v>       0.35405989       0.60795556       0.44895821 </v>
   <v>       0.35302888       0.77855309       0.45260299 </v>
   <v>       0.39691979       0.52587901       0.45844179 </v>
   <v>       0.39627094       0.85904198       0.46465672 </v>
   <v>       0.44171123       0.60446173       0.46660597 </v>
   <v>       0.43994296       0.78209259       0.46910746 </v>
   <v>       0.48275223       0.52759506       0.48062388 </v>
   <v>       0.48311943       0.86475802       0.48370149 </v>
   <v>       0.52565775       0.60625802       0.49203881 </v>
   <v>       0.52501604       0.77829753       0.49403284 </v>
   <v>       0.56607130       0.52260988       0.50867164 </v>
   <v>       0.56607487       0.85969506       0.50855821 </v>
   <v>       0.60931907       0.60404568       0.51639701 </v>
   <v>       0.60835651       0.76891481       0.51553134 </v>
   <v>       0.65373619       0.51715802       0.52264776 </v>
   <v>       0.65176827       0.84094444       0.52764776 </v>
   <v>       0.69890909       0.59241605       0.52747761 </v>
   <v>       0.69542959       0.76049136       0.53261791 </v>
   <v>       0.74256684       0.51149259       0.53155224 </v>
   <v>       0.73920499       0.83919259       0.54139701 </v>
   <v>       0.78675223       0.60360864       0.52992537 </v>
   <v>       0.78437790       0.77075062       0.53788657 </v>
   <v>       0.83065954       0.52300000       0.53213134 </v>
   <v>       0.83035651       0.85496543       0.54074030 </v>
   <v>       0.87420321       0.60408272       0.52735821 </v>
   <v>       0.87419964       0.77503580       0.53194030 </v>
   <v>       0.91670588       0.51907531       0.52262388 </v>
   <v>       0.91804635       0.85815062       0.53007463 </v>
   <v>       0.95857398       0.60273704       0.51565970 </v>
   <v>       0.96058467       0.77271852       0.52283881 </v>
  </varray>
 </structure>
 <calculation>
  <scstep>
   <time name="dav">   11.02   11.02</time>
   <time name="total">   11.48   11.50</time>
   <energy>
    <i name="alphaZ">     91.34886789 </i>
    <i name="ewald"> 120134.53712875 </i>
    <i name="hartreedc">-129458.67819953 </i>
    <i name="XCdc">   1221.70009671 </i>
    <i name="pawpsdc">   9984.02826696 </i>
    <i name="pawaedc"> -10036.41360137 </i>
    <i name="eentropy">     -0.88997885 </i>
    <i name="bandstr">  -1808.01127501 </i>
    <i name="atom">  13537.65479391 </i>
    <i name="e_fr_energy">   3665.27609945 </i>
    <i name="e_wo_entrp">   3666.16607831 </i>
    <i name="e_0_energy">   3665.72108888 </i>
   </energy>
  </scstep>
  <scstep>
   <time name="dav">   13.04   13.04</time>
   <time name="total">   13.04   13.04</time>
   <energy>
    <i name="e_fr_energy">    175.22362279 </i>
    <i name="e_wo_entrp">    175.35142711 </i>
    <i name="e_0_energy">    175.28752495 </i>
   </energy>
  </scstep>
  <scstep>
   <time name="dav">   11.29   11.29</time>
   <time name="total">   11.29   11.29</time>
   <energy>
    <i name="e_fr_energy">   -833.67272593 </i>
    <i name="e_wo_entrp">   -833.61468252 </i>
    <i name="e_0_energy">   -833.64370422 </i>
   </energy>
  </scstep>
  <scstep>
   <time name="dav">   10.96   10.96</time>
   <time name="total">   10.96   10.96</time>
   <energy>
    <i name="e_fr_energy">   -895.99019611 </i>
    <i name="e_wo_entrp">   -895.92058539 </i>
    <i name="e_0_energy">   -895.95539075 </i>
   </energy>
  </scstep>
  <scstep>
   <time name="dav">   11.09   11.10</time>
   <time name="total">   12.57   12.58</time>
   <energy>
    <i name="e_fr_energy">   -897.59020442 </i>
    <i name="e_wo_entrp">   -897.52000886 </i>
    <i name="e_0_energy">   -897.55510664 </i>
   </energy>
  </scstep>
  <scstep>
   <time name="dav">   10.24   10.24</time>
   <time name="total">   12.03   12.04</time>
   <energy>
    <i name="e_fr_energy">   -848.10441589 </i>
    <i name="e_wo_entrp">   -848.02075279 </i>
    <i name="e_0_energy">   -848.06258434 </i>
   </energy>
  </scstep>
  <scstep>
   <time name="dav">   10.15   10.16</time>
   <time name="total">   11.94   11.95</time>
   <energy>
    <i name="e_fr_energy">   -829.65240284 </i>
    <i name="e_wo_entrp">   -829.55886821 </i>
    <i name="e_0_energy">   -829.60563553 </i>
   </energy>
  </scstep>
  <scstep>
   <time name="dav">   10.35   10.36</time>
   <time name="total">   12.15   12.15</time>
   <energy>
    <i name="e_fr_energy">   -829.35902519 </i>
    <i name="e_wo_entrp">   -829.26836406 </i>
    <i name="e_0_energy">   -829.31369462 </i>
   </energy>
  </scstep>
  <scstep>
   <time name="dav">   10.47   10.47</time>
   <time name="total">   12.27   12.28</time>
   <energy>
    <i name="e_fr_energy">   -829.25276985 </i>
    <i name="e_wo_entrp">   -829.16217810 </i>
    <i name="e_0_energy">   -829.20747398 </i>
   </energy>
  </scstep>
  <scstep>
   <time name="dav">   11.24   11.24</time>
   <time name="total">   13.04   13.05</time>
   <energy>
    <i name="e_fr_energy">   -829.21836481 </i>
    <i name="e_wo_entrp">   -829.12760463 </i>
    <i name="e_0_energy">   -829.17298472 </i>
   </energy>
  </scstep>
  <scstep>
   <time name="dav">    9.93    9.94</time>
   <time name="total">   11.75   11.76</time>
   <energy>
    <i name="e_fr_energy">   -829.18598093 </i>
    <i name="e_wo_entrp">   -829.09511383 </i>
    <i name="e_0_energy">   -829.14054738 </i>
   </energy>
  </scstep>
  <scstep>
   <time name="dav">   10.10   10.10</time>
   <time name="total">   11.92   11.92</time>
   <energy>
    <i name="e_fr_energy">   -829.17937692 </i>
    <i name="e_wo_entrp">   -829.08848366 </i>
    <i name="e_0_energy">   -829.13393029 </i>
   </energy>
  </scstep>
  <scstep>
   <time name="dav">   10.05   10.06</time>
   <time name="total">   11.88   11.88</time>
   <energy>
    <i name="e_fr_energy">   -829.19247781 </i>
    <i name="e_wo_entrp">   -829.10153012 </i>
    <i name="e_0_energy">   -829.14700396 </i>
   </energy>
  </scstep>
  <scstep>
   <time name="dav">   10.26   10.26</time>
   <time name="total">   12.09   12.10</time>
   <energy>
    <i name="e_fr_energy">   -829.20811879 </i>
    <i name="e_wo_entrp">   -829.11721481 </i>
    <i name="e_0_energy">   -829.16266680 </i>
   </energy>
  </scstep>
  <scstep>
   <time name="dav">   10.05   10.05</time>
   <time name="total">   11.89   11.90</time>
   <energy>
    <i name="e_fr_energy">   -829.22978192 </i>
    <i name="e_wo_entrp">   -829.13885382 </i>
    <i name="e_0_energy">   -829.18431787 </i>
   </energy>
  </scstep>
  <scstep>
   <time name="dav">   10.38   10.38</time>
   <time name="total">   12.24   12.25</time>
   <energy>
    <i name="e_fr_energy">   -829.23747420 </i>
    <i name="e_wo_entrp">   -829.14654415 </i>
    <i name="e_0_energy">   -829.19200917 </i>
   </energy>
  </scstep>
  <scstep>
   <time name="dav">   10.01   10.02</time>
   <time name="total">   11.88   11.89</time>
   <energy>
    <i name="e_fr_energy">   -829.24353511 </i>
    <i name="e_wo_entrp">   -829.15260165 </i>
    <i name="e_0_energy">   -829.19806838 </i>
   </energy>
  </scstep>
  <scstep>
   <time name="dav">   10.39   10.40</time>
   <time name="total">   12.27   12.28</time>
   <energy>
    <i name="e_fr_energy">   -829.24507436 </i>
    <i name="e_wo_entrp">   -829.15413611 </i>
    <i name="e_0_energy">   -829.19960524 </i>
   </energy>
  </scstep>
  <scstep>
   <time name="dav">    9.57    9.58</time>
   <time name="total">   11.46   11.47</time>
   <energy>
    <i name="e_fr_energy">   -829.24643463 </i>
    <i name="e_wo_entrp">   -829.15550287 </i>
    <i name="e_0_energy">   -829.20096875 </i>
   </energy>
  </scstep>
  <scstep>
   <time name="dav">    9.21    9.21</time>
   <time name="total">   11.11   11.11</time>
   <energy>
    <i name="e_fr_energy">   -829.24678507 </i>
    <i name="e_wo_entrp">   -829.15585245 </i>
    <i name="e_0_energy">   -829.20131876 </i>
   </energy>
  </scstep>
  <scstep>
   <time name="dav">    8.61    8.61</time>
   <time name="total">   10.53   10.54</time>
   <energy>
    <i name="e_fr_energy">   -829.24703582 </i>
    <i name="e_wo_entrp">   -829.15610108 </i>
    <i name="e_0_energy">   -829.20156845 </i>
   </energy>
  </scstep>
  <scstep>
   <time name="dav">    7.78    7.78</time>
   <time name="total">    9.70    9.71</time>
   <energy>
    <i name="e_fr_energy">   -829.24707882 </i>
    <i name="e_wo_entrp">   -829.15614464 </i>
    <i name="e_0_energy">   -829.20161173 </i>
   </energy>
  </scstep>
  <scstep>
   <time name="dav">    6.99    6.99</time>
   <time name="total">    8.93    8.93</time>
   <energy>
    <i name="e_fr_energy">   -829.24711461 </i>
    <i name="e_wo_entrp">   -829.15618049 </i>
    <i name="e_0_energy">   -829.20164755 </i>
   </energy>
  </scstep>
  <scstep>
   <time name="dav">    7.15    7.16</time>
   <time name="total">    9.11    9.11</time>
   <energy>
    <i name="e_fr_energy">   -829.24712755 </i>
    <i name="e_wo_entrp">   -829.15619379 </i>
    <i name="e_0_energy">   -829.20166067 </i>
   </energy>
  </scstep>
  <scstep>
   <time name="dav">    6.91    6.91</time>
   <time name="total">    8.88    8.89</time>
   <energy>
    <i name="e_fr_energy">   -829.24713314 </i>
    <i name="e_wo_entrp">   -829.15619933 </i>
    <i name="e_0_energy">   -829.20166623 </i>
   </energy>
  </scstep>
  <scstep>
   <time name="dav">    6.96    6.96</time>
   <time name="total">    8.96    8.96</time>
   <energy>
    <i name="e_fr_energy">   -829.24713647 </i>
    <i name="e_wo_entrp">   -829.15620263 </i>
    <i name="e_0_energy">   -829.20166955 </i>
   </energy>
  </scstep>
  <scstep>
   <time name="dav">    7.00    7.01</time>
   <time name="total">    9.01    9.01</time>
   <energy>
    <i name="e_fr_energy">   -829.24713811 </i>
    <i name="e_wo_entrp">   -829.15620436 </i>
    <i name="e_0_energy">   -829.20167124 </i>
   </energy>
  </scstep>
  <scstep>
   <time name="dav">    7.01    7.01</time>
   <time name="total">    9.03    9.04</time>
   <energy>
    <i name="e_fr_energy">   -829.24713957 </i>
    <i name="e_wo_entrp">   -829.15620571 </i>
    <i name="e_0_energy">   -829.20167264 </i>
   </energy>
  </scstep>
  <scstep>
   <time name="dav">    6.97    6.97</time>
   <time name="total">    7.33    7.33</time>
   <energy>
    <i name="alphaZ">     91.34886789 </i>
    <i name="ewald"> 120134.53712875 </i>
    <i name="hartreedc">-131221.25105980 </i>
    <i name="XCdc">   1278.98603754 </i>
    <i name="pawpsdc">  41090.42116919 </i>
    <i name="pawaedc"> -41154.48469490 </i>
    <i name="eentropy">     -0.09093385 </i>
    <i name="bandstr">  -4586.36844881 </i>
    <i name="atom">  13537.65479391 </i>
    <i name="e_fr_energy">   -829.24714009 </i>
    <i name="e_wo_entrp">   -829.15620624 </i>
    <i name="e_0_energy">   -829.20167317 </i>
   </energy>
  </scstep>
  <structure>
   <crystal>
    <varray name="basis" >
     <v>      28.05000000       0.00000000       0.00000000 </v>
     <v>       0.00000000       8.10000000       0.00000000 </v>
     <v>       0.00000000       0.00000000      33.50000000 </v>
    </varray>
    <i name="volume">   7611.36750000 </i>
    <varray name="rec_basis" >
     <v>       0.03565062       0.00000000       0.00000000 </v>
     <v>       0.00000000       0.12345679       0.00000000 </v>
     <v>       0.00000000       0.00000000       0.02985075 </v>
    </varray>
   </crystal>
   <varray name="positions" >
    <v>       0.01300670       0.10872432       0.52342388 </v>
    <v>       0.01127911       0.27460864       0.51589851 </v>
    <v>       0.05597647       0.02218284       0.51405373 </v>
    <v>       0.05203922       0.35387407       0.49778507 </v>
    <v>       0.09784135       0.10573938       0.50183881 </v>
    <v>       0.09419109       0.27272840       0.49200000 </v>
    <v>       0.13976292       0.02346272       0.48908060 </v>
    <v>       0.13514902       0.35102222       0.47405970 </v>
    <v>       0.18077897       0.10038309       0.47478209 </v>
    <v>       0.17762068       0.26402222       0.46516716 </v>
    <v>       0.22263815       0.02017099       0.46457015 </v>
    <v>       0.22054938       0.34829506       0.45487761 </v>
    <v>       0.26564135       0.10275025       0.46092537 </v>
    <v>       0.26605704       0.27520000       0.45403582 </v>
    <v>       0.30967237       0.02532531       0.46165672 </v>
    <v>       0.30952014       0.35511605       0.45280896 </v>
    <v>       0.35350945       0.10777802       0.46535522 </v>
    <v>       0.35276257       0.27715802       0.46094030 </v>
    <v>       0.39756150       0.02779654       0.47036418 </v>
    <v>       0.39661676       0.36473951       0.46926567 </v>
    <v>       0.43504100       0.10784358       0.48855522 </v>
    <v>       0.43674510       0.27771852       0.48497910 </v>
    <v>       0.47961141       0.03030099       0.49366866 </v>
    <v>       0.48027094       0.35762963       0.49065075 </v>
    <v>       0.52029947       0.10970395       0.50479403 </v>
    <v>       0.52111586       0.27822346       0.50703582 </v>
    <v>       0.56273084       0.02669025       0.51260896 </v>
    <v>       0.56569340       0.36045062       0.51480896 </v>
    <v>       0.60660963       0.10223420       0.52333433 </v>
    <v>       0.60835294       0.27395185       0.52296418 </v>
    <v>       0.65061676       0.01554160       0.53051343 </v>
    <v>       0.65254902       0.35145926       0.53008657 </v>
    <v>       0.69391444       0.09216370       0.54117015 </v>
    <v>       0.69593226       0.25981481       0.53574030 </v>
    <v>       0.73933333       0.00473344       0.54461791 </v>
    <v>       0.74142246       0.34146914       0.53571642 </v>
    <v>       0.78404991       0.09567420       0.54568060 </v>
    <v>       0.78613904       0.26637531       0.54311343 </v>
    <v>       0.83143672       0.02186481       0.54538209 </v>
    <v>       0.83106952       0.35286543       0.53710448 </v>
    <v>       0.87402139       0.10908383       0.54534627 </v>
    <v>       0.87515508       0.27108642       0.53427761 </v>
    <v>       0.92057398       0.01987198       0.54159104 </v>
    <v>       0.91826738       0.35279630       0.52511642 </v>
    <v>       0.96321569       0.09987741       0.53325970 </v>
    <v>       0.96176827       0.27381975       0.52478806 </v>
    <v>       0.00824424       0.60966049       0.50402985 </v>
    <v>       0.00993993       0.78013580       0.51245672 </v>
    <v>       0.05003209       0.52052593       0.49362388 </v>
    <v>       0.05390731       0.85485185       0.50761493 </v>
    <v>       0.09154724       0.60765556       0.48165075 </v>
    <v>       0.09196078       0.77370370       0.48799701 </v>
    <v>       0.13365882       0.51967778       0.47068060 </v>
    <v>       0.13583601       0.85507284       0.48122985 </v>
    <v>       0.17667950       0.60518889       0.45890448 </v>
    <v>       0.17635116       0.77555679       0.46693134 </v>
    <v>       0.22075686       0.52744815       0.44913433 </v>
    <v>       0.21921818       0.85240494       0.45851940 </v>
    <v>       0.26437540       0.60852593       0.44266269 </v>
    <v>       0.26453939       0.77861852       0.45101493 </v>
    <v>       0.30947914       0.52620494       0.44407164 </v>
    <v>       0.30866025       0.85545556       0.45524179 </v>
    <v>       0.35405989       0.60795556       0.44895821 </v>
    <v>       0.35302888       0.77855309       0.45260299 </v>
    <v>       0.39691979       0.52587901       0.45844179 </v>
    <v>       0.39627094       0.85904198       0.46465672 </v>
    <v>       0.44171123       0.60446173       0.46660597 </v>
    <v>       0.43994296       0.78209259       0.46910746 </v>
    <v>       0.48275223       0.52759506       0.48062388 </v>
    <v>       0.48311943       0.86475802       0.48370149 </v>
    <v>       0.52565775       0.60625802       0.49203881 </v>
    <v>       0.52501604       0.77829753       0.49403284 </v>
    <v>       0.56607130       0.52260988       0.50867164 </v>
    <v>       0.56607487       0.85969506       0.50855821 </v>
    <v>       0.60931907       0.60404568       0.51639701 </v>
    <v>       0.60835651       0.76891481       0.51553134 </v>
    <v>       0.65373619       0.51715802       0.52264776 </v>
    <v>       0.65176827       0.84094444       0.52764776 </v>
    <v>       0.69890909       0.59241605       0.52747761 </v>
    <v>       0.69542959       0.76049136       0.53261791 </v>
    <v>       0.74256684       0.51149259       0.53155224 </v>
    <v>       0.73920499       0.83919259       0.54139701 </v>
    <v>       0.78675223       0.60360864       0.52992537 </v>
    <v>       0.78437790       0.77075062       0.53788657 </v>
    <v>       0.83065954       0.52300000       0.53213134 </v>
    <v>       0.83035651       0.85496543       0.54074030 </v>
    <v>       0.87420321       0.60408272       0.52735821 </v>
    <v>       0.87419964       0.77503580       0.53194030 </v>
    <v>       0.91670588       0.51907531       0.52262388 </v>
    <v>       0.91804635       0.85815062       0.53007463 </v>
    <v>       0.95857398       0.60273704       0.51565970 </v>
    <v>       0.96058467       0.77271852       0.52283881 </v>
   </varray>
  </structure>
  <varray name="forces" >
   <v>       4.03887537      -1.35867374      -0.60100876 </v>
   <v>       3.63325172       0.46954945      -1.29644506 </v>
   <v>      -0.53690335       1.13204377       0.50989970 </v>
   <v>      -3.11231148      -0.75861934       1.54961883 </v>
   <v>      -0.17746699       0.61278329      -0.52736167 </v>
   <v>       2.06436748      -0.95722132      -0.40430722 </v>
   <v>      -0.94253566      -1.09630212      -0.17320963 </v>
   <v>      -0.83073733      -0.72107105       0.39150484 </v>
   <v>      -0.69577909       0.81993385      -0.14239332 </v>
   <v>       0.79369269       2.09119042       0.85646557 </v>
   <v>      -0.47415145      -0.68734614       0.22569166 </v>
   <v>       0.17443802       2.93127240      -1.14942408 </v>
   <v>       0.79485415       2.08648414      -0.44894167 </v>
   <v>      -1.66278053      -2.17929804       1.07193005 </v>
   <v>       0.13187206      -1.06867750      -0.30414285 </v>
   <v>       0.18737655       2.02030706      -1.18027222 </v>
   <v>      -0.65062983       0.67143621      -0.39306961 </v>
   <v>       1.24742423       0.09342558       1.33234264 </v>
   <v>      -2.36668707      -0.66576872       1.17441787 </v>
   <v>      -1.41447568      -2.56035262      -0.78701107 </v>
   <v>       1.49059582       0.34249339      -1.22469950 </v>
   <v>      -0.68790804       1.16472037      -0.29106807 </v>
   <v>      -1.43683894      -1.58482184      -0.51328922 </v>
   <v>       0.52140708       1.40937765       0.44922178 </v>
   <v>       1.21169639       0.53438596       1.25215701 </v>
   <v>       0.33187469       1.05114890      -0.69734263 </v>
   <v>       2.17763282      -0.25168819       0.58458325 </v>
   <v>      -1.43972562      -2.96534644      -0.37718991 </v>
   <v>       0.64014941       0.55545209       0.05131764 </v>
   <v>      -0.17866237      -0.86965757       1.01542710 </v>
   <v>      -0.49462458      -1.22117024       0.72779380 </v>
   <v>       0.14043420      -1.28766516      -1.23614468 </v>
   <v>       1.13398508      -0.38042930      -0.82971626 </v>
   <v>       0.36417691       1.75776410       0.55907800 </v>
   <v>      -0.34420217       3.71916877       0.36682697 </v>
   <v>      -0.07115799       0.75073042       0.63010006 </v>
   <v>       1.30022473      -0.24658339       0.43715607 </v>
   <v>      -0.27581737      -0.08941181      -1.03872316 </v>
   <v>      -2.76954095       0.28160757       0.79460254 </v>
   <v>      -1.30618698      -0.33722357      -0.21607394 </v>
   <v>       3.02192573      -1.38979043      -1.07314614 </v>
   <v>      -0.71477288       0.13491355       1.36156016 </v>
   <v>      -0.71461252       1.77588804      -0.68670299 </v>
   <v>       0.42789049      -1.66618594       0.17968185 </v>
   <v>      -2.60305155       2.37647683       0.69223078 </v>
   <v>      -3.18002006      -1.45084934       1.13556607 </v>
   <v>       2.87424219      -0.32729172      -0.42386176 </v>
   <v>       2.55509887      -2.27728779      -1.17673008 </v>
   <v>      -1.43869349       2.20830426      -0.61195428 </v>
   <v>      -1.06993469      -0.01397272      -0.13452200 </v>
   <v>      -0.25491619      -1.49079397       0.19383747 </v>
   <v>       1.06439937       0.80725328       0.55740057 </v>
   <v>       0.93009182       1.18442934      -1.01871237 </v>
   <v>      -0.19516361       0.46058207       0.74829517 </v>
   <v>      -0.81030984       0.21213462       0.74384765 </v>
   <v>       0.20291464      -2.02239543      -1.57194729 </v>
   <v>      -1.52610822      -2.89530116       0.33081935 </v>
   <v>       2.43773476       1.23540783       0.91499663 </v>
   <v>       0.77996813       0.39808027       1.01791058 </v>
   <v>      -1.03633548      -1.88631143      -0.86804946 </v>
   <v>       0.10356513      -0.90877848       0.68307517 </v>
   <v>       0.23700263       1.23673797      -0.08758778 </v>
   <v>      -0.63130004       0.30673407      -0.52286752 </v>
   <v>       1.03420325      -0.61282670       0.53210663 </v>
   <v>       1.87716071       0.70619551       0.64992320 </v>
   <v>      -0.04706589       0.25855777      -0.89432618 </v>
   <v>      -1.11768934       3.06523465      -0.27089793 </v>
   <v>       2.40394277      -2.20706662       0.53618114 </v>
   <v>       0.66016128      -1.97582279       0.80005340 </v>
   <v>      -1.79879876      -1.03935463      -0.12223335 </v>
   <v>      -0.16204850       0.61704554       0.46314750 </v>
   <v>       0.24593526      -0.50008169      -0.54870822 </v>
   <v>      -0.17774022       2.16478151      -0.77602523 </v>
   <v>      -0.82555312      -1.41404310      -0.64437838 </v>
   <v>       0.51613576      -2.10216120      -0.67892223 </v>
   <v>       1.06690441       1.94531093       0.72416216 </v>
   <v>      -0.09847574       0.43593480       0.71962389 </v>
   <v>      -0.49035384       2.68110593      -0.31666194 </v>
   <v>      -1.70893026       0.66230204      -0.12381362 </v>
   <v>       1.04797403      -0.17952270      -0.00999261 </v>
   <v>       0.44100174       0.41161045      -0.81428265 </v>
   <v>      -0.14512458       0.59240839      -0.41711999 </v>
   <v>      -1.23917070      -1.04504526       1.40782815 </v>
   <v>       2.18405317      -0.80320503      -0.36457908 </v>
   <v>      -0.41886624      -0.90981915      -0.77797837 </v>
   <v>      -0.66772407      -1.58991452      -0.52810437 </v>
   <v>      -0.56743899       1.18176895       0.41477865 </v>
   <v>      -0.59453150      -0.89916123      -0.07566538 </v>
   <v>       1.15615941       1.38220625      -1.17593758 </v>
   <v>       1.17745760      -1.34888658       1.25537076 </v>
   <v>      -1.20300030       1.46483902       0.62349049 </v>
   <v>      -3.51739846      -0.15832155      -0.11847945 </v>
  </varray>
  <varray name="stress" >
   <v>       1.17105403       0.29407003      -0.27654713 </v>
   <v>       0.29407002      49.85690093       0.71151385 </v>
   <v>      -0.27654714       0.71151385      -0.79998147 </v>
  </varray>
  <energy>
   <i name="e_fr_energy">   -829.24714009 </i>
   <i name="e_wo_entrp">   -829.15620624 </i>
   <i name="e_0_energy">   -829.20167317 </i>
  </energy>
  <time name="totalsc">  332.25  332.46</time>
  <eigenvalues>
   <array>
    <dimension dim="1">band</dimension>
    <dimension dim="2">kpoint</dimension>
    <dimension dim="3">spin</dimension>
    <field>eigene</field>
    <field>occ</field>
    <set>
     <set comment="spin 1">
      <set comment="kpoint 1">
       <r>  -23.2222    1.0000 </r>
       <r>  -23.1033    1.0000 </r>
       <r>  -22.9888    1.0000 </r>
       <r>  -22.6875    1.0000 </r>
       <r>  -22.6227    1.0000 </r>
       <r>  -22.4698    1.0000 </r>
       <r>  -22.0813    1.0000 </r>
       <r>  -21.9948    1.0000 </r>
       <r>  -21.5498    1.0000 </r>
       <r>  -21.4635    1.0000 </r>
       <r>  -21.3739    1.0000 </r>
       <r>  -21.3550    1.0000 </r>
       <r>  -21.3027    1.0000 </r>
       <r>  -21.2167    1.0000 </r>
       <r>  -21.0942    1.0000 </r>
       <r>  -21.0737    1.0000 </r>
       <r>  -21.0217    1.0000 </r>
       <r>  -20.9845    1.0000 </r>
       <r>  -20.7912    1.0000 </r>
       <r>  -20.5728    1.0000 </r>
       <r>  -20.4315    1.0000 </r>
       <r>  -20.3577    1.0000 </r>
       <r>  -20.1683    1.0000 </r>
       <r>  -20.0616    1.0000 </r>
       <r>  -19.9249    1.0000 </r>
       <r>  -19.7522    1.0000 </r>
       <r>  -19.5400    1.0000 </r>
       <r>  -19.4533    1.0000 </r>
       <r>  -19.2041    1.0000 </r>
       <r>  -18.9484    1.0000 </r>
       <r>  -18.6947    1.0000 </r>
       <r>  -18.6079    1.0000 </r>
       <r>  -18.5063    1.0000 </r>
       <r>  -18.3630    1.0000 </r>
       <r>  -18.1748    1.0000 </r>
       <r>  -17.6348    1.0000 </r>
       <r>  -17.2970    1.0000 </r>
       <r>  -17.1847    1.0000 </r>
       <r>  -17.1079    1.0000 </r>
       <r>  -16.9793    1.0000 </r>
       <r>  -16.8969    1.0000 </r>
       <r>  -16.7108    1.0000 </r>
       <r>  -16.6729    1.0000 </r>
       <r>  -16.6409    1.0000 </r>
       <r>  -16.5609    1.0000 </r>
       <r>  -16.5399    1.0000 </r>
       <r>  -16.5257    1.0000 </r>
       <r>  -16.4536    1.0000 </r>
       <r>  -16.4022    1.0000 </r>
       <r>  -16.3246    1.0000 </r>
       <r>  -16.2639    1.0000 </r>
       <r>  -16.1283    1.0000 </r>
       <r>  -16.0365    1.0000 </r>
       <r>  -15.9496    1.0000 </r>
       <r>  -15.9238    1.0000 </r>
       <r>  -15.6458    1.0000 </r>
       <r>  -15.4079    1.0000 </r>
       <r>  -15.3323    1.0000 </r>
       <r>  -15.2621    1.0000 </r>
       <r>  -15.2377    1.0000 </r>
       <r>  -15.1588    1.0000 </r>
       <r>  -15.0408    1.0000 </r>
       <r>  -14.4012    1.0000 </r>
       <r>  -14.2643    1.0000 </r>
       <r>  -14.1014    1.0000 </r>
       <r>  -14.0449    1.0000 </r>
       <r>  -13.9288    1.0000 </r>
       <r>  -13.7333    1.0000 </r>
       <r>  -13.7052    1.0000 </r>
       <r>  -13.6104    1.0000 </r>
       <r>  -13.4895    1.0000 </r>
       <r>  -13.4349    1.0000 </r>
       <r>  -13.2969    1.0000 </r>
       <r>  -13.1779    1.0000 </r>
       <r>  -13.0855    1.0000 </r>
       <r>  -12.9063    1.0000 </r>
       <r>  -12.6714    1.0000 </r>
       <r>  -12.3862    1.0000 </r>
       <r>  -12.1565    1.0000 </r>
       <r>  -12.0884    1.0000 </r>
       <r>  -12.0288    1.0000 </r>
       <r>  -12.0069    1.0000 </r>
       <r>  -11.9411    1.0000 </r>
       <r>  -11.8618    1.0000 </r>
       <r>  -11.8051    1.0000 </r>
       <r>  -11.5027    1.0000 </r>
       <r>  -11.3405    1.0000 </r>
       <r>  -11.2447    1.0000 </r>
       <r>  -11.1029    1.0000 </r>
       <r>  -11.0728    1.0000 </r>
       <r>  -10.9306    1.0000 </r>
       <r>  -10.9150    1.0000 </r>
       <r>  -10.7751    1.0000 </r>
       <r>  -10.7218    1.0000 </r>
       <r>  -10.6902    1.0000 </r>
       <r>  -10.6633    1.0000 </r>
       <r>  -10.5535    1.0000 </r>
       <r>  -10.5512    1.0000 </r>
       <r>  -10.4884    1.0000 </r>
       <r>  -10.4460    1.0000 </r>
       <r>  -10.4196    1.0000 </r>
       <r>  -10.2762    1.0000 </r>
       <r>  -10.2497    1.0000 </r>
       <r>  -10.2105    1.0000 </r>
       <r>  -10.1603    1.0000 </r>
       <r>   -9.9979    1.0000 </r>
       <r>   -9.9391    1.0000 </r>
       <r>   -9.8702    1.0000 </r>
       <r>   -9.8372    1.0000 </r>
       <r>   -9.7934    1.0000 </r>
       <r>   -9.7140    1.0000 </r>
       <r>   -9.6809    1.0000 </r>
       <r>   -9.6362    1.0000 </r>
       <r>   -9.6045    1.0000 </r>
       <r>   -9.5648    1.0000 </r>
       <r>   -9.5594    1.0000 </r>
       <r>   -9.4901    1.0000 </r>
       <r>   -9.4744    1.0000 </r>
       <r>   -9.4541    1.0000 </r>
       <r>   -9.4222    1.0000 </r>
       <r>   -9.4050    1.0000 </r>
       <r>   -9.3869    1.0000 </r>
       <r>   -9.3655    1.0000 </r>
       <r>   -9.3271    1.0000 </r>
       <r>   -9.2562    1.0000 </r>
       <r>   -9.2088    1.0000 </r>
       <r>   -9.1732    1.0000 </r>
       <r>   -9.1295    1.0000 </r>
       <r>   -9.1161    1.0000 </r>
       <r>   -9.0748    1.0000 </r>
       <r>   -9.0343    1.0000 </r>
       <r>   -8.9957    1.0000 </r>
       <r>   -8.9771    1.0000 </r>
       <r>   -8.9571    1.0000 </r>
       <r>   -8.9266    1.0000 </r>
       <r>   -8.8948    1.0000 </r>
       <r>   -8.8351    1.0000 </r>
       <r>   -8.8133    1.0000 </r>
       <r>   -8.7973    1.0000 </r>
       <r>   -8.7261    1.0000 </r>
       <r>   -8.6589    1.0000 </r>
       <r>   -8.5963    1.0000 </r>
       <r>   -8.5806    1.0000 </r>
       <r>   -8.5500    1.0000 </r>
       <r>   -8.5049    1.0000 </r>
       <r>   -8.4197    1.0000 </r>
       <r>   -8.0503    1.0000 </r>
       <r>   -8.0032    1.0000 </r>
       <r>   -7.8791    1.0000 </r>
       <r>   -7.8196    1.0000 </r>
       <r>   -7.6452    1.0000 </r>
       <r>   -7.6114    1.0000 </r>
       <r>   -7.5660    1.0000 </r>
       <r>   -7.4837    1.0000 </r>
       <r>   -7.4374    1.0000 </r>
       <r>   -7.3622    1.0000 </r>
       <r>   -7.2362    1.0000 </r>
       <r>   -7.1417    1.0000 </r>
       <r>   -7.0735    1.0000 </r>
       <r>   -6.9250    1.0000 </r>
       <r>   -6.8101    1.0000 </r>
       <r>   -6.7150    1.0000 </r>
       <r>   -6.7052    1.0000 </r>
       <r>   -6.5582    1.0000 </r>
       <r>   -6.3641    1.0000 </r>
       <r>   -6.2074    1.0000 </r>
       <r>   -6.1831    1.0000 </r>
       <r>   -5.9823    1.0000 </r>
       <r>   -5.9775    1.0000 </r>
       <r>   -5.9322    1.0000 </r>
       <r>   -5.8876    1.0000 </r>
       <r>   -5.8507    1.0000 </r>
       <r>   -5.7442    1.0000 </r>
       <r>   -5.1538    1.0000 </r>
       <r>   -4.9367    1.0000 </r>
       <r>   -4.9050    1.0000 </r>
       <r>   -4.5663    1.0000 </r>
       <r>   -4.5063    1.0000 </r>
       <r>   -4.4784    1.0000 </r>
       <r>   -4.4011    1.0000 </r>
       <r>   -4.3389    1.0000 </r>
       <r>   -3.7647    1.0000 </r>
       <r>   -3.7066    1.0000 </r>
       <r>   -3.1482    0.5382 </r>
       <r>   -3.0257    0.2204 </r>
       <r>   -2.7870    0.0070 </r>
       <r>   -2.6612    0.0004 </r>
       <r>   -2.6551    0.0003 </r>
       <r>   -2.1479    0.0000 </r>
       <r>   -2.1008    0.0000 </r>
       <r>   -1.6672    0.0000 </r>
       <r>   -1.5691    0.0000 </r>
       <r>   -1.5205    0.0000 </r>
       <r>   -1.4887    0.0000 </r>
       <r>   -1.4738    0.0000 </r>
       <r>   -1.3835    0.0000 </r>
       <r>   -1.3223    0.0000 </r>
       <r>   -0.9919    0.0000 </r>
       <r>   -0.8029    0.0000 </r>
       <r>   -0.7306    0.0000 </r>
       <r>   -0.5048    0.0000 </r>
       <r>   -0.4221    0.0000 </r>
       <r>   -0.0615    0.0000 </r>
       <r>    0.0225    0.0000 </r>
       <r>    0.0595    0.0000 </r>
       <r>    0.1161    0.0000 </r>
       <r>    0.2828    0.0000 </r>
       <r>    0.6348    0.0000 </r>
       <r>    0.6518    0.0000 </r>
       <r>    0.7019    0.0000 </r>
       <r>    0.7576    0.0000 </r>
       <r>    0.8375    0.0000 </r>
       <r>    0.9019    0.0000 </r>
       <r>    0.9147    0.0000 </r>
       <r>    0.9440    0.0000 </r>
       <r>    0.9822    0.0000 </r>
       <r>    1.0274    0.0000 </r>
       <r>    1.1530    0.0000 </r>
       <r>    1.1583    0.0000 </r>
       <r>    1.2191    0.0000 </r>
       <r>    1.3093    0.0000 </r>
       <r>    1.3255    0.0000 </r>
       <r>    1.3338    0.0000 </r>
       <r>    1.4041    0.0000 </r>
       <r>    1.4579    0.0000 </r>
       <r>    1.5456    0.0000 </r>
       <r>    1.5749    0.0000 </r>
       <r>    1.6973    0.0000 </r>
       <r>    1.7163    0.0000 </r>
       <r>    1.7308    0.0000 </r>
       <r>    1.7311    0.0000 </r>
       <r>    1.7866    0.0000 </r>
      </set>
      <set comment="kpoint 2">
       <r>  -23.1406    1.0000 </r>
       <r>  -23.0086    1.0000 </r>
       <r>  -22.8919    1.0000 </r>
       <r>  -22.6355    1.0000 </r>
       <r>  -22.5908    1.0000 </r>
       <r>  -22.5180    1.0000 </r>
       <r>  -22.2038    1.0000 </r>
       <r>  -22.0707    1.0000 </r>
       <r>  -21.9665    1.0000 </r>
       <r>  -21.9010    1.0000 </r>
       <r>  -21.7983    1.0000 </r>
       <r>  -21.7049    1.0000 </r>
       <r>  -21.2955    1.0000 </r>
       <r>  -21.1650    1.0000 </r>
       <r>  -21.0712    1.0000 </r>
       <r>  -20.9677    1.0000 </r>
       <r>  -20.6217    1.0000 </r>
       <r>  -20.5550    1.0000 </r>
       <r>  -20.4615    1.0000 </r>
       <r>  -20.2887    1.0000 </r>
       <r>  -20.2331    1.0000 </r>
       <r>  -20.1219    1.0000 </r>
       <r>  -20.0579    1.0000 </r>
       <r>  -19.8873    1.0000 </r>
       <r>  -19.8335    1.0000 </r>
       <r>  -19.5295    1.0000 </r>
       <r>  -19.5179    1.0000 </r>
       <r>  -19.1111    1.0000 </r>
       <r>  -19.0507    1.0000 </r>
       <r>  -18.9159    1.0000 </r>
       <r>  -18.6576    1.0000 </r>
       <r>  -18.5634    1.0000 </r>
       <r>  -18.4932    1.0000 </r>
       <r>  -18.2833    1.0000 </r>
       <r>  -18.1585    1.0000 </r>
       <r>  -18.0872    1.0000 </r>
       <r>  -18.0421    1.0000 </r>
       <r>  -17.9692    1.0000 </r>
       <r>  -17.8409    1.0000 </r>
       <r>  -17.7584    1.0000 </r>
       <r>  -17.4515    1.0000 </r>
       <r>  -17.3400    1.0000 </r>
       <r>  -17.2901    1.0000 </r>
       <r>  -17.1035    1.0000 </r>
       <r>  -17.0100    1.0000 </r>
       <r>  -16.6265    1.0000 </r>
       <r>  -16.3656    1.0000 </r>
       <r>  -16.2031    1.0000 </r>
       <r>  -16.0734    1.0000 </r>
       <r>  -15.8860    1.0000 </r>
       <r>  -15.7949    1.0000 </r>
       <r>  -15.6859    1.0000 </r>
       <r>  -15.6313    1.0000 </r>
       <r>  -15.3871    1.0000 </r>
       <r>  -15.2951    1.0000 </r>
       <r>  -15.1724    1.0000 </r>
       <r>  -15.1196    1.0000 </r>
       <r>  -15.0703    1.0000 </r>
       <r>  -15.0105    1.0000 </r>
       <r>  -15.0038    1.0000 </r>
       <r>  -14.8805    1.0000 </r>
       <r>  -14.7568    1.0000 </r>
       <r>  -14.5394    1.0000 </r>
       <r>  -14.3622    1.0000 </r>
       <r>  -14.3202    1.0000 </r>
       <r>  -14.2082    1.0000 </r>
       <r>  -13.9784    1.0000 </r>
       <r>  -13.9058    1.0000 </r>
       <r>  -13.3555    1.0000 </r>
       <r>  -13.2325    1.0000 </r>
       <r>  -13.1907    1.0000 </r>
       <r>  -13.1552    1.0000 </r>
       <r>  -12.9137    1.0000 </r>
       <r>  -12.8419    1.0000 </r>
       <r>  -12.7881    1.0000 </r>
       <r>  -12.7452    1.0000 </r>
       <r>  -12.6995    1.0000 </r>
       <r>  -12.5439    1.0000 </r>
       <r>  -12.4493    1.0000 </r>
       <r>  -12.3000    1.0000 </r>
       <r>  -12.1598    1.0000 </r>
       <r>  -12.0961    1.0000 </r>
       <r>  -11.9825    1.0000 </r>
       <r>  -11.9498    1.0000 </r>
       <r>  -11.7890    1.0000 </r>
       <r>  -11.6315    1.0000 </r>
       <r>  -11.4325    1.0000 </r>
       <r>  -11.3835    1.0000 </r>
       <r>  -11.2657    1.0000 </r>
       <r>  -11.2166    1.0000 </r>
       <r>  -11.0982    1.0000 </r>
       <r>  -11.0439    1.0000 </r>
       <r>  -11.0157    1.0000 </r>
       <r>  -10.9865    1.0000 </r>
       <r>  -10.9396    1.0000 </r>
       <r>  -10.9066    1.0000 </r>
       <r>  -10.8673    1.0000 </r>
       <r>  -10.8310    1.0000 </r>
       <r>  -10.7939    1.0000 </r>
       <r>  -10.6402    1.0000 </r>
       <r>  -10.5545    1.0000 </r>
       <r>  -10.4813    1.0000 </r>
       <r>  -10.4560    1.0000 </r>
       <r>  -10.4364    1.0000 </r>
       <r>  -10.3833    1.0000 </r>
       <r>  -10.3585    1.0000 </r>
       <r>  -10.3115    1.0000 </r>
       <r>  -10.0942    1.0000 </r>
       <r>  -10.0702    1.0000 </r>
       <r>  -10.0284    1.0000 </r>
       <r>   -9.9520    1.0000 </r>
       <r>   -9.9168    1.0000 </r>
       <r>   -9.9039    1.0000 </r>
       <r>   -9.7922    1.0000 </r>
       <r>   -9.7599    1.0000 </r>
       <r>   -9.7072    1.0000 </r>
       <r>   -9.6603    1.0000 </r>
       <r>   -9.6339    1.0000 </r>
       <r>   -9.5916    1.0000 </r>
       <r>   -9.5707    1.0000 </r>
       <r>   -9.5051    1.0000 </r>
       <r>   -9.4737    1.0000 </r>
       <r>   -9.4140    1.0000 </r>
       <r>   -9.3461    1.0000 </r>
       <r>   -9.2862    1.0000 </r>
       <r>   -9.2155    1.0000 </r>
       <r>   -9.0524    1.0000 </r>
       <r>   -8.9324    1.0000 </r>
       <r>   -8.8665    1.0000 </r>
       <r>   -8.8151    1.0000 </r>
       <r>   -8.7876    1.0000 </r>
       <r>   -8.7301    1.0000 </r>
       <r>   -8.6984    1.0000 </r>
       <r>   -8.5895    1.0000 </r>
       <r>   -8.5502    1.0000 </r>
       <r>   -8.5264    1.0000 </r>
       <r>   -8.4911    1.0000 </r>
       <r>   -8.4573    1.0000 </r>
       <r>   -8.3670    1.0000 </r>
       <r>   -8.3008    1.0000 </r>
       <r>   -8.2702    1.0000 </r>
       <r>   -8.1873    1.0000 </r>
       <r>   -8.1659    1.0000 </r>
       <r>   -8.1136    1.0000 </r>
       <r>   -8.0633    1.0000 </r>
       <r>   -8.0200    1.0000 </r>
       <r>   -7.9741    1.0000 </r>
       <r>   -7.8450    1.0000 </r>
       <r>   -7.7583    1.0000 </r>
       <r>   -7.7337    1.0000 </r>
       <r>   -7.6236    1.0000 </r>
       <r>   -7.5645    1.0000 </r>
       <r>   -7.4463    1.0000 </r>
       <r>   -7.3613    1.0000 </r>
       <r>   -7.3459    1.0000 </r>
       <r>   -7.2827    1.0000 </r>
       <r>   -7.1149    1.0000 </r>
       <r>   -7.0323    1.0000 </r>
       <r>   -6.9504    1.0000 </r>
       <r>   -6.9300    1.0000 </r>
       <r>   -6.8819    1.0000 </r>
       <r>   -6.6705    1.0000 </r>
       <r>   -6.5663    1.0000 </r>
       <r>   -6.5339    1.0000 </r>
       <r>   -6.4420    1.0000 </r>
       <r>   -6.2054    1.0000 </r>
       <r>   -6.1456    1.0000 </r>
       <r>   -6.0745    1.0000 </r>
       <r>   -6.0401    1.0000 </r>
       <r>   -5.9895    1.0000 </r>
       <r>   -5.8514    1.0000 </r>
       <r>   -5.7627    1.0000 </r>
       <r>   -5.7067    1.0000 </r>
       <r>   -5.6800    1.0000 </r>
       <r>   -5.5418    1.0000 </r>
       <r>   -5.4883    1.0000 </r>
       <r>   -5.1643    1.0000 </r>
       <r>   -5.1265    1.0000 </r>
       <r>   -4.7231    1.0000 </r>
       <r>   -4.6309    1.0000 </r>
       <r>   -4.4809    1.0000 </r>
       <r>   -4.4219    1.0000 </r>
       <r>   -4.3208    1.0000 </r>
       <r>   -3.4186    0.9777 </r>
       <r>   -2.9777    0.1336 </r>
       <r>   -2.6879    0.0008 </r>
       <r>   -2.1232    0.0000 </r>
       <r>   -2.0925    0.0000 </r>
       <r>   -1.6265    0.0000 </r>
       <r>   -1.5363    0.0000 </r>
       <r>   -1.4466    0.0000 </r>
       <r>   -1.4038    0.0000 </r>
       <r>   -1.3415    0.0000 </r>
       <r>   -1.2970    0.0000 </r>
       <r>   -1.0930    0.0000 </r>
       <r>   -1.0549    0.0000 </r>
       <r>   -0.9382    0.0000 </r>
       <r>   -0.8308    0.0000 </r>
       <r>   -0.7377    0.0000 </r>
       <r>   -0.4758    0.0000 </r>
       <r>   -0.1919    0.0000 </r>
       <r>   -0.1743    0.0000 </r>
       <r>   -0.0485    0.0000 </r>
       <r>   -0.0288    0.0000 </r>
       <r>    0.0844    0.0000 </r>
       <r>    0.2084    0.0000 </r>
       <r>    0.2454    0.0000 </r>
       <r>    0.2993    0.0000 </r>
       <r>    0.3526    0.0000 </r>
       <r>    0.7889    0.0000 </r>
       <r>    0.8025    0.0000 </r>
       <r>    0.8460    0.0000 </r>
       <r>    1.0266    0.0000 </r>
       <r>    1.0485    0.0000 </r>
       <r>    1.0522    0.0000 </r>
       <r>    1.1224    0.0000 </r>
       <r>    1.1364    0.0000 </r>
       <r>    1.2460    0.0000 </r>
       <r>    1.2949    0.0000 </r>
       <r>    1.3010    0.0000 </r>
       <r>    1.3607    0.0000 </r>
       <r>    1.3997    0.0000 </r>
       <r>    1.4059    0.0000 </r>
       <r>    1.4436    0.0000 </r>
       <r>    1.4558    0.0000 </r>
       <r>    1.4727    0.0000 </r>
       <r>    1.5446    0.0000 </r>
       <r>    1.5659    0.0000 </r>
       <r>    1.5882    0.0000 </r>
       <r>    1.6279    0.0000 </r>
       <r>    1.6898    0.0000 </r>
       <r>    1.7105    0.0000 </r>
      </set>
      <set comment="kpoint 3">
       <r>  -22.9369    1.0000 </r>
       <r>  -22.8954    1.0000 </r>
       <r>  -22.7813    1.0000 </r>
       <r>  -22.6715    1.0000 </r>
       <r>  -22.6309    1.0000 </r>
       <r>  -22.5158    1.0000 </r>
       <r>  -22.3374    1.0000 </r>
       <r>  -22.2360    1.0000 </r>
       <r>  -22.2141    1.0000 </r>
       <r>  -22.2019    1.0000 </r>
       <r>  -21.7385    1.0000 </r>
       <r>  -21.6709    1.0000 </r>
       <r>  -21.6092    1.0000 </r>
       <r>  -21.5454    1.0000 </r>
       <r>  -20.9188    1.0000 </r>
       <r>  -20.8839    1.0000 </r>
       <r>  -20.7103    1.0000 </r>
       <r>  -20.6363    1.0000 </r>
       <r>  -19.9455    1.0000 </r>
       <r>  -19.8969    1.0000 </r>
       <r>  -19.6343    1.0000 </r>
       <r>  -19.5525    1.0000 </r>
       <r>  -19.5234    1.0000 </r>
       <r>  -19.5100    1.0000 </r>
       <r>  -19.4127    1.0000 </r>
       <r>  -19.3879    1.0000 </r>
       <r>  -19.2982    1.0000 </r>
       <r>  -19.2229    1.0000 </r>
       <r>  -19.0660    1.0000 </r>
       <r>  -19.0580    1.0000 </r>
       <r>  -18.9767    1.0000 </r>
       <r>  -18.9390    1.0000 </r>
       <r>  -18.6769    1.0000 </r>
       <r>  -18.5705    1.0000 </r>
       <r>  -18.5261    1.0000 </r>
       <r>  -18.4515    1.0000 </r>
       <r>  -18.2992    1.0000 </r>
       <r>  -18.1999    1.0000 </r>
       <r>  -18.1267    1.0000 </r>
       <r>  -18.0445    1.0000 </r>
       <r>  -17.7309    1.0000 </r>
       <r>  -17.7071    1.0000 </r>
       <r>  -17.6204    1.0000 </r>
       <r>  -17.5717    1.0000 </r>
       <r>  -16.8381    1.0000 </r>
       <r>  -16.7805    1.0000 </r>
       <r>  -16.3253    1.0000 </r>
       <r>  -16.2091    1.0000 </r>
       <r>  -16.1197    1.0000 </r>
       <r>  -16.0601    1.0000 </r>
       <r>  -15.9930    1.0000 </r>
       <r>  -15.9062    1.0000 </r>
       <r>  -15.3237    1.0000 </r>
       <r>  -15.2330    1.0000 </r>
       <r>  -15.1129    1.0000 </r>
       <r>  -15.0352    1.0000 </r>
       <r>  -14.8741    1.0000 </r>
       <r>  -14.7966    1.0000 </r>
       <r>  -14.7690    1.0000 </r>
       <r>  -14.7127    1.0000 </r>
       <r>  -13.9923    1.0000 </r>
       <r>  -13.9406    1.0000 </r>
       <r>  -13.7603    1.0000 </r>
       <r>  -13.7111    1.0000 </r>
       <r>  -13.6823    1.0000 </r>
       <r>  -13.6571    1.0000 </r>
       <r>  -13.6069    1.0000 </r>
       <r>  -13.5848    1.0000 </r>
       <r>  -13.5701    1.0000 </r>
       <r>  -13.5344    1.0000 </r>
       <r>  -13.5029    1.0000 </r>
       <r>  -13.4745    1.0000 </r>
       <r>  -13.4510    1.0000 </r>
       <r>  -13.4103    1.0000 </r>
       <r>  -13.1727    1.0000 </r>
       <r>  -13.1021    1.0000 </r>
       <r>  -12.3757    1.0000 </r>
       <r>  -12.3444    1.0000 </r>
       <r>  -12.1996    1.0000 </r>
       <r>  -12.1470    1.0000 </r>
       <r>  -12.1084    1.0000 </r>
       <r>  -12.1042    1.0000 </r>
       <r>  -12.0148    1.0000 </r>
       <r>  -11.9412    1.0000 </r>
       <r>  -11.8930    1.0000 </r>
       <r>  -11.8791    1.0000 </r>
       <r>  -11.7907    1.0000 </r>
       <r>  -11.7419    1.0000 </r>
       <r>  -11.6735    1.0000 </r>
       <r>  -11.6539    1.0000 </r>
       <r>  -11.3391    1.0000 </r>
       <r>  -11.3019    1.0000 </r>
       <r>  -11.1835    1.0000 </r>
       <r>  -11.1192    1.0000 </r>
       <r>  -11.0065    1.0000 </r>
       <r>  -10.9769    1.0000 </r>
       <r>  -10.8521    1.0000 </r>
       <r>  -10.7589    1.0000 </r>
       <r>  -10.7409    1.0000 </r>
       <r>  -10.6613    1.0000 </r>
       <r>  -10.5770    1.0000 </r>
       <r>  -10.5606    1.0000 </r>
       <r>  -10.5022    1.0000 </r>
       <r>  -10.4658    1.0000 </r>
       <r>  -10.4501    1.0000 </r>
       <r>  -10.4176    1.0000 </r>
       <r>  -10.3911    1.0000 </r>
       <r>  -10.3509    1.0000 </r>
       <r>  -10.2924    1.0000 </r>
       <r>  -10.2721    1.0000 </r>
       <r>  -10.2147    1.0000 </r>
       <r>  -10.1753    1.0000 </r>
       <r>  -10.1413    1.0000 </r>
       <r>  -10.0779    1.0000 </r>
       <r>  -10.0382    1.0000 </r>
[...]
       <r>   -22.7081    14.6732     7.0166 </r>
       <r>   -22.6114    16.5110     8.6132 </r>
       <r>   -22.5147    16.3465    10.1938 </r>
       <r>   -22.4180    13.7050    11.5190 </r>
       <r>   -22.3213    11.5553    12.6364 </r>
       <r>   -22.2246    11.8646    13.7836 </r>
       <r>   -22.1279    13.3267    15.0723 </r>
       <r>   -22.0312    14.1595    16.4415 </r>
       <r>   -21.9345    14.1173    17.8065 </r>
       <r>   -21.8378    13.7381    19.1350 </r>
       <r>   -21.7412    13.3890    20.4296 </r>
       <r>   -21.6445    12.8231    21.6696 </r>
       <r>   -21.5478    11.8582    22.8162 </r>
       <r>   -21.4511    11.2559    23.9046 </r>
       <r>   -21.3544    11.8536    25.0508 </r>
       <r>   -21.2577    13.4088    26.3474 </r>
       <r>   -21.1610    15.1666    27.8139 </r>
       <r>   -21.0643    16.3962    29.3994 </r>
       <r>   -20.9676    16.0257    30.9490 </r>
       <r>   -20.8709    13.8262    32.2859 </r>
       <r>   -20.7742    11.6820    33.4155 </r>
       <r>   -20.6775    11.5982    34.5370 </r>
       <r>   -20.5808    12.9980    35.7939 </r>
       <r>   -20.4841    13.8011    37.1284 </r>
       <r>   -20.3874    13.5193    38.4357 </r>
       <r>   -20.2907    13.3503    39.7266 </r>
       <r>   -20.1940    13.9125    41.0719 </r>
       <r>   -20.0973    14.6810    42.4915 </r>
       <r>   -20.0006    15.1173    43.9533 </r>
       <r>   -19.9039    14.9245    45.3964 </r>
       <r>   -19.8072    13.8156    46.7323 </r>
       <r>   -19.7105    12.7945    47.9695 </r>
       <r>   -19.6138    13.8837    49.3120 </r>
       <r>   -19.5171    16.3025    50.8884 </r>
       <r>   -19.4204    16.5921    52.4928 </r>
       <r>   -19.3237    14.2623    53.8719 </r>
       <r>   -19.2271    12.5948    55.0898 </r>
       <r>   -19.1304    13.4859    56.3938 </r>
       <r>   -19.0337    15.1668    57.8604 </r>
       <r>   -18.9370    14.9335    59.3044 </r>
       <r>   -18.8403    12.8684    60.5487 </r>
       <r>   -18.7436    12.0352    61.7124 </r>
       <r>   -18.6469    14.1714    63.0828 </r>
       <r>   -18.5502    16.9137    64.7182 </r>
       <r>   -18.4535    17.2830    66.3894 </r>
       <r>   -18.3568    15.9462    67.9314 </r>
       <r>   -18.2601    15.6660    69.4462 </r>
       <r>   -18.1634    16.9890    71.0890 </r>
       <r>   -18.0667    17.7570    72.8060 </r>
       <r>   -17.9700    16.4197    74.3938 </r>
       <r>   -17.8733    14.1710    75.7640 </r>
       <r>   -17.7766    12.8606    77.0076 </r>
       <r>   -17.6799    12.2654    78.1936 </r>
       <r>   -17.5832    11.3539    79.2915 </r>
       <r>   -17.4865    10.5634    80.3129 </r>
       <r>   -17.3898    10.8480    81.3619 </r>
       <r>   -17.2931    11.7840    82.5014 </r>
       <r>   -17.1964    12.3120    83.6919 </r>
       <r>   -17.0997    12.2654    84.8779 </r>
       <r>   -17.0030    11.7910    86.0181 </r>
       <r>   -16.9063    10.9770    87.0795 </r>
       <r>   -16.8097    10.6480    88.1091 </r>
       <r>   -16.7130    11.6234    89.2331 </r>
       <r>   -16.6163    13.2891    90.5181 </r>
       <r>   -16.5196    14.3885    91.9094 </r>
       <r>   -16.4229    14.8772    93.3479 </r>
       <r>   -16.3262    15.5160    94.8483 </r>
       <r>   -16.2295    16.4654    96.4404 </r>
       <r>   -16.1328    17.4164    98.1245 </r>
       <r>   -16.0361    17.9132    99.8566 </r>
       <r>   -15.9394    17.4342   101.5425 </r>
       <r>   -15.8427    15.9506   103.0848 </r>
       <r>   -15.7460    14.0631   104.4447 </r>
       <r>   -15.6493    12.2228   105.6266 </r>
       <r>   -15.5526    10.7740   106.6684 </r>
       <r>   -15.4559    11.1395   107.7455 </r>
       <r>   -15.3592    14.4307   109.1409 </r>
       <r>   -15.2625    19.1871   110.9962 </r>
       <r>   -15.1658    22.9676   113.2171 </r>
       <r>   -15.0691    24.3071   115.5675 </r>
       <r>   -14.9724    22.7196   117.7644 </r>
       <r>   -14.8757    19.2104   119.6220 </r>
       <r>   -14.7790    15.4621   121.1171 </r>
       <r>   -14.6823    12.0503   122.2823 </r>
       <r>   -14.5856     9.4497   123.1961 </r>
       <r>   -14.4889     8.7992   124.0469 </r>
       <r>   -14.3922    10.1223   125.0257 </r>
       <r>   -14.2956    11.7095   126.1580 </r>
       <r>   -14.1989    12.2085   127.3385 </r>
       <r>   -14.1022    12.4065   128.5381 </r>
       <r>   -14.0055    13.4409   129.8378 </r>
       <r>   -13.9088    14.5776   131.2474 </r>
       <r>   -13.8121    15.1929   132.7165 </r>
       <r>   -13.7154    16.4321   134.3054 </r>
       <r>   -13.6187    18.5770   136.1018 </r>
       <r>   -13.5220    20.0673   138.0422 </r>
       <r>   -13.4253    19.9908   139.9752 </r>
       <r>   -13.3286    19.2622   141.8378 </r>
       <r>   -13.2319    18.9108   143.6664 </r>
       <r>   -13.1352    18.0574   145.4125 </r>
       <r>   -13.0385    15.8606   146.9461 </r>
       <r>   -12.9418    14.2207   148.3212 </r>
       <r>   -12.8451    14.7329   149.7458 </r>
       <r>   -12.7484    15.6269   151.2569 </r>
       <r>   -12.6517    14.8131   152.6893 </r>
       <r>   -12.5550    13.1329   153.9592 </r>
       <r>   -12.4583    12.6609   155.1834 </r>
       <r>   -12.3616    13.9347   156.5309 </r>
       <r>   -12.2649    16.6344   158.1393 </r>
       <r>   -12.1682    20.7200   160.1429 </r>
       <r>   -12.0715    24.9999   162.5603 </r>
       <r>   -11.9748    27.0706   165.1779 </r>
       <r>   -11.8781    25.8186   167.6745 </r>
       <r>   -11.7815    22.2227   169.8233 </r>
       <r>   -11.6848    17.9826   171.5622 </r>
       <r>   -11.5881    14.6450   172.9783 </r>
       <r>   -11.4914    13.6746   174.3006 </r>
       <r>   -11.3947    15.5915   175.8082 </r>
       <r>   -11.2980    19.0837   177.6535 </r>
       <r>   -11.2013    22.7740   179.8557 </r>
       <r>   -11.1046    26.8559   182.4525 </r>
       <r>   -11.0079    31.2098   185.4704 </r>
       <r>   -10.9112    33.8988   188.7483 </r>
       <r>   -10.8145    33.6341   192.0006 </r>
       <r>   -10.7178    32.1826   195.1125 </r>
       <r>   -10.6211    32.8600   198.2899 </r>
       <r>   -10.5244    36.6452   201.8334 </r>
       <r>   -10.4277    40.2012   205.7207 </r>
       <r>   -10.3310    39.5427   209.5443 </r>
       <r>   -10.2343    35.5089   212.9779 </r>
       <r>   -10.1376    32.5806   216.1283 </r>
       <r>   -10.0409    32.7993   219.2999 </r>
       <r>    -9.9442    34.1156   222.5987 </r>
       <r>    -9.8475    34.7114   225.9552 </r>
       <r>    -9.7508    35.5975   229.3973 </r>
       <r>    -9.6541    37.7021   233.0430 </r>
       <r>    -9.5574    39.7947   236.8909 </r>
       <r>    -9.4607    40.5567   240.8126 </r>
       <r>    -9.3640    39.6597   244.6476 </r>
       <r>    -9.2674    37.0357   248.2288 </r>
       <r>    -9.1707    33.5155   251.4696 </r>
       <r>    -9.0740    31.1420   254.4809 </r>
       <r>    -8.9773    31.3760   257.5148 </r>
       <r>    -8.8806    33.5568   260.7596 </r>
       <r>    -8.7839    35.5716   264.1993 </r>
       <r>    -8.6872    36.0729   267.6874 </r>
       <r>    -8.5905    35.6236   271.1321 </r>
       <r>    -8.4938    34.7674   274.4939 </r>
       <r>    -8.3971    33.0621   277.6909 </r>
       <r>    -8.3004    31.0057   280.6890 </r>
       <r>    -8.2037    29.6010   283.5513 </r>
       <r>    -8.1070    28.4504   286.3024 </r>
       <r>    -8.0103    26.7597   288.8899 </r>
       <r>    -7.9136    25.2177   291.3284 </r>
       <r>    -7.8169    25.2311   293.7682 </r>
       <r>    -7.7202    26.5792   296.3383 </r>
       <r>    -7.6235    27.5262   298.9999 </r>
       <r>    -7.5268    27.3479   301.6444 </r>
       <r>    -7.4301    27.0574   304.2607 </r>
       <r>    -7.3334    27.2665   306.8973 </r>
       <r>    -7.2367    27.4048   309.5472 </r>
       <r>    -7.1400    27.4008   312.1968 </r>
       <r>    -7.0433    27.5468   314.8604 </r>
       <r>    -6.9466    27.1495   317.4857 </r>
       <r>    -6.8499    25.5423   319.9555 </r>
       <r>    -6.7533    23.7972   322.2566 </r>
       <r>    -6.6566    23.1302   324.4932 </r>
       <r>    -6.5599    22.5516   326.6739 </r>
       <r>    -6.4632    20.8397   328.6890 </r>
       <r>    -6.3665    18.8972   330.5163 </r>
       <r>    -6.2698    18.4829   332.3035 </r>
       <r>    -6.1731    20.1629   334.2532 </r>
       <r>    -6.0764    22.9385   336.4712 </r>
       <r>    -5.9797    25.3514   338.9226 </r>
       <r>    -5.8830    26.4316   341.4785 </r>
       <r>    -5.7863    25.9016   343.9830 </r>
       <r>    -5.6896    23.8946   346.2935 </r>
       <r>    -5.5929    20.5991   348.2854 </r>
       <r>    -5.4962    16.3350   349.8649 </r>
       <r>    -5.3995    12.1651   351.0413 </r>
       <r>    -5.3028    10.3212   352.0393 </r>
       <r>    -5.2061    11.6140   353.1623 </r>
       <r>    -5.1094    13.0497   354.4242 </r>
       <r>    -5.0127    11.6930   355.5548 </r>
       <r>    -4.9160     8.7747   356.4033 </r>
       <r>    -4.8193     7.1592   357.0956 </r>
       <r>    -4.7226     7.9169   357.8611 </r>
       <r>    -4.6259    10.4473   358.8713 </r>
       <r>    -4.5292    13.4418   360.1711 </r>
       <r>    -4.4325    15.0669   361.6280 </r>
       <r>    -4.3359    13.6411   362.9470 </r>
       <r>    -4.2392     9.5139   363.8670 </r>
       <r>    -4.1425     5.3126   364.3807 </r>
       <r>    -4.0458     3.3084   364.7006 </r>
       <r>    -3.9491     3.4111   365.0304 </r>
       <r>    -3.8524     4.1131   365.4282 </r>
       <r>    -3.7557     4.3162   365.8455 </r>
       <r>    -3.6590     3.8532   366.2181 </r>
       <r>    -3.5623     3.2824   366.5355 </r>
       <r>    -3.4656     3.2050   366.8454 </r>
       <r>    -3.3689     3.3370   367.1681 </r>
       <r>    -3.2722     3.2624   367.4836 </r>
       <r>    -3.1755     3.5435   367.8262 </r>
       <r>    -3.0788     4.6726   368.2780 </r>
       <r>    -2.9821     6.1248   368.8703 </r>
       <r>    -2.8854     7.4686   369.5925 </r>
       <r>    -2.7887     8.9478   370.4577 </r>
       <r>    -2.6920     9.8411   371.4093 </r>
       <r>    -2.5953     8.4965   372.2309 </r>
       <r>    -2.4986     5.2621   372.7397 </r>
       <r>    -2.4019     2.6810   372.9989 </r>
       <r>    -2.3052     2.6782   373.2579 </r>
       <r>    -2.2085     5.1583   373.7567 </r>
       <r>    -2.1118     7.8473   374.5155 </r>
       <r>    -2.0151     7.9798   375.2871 </r>
       <r>    -1.9184     6.0572   375.8728 </r>
       <r>    -1.8218     5.7454   376.4284 </r>
       <r>    -1.7251     9.3621   377.3336 </r>
       <r>    -1.6284    15.5349   378.8358 </r>
       <r>    -1.5317    20.9290   380.8596 </r>
       <r>    -1.4350    23.1198   383.0952 </r>
       <r>    -1.3383    21.8911   385.2119 </r>
       <r>    -1.2416    19.1173   387.0605 </r>
       <r>    -1.1449    17.3761   388.7407 </r>
       <r>    -1.0482    17.0555   390.3899 </r>
       <r>    -0.9515    16.5139   391.9867 </r>
       <r>    -0.8548    15.5054   393.4861 </r>
       <r>    -0.7581    14.8212   394.9192 </r>
       <r>    -0.6614    14.1367   396.2862 </r>
       <r>    -0.5647    13.0442   397.5475 </r>
       <r>    -0.4680    11.7105   398.6799 </r>
       <r>    -0.3713    10.6439   399.7091 </r>
       <r>    -0.2746    11.4593   400.8172 </r>
       <r>    -0.1779    15.0305   402.2705 </r>
       <r>    -0.0812    19.1737   404.1246 </r>
       <r>     0.0155    21.1037   406.1652 </r>
       <r>     0.1122    20.7916   408.1757 </r>
       <r>     0.2089    20.2500   410.1338 </r>
       <r>     0.3056    20.1123   412.0786 </r>
       <r>     0.4023    19.1189   413.9273 </r>
       <r>     0.4990    17.6716   415.6361 </r>
       <r>     0.5957    18.5746   417.4322 </r>
       <r>     0.6923    23.0689   419.6628 </r>
       <r>     0.7890    28.6606   422.4342 </r>
       <r>     0.8857    32.2122   425.5490 </r>
       <r>     0.9824    33.8582   428.8229 </r>
       <r>     1.0791    35.9252   432.2968 </r>
       <r>     1.1758    39.6995   436.1356 </r>
       <r>     1.2725    44.9028   440.4775 </r>
       <r>     1.3692    49.7740   445.2904 </r>
       <r>     1.4659    51.4889   450.2692 </r>
       <r>     1.5626    48.0477   454.9152 </r>
       <r>     1.6593    39.6062   458.7450 </r>
       <r>     1.7560    28.0693   461.4592 </r>
       <r>     1.8527    16.2465   463.0302 </r>
       <r>     1.9494     7.1745   463.7239 </r>
       <r>     2.0461     2.2759   463.9440 </r>
       <r>     2.1428     0.4980   463.9922 </r>
       <r>     2.2395     0.0734   463.9993 </r>
       <r>     2.3362     0.0072   464.0000 </r>
       <r>     2.4329     0.0005   464.0000 </r>
       <r>     2.5296     0.0000   464.0000 </r>
       <r>     2.6263     0.0000   464.0000 </r>
       <r>     2.7230     0.0000   464.0000 </r>
       <r>     2.8197     0.0000   464.0000 </r>
       <r>     2.9164     0.0000   464.0000 </r>
       <r>     3.0131     0.0000   464.0000 </r>
       <r>     3.1098     0.0000   464.0000 </r>
       <r>     3.2064     0.0000   464.0000 </r>
       <r>     3.3031     0.0000   464.0000 </r>
       <r>     3.3998     0.0000   464.0000 </r>
       <r>     3.4965     0.0000   464.0000 </r>
       <r>     3.5932     0.0000   464.0000 </r>
       <r>     3.6899     0.0000   464.0000 </r>
       <r>     3.7866     0.0000   464.0000 </r>
      </set>
     </set>
    </array>
   </total>
  </dos>
 </calculation>
 <structure name="finalpos" >
  <crystal>
   <varray name="basis" >
    <v>      28.05000000       0.00000000       0.00000000 </v>
    <v>       0.00000000       8.10000000       0.00000000 </v>
    <v>       0.00000000       0.00000000      33.50000000 </v>
   </varray>
   <i name="volume">   7611.36750000 </i>
   <varray name="rec_basis" >
    <v>       0.03565062       0.00000000       0.00000000 </v>
    <v>       0.00000000       0.12345679       0.00000000 </v>
    <v>       0.00000000       0.00000000       0.02985075 </v>
   </varray>
  </crystal>
  <varray name="positions" >
   <v>       0.01300670       0.10872432       0.52342388 </v>
   <v>       0.01127911       0.27460864       0.51589851 </v>
   <v>       0.05597647       0.02218284       0.51405373 </v>
   <v>       0.05203922       0.35387407       0.49778507 </v>
   <v>       0.09784135       0.10573938       0.50183881 </v>
   <v>       0.09419109       0.27272840       0.49200000 </v>
   <v>       0.13976292       0.02346272       0.48908060 </v>
   <v>       0.13514902       0.35102222       0.47405970 </v>
   <v>       0.18077897       0.10038309       0.47478209 </v>
   <v>       0.17762068       0.26402222       0.46516716 </v>
   <v>       0.22263815       0.02017099       0.46457015 </v>
   <v>       0.22054938       0.34829506       0.45487761 </v>
   <v>       0.26564135       0.10275025       0.46092537 </v>
   <v>       0.26605704       0.27520000       0.45403582 </v>
   <v>       0.30967237       0.02532531       0.46165672 </v>
   <v>       0.30952014       0.35511605       0.45280896 </v>
   <v>       0.35350945       0.10777802       0.46535522 </v>
   <v>       0.35276257       0.27715802       0.46094030 </v>
   <v>       0.39756150       0.02779654       0.47036418 </v>
   <v>       0.39661676       0.36473951       0.46926567 </v>
   <v>       0.43504100       0.10784358       0.48855522 </v>
   <v>       0.43674510       0.27771852       0.48497910 </v>
   <v>       0.47961141       0.03030099       0.49366866 </v>
   <v>       0.48027094       0.35762963       0.49065075 </v>
   <v>       0.52029947       0.10970395       0.50479403 </v>
   <v>       0.52111586       0.27822346       0.50703582 </v>
   <v>       0.56273084       0.02669025       0.51260896 </v>
   <v>       0.56569340       0.36045062       0.51480896 </v>
   <v>       0.60660963       0.10223420       0.52333433 </v>
   <v>       0.60835294       0.27395185       0.52296418 </v>
   <v>       0.65061676       0.01554160       0.53051343 </v>
   <v>       0.65254902       0.35145926       0.53008657 </v>
   <v>       0.69391444       0.09216370       0.54117015 </v>
   <v>       0.69593226       0.25981481       0.53574030 </v>
   <v>       0.73933333       0.00473344       0.54461791 </v>
   <v>       0.74142246       0.34146914       0.53571642 </v>
   <v>       0.78404991       0.09567420       0.54568060 </v>
   <v>       0.78613904       0.26637531       0.54311343 </v>
   <v>       0.83143672       0.02186481       0.54538209 </v>
   <v>       0.83106952       0.35286543       0.53710448 </v>
   <v>       0.87402139       0.10908383       0.54534627 </v>
   <v>       0.87515508       0.27108642       0.53427761 </v>
   <v>       0.92057398       0.01987198       0.54159104 </v>
   <v>       0.91826738       0.35279630       0.52511642 </v>
   <v>       0.96321569       0.09987741       0.53325970 </v>
   <v>       0.96176827       0.27381975       0.52478806 </v>
   <v>       0.00824424       0.60966049       0.50402985 </v>
   <v>       0.00993993       0.78013580       0.51245672 </v>
   <v>       0.05003209       0.52052593       0.49362388 </v>
   <v>       0.05390731       0.85485185       0.50761493 </v>
   <v>       0.09154724       0.60765556       0.48165075 </v>
   <v>       0.09196078       0.77370370       0.48799701 </v>
   <v>       0.13365882       0.51967778       0.47068060 </v>
   <v>       0.13583601       0.85507284       0.48122985 </v>
   <v>       0.17667950       0.60518889       0.45890448 </v>
   <v>       0.17635116       0.77555679       0.46693134 </v>
   <v>       0.22075686       0.52744815       0.44913433 </v>
   <v>       0.21921818       0.85240494       0.45851940 </v>
   <v>       0.26437540       0.60852593       0.44266269 </v>
   <v>       0.26453939       0.77861852       0.45101493 </v>
   <v>       0.30947914       0.52620494       0.44407164 </v>
   <v>       0.30866025       0.85545556       0.45524179 </v>
   <v>       0.35405989       0.60795556       0.44895821 </v>
   <v>       0.35302888       0.77855309       0.45260299 </v>
   <v>       0.39691979       0.52587901       0.45844179 </v>
   <v>       0.39627094       0.85904198       0.46465672 </v>
   <v>       0.44171123       0.60446173       0.46660597 </v>
   <v>       0.43994296       0.78209259       0.46910746 </v>
   <v>       0.48275223       0.52759506       0.48062388 </v>
   <v>       0.48311943       0.86475802       0.48370149 </v>
   <v>       0.52565775       0.60625802       0.49203881 </v>
   <v>       0.52501604       0.77829753       0.49403284 </v>
   <v>       0.56607130       0.52260988       0.50867164 </v>
   <v>       0.56607487       0.85969506       0.50855821 </v>
   <v>       0.60931907       0.60404568       0.51639701 </v>
   <v>       0.60835651       0.76891481       0.51553134 </v>
   <v>       0.65373619       0.51715802       0.52264776 </v>
   <v>       0.65176827       0.84094444       0.52764776 </v>
   <v>       0.69890909       0.59241605       0.52747761 </v>
   <v>       0.69542959       0.76049136       0.53261791 </v>
   <v>       0.74256684       0.51149259       0.53155224 </v>
   <v>       0.73920499       0.83919259       0.54139701 </v>
   <v>       0.78675223       0.60360864       0.52992537 </v>
   <v>       0.78437790       0.77075062       0.53788657 </v>
   <v>       0.83065954       0.52300000       0.53213134 </v>
   <v>       0.83035651       0.85496543       0.54074030 </v>
   <v>       0.87420321       0.60408272       0.52735821 </v>
   <v>       0.87419964       0.77503580       0.53194030 </v>
   <v>       0.91670588       0.51907531       0.52262388 </v>
   <v>       0.91804635       0.85815062       0.53007463 </v>
   <v>       0.95857398       0.60273704       0.51565970 </v>
   <v>       0.96058467       0.77271852       0.52283881 </v>
  </varray>
 </structure>
</modeling>
