  92  92   0   0
  0.8273226E+02  0.2805000E-08  0.8100000E-09  0.3350000E-08  0.5000000E-15
   1.0000000000000000E-004
  CAR 
 unknown system                          
      3.76908708    -25.15323627  301     -3.24495725      1.00000000
    -25.153  0.0000E+00  0.0000E+00
    -25.057  0.0000E+00  0.0000E+00
    -24.960  0.0000E+00  0.0000E+00
    -24.864  0.0000E+00  0.0000E+00
    -24.768  0.0000E+00  0.0000E+00
    -24.671  0.0000E+00  0.0000E+00
    -24.575  0.0000E+00  0.0000E+00
    -24.478  0.0000E+00  0.0000E+00
    -24.382  0.0000E+00  0.0000E+00
    -24.286  0.3167E-14  0.3053E-15
    -24.189  0.6224E-12  0.6031E-13
    -24.093  0.8014E-10  0.7787E-11
    -23.996  0.6557E-08  0.6399E-09
    -23.900  0.3417E-06  0.3359E-07
    -23.804  0.1139E-04  0.1132E-05
    -23.707  0.2443E-03  0.2468E-04
    -23.611  0.3394E-02  0.3519E-03
    -23.514  0.3089E-01  0.3330E-02
    -23.418  0.1870E+00  0.2136E-01
    -23.321  0.7696E+00  0.9556E-01
    -23.225  0.2222E+01  0.3098E+00
    -23.129  0.4720E+01  0.7649E+00
    -23.032  0.7839E+01  0.1521E+01
    -22.936  0.1073E+02  0.2555E+01
    -22.839  0.1246E+02  0.3756E+01
    -22.743  0.1299E+02  0.5008E+01
    -22.647  0.1378E+02  0.6337E+01
    -22.550  0.1536E+02  0.7818E+01
    -22.454  0.1573E+02  0.9334E+01
    -22.357  0.1423E+02  0.1071E+02
    -22.261  0.1325E+02  0.1198E+02
    -22.165  0.1419E+02  0.1335E+02
    -22.068  0.1548E+02  0.1484E+02
    -21.972  0.1555E+02  0.1634E+02
    -21.875  0.1482E+02  0.1777E+02
    -21.779  0.1431E+02  0.1915E+02
    -21.683  0.1418E+02  0.2052E+02
    -21.586  0.1362E+02  0.2183E+02
    -21.490  0.1204E+02  0.2299E+02
    -21.393  0.1056E+02  0.2401E+02
    -21.297  0.1077E+02  0.2505E+02
    -21.201  0.1305E+02  0.2630E+02
    -21.104  0.1619E+02  0.2786E+02
    -21.008  0.1777E+02  0.2958E+02
    -20.911  0.1631E+02  0.3115E+02
    -20.815  0.1353E+02  0.3246E+02
    -20.718  0.1196E+02  0.3361E+02
    -20.622  0.1186E+02  0.3475E+02
    -20.526  0.1248E+02  0.3595E+02
    -20.429  0.1333E+02  0.3724E+02
    -20.333  0.1392E+02  0.3858E+02
    -20.236  0.1416E+02  0.3995E+02
    -20.140  0.1467E+02  0.4136E+02
    -20.044  0.1566E+02  0.4287E+02
    -19.947  0.1624E+02  0.4444E+02
    -19.851  0.1535E+02  0.4592E+02
    -19.754  0.1364E+02  0.4723E+02
    -19.658  0.1315E+02  0.4850E+02
    -19.562  0.1468E+02  0.4991E+02
    -19.465  0.1631E+02  0.5149E+02
    -19.369  0.1589E+02  0.5302E+02
    -19.272  0.1412E+02  0.5438E+02
    -19.176  0.1299E+02  0.5563E+02
    -19.080  0.1300E+02  0.5689E+02
    -18.983  0.1357E+02  0.5819E+02
    -18.887  0.1412E+02  0.5956E+02
    -18.790  0.1459E+02  0.6096E+02
    -18.694  0.1565E+02  0.6247E+02
    -18.598  0.1704E+02  0.6411E+02
    -18.501  0.1736E+02  0.6579E+02
    -18.405  0.1640E+02  0.6737E+02
    -18.308  0.1581E+02  0.6889E+02
    -18.212  0.1654E+02  0.7049E+02
    -18.115  0.1732E+02  0.7216E+02
    -18.019  0.1632E+02  0.7373E+02
    -17.923  0.1400E+02  0.7508E+02
    -17.826  0.1285E+02  0.7632E+02
    -17.730  0.1367E+02  0.7764E+02
    -17.633  0.1451E+02  0.7903E+02
    -17.537  0.1409E+02  0.8039E+02
    -17.441  0.1305E+02  0.8165E+02
    -17.344  0.1216E+02  0.8282E+02
    -17.248  0.1152E+02  0.8393E+02
    -17.151  0.1095E+02  0.8499E+02
    -17.055  0.1030E+02  0.8598E+02
    -16.959  0.9280E+01  0.8688E+02
    -16.862  0.8151E+01  0.8766E+02
    -16.766  0.8161E+01  0.8845E+02
    -16.669  0.9988E+01  0.8941E+02
    -16.573  0.1306E+02  0.9067E+02
    -16.477  0.1598E+02  0.9221E+02
    -16.380  0.1730E+02  0.9388E+02
    -16.284  0.1703E+02  0.9552E+02
    -16.187  0.1614E+02  0.9708E+02
    -16.091  0.1496E+02  0.9852E+02
    -15.995  0.1393E+02  0.9986E+02
    -15.898  0.1369E+02  0.1012E+03
    -15.802  0.1394E+02  0.1025E+03
    -15.705  0.1372E+02  0.1038E+03
    -15.609  0.1321E+02  0.1051E+03
    -15.512  0.1360E+02  0.1064E+03
    -15.416  0.1545E+02  0.1079E+03
    -15.320  0.1827E+02  0.1097E+03
    -15.223  0.2051E+02  0.1117E+03
    -15.127  0.2111E+02  0.1137E+03
    -15.030  0.2078E+02  0.1157E+03
    -14.934  0.2026E+02  0.1177E+03
    -14.838  0.1890E+02  0.1195E+03
    -14.741  0.1629E+02  0.1210E+03
    -14.645  0.1344E+02  0.1223E+03
    -14.548  0.1141E+02  0.1234E+03
    -14.452  0.1028E+02  0.1244E+03
    -14.356  0.9458E+01  0.1253E+03
    -14.259  0.8621E+01  0.1262E+03
    -14.163  0.8948E+01  0.1270E+03
    -14.066  0.1156E+02  0.1282E+03
    -13.970  0.1519E+02  0.1296E+03
    -13.874  0.1780E+02  0.1313E+03
    -13.777  0.1889E+02  0.1332E+03
    -13.681  0.1871E+02  0.1350E+03
    -13.584  0.1772E+02  0.1367E+03
    -13.488  0.1696E+02  0.1383E+03
    -13.391  0.1760E+02  0.1400E+03
    -13.295  0.1931E+02  0.1419E+03
    -13.199  0.2006E+02  0.1438E+03
    -13.102  0.1859E+02  0.1456E+03
    -13.006  0.1619E+02  0.1471E+03
    -12.909  0.1478E+02  0.1486E+03
    -12.813  0.1455E+02  0.1500E+03
    -12.717  0.1430E+02  0.1514E+03
    -12.620  0.1347E+02  0.1527E+03
    -12.524  0.1265E+02  0.1539E+03
    -12.427  0.1288E+02  0.1551E+03
    -12.331  0.1487E+02  0.1565E+03
    -12.235  0.1843E+02  0.1583E+03
    -12.138  0.2244E+02  0.1605E+03
    -12.042  0.2494E+02  0.1629E+03
    -11.945  0.2460E+02  0.1653E+03
    -11.849  0.2253E+02  0.1674E+03
    -11.753  0.2053E+02  0.1694E+03
    -11.656  0.1898E+02  0.1712E+03
    -11.560  0.1753E+02  0.1729E+03
    -11.463  0.1625E+02  0.1745E+03
    -11.367  0.1609E+02  0.1761E+03
    -11.271  0.1787E+02  0.1778E+03
    -11.174  0.2102E+02  0.1798E+03
    -11.078  0.2477E+02  0.1822E+03
    -10.981  0.2877E+02  0.1850E+03
    -10.885  0.3191E+02  0.1880E+03
    -10.788  0.3339E+02  0.1913E+03
    -10.692  0.3410E+02  0.1945E+03
    -10.596  0.3544E+02  0.1980E+03
    -10.499  0.3751E+02  0.2016E+03
    -10.403  0.3878E+02  0.2053E+03
    -10.306  0.3832E+02  0.2090E+03
    -10.210  0.3691E+02  0.2126E+03
    -10.114  0.3536E+02  0.2160E+03
    -10.017  0.3380E+02  0.2192E+03
     -9.921  0.3260E+02  0.2224E+03
     -9.824  0.3246E+02  0.2255E+03
     -9.728  0.3356E+02  0.2287E+03
     -9.632  0.3547E+02  0.2322E+03
     -9.535  0.3811E+02  0.2358E+03
     -9.439  0.4116E+02  0.2398E+03
     -9.342  0.4255E+02  0.2439E+03
     -9.246  0.4007E+02  0.2478E+03
     -9.150  0.3480E+02  0.2511E+03
     -9.053  0.3088E+02  0.2541E+03
     -8.957  0.3098E+02  0.2571E+03
     -8.860  0.3392E+02  0.2604E+03
     -8.764  0.3713E+02  0.2639E+03
     -8.668  0.3843E+02  0.2676E+03
     -8.571  0.3655E+02  0.2712E+03
     -8.475  0.3260E+02  0.2743E+03
     -8.378  0.2917E+02  0.2771E+03
     -8.282  0.2732E+02  0.2798E+03
     -8.185  0.2652E+02  0.2823E+03
     -8.089  0.2687E+02  0.2849E+03
     -7.993  0.2874E+02  0.2877E+03
     -7.896  0.3113E+02  0.2907E+03
     -7.800  0.3224E+02  0.2938E+03
     -7.703  0.3170E+02  0.2968E+03
     -7.607  0.3075E+02  0.2998E+03
     -7.511  0.3022E+02  0.3027E+03
     -7.414  0.2985E+02  0.3056E+03
     -7.318  0.2903E+02  0.3084E+03
     -7.221  0.2718E+02  0.3110E+03
     -7.125  0.2490E+02  0.3134E+03
     -7.029  0.2388E+02  0.3157E+03
     -6.932  0.2471E+02  0.3181E+03
     -6.836  0.2616E+02  0.3206E+03
     -6.739  0.2678E+02  0.3232E+03
     -6.643  0.2608E+02  0.3257E+03
     -6.547  0.2433E+02  0.3281E+03
     -6.450  0.2221E+02  0.3302E+03
     -6.354  0.2082E+02  0.3322E+03
     -6.257  0.2099E+02  0.3342E+03
     -6.161  0.2277E+02  0.3364E+03
     -6.065  0.2505E+02  0.3388E+03
     -5.968  0.2576E+02  0.3413E+03
     -5.872  0.2395E+02  0.3436E+03
     -5.775  0.2075E+02  0.3456E+03
     -5.679  0.1760E+02  0.3473E+03
     -5.582  0.1486E+02  0.3488E+03
     -5.486  0.1262E+02  0.3500E+03
     -5.390  0.1125E+02  0.3511E+03
     -5.293  0.1088E+02  0.3521E+03
     -5.197  0.1121E+02  0.3532E+03
     -5.100  0.1156E+02  0.3543E+03
     -5.004  0.1151E+02  0.3554E+03
     -4.908  0.1171E+02  0.3566E+03
     -4.811  0.1292E+02  0.3578E+03
     -4.715  0.1416E+02  0.3592E+03
     -4.618  0.1430E+02  0.3605E+03
     -4.522  0.1380E+02  0.3619E+03
     -4.426  0.1278E+02  0.3631E+03
     -4.329  0.1050E+02  0.3641E+03
     -4.233  0.7255E+01  0.3648E+03
     -4.136  0.4198E+01  0.3652E+03
     -4.040  0.2020E+01  0.3654E+03
     -3.944  0.9990E+00  0.3655E+03
     -3.847  0.1326E+01  0.3656E+03
     -3.751  0.2917E+01  0.3659E+03
     -3.654  0.4776E+01  0.3664E+03
     -3.558  0.5332E+01  0.3669E+03
     -3.461  0.4374E+01  0.3673E+03
     -3.365  0.3331E+01  0.3676E+03
     -3.269  0.3014E+01  0.3679E+03
     -3.172  0.2756E+01  0.3682E+03
     -3.076  0.2039E+01  0.3684E+03
     -2.979  0.1510E+01  0.3685E+03
     -2.883  0.2029E+01  0.3687E+03
     -2.787  0.3482E+01  0.3691E+03
     -2.690  0.4913E+01  0.3695E+03
     -2.594  0.5940E+01  0.3701E+03
     -2.497  0.7228E+01  0.3708E+03
     -2.401  0.8998E+01  0.3717E+03
     -2.305  0.1026E+02  0.3727E+03
     -2.208  0.1021E+02  0.3737E+03
     -2.112  0.9231E+01  0.3745E+03
     -2.015  0.7957E+01  0.3753E+03
     -1.919  0.6827E+01  0.3760E+03
     -1.823  0.6852E+01  0.3766E+03
     -1.726  0.9066E+01  0.3775E+03
     -1.630  0.1315E+02  0.3788E+03
     -1.533  0.1732E+02  0.3804E+03
     -1.437  0.2005E+02  0.3824E+03
     -1.341  0.2139E+02  0.3844E+03
     -1.244  0.2229E+02  0.3866E+03
     -1.148  0.2303E+02  0.3888E+03
     -1.051  0.2246E+02  0.3910E+03
     -0.955  0.1933E+02  0.3928E+03
     -0.858  0.1467E+02  0.3942E+03
     -0.762  0.1133E+02  0.3953E+03
     -0.666  0.1087E+02  0.3964E+03
     -0.569  0.1206E+02  0.3976E+03
     -0.473  0.1258E+02  0.3988E+03
     -0.376  0.1203E+02  0.3999E+03
     -0.280  0.1212E+02  0.4011E+03
     -0.184  0.1360E+02  0.4024E+03
     -0.087  0.1564E+02  0.4039E+03
      0.009  0.1798E+02  0.4056E+03
      0.106  0.2076E+02  0.4076E+03
      0.202  0.2326E+02  0.4099E+03
      0.298  0.2378E+02  0.4122E+03
      0.395  0.2156E+02  0.4143E+03
      0.491  0.1891E+02  0.4161E+03
      0.588  0.1919E+02  0.4179E+03
      0.684  0.2289E+02  0.4201E+03
      0.780  0.2749E+02  0.4228E+03
      0.877  0.3067E+02  0.4257E+03
      0.973  0.3315E+02  0.4289E+03
      1.070  0.3690E+02  0.4325E+03
      1.166  0.4220E+02  0.4366E+03
      1.262  0.4763E+02  0.4412E+03
      1.359  0.5104E+02  0.4461E+03
      1.455  0.5069E+02  0.4510E+03
      1.552  0.4600E+02  0.4554E+03
      1.648  0.3740E+02  0.4590E+03
      1.745  0.2642E+02  0.4616E+03
      1.841  0.1545E+02  0.4630E+03
      1.937  0.6992E+01  0.4637E+03
      2.034  0.2295E+01  0.4639E+03
      2.130  0.5210E+00  0.4640E+03
      2.227  0.7941E-01  0.4640E+03
      2.323  0.7988E-02  0.4640E+03
      2.419  0.5249E-03  0.4640E+03
      2.516  0.2238E-04  0.4640E+03
      2.612  0.6165E-06  0.4640E+03
      2.709  0.1093E-07  0.4640E+03
      2.805  0.1244E-09  0.4640E+03
      2.901  0.9075E-12  0.4640E+03
      2.998  0.4031E-14  0.4640E+03
      3.094  0.0000E+00  0.4640E+03
      3.191  0.0000E+00  0.4640E+03
      3.287  0.0000E+00  0.4640E+03
      3.383  0.0000E+00  0.4640E+03
      3.480  0.0000E+00  0.4640E+03
      3.576  0.0000E+00  0.4640E+03
      3.673  0.0000E+00  0.4640E+03
      3.769  0.0000E+00  0.4640E+03
