       N       E                     dE             d eps       ncg     rms          rms(c)
DAV:   1     0.369013665485E+04    0.36901E+04   -0.11886E+05  1712   0.105E+03
DAV:   2     0.185145244011E+03   -0.35050E+04   -0.32454E+04  2144   0.238E+02
DAV:   3    -0.833014161823E+03   -0.10182E+04   -0.99406E+03  1792   0.135E+02
DAV:   4    -0.895488889603E+03   -0.62475E+02   -0.61485E+02  1704   0.432E+01
DAV:   5    -0.897036176493E+03   -0.15473E+01   -0.15259E+01  1816   0.664E+00    0.453E+01
DAV:   6    -0.848046858059E+03    0.48989E+02   -0.46818E+01  1576   0.125E+01    0.266E+01
DAV:   7    -0.829793094945E+03    0.18254E+02   -0.64887E+01  1560   0.144E+01    0.726E+00
DAV:   8    -0.829513119067E+03    0.27998E+00   -0.24948E+00  1584   0.336E+00    0.980E-01
DAV:   9    -0.829408177765E+03    0.10494E+00   -0.26650E-01  1648   0.979E-01    0.571E-01
DAV:  10    -0.829369220177E+03    0.38958E-01   -0.45149E-02  1736   0.423E-01    0.356E-01
DAV:  11    -0.829340437677E+03    0.28782E-01   -0.23742E-02  1576   0.248E-01    0.235E-01
DAV:  12    -0.829338542434E+03    0.18952E-02   -0.18213E-02  1544   0.210E-01    0.153E-01
DAV:  13    -0.829349876383E+03   -0.11334E-01   -0.10010E-02  1544   0.152E-01    0.839E-02
DAV:  14    -0.829366809797E+03   -0.16933E-01   -0.12193E-03  1592   0.684E-02    0.577E-02
DAV:  15    -0.829388168386E+03   -0.21359E-01   -0.19509E-03  1552   0.693E-02    0.304E-02
DAV:  16    -0.829395926848E+03   -0.77585E-02   -0.43350E-04  1624   0.379E-02    0.220E-02
DAV:  17    -0.829400458173E+03   -0.45313E-02   -0.26334E-04  1560   0.238E-02    0.115E-02
DAV:  18    -0.829402794606E+03   -0.23364E-02   -0.11379E-04  1584   0.148E-02    0.584E-03
DAV:  19    -0.829403749575E+03   -0.95497E-03   -0.28642E-05  1456   0.781E-03    0.391E-03
DAV:  20    -0.829404121153E+03   -0.37158E-03   -0.66077E-06  1336   0.378E-03    0.230E-03
DAV:  21    -0.829404352351E+03   -0.23120E-03   -0.32847E-06  1272   0.274E-03    0.105E-03
DAV:  22    -0.829404409964E+03   -0.57613E-04   -0.28062E-07  1040   0.113E-03    0.718E-04
DAV:  23    -0.829404445509E+03   -0.35544E-04   -0.28379E-07   928   0.908E-04    0.435E-04
DAV:  24    -0.829404457606E+03   -0.12097E-04   -0.80930E-08   960   0.532E-04    0.240E-04
DAV:  25    -0.829404464222E+03   -0.66160E-05   -0.39726E-08   912   0.463E-04    0.191E-04
DAV:  26    -0.829404467640E+03   -0.34181E-05   -0.25016E-08   912   0.285E-04    0.105E-04
DAV:  27    -0.829404469827E+03   -0.21872E-05   -0.79955E-09   952   0.226E-04    0.113E-04
DAV:  28    -0.829404471327E+03   -0.14997E-05   -0.58986E-09   944   0.174E-04    0.348E-05
DAV:  29    -0.829404472015E+03   -0.68871E-06   -0.26336E-09   960   0.892E-05
   1 F= -.82940447E+03 E0= -.82937557E+03  d E =-.578065E-01
