unknown system                          
            1
    28.050000    0.000000    0.000000
     0.000000    8.100000    0.000000
     0.000000    0.000000   33.500000
   C 
    92
Direct configuration=     1
   0.00928781  0.10900395  0.55252537
   0.00914877  0.28126914  0.55441791
   0.05050766  0.02307012  0.54043284
   0.05222602  0.35791852  0.54942985
   0.09564635  0.10757506  0.53789851
   0.09684777  0.27217654  0.54325970
   0.13612014  0.02448346  0.51979403
   0.14093084  0.35465432  0.53415522
   0.17985561  0.10438704  0.51118507
   0.18209590  0.27047531  0.51988955
   0.21922353  0.02071605  0.49166269
   0.22657718  0.35493457  0.50871642
   0.26302389  0.10461247  0.48179403
   0.26715401  0.26669012  0.49242388
   0.30455437  0.02114519  0.46756418
   0.31239572  0.35299259  0.48581493
   0.34839964  0.10546963  0.46055224
   0.34896007  0.27267037  0.46681493
   0.39462389  0.02258741  0.45286866
   0.39490909  0.35604691  0.45779104
   0.43815330  0.10928160  0.44500896
   0.43675579  0.27698025  0.44860299
   0.48193939  0.02250222  0.44625373
   0.48333690  0.35679630  0.44773731
   0.52814260  0.10006086  0.45100299
   0.52634581  0.26549259  0.45404776
   0.57237433  0.01726012  0.45759104
   0.56933690  0.34954568  0.46541194
   0.61649911  0.10383827  0.46657612
   0.61428877  0.27312840  0.47170746
   0.65997504  0.02070148  0.47769552
   0.65706952  0.35463704  0.48384776
   0.70087344  0.10419000  0.49361791
   0.69737611  0.27077407  0.49897910
   0.74344742  0.02170531  0.50142985
   0.73815330  0.35309259  0.51425075
   0.78243494  0.10986160  0.52069254
   0.78008556  0.27672222  0.52688060
   0.82484848  0.02288716  0.53007164
   0.82148663  0.35653827  0.53862388
   0.86723351  0.10192272  0.54514030
   0.86354011  0.27088642  0.54962090
   0.91159715  0.02244642  0.54794030
   0.90861676  0.34753333  0.55572537
   0.95496613  0.10422531  0.55332239
   0.95213547  0.27127407  0.55513731
   0.00855604  0.60304568  0.54799701
   0.00692360  0.77216173  0.54090746
   0.05129519  0.52973086  0.54821791
   0.05109840  0.84969877  0.53691642
   0.09723529  0.60494568  0.53897612
   0.09437433  0.76796790  0.52924179
   0.14046275  0.52529383  0.53096119
   0.13633262  0.85653086  0.51713731
   0.18094973  0.60528272  0.51417910
   0.18042139  0.77207901  0.50627164
   0.22540107  0.52104691  0.50517015
   0.22157362  0.85296790  0.49275821
   0.26660463  0.60782716  0.49081791
   0.26511693  0.76943580  0.48307761
   0.31060998  0.52266543  0.47991045
   0.30650303  0.85187160  0.46652836
   0.35173654  0.60574691  0.46364179
   0.35040178  0.77593827  0.46051642
   0.39405704  0.52320988  0.45568955
   0.39418182  0.85556667  0.45204179
   0.43855258  0.60435309  0.44706269
   0.43852050  0.76933704  0.44314030
   0.48415686  0.52138642  0.44511940
   0.48152228  0.85311481  0.44413134
   0.52852763  0.60206914  0.45336716
   0.52699109  0.77240741  0.45012836
   0.57241355  0.51945062  0.46052537
   0.57149020  0.85159753  0.45741194
   0.61681283  0.59881975  0.46805075
   0.61687344  0.77079383  0.46589851
   0.65965775  0.51977901  0.48156716
   0.65883779  0.85574444  0.47912239
   0.70147237  0.60755556  0.49526269
   0.70212478  0.77578889  0.49108955
   0.74037077  0.52218025  0.51032836
   0.74512299  0.85654691  0.49890149
   0.78377540  0.60722963  0.52248657
   0.78544029  0.77639877  0.51589254
   0.82277718  0.52245432  0.53850149
   0.82765419  0.85463580  0.52504478
   0.86682353  0.60327037  0.54286269
   0.87039929  0.77172222  0.53465672
   0.90954724  0.51747407  0.55082687
   0.91201426  0.85625062  0.54371940
   0.95389305  0.60134938  0.55099403
   0.95458824  0.76913086  0.54701493
