       N       E                     dE             d eps       ncg     rms          rms(c)
DAV:   1     0.369758007563E+04    0.36976E+04   -0.11879E+05  1696   0.105E+03
DAV:   2     0.182903862531E+03   -0.35147E+04   -0.32485E+04  2136   0.239E+02
DAV:   3    -0.833221378059E+03   -0.10161E+04   -0.99341E+03  1784   0.135E+02
DAV:   4    -0.895458897104E+03   -0.62238E+02   -0.61179E+02  1736   0.430E+01
DAV:   5    -0.896973354860E+03   -0.15145E+01   -0.14933E+01  1800   0.650E+00    0.453E+01
DAV:   6    -0.847934863806E+03    0.49038E+02   -0.46958E+01  1576   0.127E+01    0.266E+01
DAV:   7    -0.829764546362E+03    0.18170E+02   -0.64799E+01  1552   0.144E+01    0.732E+00
DAV:   8    -0.829481174515E+03    0.28337E+00   -0.23370E+00  1616   0.343E+00    0.116E+00
DAV:   9    -0.829371870560E+03    0.10930E+00   -0.27680E-01  1664   0.107E+00    0.583E-01
DAV:  10    -0.829339067023E+03    0.32804E-01   -0.44852E-02  1768   0.447E-01    0.394E-01
DAV:  11    -0.829307781688E+03    0.31285E-01   -0.20299E-02  1560   0.258E-01    0.255E-01
DAV:  12    -0.829299550781E+03    0.82309E-02   -0.29456E-02  1560   0.243E-01    0.161E-01
DAV:  13    -0.829312538096E+03   -0.12987E-01   -0.84972E-03  1520   0.171E-01    0.870E-02
DAV:  14    -0.829325149755E+03   -0.12612E-01   -0.15176E-03  1584   0.819E-02    0.671E-02
DAV:  15    -0.829344948243E+03   -0.19798E-01   -0.16818E-03  1544   0.730E-02    0.319E-02
DAV:  16    -0.829355015042E+03   -0.10067E-01   -0.55878E-04  1600   0.413E-02    0.270E-02
DAV:  17    -0.829361819364E+03   -0.68043E-02   -0.51196E-04  1608   0.309E-02    0.130E-02
DAV:  18    -0.829363702898E+03   -0.18835E-02   -0.81811E-05  1664   0.154E-02    0.922E-03
DAV:  19    -0.829365039100E+03   -0.13362E-02   -0.49753E-05  1552   0.120E-02    0.435E-03
DAV:  20    -0.829365530024E+03   -0.49092E-03   -0.13562E-05  1400   0.554E-03    0.364E-03
DAV:  21    -0.829365766057E+03   -0.23603E-03   -0.32796E-06  1304   0.350E-03    0.216E-03
DAV:  22    -0.829365899667E+03   -0.13361E-03   -0.14506E-06  1032   0.209E-03    0.119E-03
DAV:  23    -0.829365945410E+03   -0.45743E-04   -0.41640E-07  1016   0.127E-03    0.624E-04
DAV:  24    -0.829365968842E+03   -0.23432E-04   -0.24144E-07   960   0.107E-03    0.696E-04
DAV:  25    -0.829365976884E+03   -0.80414E-05   -0.72773E-08   928   0.738E-04    0.206E-04
DAV:  26    -0.829365981879E+03   -0.49950E-05   -0.57408E-08   904   0.506E-04    0.377E-04
DAV:  27    -0.829365983694E+03   -0.18149E-05   -0.14924E-08   912   0.379E-04    0.121E-04
DAV:  28    -0.829365985562E+03   -0.18684E-05   -0.11820E-08   944   0.205E-04    0.940E-05
DAV:  29    -0.829365986954E+03   -0.13924E-05   -0.56856E-09   944   0.137E-04    0.482E-05
DAV:  30    -0.829365987499E+03   -0.54491E-06   -0.21074E-09   936   0.803E-05
   1 F= -.82936599E+03 E0= -.82933027E+03  d E =-.714448E-01
