  92  92   0   0
  0.8273226E+02  0.2805000E-08  0.8100000E-09  0.3350000E-08  0.5000000E-15
   1.0000000000000000E-004
  CAR 
 unknown system                          
      3.77368757    -25.17640003  301     -3.12030797      1.00000000
    -25.176  0.0000E+00  0.0000E+00
    -25.080  0.0000E+00  0.0000E+00
    -24.983  0.0000E+00  0.0000E+00
    -24.887  0.0000E+00  0.0000E+00
    -24.790  0.0000E+00  0.0000E+00
    -24.694  0.0000E+00  0.0000E+00
    -24.597  0.0000E+00  0.0000E+00
    -24.501  0.0000E+00  0.0000E+00
    -24.404  0.0000E+00  0.0000E+00
    -24.308  0.3164E-14  0.3053E-15
    -24.211  0.6541E-12  0.6342E-13
    -24.115  0.8433E-10  0.8201E-11
    -24.018  0.6908E-08  0.6749E-09
    -23.922  0.3608E-06  0.3549E-07
    -23.825  0.1207E-04  0.1201E-05
    -23.729  0.2607E-03  0.2636E-04
    -23.632  0.3669E-02  0.3804E-03
    -23.536  0.3412E-01  0.3673E-02
    -23.439  0.2135E+00  0.2427E-01
    -23.343  0.9178E+00  0.1128E+00
    -23.246  0.2778E+01  0.3809E+00
    -23.150  0.6065E+01  0.9662E+00
    -23.053  0.9822E+01  0.1914E+01
    -22.957  0.1229E+02  0.3100E+01
    -22.860  0.1298E+02  0.4352E+01
    -22.764  0.1347E+02  0.5652E+01
    -22.667  0.1496E+02  0.7096E+01
    -22.571  0.1597E+02  0.8637E+01
    -22.474  0.1499E+02  0.1008E+02
    -22.378  0.1353E+02  0.1139E+02
    -22.281  0.1367E+02  0.1271E+02
    -22.185  0.1492E+02  0.1415E+02
    -22.088  0.1558E+02  0.1565E+02
    -21.992  0.1528E+02  0.1713E+02
    -21.895  0.1459E+02  0.1853E+02
    -21.799  0.1377E+02  0.1986E+02
    -21.702  0.1301E+02  0.2112E+02
    -21.606  0.1243E+02  0.2232E+02
    -21.509  0.1188E+02  0.2346E+02
    -21.413  0.1163E+02  0.2459E+02
    -21.316  0.1237E+02  0.2578E+02
    -21.220  0.1416E+02  0.2715E+02
    -21.123  0.1578E+02  0.2867E+02
    -21.027  0.1589E+02  0.3020E+02
    -20.930  0.1453E+02  0.3160E+02
    -20.834  0.1289E+02  0.3285E+02
    -20.737  0.1227E+02  0.3403E+02
    -20.641  0.1291E+02  0.3528E+02
    -20.544  0.1362E+02  0.3659E+02
    -20.448  0.1330E+02  0.3788E+02
    -20.351  0.1260E+02  0.3909E+02
    -20.255  0.1285E+02  0.4033E+02
    -20.158  0.1400E+02  0.4168E+02
    -20.062  0.1493E+02  0.4312E+02
    -19.965  0.1499E+02  0.4457E+02
    -19.869  0.1428E+02  0.4595E+02
    -19.772  0.1323E+02  0.4723E+02
    -19.676  0.1333E+02  0.4851E+02
    -19.579  0.1541E+02  0.5000E+02
    -19.483  0.1711E+02  0.5165E+02
    -19.386  0.1585E+02  0.5318E+02
    -19.290  0.1310E+02  0.5444E+02
    -19.193  0.1217E+02  0.5562E+02
    -19.097  0.1349E+02  0.5692E+02
    -19.000  0.1464E+02  0.5833E+02
    -18.904  0.1403E+02  0.5969E+02
    -18.807  0.1288E+02  0.6093E+02
    -18.711  0.1340E+02  0.6222E+02
    -18.614  0.1566E+02  0.6373E+02
    -18.518  0.1733E+02  0.6541E+02
    -18.421  0.1710E+02  0.6706E+02
    -18.325  0.1657E+02  0.6865E+02
    -18.228  0.1717E+02  0.7031E+02
    -18.132  0.1755E+02  0.7200E+02
    -18.035  0.1621E+02  0.7357E+02
    -17.939  0.1407E+02  0.7493E+02
    -17.842  0.1278E+02  0.7616E+02
    -17.746  0.1249E+02  0.7736E+02
    -17.649  0.1227E+02  0.7855E+02
    -17.553  0.1165E+02  0.7967E+02
    -17.456  0.1120E+02  0.8075E+02
    -17.360  0.1159E+02  0.8187E+02
    -17.263  0.1234E+02  0.8306E+02
    -17.167  0.1232E+02  0.8425E+02
    -17.070  0.1144E+02  0.8536E+02
    -16.974  0.1057E+02  0.8638E+02
    -16.877  0.1037E+02  0.8738E+02
    -16.781  0.1110E+02  0.8845E+02
    -16.684  0.1245E+02  0.8965E+02
    -16.588  0.1331E+02  0.9093E+02
    -16.491  0.1343E+02  0.9223E+02
    -16.395  0.1402E+02  0.9358E+02
    -16.298  0.1571E+02  0.9510E+02
    -16.202  0.1767E+02  0.9680E+02
    -16.105  0.1890E+02  0.9863E+02
    -16.009  0.1877E+02  0.1004E+03
    -15.912  0.1713E+02  0.1021E+03
    -15.816  0.1467E+02  0.1035E+03
    -15.719  0.1246E+02  0.1047E+03
    -15.623  0.1107E+02  0.1058E+03
    -15.526  0.1064E+02  0.1068E+03
    -15.430  0.1218E+02  0.1080E+03
    -15.333  0.1656E+02  0.1096E+03
    -15.237  0.2184E+02  0.1117E+03
    -15.140  0.2459E+02  0.1141E+03
    -15.044  0.2367E+02  0.1163E+03
    -14.947  0.2060E+02  0.1183E+03
    -14.851  0.1717E+02  0.1200E+03
    -14.754  0.1416E+02  0.1214E+03
    -14.658  0.1155E+02  0.1225E+03
    -14.561  0.9587E+01  0.1234E+03
    -14.465  0.9066E+01  0.1243E+03
    -14.368  0.1011E+02  0.1252E+03
    -14.272  0.1145E+02  0.1264E+03
    -14.175  0.1206E+02  0.1275E+03
    -14.079  0.1266E+02  0.1287E+03
    -13.982  0.1420E+02  0.1301E+03
    -13.886  0.1602E+02  0.1317E+03
    -13.789  0.1702E+02  0.1333E+03
    -13.693  0.1744E+02  0.1350E+03
    -13.596  0.1789E+02  0.1367E+03
    -13.500  0.1843E+02  0.1385E+03
    -13.403  0.1887E+02  0.1403E+03
    -13.307  0.1920E+02  0.1422E+03
    -13.210  0.1907E+02  0.1440E+03
    -13.114  0.1768E+02  0.1457E+03
    -13.017  0.1555E+02  0.1472E+03
    -12.921  0.1454E+02  0.1486E+03
    -12.824  0.1488E+02  0.1500E+03
    -12.728  0.1512E+02  0.1515E+03
    -12.631  0.1439E+02  0.1529E+03
    -12.535  0.1333E+02  0.1542E+03
    -12.438  0.1324E+02  0.1555E+03
    -12.342  0.1483E+02  0.1569E+03
    -12.245  0.1798E+02  0.1586E+03
    -12.149  0.2187E+02  0.1607E+03
    -12.052  0.2485E+02  0.1631E+03
    -11.956  0.2556E+02  0.1656E+03
    -11.859  0.2392E+02  0.1679E+03
    -11.763  0.2080E+02  0.1699E+03
    -11.666  0.1758E+02  0.1716E+03
    -11.570  0.1529E+02  0.1731E+03
    -11.473  0.1461E+02  0.1745E+03
    -11.377  0.1608E+02  0.1760E+03
    -11.280  0.1935E+02  0.1779E+03
    -11.184  0.2338E+02  0.1802E+03
    -11.087  0.2768E+02  0.1828E+03
    -10.991  0.3159E+02  0.1859E+03
    -10.894  0.3358E+02  0.1891E+03
    -10.798  0.3331E+02  0.1923E+03
    -10.701  0.3279E+02  0.1955E+03
    -10.605  0.3416E+02  0.1988E+03
    -10.508  0.3720E+02  0.2024E+03
    -10.412  0.3908E+02  0.2062E+03
    -10.315  0.3766E+02  0.2098E+03
    -10.219  0.3450E+02  0.2131E+03
    -10.122  0.3292E+02  0.2163E+03
    -10.026  0.3345E+02  0.2195E+03
     -9.929  0.3401E+02  0.2228E+03
     -9.833  0.3405E+02  0.2261E+03
     -9.736  0.3526E+02  0.2295E+03
     -9.640  0.3807E+02  0.2332E+03
     -9.543  0.4109E+02  0.2371E+03
     -9.447  0.4293E+02  0.2413E+03
     -9.350  0.4213E+02  0.2453E+03
     -9.254  0.3789E+02  0.2490E+03
     -9.157  0.3226E+02  0.2521E+03
     -9.061  0.2892E+02  0.2549E+03
     -8.964  0.2945E+02  0.2578E+03
     -8.868  0.3211E+02  0.2609E+03
     -8.771  0.3449E+02  0.2642E+03
     -8.675  0.3576E+02  0.2676E+03
     -8.578  0.3620E+02  0.2711E+03
     -8.482  0.3578E+02  0.2746E+03
     -8.385  0.3443E+02  0.2779E+03
     -8.289  0.3229E+02  0.2810E+03
     -8.192  0.2946E+02  0.2839E+03
     -8.096  0.2671E+02  0.2864E+03
     -7.999  0.2501E+02  0.2888E+03
     -7.903  0.2466E+02  0.2912E+03
     -7.806  0.2573E+02  0.2937E+03
     -7.710  0.2745E+02  0.2964E+03
     -7.613  0.2810E+02  0.2991E+03
     -7.517  0.2724E+02  0.3017E+03
     -7.420  0.2625E+02  0.3042E+03
     -7.324  0.2588E+02  0.3067E+03
     -7.227  0.2582E+02  0.3092E+03
     -7.131  0.2630E+02  0.3118E+03
     -7.034  0.2761E+02  0.3144E+03
     -6.938  0.2836E+02  0.3172E+03
     -6.841  0.2707E+02  0.3198E+03
     -6.745  0.2475E+02  0.3222E+03
     -6.648  0.2342E+02  0.3244E+03
     -6.552  0.2288E+02  0.3266E+03
     -6.455  0.2152E+02  0.3287E+03
     -6.359  0.1949E+02  0.3306E+03
     -6.262  0.1852E+02  0.3324E+03
     -6.166  0.1918E+02  0.3342E+03
     -6.069  0.2089E+02  0.3362E+03
     -5.973  0.2353E+02  0.3385E+03
     -5.876  0.2638E+02  0.3411E+03
     -5.780  0.2764E+02  0.3437E+03
     -5.683  0.2626E+02  0.3463E+03
     -5.587  0.2240E+02  0.3484E+03
     -5.490  0.1686E+02  0.3500E+03
     -5.394  0.1185E+02  0.3512E+03
     -5.297  0.1020E+02  0.3522E+03
     -5.201  0.1188E+02  0.3533E+03
     -5.104  0.1324E+02  0.3546E+03
     -5.008  0.1155E+02  0.3557E+03
     -4.911  0.8408E+01  0.3565E+03
     -4.815  0.6875E+01  0.3572E+03
     -4.718  0.8043E+01  0.3580E+03
     -4.622  0.1090E+02  0.3590E+03
     -4.525  0.1376E+02  0.3603E+03
     -4.429  0.1496E+02  0.3618E+03
     -4.332  0.1319E+02  0.3631E+03
     -4.236  0.9014E+01  0.3639E+03
     -4.139  0.5019E+01  0.3644E+03
     -4.043  0.3308E+01  0.3647E+03
     -3.946  0.3618E+01  0.3651E+03
     -3.850  0.4315E+01  0.3655E+03
     -3.753  0.4284E+01  0.3659E+03
     -3.657  0.3602E+01  0.3663E+03
     -3.560  0.3051E+01  0.3666E+03
     -3.464  0.3105E+01  0.3669E+03
     -3.367  0.3277E+01  0.3672E+03
     -3.271  0.3118E+01  0.3675E+03
     -3.174  0.3241E+01  0.3678E+03
     -3.078  0.4327E+01  0.3682E+03
     -2.981  0.6145E+01  0.3688E+03
     -2.885  0.8175E+01  0.3696E+03
     -2.788  0.1002E+02  0.3706E+03
     -2.692  0.1048E+02  0.3716E+03
     -2.595  0.8278E+01  0.3724E+03
     -2.499  0.4654E+01  0.3728E+03
     -2.402  0.2316E+01  0.3730E+03
     -2.306  0.2578E+01  0.3733E+03
     -2.209  0.4862E+01  0.3738E+03
     -2.113  0.7222E+01  0.3744E+03
     -2.016  0.7652E+01  0.3752E+03
     -1.920  0.6396E+01  0.3758E+03
     -1.823  0.6089E+01  0.3764E+03
     -1.727  0.8899E+01  0.3773E+03
     -1.630  0.1440E+02  0.3786E+03
     -1.534  0.2020E+02  0.3806E+03
     -1.437  0.2355E+02  0.3829E+03
     -1.341  0.2305E+02  0.3851E+03
     -1.244  0.2000E+02  0.3870E+03
     -1.148  0.1729E+02  0.3887E+03
     -1.051  0.1626E+02  0.3903E+03
     -0.955  0.1606E+02  0.3918E+03
     -0.858  0.1575E+02  0.3933E+03
     -0.762  0.1526E+02  0.3948E+03
     -0.665  0.1456E+02  0.3962E+03
     -0.569  0.1350E+02  0.3975E+03
     -0.472  0.1213E+02  0.3987E+03
     -0.376  0.1111E+02  0.3997E+03
     -0.279  0.1190E+02  0.4009E+03
     -0.183  0.1493E+02  0.4023E+03
     -0.086  0.1827E+02  0.4041E+03
      0.010  0.2003E+02  0.4060E+03
      0.107  0.2052E+02  0.4080E+03
      0.203  0.2077E+02  0.4100E+03
      0.300  0.2058E+02  0.4120E+03
      0.396  0.1932E+02  0.4139E+03
      0.493  0.1801E+02  0.4156E+03
      0.589  0.1878E+02  0.4174E+03
      0.686  0.2217E+02  0.4196E+03
      0.782  0.2692E+02  0.4222E+03
      0.879  0.3140E+02  0.4252E+03
      0.975  0.3462E+02  0.4285E+03
      1.072  0.3694E+02  0.4321E+03
      1.168  0.3969E+02  0.4359E+03
      1.265  0.4389E+02  0.4402E+03
      1.361  0.4845E+02  0.4448E+03
      1.458  0.5051E+02  0.4497E+03
      1.554  0.4778E+02  0.4543E+03
      1.651  0.4033E+02  0.4582E+03
      1.747  0.2978E+02  0.4611E+03
      1.844  0.1821E+02  0.4628E+03
      1.940  0.8483E+01  0.4637E+03
      2.037  0.2806E+01  0.4639E+03
      2.133  0.6307E+00  0.4640E+03
      2.230  0.9412E-01  0.4640E+03
      2.326  0.9217E-02  0.4640E+03
      2.423  0.5888E-03  0.4640E+03
      2.519  0.2444E-04  0.4640E+03
      2.616  0.6573E-06  0.4640E+03
      2.712  0.1142E-07  0.4640E+03
      2.809  0.1280E-09  0.4640E+03
      2.905  0.9204E-12  0.4640E+03
      3.002  0.3451E-14  0.4640E+03
      3.098  0.0000E+00  0.4640E+03
      3.195  0.0000E+00  0.4640E+03
      3.291  0.0000E+00  0.4640E+03
      3.388  0.0000E+00  0.4640E+03
      3.484  0.0000E+00  0.4640E+03
      3.581  0.0000E+00  0.4640E+03
      3.677  0.0000E+00  0.4640E+03
      3.774  0.0000E+00  0.4640E+03
