 vasp.6.5.0 16Dec24 (build Feb 19 2025 19:45:31) complex                         
 executed on              LinuxNV date 2025.10.25  19:22:16
 running    2 mpi-ranks, on    1 nodes
 distrk:  each k-point on    2 cores,    1 groups
 distr:  one band on NCORE=   1 cores,    2 groups
 Offloading initialized ...    2 GPUs detected


--------------------------------------------------------------------------------------------------------


 INCAR:
   ISTART = 0            (Not Read existing wavefunction
   ISPIN = 1            (Non-Spin polarised DFT, Default\=1)
   ICHARG = 2            (The initial guess charge density is generated by superposition of atomic charge density)
   LREAL = Auto         (Projection operators: automatic)
   ENCUT = 500          (Cut-off energy for plane wave basis set, in eV)
   LWAVE = .FALSE.       (Write WAVECAR or not)
   LCHARG = .FALSE.       (Write CHGCAR or not)
   PREC = Accurate   (Precision level)
   KGAMMA = .TRUE.
   ALGO = Normal
   NSW = 0           (Default: NSW \= 0)
   IBRION = -1           (Ions are not moved)
   ISMEAR = 0
   EDIFF = 1E-06        (SCF energy convergence
   NELM = 150          (Max electronic SCF steps)

 POTCAR:    PAW_PBE C 08Apr2002                   
 POTCAR:    PAW_PBE C 08Apr2002                   
   SHA256 =  253f7b50bb8d59471dbedb8285d89021f4a42ed1a2c5d38a03a736e69125dd95 C/POTCAR              
   COPYR  = (c) Copyright 08Apr2002 Georg Kresse                                                    
   COPYR  = This file is part of the software VASP. Any use, copying, and all other rights are regul
   COPYR  = If you do not have a valid VASP license, you may not use, copy or distribute this file. 
   VRHFIN =C: s2p2                                                                                  
   LEXCH  = PE                                                                                      
   EATOM  =   147.1560 eV,   10.8157 Ry                                                             
                                                                                                    
   TITEL  = PAW_PBE C 08Apr2002                                                                     
   LULTRA =        F    use ultrasoft PP ?                                                          
   IUNSCR =        1    unscreen: 0-lin 1-nonlin 2-no                                               
   RPACOR =    1.200    partial core radius                                                         
   POMASS =   12.011; ZVAL   =    4.000    mass and valenz                                          
   RCORE  =    1.500    outmost cutoff radius                                                       
   RWIGS  =    1.630; RWIGS  =    0.863    wigner-seitz radius (au A)                               
   ENMAX  =  400.000; ENMIN  =  300.000 eV                                                          
   ICORE  =        2    local potential                                                             
   LCOR   =        T    correct aug charges                                                         
   LPAW   =        T    paw PP                                                                      
   EAUG   =  644.873                                                                                
   DEXC   =    0.000                                                                                
   RMAX   =    1.529    core radius for proj-oper                                                   
   RAUG   =    1.300    factor for augmentation sphere                                              
   RDEP   =    1.501    radius for radial grids                                                     
   RDEPT  =    1.300    core radius for aug-charge                                                  
                                                                                                    
   Atomic configuration                                                                             
    4 entries                                                                                       
     n  l   j            E        occ.                                                              
     1  0  0.50      -273.3789   2.0000                                                             
     2  0  0.50       -13.7508   2.0000                                                             
     2  1  0.50        -5.2854   2.0000                                                             
     3  2  1.50        -5.4423   0.0000                                                             
   Description                                                                                      
     l       E           TYP  RCUT    TYP  RCUT                                                     
     0    -13.7508458     23  1.200                                                                 
     0     -8.2022199     23  1.200                                                                 
     1     -5.2854383     23  1.500                                                                 
     1     34.0145650     23  1.500                                                                 
     2     -5.4423304      7  1.500                                                                 
  local pseudopotential read in
  partial core-charges read in
  partial kinetic energy density read in
  atomic valenz-charges read in
  non local Contribution for L=            0  read in
    real space projection operators read in
  non local Contribution for L=            0  read in
    real space projection operators read in
  non local Contribution for L=            1  read in
    real space projection operators read in
  non local Contribution for L=            1  read in
    real space projection operators read in
    PAW grid and wavefunctions read in
 
   number of l-projection  operators is LMAX  =            4
   number of lm-projection operators is LMMAX =            8
 
 Optimization of the real space projectors (new method)

 maximal supplied QI-value         = 25.13
 optimisation between [QCUT,QGAM] = [ 11.31, 22.87] = [ 35.82,146.48] Ry 
 Optimized for a Real-space Cutoff    1.03 Angstroem

   l    n(q)    QCUT    max X(q) W(low)/X(q) W(high)/X(q)  e(spline) 
   0      7    11.310   115.676    0.20E-03    0.90E-03    0.20E-06
   0      7    11.310    87.132    0.20E-03    0.89E-03    0.19E-06
   1      6    11.310     4.429    0.16E-03    0.28E-03    0.12E-06
   1      6    11.310     2.733    0.12E-03    0.21E-03    0.99E-07
  PAW_PBE C 08Apr2002                   :
 energy of atom  1       EATOM= -147.1560
 kinetic energy error for atom=    0.0076 (will be added to EATOM!!)
 
 
 POSCAR:  C
  positions in cartesian coordinates
  No initial velocities read in


 exchange-correlation table for PE
   RHO(1)=    0.500       N(1)  =     2000
   RHO(2)=  100.500       N(2)  =     4000
 


--------------------------------------------------------------------------------------------------------


 ion  position               nearest neighbor table
   1  0.549  0.833  0.516-   3 1.40   2 1.42  45 1.46  46 2.02
   2  0.551  0.004  0.524-   4 1.41   1 1.42  46 1.43  45 2.04
   3  0.593  0.750  0.517-  50 1.36   1 1.40   5 1.41
   4  0.595  0.081  0.518-   6 1.38  49 1.40   2 1.41
   5  0.637  0.834  0.519-   6 1.37   7 1.38   3 1.41
   6  0.639  0.004  0.519-   5 1.37   4 1.38   8 1.40
   7  0.682  0.764  0.521-   5 1.38   9 1.40  54 1.41
   8  0.683  0.088  0.522-  10 1.38  53 1.40   6 1.40
   9  0.725  0.844  0.528-  10 1.33   7 1.40  11 1.42
  10  0.725  0.008  0.529-   9 1.33   8 1.38  12 1.46
  11  0.770  0.760  0.532-  58 1.35  13 1.37   9 1.42
  12  0.771  0.094  0.525-  57 1.39  14 1.40  10 1.46
  13  0.811  0.843  0.540-  11 1.37  15 1.39  14 1.39
  14  0.814  0.014  0.535-  13 1.39  16 1.40  12 1.40
  15  0.853  0.762  0.548-  62 1.38  13 1.39  17 1.41
  16  0.856  0.095  0.544-  61 1.35  14 1.40  18 1.46
  17  0.895  0.839  0.562-  18 1.40  15 1.41  19 1.44
  18  0.898  0.011  0.560-  20 1.37  17 1.40  16 1.46
  19  0.939  0.754  0.572-  66 1.38  21 1.43  17 1.44
  20  0.941  0.087  0.568-  18 1.37  65 1.37  22 1.43
  21  0.982  0.841  0.581-  22 1.36  19 1.43  23 1.44
  22  0.981  0.008  0.586-  21 1.36  24 1.41  20 1.43
  23  0.028  0.765  0.584-  70 1.42  25 1.42  21 1.44
  24  0.025  0.087  0.592-  69 1.38  26 1.39  22 1.41
  25  0.070  0.841  0.599-  27 1.36  26 1.37  23 1.42
  26  0.068  0.009  0.602-  25 1.37  24 1.39  28 1.43
  27  0.112  0.758  0.603-  25 1.36  74 1.37  29 1.42
  28  0.112  0.089  0.610-  73 1.38  30 1.40  26 1.43
  29  0.157  0.839  0.604-  30 1.39  31 1.42  27 1.42
  30  0.156  0.008  0.611-  29 1.39  28 1.40  32 1.43
  31  0.202  0.763  0.598-  33 1.38  78 1.41  29 1.42
  32  0.201  0.088  0.606-  77 1.35  30 1.43  34 1.45
  33  0.245  0.838  0.588-  34 1.37  31 1.38  35 1.44
  34  0.245  0.004  0.595-  33 1.37  36 1.39  32 1.45
  35  0.286  0.754  0.574-  37 1.41  82 1.43  33 1.44
  36  0.288  0.084  0.587-  81 1.38  34 1.39  38 1.45
  37  0.330  0.834  0.568-  38 1.36  35 1.41  39 1.44
  38  0.332  0.997  0.578-  37 1.36  40 1.40  36 1.45
  39  0.372  0.748  0.554-  86 1.38  41 1.38  37 1.44
  40  0.373  0.079  0.565-  85 1.38  42 1.39  38 1.40
  41  0.414  0.831  0.546-  39 1.38  42 1.41  43 1.43
  42  0.416  1.000  0.557-  40 1.39  41 1.41  44 1.44
  43  0.453  0.750  0.526-  90 1.34  41 1.43  45 1.43
  44  0.460  0.083  0.547-  89 1.36  46 1.40  42 1.44
  45  0.498  0.829  0.527-  46 1.43  43 1.43   1 1.46   2 2.04
  46  0.501  0.002  0.534-  44 1.40  45 1.43   2 1.43   1 2.02
  47  0.550  0.327  0.519-  49 1.41  48 1.43  91 1.49  92 2.07
  48  0.548  0.502  0.513-  50 1.42  47 1.43  92 1.44  91 2.01
  49  0.595  0.253  0.516-   4 1.40  47 1.41  51 1.41
  50  0.593  0.583  0.512-  52 1.36   3 1.36  48 1.42
  51  0.639  0.341  0.513-  52 1.39  53 1.40  49 1.41
  52  0.637  0.513  0.511-  50 1.36  51 1.39  54 1.40
  53  0.683  0.257  0.513-   8 1.40  51 1.40  55 1.43
  54  0.681  0.591  0.516-  52 1.40  56 1.40   7 1.41
  55  0.726  0.347  0.518-  56 1.33  57 1.40  53 1.43
  56  0.725  0.512  0.519-  55 1.33  54 1.40  58 1.41
  57  0.770  0.265  0.523-  12 1.39  55 1.40  59 1.43
  58  0.769  0.594  0.527-  11 1.35  56 1.41  60 1.43
  59  0.814  0.344  0.533-  60 1.35  57 1.43  61 1.44
  60  0.813  0.511  0.533-  59 1.35  62 1.41  58 1.43
  61  0.858  0.261  0.542-  16 1.35  63 1.41  59 1.44
  62  0.856  0.595  0.541-  15 1.38  60 1.41  64 1.42
  63  0.902  0.341  0.547-  64 1.38  61 1.41  65 1.43
  64  0.900  0.512  0.549-  63 1.38  66 1.41  62 1.42
  65  0.943  0.253  0.561-  20 1.37  63 1.43  67 1.43
  66  0.942  0.590  0.562-  19 1.38  68 1.39  64 1.41
  67  0.988  0.335  0.565-  68 1.41  69 1.42  65 1.43
  68  0.986  0.510  0.565-  66 1.39  70 1.40  67 1.41
  69  0.027  0.253  0.583-  24 1.38  71 1.38  67 1.42
  70  0.027  0.592  0.577-  68 1.40  72 1.40  23 1.42
  71  0.070  0.336  0.587-  69 1.38  72 1.42  73 1.43
  72  0.070  0.511  0.584-  70 1.40  74 1.41  71 1.42
  73  0.112  0.256  0.601-  28 1.38  75 1.39  71 1.43
  74  0.112  0.590  0.597-  27 1.37  72 1.41  76 1.42
  75  0.155  0.342  0.603-  76 1.38  73 1.39  77 1.47
  76  0.157  0.510  0.597-  75 1.38  78 1.38  74 1.42
  77  0.201  0.254  0.602-  32 1.35  79 1.43  75 1.47
  78  0.201  0.590  0.595-  76 1.38  31 1.41  80 1.43
  79  0.243  0.332  0.587-  81 1.40  80 1.40  77 1.43
  80  0.242  0.504  0.582-  79 1.40  82 1.41  78 1.43
  81  0.286  0.250  0.579-  36 1.38  83 1.39  79 1.40
  82  0.286  0.578  0.572-  84 1.36  80 1.41  35 1.43
  83  0.327  0.325  0.565-  81 1.39  84 1.40  85 1.44
  84  0.326  0.496  0.559-  82 1.36  83 1.40  86 1.44
  85  0.373  0.248  0.560-  40 1.38  87 1.44  83 1.44
  86  0.369  0.580  0.549-  39 1.38  88 1.41  84 1.44
  87  0.415  0.337  0.548-  88 1.37  89 1.43  85 1.44
  88  0.413  0.502  0.540-  87 1.37  90 1.40  86 1.41
  89  0.459  0.251  0.542-  44 1.36  91 1.37  87 1.43
  90  0.453  0.584  0.525-  43 1.34  88 1.40  92 1.40
  91  0.498  0.335  0.528-  89 1.37  92 1.41  47 1.49  48 2.01
  92  0.497  0.505  0.520-  90 1.40  91 1.41  48 1.44  47 2.07
 
  LATTYP: Found a simple orthorhombic cell.
 ALAT       =     8.1000000000
 B/A-ratio  =     3.4629629630
 C/A-ratio  =     4.1358024691
  
  Lattice vectors:
  
 A1 = (   0.0000000000,  -8.1000000000,   0.0000000000)
 A2 = (  28.0500000000,   0.0000000000,   0.0000000000)
 A3 = (   0.0000000000,   0.0000000000,  33.5000000000)


Analysis of symmetry for initial positions (statically):
=====================================================================
 Subroutine PRICEL returns:
 Original cell was already a primitive cell.
 

 Routine SETGRP: Setting up the symmetry group for a 
 simple orthorhombic supercell.


 Subroutine GETGRP returns: Found  1 space group operations
 (whereof  1 operations were pure point group operations)
 out of a pool of  8 trial point group operations.


The static configuration has the point symmetry C_1 .


Analysis of symmetry for dynamics (positions and initial velocities):
=====================================================================
 Subroutine PRICEL returns:
 Original cell was already a primitive cell.
 

 Routine SETGRP: Setting up the symmetry group for a 
 simple orthorhombic supercell.


 Subroutine GETGRP returns: Found  1 space group operations
 (whereof  1 operations were pure point group operations)
 out of a pool of  8 trial point group operations.


The dynamic configuration has the point symmetry C_1 .


 Subroutine INISYM returns: Found  1 space group operations
 (whereof  1 operations are pure point group operations),
 and found     1 'primitive' translations


----------------------------------------------------------------------------------------

                                     Primitive cell                                     

  volume of cell :    7611.3675

  direct lattice vectors                    reciprocal lattice vectors
    28.050000000  0.000000000  0.000000000     0.035650624  0.000000000  0.000000000
     0.000000000  8.100000000  0.000000000     0.000000000  0.123456790  0.000000000
     0.000000000  0.000000000 33.500000000     0.000000000  0.000000000  0.029850746

  length of vectors
    28.050000000  8.100000000 33.500000000     0.035650624  0.123456790  0.029850746

  position of ions in fractional coordinates (direct lattice)
     0.549005348  0.832749383  0.515605970
     0.550570410  0.004312000  0.523632836
     0.592723708  0.750267901  0.517023881
     0.595237077  0.080560864  0.518086567
     0.636795009  0.834465432  0.518922388
     0.639237077  0.003897235  0.518611940
     0.681729055  0.764345679  0.520549254
     0.682506239  0.088413951  0.522113433
     0.725201426  0.843762963  0.528388060
     0.725368984  0.008001123  0.528540299
     0.769568627  0.759583951  0.532208955
     0.770948307  0.094247407  0.525265672
     0.810855615  0.843371605  0.539722388
     0.813554367  0.014043210  0.535122388
     0.853019608  0.761760494  0.548486567
     0.856188948  0.094835062  0.544226866
     0.895023173  0.838577778  0.562256716
     0.898188948  0.011372333  0.559922388
     0.938609626  0.754217284  0.572450746
     0.940691622  0.086574198  0.567934328
     0.981893048  0.840597531  0.581391045
     0.981112299  0.007683235  0.585573134
     0.028181070  0.765196296  0.583898507
     0.025363102  0.086670370  0.591579104
     0.069932977  0.841008642  0.599307463
     0.067923708  0.009281247  0.601844776
     0.111923351  0.758333333  0.602558209
     0.112140463  0.089262716  0.609904478
     0.156950802  0.839124691  0.603600000
     0.156273797  0.007661914  0.611089552
     0.202114439  0.763228395  0.597776119
     0.201202852  0.087559259  0.606179104
     0.244672371  0.838423457  0.588044776
     0.245104456  0.004484531  0.595417910
     0.286463458  0.753900000  0.573970149
     0.287991444  0.083557901  0.586931343
     0.330262745  0.834402469  0.567647761
     0.332140107  0.996549383  0.578417910
     0.372131907  0.748164198  0.554095522
     0.373229947  0.079270864  0.565483582
     0.413989305  0.830917284  0.546158209
     0.415985740  0.999811111  0.556662687
     0.452688057  0.750046914  0.526205970
     0.459614973  0.083237778  0.546623881
     0.498484848  0.828814815  0.526573134
     0.501308378  0.001860025  0.534474627
     0.550213904  0.327320988  0.518683582
     0.547893048  0.502020988  0.512516418
     0.595443850  0.253374074  0.516032836
     0.592688057  0.583064198  0.512244776
     0.638859180  0.341138272  0.513468657
     0.636795009  0.512758025  0.511208955
     0.682595365  0.257200000  0.513408955
     0.680983957  0.591175309  0.516214925
     0.726156863  0.346946914  0.517734328
     0.725319073  0.511579012  0.519134328
     0.769853832  0.265370370  0.522582090
     0.768527629  0.594090123  0.526546269
     0.813893048  0.344348148  0.532737313
     0.812898396  0.511414815  0.533391045
     0.857889483  0.261446914  0.541573134
     0.856238859  0.594669136  0.540614925
     0.902017825  0.341338272  0.547426866
     0.899668449  0.511759259  0.549155224
     0.943023173  0.252967901  0.560940299
     0.942039216  0.589856790  0.561695522
     0.987836007  0.335448148  0.565394030
     0.985910873  0.509881481  0.564937313
     0.027269305  0.252579012  0.582847761
     0.027170624  0.592385185  0.577173134
     0.069828877  0.335525926  0.586955224
     0.070243137  0.510914815  0.584426866
     0.112154724  0.255809877  0.600561194
     0.112322638  0.590227160  0.596928358
     0.155113725  0.341504938  0.602871642
     0.157189661  0.510162963  0.597343284
     0.201045276  0.253839506  0.602414925
     0.200811765  0.589745679  0.595477612
     0.242835651  0.331822222  0.586617910
     0.242469875  0.504116049  0.582426866
     0.286041711  0.250390123  0.579343284
     0.286126203  0.577985185  0.572107463
     0.327278788  0.325311111  0.565191045
     0.325544742  0.495976543  0.558874627
     0.372934046  0.247638272  0.559680597
     0.369226381  0.579665432  0.549044776
     0.415033868  0.336819753  0.548059701
     0.412930481  0.501750617  0.539564179
     0.459080214  0.250530864  0.541814925
     0.453365419  0.584371605  0.525394030
     0.498185383  0.334595062  0.528113433
     0.497294118  0.505132099  0.519743284

  ion indices of the primitive-cell ions
   primitive index   ion index
                 1           1
                 2           2
                 3           3
                 4           4
                 5           5
                 6           6
                 7           7
                 8           8
                 9           9
                10          10
                11          11
                12          12
                13          13
                14          14
                15          15
                16          16
                17          17
                18          18
                19          19
                20          20
                21          21
                22          22
                23          23
                24          24
                25          25
                26          26
                27          27
                28          28
                29          29
                30          30
                31          31
                32          32
                33          33
                34          34
                35          35
                36          36
                37          37
                38          38
                39          39
                40          40
                41          41
                42          42
                43          43
                44          44
                45          45
                46          46
                47          47
                48          48
                49          49
                50          50
                51          51
                52          52
                53          53
                54          54
                55          55
                56          56
                57          57
                58          58
                59          59
                60          60
                61          61
                62          62
                63          63
                64          64
                65          65
                66          66
                67          67
                68          68
                69          69
                70          70
                71          71
                72          72
                73          73
                74          74
                75          75
                76          76
                77          77
                78          78
                79          79
                80          80
                81          81
                82          82
                83          83
                84          84
                85          85
                86          86
                87          87
                88          88
                89          89
                90          90
                91          91
                92          92

----------------------------------------------------------------------------------------

 
 
 KPOINTS: K-Spacing Value to Generate K-Mesh: 0.03

Automatic generation of k-mesh.
 Grid dimensions read from file:
 generate k-points for:    1    4    1

 Generating k-lattice:

  Cartesian coordinates                     Fractional coordinates (reciprocal lattice)
     0.035650624  0.000000000  0.000000000     1.000000000  0.000000000  0.000000000
     0.000000000  0.030864198  0.000000000     0.000000000  0.250000000  0.000000000
     0.000000000  0.000000000  0.029850746     0.000000000  0.000000000  1.000000000

  Length of vectors
     0.035650624  0.030864198  0.029850746

  Shift w.r.t. Gamma in fractional coordinates (k-lattice)
     0.000000000  0.000000000  0.000000000

 
 Subroutine IBZKPT returns following result:
 ===========================================
 
 Found      3 irreducible k-points:
 
 Following reciprocal coordinates:
            Coordinates               Weight
  0.000000  0.000000  0.000000      1.000000
  0.000000  0.250000  0.000000      2.000000
  0.000000  0.500000  0.000000      1.000000
 
 Following cartesian coordinates:
            Coordinates               Weight
  0.000000  0.000000  0.000000      1.000000
  0.000000  0.030864  0.000000      2.000000
  0.000000  0.061728  0.000000      1.000000
 


--------------------------------------------------------------------------------------------------------




 Dimension of arrays:
   k-points           NKPTS =      3   k-points in BZ     NKDIM =      3   number of bands    NBANDS=    232
   number of dos      NEDOS =    301   number of ions     NIONS =     92
   non local maximal  LDIM  =      4   non local SUM 2l+1 LMDIM =      8
   total plane-waves  NPLWV = ******
   max r-space proj   IRMAX =   1967   max aug-charges    IRDMAX=   5083
   dimension x,y,z NGX =   210 NGY =   60 NGZ =  250
   dimension x,y,z NGXF=   420 NGYF=  120 NGZF=  500
   support grid    NGXF=   420 NGYF=  120 NGZF=  500
   ions per type =              92
   NGX,Y,Z   is equivalent  to a cutoff of  12.45, 12.31, 12.41 a.u.
   NGXF,Y,Z  is equivalent  to a cutoff of  24.89, 24.63, 24.81 a.u.

 SYSTEM =  unknown system                          
 POSCAR =   C                                      

 Startparameter for this run:
   NWRITE =      2    write-flag & timer
   PREC   = accura    normal or accurate (medium, high low for compatibility)
   ISTART =      0    job   : 0-new  1-cont  2-samecut
   ICHARG =      2    charge: 1-file 2-atom 10-const
   ISPIN  =      1    spin polarized calculation?
   LNONCOLLINEAR =      F non collinear calculations
   LSORBIT =      F    spin-orbit coupling
   INIWAV =      1    electr: 0-lowe 1-rand  2-diag
   LASPH  =      F    aspherical Exc in radial PAW
 Electronic Relaxation 1
   ENCUT  =  500.0 eV  36.75 Ry    6.06 a.u.  51.14 14.77 61.08*2*pi/ulx,y,z
   ENINI  =  500.0     initial cutoff
   ENAUG  =  644.9 eV  augmentation charge cutoff
   NELM   =    150;   NELMIN=  2; NELMDL= -5     # of ELM steps 
   EDIFF  = 0.1E-05   stopping-criterion for ELM
   LREAL  =      T    real-space projection
   NLSPLINE    = F    spline interpolate recip. space projectors
   LCOMPAT=      F    compatible to vasp.4.4
   GGA_COMPAT  = T    GGA compatible to vasp.4.4-vasp.4.6
   LMAXPAW     = -100 max onsite density
   LMAXMIX     =    2 max onsite mixed and CHGCAR
   VOSKOWN=      0    Vosko Wilk Nusair interpolation
   ROPT   =   -0.00025
 Ionic relaxation
   EDIFFG = 0.1E-04   stopping-criterion for IOM
   NSW    =      0    number of steps for IOM
   NBLOCK =      1;   KBLOCK =      1    inner block; outer block 
   IBRION =     -1    ionic relax: 0-MD 1-quasi-New 2-CG
   NFREE  =      0    steps in history (QN), initial steepest desc. (CG)
   ISIF   =      2    stress and relaxation
   IWAVPR =     10    prediction:  0-non 1-charg 2-wave 3-comb
   ISYM   =      2    0-nonsym 1-usesym 2-fastsym
   LCORR  =      T    Harris-Foulkes like correction to forces

   POTIM  = 0.5000    time-step for ionic-motion
   TEIN   =    0.0    initial temperature
   TEBEG  =    0.0;   TEEND  =   0.0 temperature during run
   SMASS  =  -3.00    Nose mass-parameter (am)
   estimated Nose-frequenzy (Omega)   =  0.10E-29 period in steps = 0.13E+47 mass=  -0.180E-25a.u.
   SCALEE = 1.0000    scale energy and forces
   NPACO  =    256;   APACO  = 10.0  distance and # of slots for P.C.
   PSTRESS=    0.0 pullay stress

  Mass of Ions in am
   POMASS =  12.01
  Ionic Valenz
   ZVAL   =   4.00
  Atomic Wigner-Seitz radii
   RWIGS  =  -1.00
  virtual crystal weights 
   VCA    =   1.00
   NELECT =     368.0000    total number of electrons
   NUPDOWN=      -1.0000    fix difference up-down

 DOS related values:
   EMIN   =  10.00;   EMAX   =-10.00  energy-range for DOS
   EFERMI =   0.00;   METHOD = LEGACY      
   ISMEAR =     0;   SIGMA  =   0.20  broadening in eV -4-tet -1-fermi 0-gaus
   EFERMI_NEDOS =   21; number of points for ismear=-14 and -15

 Electronic relaxation 2 (details)
   IALGO  =     38    algorithm
   LDIAG  =      T    sub-space diagonalisation (order eigenvalues)
   LSUBROT=      F    optimize rotation matrix (better conditioning)
   TURBO    =      0    0=normal 1=particle mesh
   IRESTART =      0    0=no restart 2=restart with 2 vectors
   NREBOOT  =      0    no. of reboots
   NMIN     =      0    reboot dimension
   EREF     =   0.00    reference energy to select bands
   IMIX   =      4    mixing-type and parameters
     AMIX     =   0.40;   BMIX     =  1.00
     AMIX_MAG =   1.60;   BMIX_MAG =  1.00
     AMIN     =   0.10
     WC   =   100.;   INIMIX=   1;  MIXPRE=   1;  MAXMIX= -45

 Intra band minimization:
   WEIMIN = 0.0000     energy-eigenvalue tresh-hold
   EBREAK =  0.11E-08  absolut break condition
   DEPER  =   0.30     relativ break condition  

   TIME   =   0.40     timestep for ELM

  volume/ion in A,a.u.               =      82.73       558.30
  Fermi-wavevector in a.u.,A,eV,Ry     =   0.596398  1.127030  4.839472  0.355691
  Thomas-Fermi vector in A             =   1.646729
 
 Write flags
   LWAVE        =      F    write WAVECAR
   LDOWNSAMPLE  =      F    k-point downsampling of WAVECAR
   LCHARG       =      F    write CHGCAR
   LVTOT        =      F    write LOCPOT, total local potential
   LVHAR        =      F    write LOCPOT, Hartree potential only
   WRT_POTENTIAL= false  ! write potential to hdf5 file
   LELF         =      F    write electronic localiz. function (ELF)
   LORBIT       =      0    0 simple, 1 ext, 2 COOP (PROOUT), +10 PAW based schemes


 Python interface
   PLUGINS active      =      F    recompile with -DPLUGINS to activate
 
 Dipole corrections
   LMONO      =      F    monopole corrections only (constant potential shift)
   LDIPOL     =      F    correct potential (dipole corrections)
   IDIPOL     =      0    1-x, 2-y, 3-z, 4-all directions 
   EPSILON    =  1.0000000 bulk dielectric constant
   LVACPOTAV  =      F  vacuum potentials using an averaging scheme for the charge density
   VACPOTFLAT =  0.1000000 required flatness to determine vacuum potential
 
Coulomb truncation method
  LTRUNCATE          =      F  Coulomb kernel truncation to be used
  IDIMENSIONALITY    =      3  Dimensionality of cutoff (0 molecules / 2 surfaces)
  ISURFACE           =     -1  Direction of surface normal
  LCOARSEN           =      F  Coarsen the charge grid before padding, preferred

 
 Exchange correlation treatment:
   GGA     = PE    functional components
   XC_C    = 1    coefficients multiplying the functional components
   LIBXC   =     F    Libxc                    
   VOSKOWN =     0    Vosko Wilk Nusair interpolation
   LHFCALC =     F    Hartree Fock is set to
   LHFONE  =     F    Hartree Fock one center treatment
   AEXX    =    0.0000 exact exchange contribution

 Parameters of functionals:
   PE:
     No parameter
 
 Van der Waals corrections
   IVDW    =     0    specifies the selected vdW correction

 Linear response parameters
   LEPSILON=     F    determine dielectric tensor
   LRPA    =     F    only Hartree local field effects (RPA)
   LNABLA  =     F    use nabla operator in PAW spheres
   LVEL    =     F    velocity operator in full k-point grid
   CSHIFT  =0.1000    complex shift for real part using Kramers Kronig
   OMEGAMAX=  -1.0    maximum frequency
   DEG_THRESHOLD= 0.2000000E-02 threshold for treating states as degnerate
   RTIME   =   -0.100 relaxation time in fs
  (WPLASMAI=    0.000 imaginary part of plasma frequency in eV, 0.658/RTIME)
   DFIELD  = 0.0000000 0.0000000 0.0000000 field for delta impulse in time
 
  Optional k-point grid parameters
   LKPOINTS_OPT  =     F    use optional k-point grid
   KPOINTS_OPT_MODE=     1    mode for optional k-point grid
 
 Orbital magnetization related:
   ORBITALMAG=     F  switch on orbital magnetization
   LCHIMAG   =     F  perturbation theory with respect to B field
   DQ        =  0.001000  dq finite difference perturbation B field
   LLRAUG    =     F  two centre corrections for induced B field
   LBONE     =     F  B-component reconstruction in AE one-centre
   LVGVCALC  =     T  calculate vGv susceptibility
   LVGVAPPL  =     F  apply vGv susceptibility instead of pGv for G=0

 Random number generation:
   RANDOM_GENERATOR = DEFAULT
   PCG_SEED         = not used


--------------------------------------------------------------------------------------------------------


 Static calculation
 charge density and potential will be updated during run
 non-spin polarized calculation
 Variant of blocked Davidson
 Davidson routine will perform the subspace rotation
 perform sub-space diagonalisation
    after iterative eigenvector-optimisation
 modified Broyden-mixing scheme, WC =      100.0
 initial mixing is a Kerker type mixing with AMIX =  0.4000 and BMIX =      1.0000
 Hartree-type preconditioning will be used
 using additional bands            48
 real space projection scheme for non local part
 use partial core corrections
 calculate Harris-corrections to forces 
   (improved forces if not selfconsistent)
 use gradient corrections 
 use of overlap-Matrix (Vanderbilt PP)
 Gauss-broadening in eV      SIGMA  =   0.20


--------------------------------------------------------------------------------------------------------


  energy-cutoff  :      500.00
  volume of cell :     7611.37
      direct lattice vectors                 reciprocal lattice vectors
    28.050000000  0.000000000  0.000000000     0.035650624  0.000000000  0.000000000
     0.000000000  8.100000000  0.000000000     0.000000000  0.123456790  0.000000000
     0.000000000  0.000000000 33.500000000     0.000000000  0.000000000  0.029850746

  length of vectors
    28.050000000  8.100000000 33.500000000     0.035650624  0.123456790  0.029850746


 
 k-points in units of 2pi/SCALE and weight: K-Spacing Value to Generate K-Mesh: 0.03
   0.00000000  0.00000000  0.00000000       0.250
   0.00000000  0.03086420  0.00000000       0.500
   0.00000000  0.06172840  0.00000000       0.250
 
 k-points in reciprocal lattice and weights: K-Spacing Value to Generate K-Mesh: 0.03
   0.00000000  0.00000000  0.00000000       0.250
   0.00000000  0.25000000  0.00000000       0.500
   0.00000000  0.50000000  0.00000000       0.250
 
 position of ions in fractional coordinates (direct lattice) 
   0.54900535  0.83274938  0.51560597
   0.55057041  0.00431200  0.52363284
   0.59272371  0.75026790  0.51702388
   0.59523708  0.08056086  0.51808657
   0.63679501  0.83446543  0.51892239
   0.63923708  0.00389723  0.51861194
   0.68172906  0.76434568  0.52054925
   0.68250624  0.08841395  0.52211343
   0.72520143  0.84376296  0.52838806
   0.72536898  0.00800112  0.52854030
   0.76956863  0.75958395  0.53220896
   0.77094831  0.09424741  0.52526567
   0.81085561  0.84337160  0.53972239
   0.81355437  0.01404321  0.53512239
   0.85301961  0.76176049  0.54848657
   0.85618895  0.09483506  0.54422687
   0.89502317  0.83857778  0.56225672
   0.89818895  0.01137233  0.55992239
   0.93860963  0.75421728  0.57245075
   0.94069162  0.08657420  0.56793433
   0.98189305  0.84059753  0.58139104
   0.98111230  0.00768323  0.58557313
   0.02818107  0.76519630  0.58389851
   0.02536310  0.08667037  0.59157910
   0.06993298  0.84100864  0.59930746
   0.06792371  0.00928125  0.60184478
   0.11192335  0.75833333  0.60255821
   0.11214046  0.08926272  0.60990448
   0.15695080  0.83912469  0.60360000
   0.15627380  0.00766191  0.61108955
   0.20211444  0.76322840  0.59777612
   0.20120285  0.08755926  0.60617910
   0.24467237  0.83842346  0.58804478
   0.24510446  0.00448453  0.59541791
   0.28646346  0.75390000  0.57397015
   0.28799144  0.08355790  0.58693134
   0.33026275  0.83440247  0.56764776
   0.33214011  0.99654938  0.57841791
   0.37213191  0.74816420  0.55409552
   0.37322995  0.07927086  0.56548358
   0.41398930  0.83091728  0.54615821
   0.41598574  0.99981111  0.55666269
   0.45268806  0.75004691  0.52620597
   0.45961497  0.08323778  0.54662388
   0.49848485  0.82881481  0.52657313
   0.50130838  0.00186002  0.53447463
   0.55021390  0.32732099  0.51868358
   0.54789305  0.50202099  0.51251642
   0.59544385  0.25337407  0.51603284
   0.59268806  0.58306420  0.51224478
   0.63885918  0.34113827  0.51346866
   0.63679501  0.51275802  0.51120896
   0.68259537  0.25720000  0.51340896
   0.68098396  0.59117531  0.51621493
   0.72615686  0.34694691  0.51773433
   0.72531907  0.51157901  0.51913433
   0.76985383  0.26537037  0.52258209
   0.76852763  0.59409012  0.52654627
   0.81389305  0.34434815  0.53273731
   0.81289840  0.51141481  0.53339104
   0.85788948  0.26144691  0.54157313
   0.85623886  0.59466914  0.54061493
   0.90201783  0.34133827  0.54742687
   0.89966845  0.51175926  0.54915522
   0.94302317  0.25296790  0.56094030
   0.94203922  0.58985679  0.56169552
   0.98783601  0.33544815  0.56539403
   0.98591087  0.50988148  0.56493731
   0.02726930  0.25257901  0.58284776
   0.02717062  0.59238519  0.57717313
   0.06982888  0.33552593  0.58695522
   0.07024314  0.51091481  0.58442687
   0.11215472  0.25580988  0.60056119
   0.11232264  0.59022716  0.59692836
   0.15511373  0.34150494  0.60287164
   0.15718966  0.51016296  0.59734328
   0.20104528  0.25383951  0.60241493
   0.20081176  0.58974568  0.59547761
   0.24283565  0.33182222  0.58661791
   0.24246988  0.50411605  0.58242687
   0.28604171  0.25039012  0.57934328
   0.28612620  0.57798519  0.57210746
   0.32727879  0.32531111  0.56519104
   0.32554474  0.49597654  0.55887463
   0.37293405  0.24763827  0.55968060
   0.36922638  0.57966543  0.54904478
   0.41503387  0.33681975  0.54805970
   0.41293048  0.50175062  0.53956418
   0.45908021  0.25053086  0.54181493
   0.45336542  0.58437160  0.52539403
   0.49818538  0.33459506  0.52811343
   0.49729412  0.50513210  0.51974328
 
 position of ions in cartesian coordinates  (Angst):
  15.39960000  6.74527000 17.27280000
  15.44350000  0.03492720 17.54170000
  16.62590000  6.07717000 17.32030000
  16.69640000  0.65254300 17.35590000
  17.86210000  6.75917000 17.38390000
  17.93060000  0.03156760 17.37350000
  19.12250000  6.19120000 17.43840000
  19.14430000  0.71615300 17.49080000
  20.34190000  6.83448000 17.70100000
  20.34660000  0.06480910 17.70610000
  21.58640000  6.15263000 17.82900000
  21.62510000  0.76340400 17.59640000
  22.74450000  6.83131000 18.08070000
  22.82020000  0.11375000 17.92660000
  23.92720000  6.17026000 18.37430000
  24.01610000  0.76816400 18.23160000
  25.10540000  6.79248000 18.83560000
  25.19420000  0.09211590 18.75740000
  26.32800000  6.10916000 19.17710000
  26.38640000  0.70125100 19.02580000
  27.54210000  6.80884000 19.47660000
  27.52020000  0.06223420 19.61670000
   0.79047900  6.19809000 19.56060000
   0.71143500  0.70203000 19.81790000
   1.96162000  6.81217000 20.07680000
   1.90526000  0.07517810 20.16180000
   3.13945000  6.14250000 20.18570000
   3.14554000  0.72302800 20.43180000
   4.40247000  6.79691000 20.22060000
   4.38348000  0.06206150 20.47150000
   5.66931000  6.18215000 20.02550000
   5.64374000  0.70923000 20.30700000
   6.86306000  6.79123000 19.69950000
   6.87518000  0.03632470 19.94650000
   8.03530000  6.10659000 19.22800000
   8.07816000  0.67681900 19.66220000
   9.26387000  6.75866000 19.01620000
   9.31653000  8.07205000 19.37700000
  10.43830000  6.06013000 18.56220000
  10.46910000  0.64209400 18.94370000
  11.61240000  6.73043000 18.29630000
  11.66840000  8.09847000 18.64820000
  12.69790000  6.07538000 17.62790000
  12.89220000  0.67422600 18.31190000
  13.98250000  6.71340000 17.64020000
  14.06170000  0.01506620 17.90490000
  15.43350000  2.65130000 17.37590000
  15.36840000  4.06637000 17.16930000
  16.70220000  2.05233000 17.28710000
  16.62490000  4.72282000 17.16020000
  17.92000000  2.76322000 17.20120000
  17.86210000  4.15334000 17.12550000
  19.14680000  2.08332000 17.19920000
  19.10160000  4.78852000 17.29320000
  20.36870000  2.81027000 17.34410000
  20.34520000  4.14379000 17.39100000
  21.59440000  2.14950000 17.50650000
  21.55720000  4.81213000 17.63930000
  22.82970000  2.78922000 17.84670000
  22.80180000  4.14246000 17.86860000
  24.06380000  2.11772000 18.14270000
  24.01750000  4.81682000 18.11060000
  25.30160000  2.76484000 18.33880000
  25.23570000  4.14525000 18.39670000
  26.45180000  2.04904000 18.79150000
  26.42420000  4.77784000 18.81680000
  27.70880000  2.71713000 18.94070000
  27.65480000  4.13004000 18.92540000
   0.76490400  2.04589000 19.52540000
   0.76213600  4.79832000 19.33530000
   1.95870000  2.71776000 19.66300000
   1.97032000  4.13841000 19.57830000
   3.14594000  2.07206000 20.11880000
   3.15065000  4.78084000 19.99710000
   4.35094000  2.76619000 20.19620000
   4.40917000  4.13232000 20.01100000
   5.63932000  2.05610000 20.18090000
   5.63277000  4.77694000 19.94850000
   6.81154000  2.68776000 19.65170000
   6.80128000  4.08334000 19.51130000
   8.02347000  2.02816000 19.40800000
   8.02584000  4.68168000 19.16560000
   9.18017000  2.63502000 18.93390000
   9.13153000  4.01741000 18.72230000
  10.46080000  2.00587000 18.74930000
  10.35680000  4.69529000 18.39300000
  11.64170000  2.72824000 18.36000000
  11.58270000  4.06418000 18.07540000
  12.87720000  2.02930000 18.15080000
  12.71690000  4.73341000 17.60070000
  13.97410000  2.71022000 17.69180000
  13.94910000  4.09157000 17.41140000
 


--------------------------------------------------------------------------------------------------------


 k-point     1 :   0.0000 0.0000 0.0000  plane waves:  193173
 k-point     2 :   0.0000 0.2500 0.0000  plane waves:  193166
 k-point     3 :   0.0000 0.5000 0.0000  plane waves:  193226

 maximum and minimum number of plane-waves per node :    193226   193166

 maximum number of plane-waves:    193226
 maximum index in each direction: 
   IXMAX=   51   IYMAX=   14   IZMAX=   61
   IXMIN=  -51   IYMIN=  -15   IZMIN=  -61


 serial   3D FFT for wavefunctions
 parallel 3D FFT for charge:
    minimum data exchange during FFTs selected (reduces bandwidth)


 total amount of memory used by VASP MPI-rank0  2294509. kBytes
=======================================================================

   base                                    :      30000. kBytes
   nonlr-proj                              :      15075. kBytes
   fftplans                                :     436558. kBytes
   grid                                    :     732614. kBytes
   one-center                              :        282. kBytes
   wavefun                                 :    1079980. kBytes
 
     INWAV:  cpu time      0.0000: real time      0.0000
 Broyden mixing: mesh for mixing (old mesh)
   NGX =103   NGY = 29   NGZ =123
  (NGX  =420   NGY  =120   NGZ  =500)
  gives a total of 367401 points

 initial charge density was supplied:
 charge density of overlapping atoms calculated
 number of electron     368.0000000 magnetization 
 keeping initial charge density in first step


--------------------------------------------------------------------------------------------------------


 Maximum index for non-local projection operator          1873
 Maximum index for augmentation-charges          2384 (set IRDMAX)


--------------------------------------------------------------------------------------------------------


 First call to EWALD:  gamma=   0.090
 Maximum number of real-space cells   2x   6x   2
 Maximum number of reciprocal cells   4x   1x   4

    FEWALD:  cpu time      0.1649: real time      0.1649


--------------------------------------- Ionic step        1  -------------------------------------------




--------------------------------------- Iteration      1(   1)  ---------------------------------------


    POTLOK:  cpu time      0.4210: real time      0.4503
    SETDIJ:  cpu time      0.0441: real time      0.0441
     EDDAV:  cpu time     11.1565: real time     11.1669
       DOS:  cpu time      0.0008: real time      0.0008
    --------------------------------------------
      LOOP:  cpu time     11.6224: real time     11.6622

 eigenvalue-minimisations  :  1728
 total energy-change (2. order) : 0.3633798E+04  (-0.1198473E+05)
 number of electron     368.0000000 magnetization 
 augmentation part      368.0000000 magnetization 

 Free energy of the ion-electron system (eV)
  ---------------------------------------------------
  alpha Z        PSCENC =        91.34886789
  Ewald energy   TEWEN  =    120398.39425707
  -Hartree energ DENC   =   -129715.34712035
  -exchange      EXHF   =         0.00000000
  -V(xc)+E(xc)   XCENC  =      1222.25225236
  PAW double counting   =      9984.02826696   -10036.41360137
  entropy T*S    EENTRO =        -0.85292979
  eigenvalues    EBANDS =     -1847.26699726
  atomic energy  EATOM  =     13537.65479391
  Solvation  Ediel_sol  =         0.00000000
  ---------------------------------------------------
  free energy    TOTEN  =      3633.79778943 eV

  energy without entropy =     3634.65071922  energy(sigma->0) =     3634.22425432


--------------------------------------------------------------------------------------------------------




--------------------------------------- Iteration      1(   2)  ---------------------------------------


     EDDAV:  cpu time     13.0679: real time     13.0760
       DOS:  cpu time      0.0007: real time      0.0007
    --------------------------------------------
      LOOP:  cpu time     13.0686: real time     13.0767

 eigenvalue-minimisations  :  2128
 total energy-change (2. order) :-0.3461654E+04  (-0.3200731E+04)
 number of electron     368.0000000 magnetization 
 augmentation part      368.0000000 magnetization 

 Free energy of the ion-electron system (eV)
  ---------------------------------------------------
  alpha Z        PSCENC =        91.34886789
  Ewald energy   TEWEN  =    120398.39425707
  -Hartree energ DENC   =   -129715.34712035
  -exchange      EXHF   =         0.00000000
  -V(xc)+E(xc)   XCENC  =      1222.25225236
  PAW double counting   =      9984.02826696   -10036.41360137
  entropy T*S    EENTRO =        -0.17739581
  eigenvalues    EBANDS =     -5309.59665483
  atomic energy  EATOM  =     13537.65479391
  Solvation  Ediel_sol  =         0.00000000
  ---------------------------------------------------
  free energy    TOTEN  =       172.14366584 eV

  energy without entropy =      172.32106165  energy(sigma->0) =      172.23236374


--------------------------------------------------------------------------------------------------------




--------------------------------------- Iteration      1(   3)  ---------------------------------------


     EDDAV:  cpu time     11.3177: real time     11.3218
       DOS:  cpu time      0.0007: real time      0.0007
    --------------------------------------------
      LOOP:  cpu time     11.3184: real time     11.3225

 eigenvalue-minimisations  :  1792
 total energy-change (2. order) :-0.1007017E+04  (-0.9843758E+03)
 number of electron     368.0000000 magnetization 
 augmentation part      368.0000000 magnetization 

 Free energy of the ion-electron system (eV)
  ---------------------------------------------------
  alpha Z        PSCENC =        91.34886789
  Ewald energy   TEWEN  =    120398.39425707
  -Hartree energ DENC   =   -129715.34712035
  -exchange      EXHF   =         0.00000000
  -V(xc)+E(xc)   XCENC  =      1222.25225236
  PAW double counting   =      9984.02826696   -10036.41360137
  entropy T*S    EENTRO =        -0.04113559
  eigenvalues    EBANDS =     -6316.75031079
  atomic energy  EATOM  =     13537.65479391
  Solvation  Ediel_sol  =         0.00000000
  ---------------------------------------------------
  free energy    TOTEN  =      -834.87372990 eV

  energy without entropy =     -834.83259431  energy(sigma->0) =     -834.85316211


--------------------------------------------------------------------------------------------------------




--------------------------------------- Iteration      1(   4)  ---------------------------------------


     EDDAV:  cpu time     10.8589: real time     10.8628
       DOS:  cpu time      0.0007: real time      0.0007
    --------------------------------------------
      LOOP:  cpu time     10.8596: real time     10.8634

 eigenvalue-minimisations  :  1704
 total energy-change (2. order) :-0.6125444E+02  (-0.6025292E+02)
 number of electron     368.0000000 magnetization 
 augmentation part      368.0000000 magnetization 

 Free energy of the ion-electron system (eV)
  ---------------------------------------------------
  alpha Z        PSCENC =        91.34886789
  Ewald energy   TEWEN  =    120398.39425707
  -Hartree energ DENC   =   -129715.34712035
  -exchange      EXHF   =         0.00000000
  -V(xc)+E(xc)   XCENC  =      1222.25225236
  PAW double counting   =      9984.02826696   -10036.41360137
  entropy T*S    EENTRO =        -0.06406974
  eigenvalues    EBANDS =     -6377.98181320
  atomic energy  EATOM  =     13537.65479391
  Solvation  Ediel_sol  =         0.00000000
  ---------------------------------------------------
  free energy    TOTEN  =      -896.12816647 eV

  energy without entropy =     -896.06409673  energy(sigma->0) =     -896.09613160


--------------------------------------------------------------------------------------------------------




--------------------------------------- Iteration      1(   5)  ---------------------------------------


     EDDAV:  cpu time     11.2392: real time     11.2433
       DOS:  cpu time      0.0007: real time      0.0007
    CHARGE:  cpu time      1.2148: real time      1.2176
    MIXING:  cpu time      0.2749: real time      0.2753
    --------------------------------------------
      LOOP:  cpu time     12.7296: real time     12.7370

 eigenvalue-minimisations  :  1784
 total energy-change (2. order) :-0.1530177E+01  (-0.1508010E+01)
 number of electron     367.9999998 magnetization 
 augmentation part       10.1752438 magnetization 

 Broyden mixing:
  rms(total) = 0.45590E+01    rms(broyden)= 0.45584E+01
  rms(prec ) = 0.46767E+01
  weight for this iteration     100.00

 Free energy of the ion-electron system (eV)
  ---------------------------------------------------
  alpha Z        PSCENC =        91.34886789
  Ewald energy   TEWEN  =    120398.39425707
  -Hartree energ DENC   =   -129715.34712035
  -exchange      EXHF   =         0.00000000
  -V(xc)+E(xc)   XCENC  =      1222.25225236
  PAW double counting   =      9984.02826696   -10036.41360137
  entropy T*S    EENTRO =        -0.06511131
  eigenvalues    EBANDS =     -6379.51094835
  atomic energy  EATOM  =     13537.65479391
  Solvation  Ediel_sol  =         0.00000000
  ---------------------------------------------------
  free energy    TOTEN  =      -897.65834319 eV

  energy without entropy =     -897.59323187  energy(sigma->0) =     -897.62578753


--------------------------------------------------------------------------------------------------------




--------------------------------------- Iteration      1(   6)  ---------------------------------------


    POTLOK:  cpu time      0.3221: real time      0.3221
    SETDIJ:  cpu time      0.0406: real time      0.0406
     EDDAV:  cpu time     10.3012: real time     10.3050
       DOS:  cpu time      0.0007: real time      0.0007
    CHARGE:  cpu time      1.1673: real time      1.1703
    MIXING:  cpu time      0.2768: real time      0.2779
    --------------------------------------------
      LOOP:  cpu time     12.1087: real time     12.1165

 eigenvalue-minimisations  :  1592
 total energy-change (2. order) : 0.4980561E+02  (-0.4749427E+01)
 number of electron     367.9999998 magnetization 
 augmentation part        9.7483054 magnetization 

 Broyden mixing:
  rms(total) = 0.26777E+01    rms(broyden)= 0.26777E+01
  rms(prec ) = 0.27360E+01
  weight for this iteration     100.00

 eigenvalues of (default mixing * dielectric matrix)
  average eigenvalue GAMMA=   2.1797
  2.1797

 Free energy of the ion-electron system (eV)
  ---------------------------------------------------
  alpha Z        PSCENC =        91.34886789
  Ewald energy   TEWEN  =    120398.39425707
  -Hartree energ DENC   =   -130288.15138242
  -exchange      EXHF   =         0.00000000
  -V(xc)+E(xc)   XCENC  =      1245.60703088
  PAW double counting   =     18976.73155378   -19036.76746272
  entropy T*S    EENTRO =        -0.08299911
  eigenvalues    EBANDS =     -5772.58739577
  atomic energy  EATOM  =     13537.65479391
  Solvation  Ediel_sol  =         0.00000000
  ---------------------------------------------------
  free energy    TOTEN  =      -847.85273650 eV

  energy without entropy =     -847.76973738  energy(sigma->0) =     -847.81123694


--------------------------------------------------------------------------------------------------------




--------------------------------------- Iteration      1(   7)  ---------------------------------------


    POTLOK:  cpu time      0.3192: real time      0.3193
    SETDIJ:  cpu time      0.0405: real time      0.0405
     EDDAV:  cpu time     10.0931: real time     10.0967
       DOS:  cpu time      0.0007: real time      0.0007
    CHARGE:  cpu time      1.1653: real time      1.1654
    MIXING:  cpu time      0.2787: real time      0.2797
    --------------------------------------------
      LOOP:  cpu time     11.8974: real time     11.9023

 eigenvalue-minimisations  :  1552
 total energy-change (2. order) : 0.1860931E+02  (-0.6490999E+01)
 number of electron     367.9999998 magnetization 
 augmentation part        9.1935150 magnetization 

 Broyden mixing:
  rms(total) = 0.73159E+00    rms(broyden)= 0.73131E+00
  rms(prec ) = 0.74132E+00
  weight for this iteration     100.00

 eigenvalues of (default mixing * dielectric matrix)
  average eigenvalue GAMMA=   2.1496
  2.1496  2.1496

 Free energy of the ion-electron system (eV)
  ---------------------------------------------------
  alpha Z        PSCENC =        91.34886789
  Ewald energy   TEWEN  =    120398.39425707
  -Hartree energ DENC   =   -131054.80501314
  -exchange      EXHF   =         0.00000000
  -V(xc)+E(xc)   XCENC  =      1276.69292024
  PAW double counting   =     36649.73101149   -36716.69543186
  entropy T*S    EENTRO =        -0.08881443
  eigenvalues    EBANDS =     -5011.47601790
  atomic energy  EATOM  =     13537.65479391
  Solvation  Ediel_sol  =         0.00000000
  ---------------------------------------------------
  free energy    TOTEN  =      -829.24342673 eV

  energy without entropy =     -829.15461230  energy(sigma->0) =     -829.19901952


--------------------------------------------------------------------------------------------------------




--------------------------------------- Iteration      1(   8)  ---------------------------------------


    POTLOK:  cpu time      0.3216: real time      0.3216
    SETDIJ:  cpu time      0.0402: real time      0.0402
     EDDAV:  cpu time     10.2512: real time     10.2550
       DOS:  cpu time      0.0008: real time      0.0008
    CHARGE:  cpu time      1.1626: real time      1.1641
    MIXING:  cpu time      0.2811: real time      0.2816
    --------------------------------------------
      LOOP:  cpu time     12.0574: real time     12.0634

 eigenvalue-minimisations  :  1584
 total energy-change (2. order) : 0.2793819E+00  (-0.2279730E+00)
 number of electron     367.9999998 magnetization 
 augmentation part        9.1735329 magnetization 

 Broyden mixing:
  rms(total) = 0.11322E+00    rms(broyden)= 0.11319E+00
  rms(prec ) = 0.13383E+00
  weight for this iteration     100.00

 eigenvalues of (default mixing * dielectric matrix)
  average eigenvalue GAMMA=   1.8185
  1.0378  2.0260  2.3918

 Free energy of the ion-electron system (eV)
  ---------------------------------------------------
  alpha Z        PSCENC =        91.34886789
  Ewald energy   TEWEN  =    120398.39425707
  -Hartree energ DENC   =   -131149.75611124
  -exchange      EXHF   =         0.00000000
  -V(xc)+E(xc)   XCENC  =      1276.69986139
  PAW double counting   =     40777.24270969   -40841.72795732
  entropy T*S    EENTRO =        -0.08910715
  eigenvalues    EBANDS =     -4918.73135910
  atomic energy  EATOM  =     13537.65479391
  Solvation  Ediel_sol  =         0.00000000
  ---------------------------------------------------
  free energy    TOTEN  =      -828.96404487 eV

  energy without entropy =     -828.87493772  energy(sigma->0) =     -828.91949130


--------------------------------------------------------------------------------------------------------




--------------------------------------- Iteration      1(   9)  ---------------------------------------


    POTLOK:  cpu time      0.3217: real time      0.3217
    SETDIJ:  cpu time      0.0402: real time      0.0402
     EDDAV:  cpu time     10.7149: real time     10.7189
       DOS:  cpu time      0.0008: real time      0.0008
    CHARGE:  cpu time      1.1615: real time      1.1656
    MIXING:  cpu time      0.2861: real time      0.2873
    --------------------------------------------
      LOOP:  cpu time     12.5252: real time     12.5345

 eigenvalue-minimisations  :  1672
 total energy-change (2. order) : 0.1053010E+00  (-0.2105435E-01)
 number of electron     367.9999998 magnetization 
 augmentation part        9.1550505 magnetization 

 Broyden mixing:
  rms(total) = 0.56484E-01    rms(broyden)= 0.56477E-01
  rms(prec ) = 0.79222E-01
  weight for this iteration     100.00

 eigenvalues of (default mixing * dielectric matrix)
  average eigenvalue GAMMA=   1.6517
  2.2033  2.2033  0.9326  1.2676

 Free energy of the ion-electron system (eV)
  ---------------------------------------------------
  alpha Z        PSCENC =        91.34886789
  Ewald energy   TEWEN  =    120398.39425707
  -Hartree energ DENC   =   -131215.04811545
  -exchange      EXHF   =         0.00000000
  -V(xc)+E(xc)   XCENC  =      1277.82471914
  PAW double counting   =     41477.08568239   -41541.42095094
  entropy T*S    EENTRO =        -0.08738937
  eigenvalues    EBANDS =     -4854.61060853
  atomic energy  EATOM  =     13537.65479391
  Solvation  Ediel_sol  =         0.00000000
  ---------------------------------------------------
  free energy    TOTEN  =      -828.85874390 eV

  energy without entropy =     -828.77135453  energy(sigma->0) =     -828.81504921


--------------------------------------------------------------------------------------------------------




--------------------------------------- Iteration      1(  10)  ---------------------------------------


    POTLOK:  cpu time      0.3220: real time      0.3219
    SETDIJ:  cpu time      0.0403: real time      0.0403
     EDDAV:  cpu time     10.8517: real time     10.8556
       DOS:  cpu time      0.0007: real time      0.0007
    CHARGE:  cpu time      1.1632: real time      1.1651
    MIXING:  cpu time      0.2931: real time      0.2931
    --------------------------------------------
      LOOP:  cpu time     12.6711: real time     12.6768

 eigenvalue-minimisations  :  1704
 total energy-change (2. order) : 0.4030451E-01  (-0.3871498E-02)
 number of electron     367.9999998 magnetization 
 augmentation part        9.1450334 magnetization 

 Broyden mixing:
  rms(total) = 0.39047E-01    rms(broyden)= 0.39044E-01
  rms(prec ) = 0.59481E-01
  weight for this iteration     100.00

 eigenvalues of (default mixing * dielectric matrix)
  average eigenvalue GAMMA=   1.6730
  2.3801  2.3801  1.6166  1.1162  0.8719

 Free energy of the ion-electron system (eV)
  ---------------------------------------------------
  alpha Z        PSCENC =        91.34886789
  Ewald energy   TEWEN  =    120398.39425707
  -Hartree energ DENC   =   -131261.51395116
  -exchange      EXHF   =         0.00000000
  -V(xc)+E(xc)   XCENC  =      1278.25654534
  PAW double counting   =     41337.61601289   -41401.88179435
  entropy T*S    EENTRO =        -0.08751254
  eigenvalues    EBANDS =     -4808.60565843
  atomic energy  EATOM  =     13537.65479391
  Solvation  Ediel_sol  =         0.00000000
  ---------------------------------------------------
  free energy    TOTEN  =      -828.81843939 eV

  energy without entropy =     -828.73092685  energy(sigma->0) =     -828.77468312


--------------------------------------------------------------------------------------------------------




--------------------------------------- Iteration      1(  11)  ---------------------------------------


    POTLOK:  cpu time      0.3220: real time      0.3221
    SETDIJ:  cpu time      0.0401: real time      0.0401
     EDDAV:  cpu time     10.1545: real time     10.1581
       DOS:  cpu time      0.0008: real time      0.0008
    CHARGE:  cpu time      1.1758: real time      1.1771
    MIXING:  cpu time      0.2979: real time      0.2989
    --------------------------------------------
      LOOP:  cpu time     11.9911: real time     11.9971

 eigenvalue-minimisations  :  1560
 total energy-change (2. order) : 0.3583905E-01  (-0.2466656E-02)
 number of electron     367.9999998 magnetization 
 augmentation part        9.1399629 magnetization 

 Broyden mixing:
  rms(total) = 0.23708E-01    rms(broyden)= 0.23706E-01
  rms(prec ) = 0.38751E-01
  weight for this iteration     100.00

 eigenvalues of (default mixing * dielectric matrix)
  average eigenvalue GAMMA=   1.7636
  3.0188  2.5531  1.9106  0.9560  1.0716  1.0716

 Free energy of the ion-electron system (eV)
  ---------------------------------------------------
  alpha Z        PSCENC =        91.34886789
  Ewald energy   TEWEN  =    120398.39425707
  -Hartree energ DENC   =   -131330.10621340
  -exchange      EXHF   =         0.00000000
  -V(xc)+E(xc)   XCENC  =      1278.85099013
  PAW double counting   =     41253.34851352   -41317.49999905
  entropy T*S    EENTRO =        -0.08783381
  eigenvalues    EBANDS =     -4740.68597660
  atomic energy  EATOM  =     13537.65479391
  Solvation  Ediel_sol  =         0.00000000
  ---------------------------------------------------
  free energy    TOTEN  =      -828.78260034 eV

  energy without entropy =     -828.69476653  energy(sigma->0) =     -828.73868344


--------------------------------------------------------------------------------------------------------




--------------------------------------- Iteration      1(  12)  ---------------------------------------


    POTLOK:  cpu time      0.3200: real time      0.3199
    SETDIJ:  cpu time      0.0402: real time      0.0402
     EDDAV:  cpu time     10.1922: real time     10.1990
       DOS:  cpu time      0.0008: real time      0.0008
    CHARGE:  cpu time      1.1596: real time      1.1609
    MIXING:  cpu time      0.3056: real time      0.3058
    --------------------------------------------
      LOOP:  cpu time     12.0184: real time     12.0266

 eigenvalue-minimisations  :  1568
 total energy-change (2. order) : 0.6452045E-02  (-0.2370346E-02)
 number of electron     367.9999998 magnetization 
 augmentation part        9.1332330 magnetization 

 Broyden mixing:
  rms(total) = 0.15339E-01    rms(broyden)= 0.15336E-01
  rms(prec ) = 0.23627E-01
  weight for this iteration     100.00

 eigenvalues of (default mixing * dielectric matrix)
  average eigenvalue GAMMA=   1.9962
  4.5780  2.2743  2.2743  1.8262  1.0760  0.9722  0.9722

 Free energy of the ion-electron system (eV)
  ---------------------------------------------------
  alpha Z        PSCENC =        91.34886789
  Ewald energy   TEWEN  =    120398.39425707
  -Hartree energ DENC   =   -131399.59079217
  -exchange      EXHF   =         0.00000000
  -V(xc)+E(xc)   XCENC  =      1279.47593510
  PAW double counting   =     41263.70654674   -41327.81877835
  entropy T*S    EENTRO =        -0.08764655
  eigenvalues    EBANDS =     -4671.85933192
  atomic energy  EATOM  =     13537.65479391
  Solvation  Ediel_sol  =         0.00000000
  ---------------------------------------------------
  free energy    TOTEN  =      -828.77614830 eV

  energy without entropy =     -828.68850174  energy(sigma->0) =     -828.73232502


--------------------------------------------------------------------------------------------------------




--------------------------------------- Iteration      1(  13)  ---------------------------------------


    POTLOK:  cpu time      0.3198: real time      0.3198
    SETDIJ:  cpu time      0.0403: real time      0.0403
     EDDAV:  cpu time     10.0160: real time     10.0226
       DOS:  cpu time      0.0008: real time      0.0008
    CHARGE:  cpu time      1.1622: real time      1.1649
    MIXING:  cpu time      0.3122: real time      0.3133
    --------------------------------------------
      LOOP:  cpu time     11.8512: real time     11.8616

 eigenvalue-minimisations  :  1536
 total energy-change (2. order) :-0.1094376E-01  (-0.9166681E-03)
 number of electron     367.9999998 magnetization 
 augmentation part        9.1297263 magnetization 

 Broyden mixing:
  rms(total) = 0.84125E-02    rms(broyden)= 0.84100E-02
  rms(prec ) = 0.12436E-01
  weight for this iteration     100.00

 eigenvalues of (default mixing * dielectric matrix)
  average eigenvalue GAMMA=   2.0519
  5.4871  2.5350  2.1233  2.1233  1.1584  1.1584  0.9149  0.9149

 Free energy of the ion-electron system (eV)
  ---------------------------------------------------
  alpha Z        PSCENC =        91.34886789
  Ewald energy   TEWEN  =    120398.39425707
  -Hartree energ DENC   =   -131450.88702745
  -exchange      EXHF   =         0.00000000
  -V(xc)+E(xc)   XCENC  =      1279.73277419
  PAW double counting   =     41248.73206399   -41312.85111182
  entropy T*S    EENTRO =        -0.08790328
  eigenvalues    EBANDS =     -4620.82380656
  atomic energy  EATOM  =     13537.65479391
  Solvation  Ediel_sol  =         0.00000000
  ---------------------------------------------------
  free energy    TOTEN  =      -828.78709206 eV

  energy without entropy =     -828.69918878  energy(sigma->0) =     -828.74314042


--------------------------------------------------------------------------------------------------------




--------------------------------------- Iteration      1(  14)  ---------------------------------------


    POTLOK:  cpu time      0.3198: real time      0.3198
    SETDIJ:  cpu time      0.0402: real time      0.0402
     EDDAV:  cpu time     10.3505: real time     10.3572
       DOS:  cpu time      0.0008: real time      0.0008
    CHARGE:  cpu time      1.1662: real time      1.1664
    MIXING:  cpu time      0.3220: real time      0.3220
    --------------------------------------------
      LOOP:  cpu time     12.1994: real time     12.2064

 eigenvalue-minimisations  :  1600
 total energy-change (2. order) :-0.1646573E-01  (-0.1120555E-03)
 number of electron     367.9999998 magnetization 
 augmentation part        9.1293288 magnetization 

 Broyden mixing:
  rms(total) = 0.56848E-02    rms(broyden)= 0.56845E-02
  rms(prec ) = 0.81614E-02
  weight for this iteration     100.00

 eigenvalues of (default mixing * dielectric matrix)
  average eigenvalue GAMMA=   2.1535
  6.2449  2.6873  2.6873  1.9244  1.6706  1.2284  1.1046  0.9172  0.9172

 Free energy of the ion-electron system (eV)
  ---------------------------------------------------
  alpha Z        PSCENC =        91.34886789
  Ewald energy   TEWEN  =    120398.39425707
  -Hartree energ DENC   =   -131466.40613194
  -exchange      EXHF   =         0.00000000
  -V(xc)+E(xc)   XCENC  =      1279.71062009
  PAW double counting   =     41215.96173823   -41280.08301693
  entropy T*S    EENTRO =        -0.08775715
  eigenvalues    EBANDS =     -4605.29692895
  atomic energy  EATOM  =     13537.65479391
  Solvation  Ediel_sol  =         0.00000000
  ---------------------------------------------------
  free energy    TOTEN  =      -828.80355779 eV

  energy without entropy =     -828.71580064  energy(sigma->0) =     -828.75967922


--------------------------------------------------------------------------------------------------------




--------------------------------------- Iteration      1(  15)  ---------------------------------------


    POTLOK:  cpu time      0.3202: real time      0.3201
    SETDIJ:  cpu time      0.0404: real time      0.0404
     EDDAV:  cpu time     10.1913: real time     10.1948
       DOS:  cpu time      0.0008: real time      0.0008
    CHARGE:  cpu time      1.1641: real time      1.1646
    MIXING:  cpu time      0.3318: real time      0.3320
    --------------------------------------------
      LOOP:  cpu time     12.0486: real time     12.0526

 eigenvalue-minimisations  :  1568
 total energy-change (2. order) :-0.2130970E-01  (-0.1782519E-03)
 number of electron     367.9999998 magnetization 
 augmentation part        9.1287589 magnetization 

 Broyden mixing:
  rms(total) = 0.31525E-02    rms(broyden)= 0.31522E-02
  rms(prec ) = 0.44145E-02
  weight for this iteration     100.00

 eigenvalues of (default mixing * dielectric matrix)
  average eigenvalue GAMMA=   2.2427
  7.2259  3.5377  2.1886  2.1886  1.8671  1.2738  1.2738  0.9207  0.9207  1.0304

 Free energy of the ion-electron system (eV)
  ---------------------------------------------------
  alpha Z        PSCENC =        91.34886789
  Ewald energy   TEWEN  =    120398.39425707
  -Hartree energ DENC   =   -131478.13624568
  -exchange      EXHF   =         0.00000000
  -V(xc)+E(xc)   XCENC  =      1279.70767383
  PAW double counting   =     41239.13304921   -41303.25707218
  entropy T*S    EENTRO =        -0.08778882
  eigenvalues    EBANDS =     -4593.58240273
  atomic energy  EATOM  =     13537.65479391
  Solvation  Ediel_sol  =         0.00000000
  ---------------------------------------------------
  free energy    TOTEN  =      -828.82486749 eV

  energy without entropy =     -828.73707867  energy(sigma->0) =     -828.78097308


--------------------------------------------------------------------------------------------------------




--------------------------------------- Iteration      1(  16)  ---------------------------------------


    POTLOK:  cpu time      0.3201: real time      0.3202
    SETDIJ:  cpu time      0.0402: real time      0.0402
     EDDAV:  cpu time     10.4300: real time     10.4337
       DOS:  cpu time      0.0008: real time      0.0008
    CHARGE:  cpu time      1.1747: real time      1.1751
    MIXING:  cpu time      0.3407: real time      0.3408
    --------------------------------------------
      LOOP:  cpu time     12.3066: real time     12.3109

 eigenvalue-minimisations  :  1616
 total energy-change (2. order) :-0.9988326E-02  (-0.5890342E-04)
 number of electron     367.9999998 magnetization 
 augmentation part        9.1286363 magnetization 

 Broyden mixing:
  rms(total) = 0.21508E-02    rms(broyden)= 0.21508E-02
  rms(prec ) = 0.27417E-02
  weight for this iteration     100.00

 eigenvalues of (default mixing * dielectric matrix)
  average eigenvalue GAMMA=   2.2984
  7.8150  4.0102  2.4236  2.4236  1.8678  1.4339  1.4339  0.9362  0.9362  1.0009
  1.0009

 Free energy of the ion-electron system (eV)
  ---------------------------------------------------
  alpha Z        PSCENC =        91.34886789
  Ewald energy   TEWEN  =    120398.39425707
  -Hartree energ DENC   =   -131482.91530945
  -exchange      EXHF   =         0.00000000
  -V(xc)+E(xc)   XCENC  =      1279.68614808
  PAW double counting   =     41222.79996169   -41286.92518304
  entropy T*S    EENTRO =        -0.08780911
  eigenvalues    EBANDS =     -4588.79058285
  atomic energy  EATOM  =     13537.65479391
  Solvation  Ediel_sol  =         0.00000000
  ---------------------------------------------------
  free energy    TOTEN  =      -828.83485581 eV

  energy without entropy =     -828.74704670  energy(sigma->0) =     -828.79095126


--------------------------------------------------------------------------------------------------------




--------------------------------------- Iteration      1(  17)  ---------------------------------------


    POTLOK:  cpu time      0.3199: real time      0.3200
    SETDIJ:  cpu time      0.0402: real time      0.0402
     EDDAV:  cpu time     10.3491: real time     10.3527
       DOS:  cpu time      0.0007: real time      0.0007
    CHARGE:  cpu time      1.1625: real time      1.1655
    MIXING:  cpu time      0.3507: real time      0.3506
    --------------------------------------------
      LOOP:  cpu time     12.2232: real time     12.2297

 eigenvalue-minimisations  :  1600
 total energy-change (2. order) :-0.5389539E-02  (-0.3371906E-04)
 number of electron     367.9999998 magnetization 
 augmentation part        9.1285902 magnetization 

 Broyden mixing:
  rms(total) = 0.10170E-02    rms(broyden)= 0.10169E-02
  rms(prec ) = 0.13791E-02
  weight for this iteration     100.00

 eigenvalues of (default mixing * dielectric matrix)
  average eigenvalue GAMMA=   2.3263
  8.3812  4.5409  2.4684  2.4205  2.0403  1.4616  1.4616  1.1681  1.1681  0.9228
  0.9228  0.9591

 Free energy of the ion-electron system (eV)
  ---------------------------------------------------
  alpha Z        PSCENC =        91.34886789
  Ewald energy   TEWEN  =    120398.39425707
  -Hartree energ DENC   =   -131484.92160325
  -exchange      EXHF   =         0.00000000
  -V(xc)+E(xc)   XCENC  =      1279.68291941
  PAW double counting   =     41230.37657141   -41294.49620461
  entropy T*S    EENTRO =        -0.08780405
  eigenvalues    EBANDS =     -4586.79204312
  atomic energy  EATOM  =     13537.65479391
  Solvation  Ediel_sol  =         0.00000000
  ---------------------------------------------------
  free energy    TOTEN  =      -828.84024535 eV

  energy without entropy =     -828.75244130  energy(sigma->0) =     -828.79634333


--------------------------------------------------------------------------------------------------------




--------------------------------------- Iteration      1(  18)  ---------------------------------------


    POTLOK:  cpu time      0.3202: real time      0.3202
    SETDIJ:  cpu time      0.0402: real time      0.0402
     EDDAV:  cpu time     10.2460: real time     10.2497
       DOS:  cpu time      0.0008: real time      0.0008
    CHARGE:  cpu time      1.1611: real time      1.1635
    MIXING:  cpu time      0.3610: real time      0.3627
    --------------------------------------------
      LOOP:  cpu time     12.1293: real time     12.1370

 eigenvalue-minimisations  :  1576
 total energy-change (2. order) :-0.2077868E-02  (-0.8089158E-05)
 number of electron     367.9999998 magnetization 
 augmentation part        9.1284804 magnetization 

 Broyden mixing:
  rms(total) = 0.63288E-03    rms(broyden)= 0.63283E-03
  rms(prec ) = 0.83868E-03
  weight for this iteration     100.00

 eigenvalues of (default mixing * dielectric matrix)
  average eigenvalue GAMMA=   2.3737
  8.8360  5.0420  2.9004  2.4321  1.9259  1.9259  1.3885  1.3885  0.9244  0.9244
  1.0267  1.0717  1.0717

 Free energy of the ion-electron system (eV)
  ---------------------------------------------------
  alpha Z        PSCENC =        91.34886789
  Ewald energy   TEWEN  =    120398.39425707
  -Hartree energ DENC   =   -131485.91434840
  -exchange      EXHF   =         0.00000000
  -V(xc)+E(xc)   XCENC  =      1279.68501104
  PAW double counting   =     41231.71471265   -41295.83459713
  entropy T*S    EENTRO =        -0.08781810
  eigenvalues    EBANDS =     -4585.80320215
  atomic energy  EATOM  =     13537.65479391
  Solvation  Ediel_sol  =         0.00000000
  ---------------------------------------------------
  free energy    TOTEN  =      -828.84232322 eV

  energy without entropy =     -828.75450512  energy(sigma->0) =     -828.79841417


--------------------------------------------------------------------------------------------------------




--------------------------------------- Iteration      1(  19)  ---------------------------------------


    POTLOK:  cpu time      0.3205: real time      0.3205
    SETDIJ:  cpu time      0.0404: real time      0.0404
     EDDAV:  cpu time      9.0871: real time      9.0905
       DOS:  cpu time      0.0007: real time      0.0007
    CHARGE:  cpu time      1.1632: real time      1.1649
    MIXING:  cpu time      0.3729: real time      0.3728
    --------------------------------------------
      LOOP:  cpu time     10.9848: real time     10.9897

 eigenvalue-minimisations  :  1344
 total energy-change (2. order) :-0.1171878E-02  (-0.3972804E-05)
 number of electron     367.9999998 magnetization 
 augmentation part        9.1285041 magnetization 

 Broyden mixing:
  rms(total) = 0.37001E-03    rms(broyden)= 0.36999E-03
  rms(prec ) = 0.47029E-03
  weight for this iteration     100.00

 eigenvalues of (default mixing * dielectric matrix)
  average eigenvalue GAMMA=   2.4145
  8.9331  5.6584  3.2650  2.4322  2.4322  1.9305  1.4304  1.4304  1.2250  1.2250
  0.9275  0.9275  0.9927  0.9927

 Free energy of the ion-electron system (eV)
  ---------------------------------------------------
  alpha Z        PSCENC =        91.34886789
  Ewald energy   TEWEN  =    120398.39425707
  -Hartree energ DENC   =   -131486.24523549
  -exchange      EXHF   =         0.00000000
  -V(xc)+E(xc)   XCENC  =      1279.68179401
  PAW double counting   =     41229.75738078   -41293.87635063
  entropy T*S    EENTRO =        -0.08781589
  eigenvalues    EBANDS =     -4585.47118675
  atomic energy  EATOM  =     13537.65479391
  Solvation  Ediel_sol  =         0.00000000
  ---------------------------------------------------
  free energy    TOTEN  =      -828.84349510 eV

  energy without entropy =     -828.75567921  energy(sigma->0) =     -828.79958715


--------------------------------------------------------------------------------------------------------




--------------------------------------- Iteration      1(  20)  ---------------------------------------


    POTLOK:  cpu time      0.3198: real time      0.3198
    SETDIJ:  cpu time      0.0404: real time      0.0404
     EDDAV:  cpu time      9.2274: real time      9.2308
       DOS:  cpu time      0.0007: real time      0.0007
    CHARGE:  cpu time      1.1623: real time      1.1642
    MIXING:  cpu time      0.3848: real time      0.3852
    --------------------------------------------
      LOOP:  cpu time     11.1354: real time     11.1410

 eigenvalue-minimisations  :  1368
 total energy-change (2. order) :-0.4942133E-03  (-0.1001036E-05)
 number of electron     367.9999998 magnetization 
 augmentation part        9.1284775 magnetization 

 Broyden mixing:
  rms(total) = 0.18272E-03    rms(broyden)= 0.18271E-03
  rms(prec ) = 0.23293E-03
  weight for this iteration     100.00

 eigenvalues of (default mixing * dielectric matrix)
  average eigenvalue GAMMA=   2.4420
  9.2156  5.9844  3.7650  2.6725  2.3241  2.0380  1.6947  1.3948  1.3948  0.9276
  0.9276  0.9831  1.1021  1.1028  1.1028

 Free energy of the ion-electron system (eV)
  ---------------------------------------------------
  alpha Z        PSCENC =        91.34886789
  Ewald energy   TEWEN  =    120398.39425707
  -Hartree energ DENC   =   -131486.47504811
  -exchange      EXHF   =         0.00000000
  -V(xc)+E(xc)   XCENC  =      1279.68217136
  PAW double counting   =     41229.56576115   -41293.68548185
  entropy T*S    EENTRO =        -0.08781529
  eigenvalues    EBANDS =     -4585.24149545
  atomic energy  EATOM  =     13537.65479391
  Solvation  Ediel_sol  =         0.00000000
  ---------------------------------------------------
  free energy    TOTEN  =      -828.84398931 eV

  energy without entropy =     -828.75617402  energy(sigma->0) =     -828.80008167


--------------------------------------------------------------------------------------------------------




--------------------------------------- Iteration      1(  21)  ---------------------------------------


    POTLOK:  cpu time      0.3202: real time      0.3202
    SETDIJ:  cpu time      0.0423: real time      0.0423
     EDDAV:  cpu time      8.3948: real time      8.3978
       DOS:  cpu time      0.0008: real time      0.0008
    CHARGE:  cpu time      1.1762: real time      1.1766
    MIXING:  cpu time      0.3992: real time      0.3990
    --------------------------------------------
      LOOP:  cpu time     10.3334: real time     10.3367

 eigenvalue-minimisations  :  1200
 total energy-change (2. order) :-0.1947846E-03  (-0.2125599E-06)
 number of electron     367.9999998 magnetization 
 augmentation part        9.1284820 magnetization 

 Broyden mixing:
  rms(total) = 0.95764E-04    rms(broyden)= 0.95761E-04
  rms(prec ) = 0.11960E-03
  weight for this iteration     100.00

 eigenvalues of (default mixing * dielectric matrix)
  average eigenvalue GAMMA=   2.4553
  9.2538  6.3153  4.0885  2.7460  2.3801  2.3801  1.9333  1.4147  1.4147  1.2653
  1.2653  0.9289  0.9289  1.0161  0.9771  0.9771

 Free energy of the ion-electron system (eV)
  ---------------------------------------------------
  alpha Z        PSCENC =        91.34886789
  Ewald energy   TEWEN  =    120398.39425707
  -Hartree energ DENC   =   -131486.54402705
  -exchange      EXHF   =         0.00000000
  -V(xc)+E(xc)   XCENC  =      1279.68099872
  PAW double counting   =     41228.56719463   -41292.68711139
  entropy T*S    EENTRO =        -0.08781605
  eigenvalues    EBANDS =     -4585.17134182
  atomic energy  EATOM  =     13537.65479391
  Solvation  Ediel_sol  =         0.00000000
  ---------------------------------------------------
  free energy    TOTEN  =      -828.84418410 eV

  energy without entropy =     -828.75636805  energy(sigma->0) =     -828.80027607


[...]
   0.253E+02 -.650E+01 -.432E+02   -.273E+02 0.557E+01 0.432E+02   -.738E+00 -.839E+00 -.832E+00   -.705E-05 -.201E-05 -.130E-05
   0.301E+02 -.297E+01 -.121E+03   -.304E+02 0.327E+01 0.122E+03   0.513E+00 0.480E+00 -.167E+01   -.279E-05 -.505E-06 0.468E-06
   0.251E+01 0.746E+01 -.402E+02   -.119E+01 -.758E+01 0.403E+02   -.390E+00 0.111E+01 0.138E+01   0.201E-06 -.918E-06 -.510E-08
   0.238E+02 0.236E+02 -.100E+03   -.236E+02 -.246E+02 0.100E+03   0.260E+00 -.181E+00 0.644E+00   0.307E-05 -.235E-05 0.545E-06
   0.446E+02 -.181E+02 -.173E+03   -.452E+02 0.186E+02 0.174E+03   0.469E+00 0.771E-02 -.245E+01   0.385E-05 -.122E-06 0.328E-05
   0.725E+01 -.656E+01 -.338E+02   -.757E+01 0.599E+01 0.331E+02   -.159E+01 -.158E+01 0.141E+01   0.408E-05 -.420E-06 -.269E-06
   0.296E+02 0.198E+01 -.141E+03   -.302E+02 -.213E+01 0.140E+03   -.254E+00 0.969E+00 0.402E+00   0.538E-05 -.119E-05 0.145E-05
   0.293E+02 0.153E+02 -.165E+03   -.308E+02 -.151E+02 0.166E+03   -.120E+01 -.775E-01 -.149E+01   0.450E-05 -.110E-05 -.150E-06
   0.219E+02 -.140E+02 -.186E+03   -.210E+02 0.145E+02 0.186E+03   0.264E+00 -.503E+00 0.683E+00   0.591E-05 0.248E-05 0.210E-06
   -.336E+00 0.175E+00 -.175E+03   0.199E+01 -.854E+00 0.175E+03   0.815E+00 -.204E+00 -.506E+00   0.756E-05 -.263E-05 -.886E-06
   0.152E+02 0.139E+01 -.256E+03   -.159E+02 -.116E+01 0.256E+03   -.314E+00 0.454E+00 -.176E+01   0.546E-05 0.196E-05 -.159E-05
   -.942E+01 0.146E+02 -.147E+03   0.936E+01 -.142E+02 0.147E+03   0.168E+00 0.319E+00 0.156E+01   0.601E-05 -.953E-06 -.195E-05
   -.118E+02 -.726E+01 -.252E+03   0.124E+02 0.662E+01 0.252E+03   0.271E+00 -.760E-01 -.105E+01   0.596E-05 0.122E-05 -.259E-05
   -.150E+02 -.249E+01 -.140E+03   0.144E+02 0.136E+01 0.140E+03   -.115E+01 -.170E+01 -.843E+00   0.319E-05 -.113E-05 -.135E-05
   -.300E+02 0.155E+02 -.218E+03   0.301E+02 -.165E+02 0.218E+03   0.315E+00 -.999E-01 -.296E+00   0.530E-05 0.313E-05 -.322E-05
   -.231E+02 0.143E+02 -.575E+02   0.244E+02 -.146E+02 0.570E+02   -.296E+00 -.876E-01 0.101E+01   0.690E-06 0.129E-05 0.343E-06
   -.191E+02 -.985E+01 -.154E+03   0.186E+02 0.104E+02 0.155E+03   0.132E-01 -.860E-01 -.204E+00   0.800E-06 0.171E-05 -.964E-06
   0.565E+01 -.397E+01 0.599E+01   -.568E+01 0.307E+01 -.644E+01   -.257E+00 -.240E+00 0.963E+00   -.322E-05 0.165E-05 0.174E-05
   -.424E+02 0.824E+01 -.141E+03   0.433E+02 -.850E+01 0.141E+03   0.322E+00 -.122E+00 -.305E+00   -.620E-05 -.115E-05 0.113E-05
   -.107E+02 0.131E+02 -.717E+01   0.109E+02 -.141E+02 0.674E+01   -.361E+00 -.579E+00 0.127E+01   -.736E-05 -.547E-06 0.186E-05
   -.338E+02 -.742E+01 -.161E+03   0.331E+02 0.811E+01 0.162E+03   -.489E+00 0.853E+00 -.256E+01   -.863E-05 -.112E-05 0.262E-05
   0.679E+01 -.700E+01 0.191E+02   -.785E+01 0.704E+01 -.190E+02   -.117E+01 0.360E+00 -.118E+00   -.393E-05 -.986E-06 0.112E-05
   -.232E+02 0.196E+01 -.743E+02   0.227E+02 -.175E+01 0.745E+02   0.132E+01 0.656E+00 0.816E+00   -.398E-05 -.658E-06 0.101E-05
   -.166E+02 -.285E+01 0.303E+02   0.178E+02 0.385E+01 -.301E+02   -.172E+00 0.179E+00 -.399E+00   0.137E-05 0.134E-06 -.560E-06
   -.413E+02 -.188E+00 -.889E+02   0.423E+02 -.805E+00 0.892E+02   0.702E+00 -.690E+00 -.187E+01   0.220E-05 -.199E-05 0.137E-06
   0.199E+02 -.296E+02 0.193E+03   -.198E+02 0.323E+02 -.195E+03   0.215E+01 0.915E+00 0.332E+01   -.123E-05 0.383E-05 -.624E-06
   -.301E+02 0.820E+01 -.601E+02   0.297E+02 -.919E+01 0.605E+02   0.770E+00 -.992E-01 -.289E+00   0.897E-06 -.461E-05 0.412E-06
   0.653E+01 0.570E+02 0.804E+02   -.101E+02 -.578E+02 -.785E+02   0.796E+00 0.253E+01 -.223E+01   0.264E-05 0.144E-05 0.152E-06
   -.793E+01 -.534E+02 -.561E+01   0.379E+01 0.534E+02 0.628E+01   0.851E+00 -.190E+01 -.185E-01   0.318E-05 -.746E-06 0.123E-06
   0.227E+02 0.634E+02 0.940E+02   -.202E+02 -.634E+02 -.946E+02   -.101E+01 0.279E+01 -.231E+00   0.920E-05 0.226E-05 -.412E-06
   0.232E+02 -.535E+02 0.184E+03   -.195E+02 0.530E+02 -.186E+03   -.255E+00 -.134E+01 0.167E+01   0.108E-04 -.182E-05 0.277E-06
   0.228E+02 -.220E+01 0.103E+03   -.228E+02 0.147E+01 -.103E+03   -.187E+01 0.290E+00 0.319E+00   0.367E-05 0.350E-05 0.829E-06
   0.364E+02 0.851E+01 0.142E+03   -.382E+02 -.841E+01 -.142E+03   -.781E+00 0.568E+00 0.601E-01   0.501E-05 -.301E-05 0.134E-05
   0.102E+02 0.790E+01 0.117E+03   -.102E+02 -.739E+01 -.117E+03   -.762E+00 -.853E+00 -.120E+01   0.852E-06 0.128E-05 0.200E-05
   0.306E+01 -.457E+01 0.158E+03   -.203E+01 0.346E+01 -.159E+03   0.704E+00 -.167E+01 0.105E+01   -.217E-06 -.419E-06 0.214E-05
   -.566E+01 0.529E+00 0.164E+03   0.617E+01 -.590E+00 -.165E+03   -.410E-01 0.437E+00 0.222E+01   -.298E-05 -.106E-05 0.201E-05
   0.829E+00 0.473E+01 0.110E+03   -.512E+00 -.330E+01 -.110E+03   0.296E+00 0.552E+00 -.334E+00   -.595E-05 -.519E-06 0.943E-06
   -.373E+01 0.187E+02 0.124E+03   0.310E+01 -.205E+02 -.124E+03   0.415E+00 -.116E+01 -.758E+00   -.575E-05 -.282E-05 0.618E-06
   -.558E+01 -.166E+02 0.110E+03   0.515E+01 0.180E+02 -.110E+03   0.105E+00 0.210E+00 0.103E+00   -.646E-05 -.989E-06 0.212E-06
   -.167E+02 -.542E+01 0.134E+03   0.172E+02 0.519E+01 -.134E+03   0.818E+00 -.871E+00 0.899E+00   -.514E-05 -.236E-05 -.299E-06
   -.847E+01 0.138E+02 0.915E+02   0.903E+01 -.147E+02 -.918E+02   0.732E+00 -.141E+00 0.931E+00   -.604E-05 0.835E-07 -.776E-06
   -.103E+02 0.188E+02 0.675E+02   0.103E+02 -.199E+02 -.678E+02   -.119E+00 0.413E-01 -.601E+00   -.689E-05 -.319E-05 -.144E-05
   -.544E+01 -.118E+02 0.659E+02   0.509E+01 0.125E+02 -.660E+02   0.240E+00 0.200E+00 -.665E+00   -.486E-05 -.595E-06 -.783E-06
   -.472E+01 -.150E+02 0.575E+02   0.458E+01 0.160E+02 -.575E+02   -.686E+00 -.931E-01 -.811E+00   -.597E-05 0.697E-06 -.157E-05
   -.215E+02 0.678E+01 0.918E+02   0.215E+02 -.677E+01 -.922E+02   -.250E+00 -.316E+00 0.179E+01   -.156E-05 -.831E-06 -.128E-05
   -.242E+02 0.919E+01 0.944E+02   0.247E+02 -.941E+01 -.951E+02   -.122E+01 -.185E+00 0.133E+01   -.267E-05 0.198E-05 -.195E-05
   -.642E+01 -.113E+02 0.614E+02   0.626E+01 0.115E+02 -.614E+02   0.657E+00 -.453E+00 -.581E+00   -.264E-05 0.149E-05 -.976E-06
   -.172E+01 -.112E+02 0.201E+02   0.220E+01 0.125E+02 -.194E+02   0.336E+00 0.654E+00 -.175E+01   0.434E-06 0.472E-05 -.689E-06
   -.491E+00 0.448E+01 0.144E+02   0.120E-01 -.416E+01 -.147E+02   -.234E+00 0.274E+00 0.122E+00   -.149E-05 -.105E-05 -.997E-06
   -.184E+02 0.867E+01 0.817E+02   0.180E+02 -.893E+01 -.825E+02   -.127E+01 0.435E+00 0.173E+01   0.258E-05 0.193E-05 -.113E-05
   -.124E+02 -.439E+01 0.741E+02   0.126E+02 0.359E+01 -.745E+02   0.432E+00 -.540E+00 0.735E+00   0.150E-05 -.789E-06 -.907E-06
   0.196E+02 -.828E+01 -.554E+02   -.204E+02 0.861E+01 0.558E+02   0.225E+00 0.464E+00 -.164E+01   0.568E-05 0.238E-05 0.107E-05
   0.339E+01 -.264E+01 0.568E+01   -.356E+01 0.394E+01 -.509E+01   0.127E+01 0.449E+00 -.616E+00   0.560E-05 -.433E-06 0.107E-05
   -.730E+01 0.565E+00 -.230E+02   0.822E+01 0.242E+00 0.226E+02   0.545E+00 0.481E+00 0.113E+01   0.901E-05 0.170E-05 0.109E-05
   -.378E+01 -.925E+00 0.290E+00   0.394E+01 0.426E-01 -.887E+00   0.232E+00 -.118E+01 0.127E+01   0.782E-05 -.155E-05 0.982E-06
   0.120E+02 -.105E+02 -.134E+03   -.126E+02 0.106E+02 0.134E+03   0.224E+00 0.610E+00 0.531E+00   0.602E-05 0.254E-05 -.126E-05
   0.752E+01 0.136E+02 -.120E+03   -.761E+01 -.138E+02 0.120E+03   0.253E+00 0.429E+00 -.127E+01   0.632E-05 -.265E-05 -.654E-06
   -.134E+02 0.605E+01 -.173E+03   0.146E+02 -.639E+01 0.173E+03   0.143E+01 -.415E+00 -.979E+00   0.529E-05 0.941E-06 -.212E-05
   -.527E+01 -.672E+01 -.966E+02   0.474E+01 0.631E+01 0.959E+02   -.814E+00 -.563E+00 0.157E+01   0.512E-05 -.167E-05 -.132E-05
   -.203E+02 -.264E+02 -.188E+03   0.198E+02 0.280E+02 0.189E+03   -.106E+00 0.486E+00 -.125E+01   0.412E-05 -.252E-06 -.287E-05
   -.259E+02 0.495E+01 -.127E+03   0.270E+02 -.376E+01 0.127E+03   -.153E-01 -.886E-01 -.169E+01   0.209E-05 -.155E-05 -.156E-05
   -.243E+01 0.669E+01 -.516E+02   0.139E+01 -.619E+01 0.514E+02   0.189E+00 0.562E+00 0.835E+00   -.228E-05 -.466E-07 0.125E-05
   0.233E+01 -.874E+01 -.125E+02   -.296E+01 0.838E+01 0.121E+02   0.376E+00 -.717E+00 0.142E+01   -.188E-05 -.262E-05 0.123E-05
   -.119E+02 -.887E+01 -.479E+02   0.118E+02 0.866E+01 0.482E+02   0.238E+00 -.441E+00 0.161E+00   -.622E-05 -.791E-06 0.229E-05
   0.454E+00 -.417E+01 -.281E+01   -.123E+01 0.588E+01 0.356E+01   -.150E+01 0.152E+01 -.116E+01   -.393E-05 -.137E-06 0.191E-05
   -.107E+02 0.110E+02 0.172E+02   0.119E+02 -.107E+02 -.176E+02   0.306E+00 0.105E+01 -.319E+00   -.466E-05 0.532E-06 0.182E-05
   0.504E+01 -.168E+01 0.895E+02   -.361E+01 0.641E+00 -.906E+02   0.113E+01 0.252E+00 0.117E+01   -.374E-05 0.633E-06 0.137E-05
   -.157E+02 -.159E+02 -.163E+02   0.156E+02 0.169E+02 0.166E+02   -.903E+00 0.354E+00 0.127E+00   -.526E-05 0.258E-05 0.109E-05
   0.209E+02 0.136E+02 0.830E+02   -.217E+02 -.140E+02 -.833E+02   0.293E+00 0.484E+00 0.763E-01   -.525E-05 -.494E-06 0.116E-05
   -.772E+01 0.124E+02 -.429E+01   0.789E+01 -.131E+02 0.444E+01   -.372E+00 -.116E+01 -.453E+00   -.439E-05 -.539E-06 0.160E-05
   0.122E+02 -.278E+01 0.909E+02   -.127E+02 0.257E+01 -.912E+02   -.572E+00 -.683E+00 0.240E+00   -.518E-05 0.203E-05 0.122E-05
   -.178E+02 -.317E+01 -.771E+01   0.170E+02 0.376E+01 0.821E+01   0.954E-01 0.979E+00 0.239E-01   -.849E-06 -.364E-05 0.804E-06
   0.124E+02 0.113E+02 0.176E+03   -.120E+02 -.124E+02 -.176E+03   0.744E+00 -.566E+00 0.218E+00   -.263E-05 0.493E-05 -.861E-07
   -.933E+01 0.547E+02 0.624E+02   0.688E+01 -.549E+02 -.627E+02   0.219E+01 0.759E+00 -.928E-01   0.942E-05 -.185E-05 -.121E-05
   0.114E+02 -.547E+02 0.159E+03   -.147E+02 0.553E+02 -.159E+03   0.721E+00 -.246E+01 0.804E-01   0.894E-05 0.112E-05 -.159E-05
 -----------------------------------------------------------------------------------------------
   -.552E+00 0.133E+00 -.139E+00   -.171E-12 0.497E-13 -.142E-12   0.582E+00 -.106E+00 0.162E+00   0.266E-05 -.215E-06 0.587E-05
 
 
 POSITION                                       TOTAL-FORCE (eV/Angst)
 -----------------------------------------------------------------------------------
     15.39960      6.74527     17.27280         2.348186      1.087245      1.397088
     15.44350      0.03493     17.54170         3.003642     -1.499830     -1.609049
     16.62590      6.07717     17.32030        -1.059303      1.291293     -1.134573
     16.69640      0.65254     17.35590        -1.808277      2.229588      0.758930
     17.86210      6.75917     17.38390         0.604387      1.094582      0.143084
     17.93060      0.03157     17.37350        -1.173430     -0.747326      0.464515
     19.12250      6.19120     17.43840        -0.041351     -3.180570      0.274286
     19.14430      0.71615     17.49080        -0.298211      1.103588     -1.139323
     20.34190      6.83448     17.70100         0.233159     -2.178077     -0.066024
     20.34660      0.06481     17.70610         1.880498      2.856640     -1.139521
     21.58640      6.15263     17.82900        -2.532735      0.640922     -0.689239
     21.62510      0.76340     17.59640        -1.629086      0.013737      0.994245
     22.74450      6.83131     18.08070         1.330103      1.153269      0.154176
     22.82020      0.11375     17.92660        -0.683627     -0.656390      0.574619
     23.92720      6.17026     18.37430         1.599101     -0.664054      0.077417
     24.01610      0.76816     18.23160         1.502323     -1.426163      0.617998
     25.10540      6.79248     18.83560         1.096470      0.950381      0.421234
     25.19420      0.09212     18.75740        -2.686992     -1.771048     -0.857723
     26.32800      6.10916     19.17710         0.197838      0.777753     -1.250510
     26.38640      0.70125     19.02580         0.935865      0.987428      1.498493
     27.54210      6.80884     19.47660         0.402429     -1.259678      0.670393
     27.52020      0.06223     19.61670        -0.110219      0.568446     -1.316018
      0.79048      6.19809     19.56060        -1.910351     -2.139901      0.767659
      0.71143      0.70203     19.81790        -0.866064      0.822011      0.107156
      1.96162      6.81217     20.07680        -2.676343      0.082377     -0.954144
      1.90526      0.07518     20.16180         1.130370     -0.076518      1.103252
      3.13945      6.14250     20.18570         2.466485     -0.883438     -0.367695
      3.14554      0.72303     20.43180        -1.005383      0.689839     -1.139901
      4.40247      6.79691     20.22060         0.104812      0.655361      1.520802
      4.38348      0.06206     20.47150         0.912527     -0.720063     -0.621521
      5.66931      6.18215     20.02550        -1.747115     -2.832328     -0.668066
      5.64374      0.70923     20.30700         0.453429     -1.051826     -0.116022
      6.86306      6.79123     19.69950         0.939911     -0.370357      0.528085
      6.87518      0.03632     19.94650        -0.476021      0.425276      0.292401
      8.03530      6.10659     19.22800        -0.289457     -1.140051      0.518059
      8.07816      0.67682     19.66220         1.152754     -0.384066     -0.227417
      9.26387      6.75866     19.01620        -0.111010     -1.610588      0.837197
      9.31653      8.07205     19.37700        -1.184189      1.545341     -1.124049
     10.43830      6.06013     18.56220        -2.230849      0.399855      0.005654
     10.46910      0.64209     18.94370         0.840145      0.867202      0.971532
     11.61240      6.73043     18.29630         1.080194      1.178489     -0.195190
     11.66840      8.09847     18.64820         1.747341     -1.683534     -1.571248
     12.69790      6.07538     17.62790         2.229956      3.602040      1.567223
     12.89220      0.67423     18.31190         0.444110     -1.095641      0.128315
     13.98250      6.71340     17.64020        -2.796033      1.749228     -0.287124
     14.06170      0.01507     17.90490        -3.281634     -1.870386      0.650910
     15.43350      2.65130     17.37590         1.468266      2.754809     -0.883154
     15.36840      4.06637     17.16930         3.458878     -1.827206      0.183414
     16.70220      2.05233     17.28710        -1.855397     -0.431326      0.639562
     16.62490      4.72282     17.16020        -2.583235      0.665664     -0.121283
     17.92000      2.76322     17.20120        -0.670725     -0.342802     -1.082879
     17.86210      4.15334     17.12550         1.729884     -2.779275      0.427220
     19.14680      2.08332     17.19920         0.477200      0.375641      1.432512
     19.10160      4.78852     17.29320         0.612608      1.977735      0.010493
     20.36870      2.81027     17.34410        -0.218255     -2.934071     -0.728115
     20.34520      4.14379     17.39100        -0.324829      1.675682      0.001813
     21.59440      2.14950     17.50650         1.332416     -1.103548      0.816836
     21.55720      4.81213     17.63930         1.290779     -1.015496      0.675062
     22.82970      2.78922     17.84670        -0.070810     -0.998665     -0.863041
     22.80180      4.14246     17.86860        -0.106559      0.880726     -0.833328
     24.06380      2.11772     18.14270        -0.824942      0.891642     -0.803796
     24.01750      4.81682     18.11060        -0.233353     -0.311146      1.401144
     25.30160      2.76484     18.33880        -0.713156     -0.406147      0.635569
     25.23570      4.14525     18.39670         0.500346     -0.283697     -0.500622
     26.45180      2.04904     18.79150         0.811556      1.886450     -1.069064
     26.42420      4.77784     18.81680        -0.714133      0.596434     -0.113288
     27.70880      2.71713     18.94070        -1.627594      0.181233      0.950544
     27.65480      4.13004     18.92540         0.580835     -1.341260      0.373023
      0.76490      2.04589     19.52540        -0.612704      0.797467     -1.277364
      0.76214      4.79832     19.33530         1.102590      1.753144     -0.024331
      1.95870      2.71776     19.66300         1.467282      1.287848      0.787070
      1.97032      4.13841     19.57830         0.397320     -2.064752      0.668322
      3.14594      2.07206     20.11880        -0.458731      0.751396      0.591109
      3.15065      4.78084     19.99710         0.159079      0.222654     -1.004504
      4.35094      2.76619     20.19620         2.572580     -0.759858     -0.794904
      4.40917      4.13232     20.01100        -1.350476     -0.973167      0.848438
      5.63932      2.05610     20.18090        -0.617257      2.035336     -0.773906
      5.63277      4.77694     19.94850         1.163091      1.098519     -1.257622
      6.81154      2.68776     19.65170        -0.854159      1.052258      0.605058
      6.80128      4.08334     19.51130        -0.249381     -1.078108      1.047838
      8.02347      2.02816     19.40800         0.144858     -0.657909      0.507465
      8.02584      4.68168     19.16560        -2.279739      3.225362     -0.411824
      9.18017      2.63502     18.93390         1.579538      1.297852     -0.794415
      9.13153      4.01741     18.72230         2.555942     -0.791927      0.089609
     10.46080      2.00587     18.74930        -0.953579      1.291470      0.473081
     10.35680      4.69529     18.39300        -0.541871      0.067726     -0.211201
     11.64170      2.72824     18.36000        -0.197536     -1.869913     -0.305686
     11.58270      4.06418     18.07540        -1.026456     -0.891981     -0.062221
     12.87720      2.02930     18.15080        -0.645874      1.569304      0.519327
     12.71690      4.73341     17.60070         1.069852     -1.754528     -0.507665
     13.97410      2.71022     17.69180        -0.270103      0.600114     -0.450575
     13.94910      4.09157     17.41140        -2.512400     -1.849741      0.619909
 -----------------------------------------------------------------------------------
    total drift:                                0.030851      0.027136      0.022506


--------------------------------------------------------------------------------------------------------



  FREE ENERGIE OF THE ION-ELECTRON SYSTEM (eV)
  ---------------------------------------------------
  free  energy   TOTEN  =      -828.84429355 eV

  energy  without entropy=     -828.75647790  energy(sigma->0) =     -828.80038572
 


--------------------------------------------------------------------------------------------------------


    POTLOK:  cpu time      0.4537: real time      0.4537


--------------------------------------------------------------------------------------------------------


     LOOP+:  cpu time    333.7043: real time    333.9131
    4ORBIT:  cpu time      0.0000: real time      0.0000

 total amount of memory used by VASP MPI-rank0  2294509. kBytes
=======================================================================

   base                                    :      30000. kBytes
   nonlr-proj                              :      15075. kBytes
   fftplans                                :     436558. kBytes
   grid                                    :     732614. kBytes
   one-center                              :        282. kBytes
   wavefun                                 :    1079980. kBytes
 
  
  
 General timing and accounting informations for this job:
 ========================================================
  
                  Total CPU time used (sec):      366.918
                            User time (sec):      358.602
                          System time (sec):        8.317
                         Elapsed time (sec):      367.216
  
                   Maximum memory used (kb):     3731068.
                   Average memory used (kb):          N/A
  
                          Minor page faults:      3179196
                          Major page faults:         6786
                 Voluntary context switches:        10103
