  92  92   0   0
  0.8273226E+02  0.2805000E-08  0.8100000E-09  0.3350000E-08  0.5000000E-15
   1.0000000000000000E-004
  CAR 
 unknown system                          
      3.77651526    -25.23858445  301     -3.17163467      1.00000000
    -25.239  0.0000E+00  0.0000E+00
    -25.142  0.0000E+00  0.0000E+00
    -25.045  0.0000E+00  0.0000E+00
    -24.948  0.0000E+00  0.0000E+00
    -24.852  0.0000E+00  0.0000E+00
    -24.755  0.0000E+00  0.0000E+00
    -24.658  0.0000E+00  0.0000E+00
    -24.562  0.0000E+00  0.0000E+00
    -24.465  0.0000E+00  0.0000E+00
    -24.368  0.3444E-14  0.3331E-15
    -24.271  0.7711E-12  0.7491E-13
    -24.175  0.1009E-09  0.9829E-11
    -24.078  0.8391E-08  0.8213E-09
    -23.981  0.4452E-06  0.4388E-07
    -23.885  0.1512E-04  0.1506E-05
    -23.788  0.3300E-03  0.3342E-04
    -23.691  0.4657E-02  0.4838E-03
    -23.594  0.4277E-01  0.4620E-02
    -23.498  0.2580E+00  0.2958E-01
    -23.401  0.1037E+01  0.1299E+00
    -23.304  0.2845E+01  0.4050E+00
    -23.208  0.5539E+01  0.9407E+00
    -23.111  0.8158E+01  0.1730E+01
    -23.014  0.9844E+01  0.2682E+01
    -22.917  0.1053E+02  0.3700E+01
    -22.821  0.1095E+02  0.4759E+01
    -22.724  0.1233E+02  0.5951E+01
    -22.627  0.1475E+02  0.7378E+01
    -22.531  0.1634E+02  0.8958E+01
    -22.434  0.1563E+02  0.1047E+02
    -22.337  0.1355E+02  0.1178E+02
    -22.240  0.1231E+02  0.1297E+02
    -22.144  0.1277E+02  0.1420E+02
    -22.047  0.1392E+02  0.1555E+02
    -21.950  0.1453E+02  0.1696E+02
    -21.853  0.1426E+02  0.1833E+02
    -21.757  0.1358E+02  0.1965E+02
    -21.660  0.1305E+02  0.2091E+02
    -21.563  0.1259E+02  0.2213E+02
    -21.467  0.1194E+02  0.2328E+02
    -21.370  0.1163E+02  0.2441E+02
    -21.273  0.1234E+02  0.2560E+02
    -21.176  0.1406E+02  0.2696E+02
    -21.080  0.1604E+02  0.2851E+02
    -20.983  0.1683E+02  0.3014E+02
    -20.886  0.1541E+02  0.3163E+02
    -20.790  0.1293E+02  0.3288E+02
    -20.693  0.1169E+02  0.3401E+02
    -20.596  0.1228E+02  0.3520E+02
    -20.499  0.1320E+02  0.3647E+02
    -20.403  0.1326E+02  0.3776E+02
    -20.306  0.1311E+02  0.3902E+02
    -20.209  0.1403E+02  0.4038E+02
    -20.113  0.1574E+02  0.4190E+02
    -20.016  0.1669E+02  0.4352E+02
    -19.919  0.1603E+02  0.4507E+02
    -19.822  0.1413E+02  0.4644E+02
    -19.726  0.1242E+02  0.4764E+02
    -19.629  0.1271E+02  0.4887E+02
    -19.532  0.1486E+02  0.5030E+02
    -19.436  0.1615E+02  0.5186E+02
    -19.339  0.1510E+02  0.5332E+02
    -19.242  0.1353E+02  0.5463E+02
    -19.145  0.1349E+02  0.5594E+02
    -19.049  0.1443E+02  0.5733E+02
    -18.952  0.1467E+02  0.5875E+02
    -18.855  0.1384E+02  0.6009E+02
    -18.759  0.1346E+02  0.6139E+02
    -18.662  0.1495E+02  0.6284E+02
    -18.565  0.1692E+02  0.6447E+02
    -18.468  0.1702E+02  0.6612E+02
    -18.372  0.1574E+02  0.6764E+02
    -18.275  0.1544E+02  0.6914E+02
    -18.178  0.1662E+02  0.7074E+02
    -18.082  0.1752E+02  0.7244E+02
    -17.985  0.1649E+02  0.7403E+02
    -17.888  0.1439E+02  0.7542E+02
    -17.791  0.1345E+02  0.7673E+02
    -17.695  0.1357E+02  0.7804E+02
    -17.598  0.1294E+02  0.7929E+02
    -17.501  0.1171E+02  0.8042E+02
    -17.405  0.1109E+02  0.8149E+02
    -17.308  0.1091E+02  0.8255E+02
    -17.211  0.1093E+02  0.8361E+02
    -17.114  0.1152E+02  0.8472E+02
    -17.018  0.1186E+02  0.8587E+02
    -16.921  0.1081E+02  0.8691E+02
    -16.824  0.9364E+01  0.8782E+02
    -16.727  0.9611E+01  0.8875E+02
    -16.631  0.1206E+02  0.8992E+02
    -16.534  0.1496E+02  0.9136E+02
    -16.437  0.1627E+02  0.9294E+02
    -16.341  0.1604E+02  0.9449E+02
    -16.244  0.1602E+02  0.9604E+02
    -16.147  0.1713E+02  0.9769E+02
    -16.050  0.1807E+02  0.9944E+02
    -15.954  0.1731E+02  0.1011E+03
    -15.857  0.1549E+02  0.1026E+03
    -15.760  0.1386E+02  0.1040E+03
    -15.664  0.1269E+02  0.1052E+03
    -15.567  0.1208E+02  0.1063E+03
    -15.470  0.1271E+02  0.1076E+03
    -15.373  0.1489E+02  0.1090E+03
    -15.277  0.1761E+02  0.1107E+03
    -15.180  0.2013E+02  0.1127E+03
    -15.083  0.2254E+02  0.1148E+03
    -14.987  0.2382E+02  0.1172E+03
    -14.890  0.2223E+02  0.1193E+03
    -14.793  0.1783E+02  0.1210E+03
    -14.696  0.1265E+02  0.1222E+03
    -14.600  0.9062E+01  0.1231E+03
    -14.503  0.8266E+01  0.1239E+03
    -14.406  0.9434E+01  0.1248E+03
    -14.310  0.1076E+02  0.1259E+03
    -14.213  0.1153E+02  0.1270E+03
    -14.116  0.1238E+02  0.1282E+03
    -14.019  0.1381E+02  0.1295E+03
    -13.923  0.1525E+02  0.1310E+03
    -13.826  0.1603E+02  0.1326E+03
    -13.729  0.1672E+02  0.1342E+03
    -13.633  0.1783E+02  0.1359E+03
    -13.536  0.1872E+02  0.1377E+03
    -13.439  0.1905E+02  0.1395E+03
    -13.342  0.1930E+02  0.1414E+03
    -13.246  0.1953E+02  0.1433E+03
    -13.149  0.1878E+02  0.1451E+03
    -13.052  0.1664E+02  0.1467E+03
    -12.956  0.1456E+02  0.1481E+03
    -12.859  0.1398E+02  0.1495E+03
    -12.762  0.1433E+02  0.1509E+03
    -12.665  0.1418E+02  0.1522E+03
    -12.569  0.1334E+02  0.1535E+03
    -12.472  0.1290E+02  0.1548E+03
    -12.375  0.1404E+02  0.1561E+03
    -12.279  0.1708E+02  0.1578E+03
    -12.182  0.2125E+02  0.1598E+03
    -12.085  0.2467E+02  0.1622E+03
    -11.988  0.2547E+02  0.1647E+03
    -11.892  0.2366E+02  0.1670E+03
    -11.795  0.2108E+02  0.1690E+03
    -11.698  0.1900E+02  0.1709E+03
    -11.601  0.1709E+02  0.1725E+03
    -11.505  0.1549E+02  0.1740E+03
    -11.408  0.1553E+02  0.1755E+03
    -11.311  0.1766E+02  0.1772E+03
    -11.215  0.2111E+02  0.1793E+03
    -11.118  0.2542E+02  0.1817E+03
    -11.021  0.3000E+02  0.1846E+03
    -10.924  0.3308E+02  0.1878E+03
    -10.828  0.3366E+02  0.1911E+03
    -10.731  0.3295E+02  0.1943E+03
    -10.634  0.3300E+02  0.1975E+03
    -10.538  0.3504E+02  0.2008E+03
    -10.441  0.3798E+02  0.2045E+03
    -10.344  0.3881E+02  0.2083E+03
    -10.247  0.3668E+02  0.2118E+03
    -10.151  0.3457E+02  0.2152E+03
    -10.054  0.3464E+02  0.2185E+03
     -9.957  0.3499E+02  0.2219E+03
     -9.861  0.3379E+02  0.2252E+03
     -9.764  0.3306E+02  0.2284E+03
     -9.667  0.3511E+02  0.2318E+03
     -9.570  0.3898E+02  0.2355E+03
     -9.474  0.4247E+02  0.2396E+03
     -9.377  0.4397E+02  0.2439E+03
     -9.280  0.4169E+02  0.2479E+03
     -9.184  0.3548E+02  0.2514E+03
     -9.087  0.2976E+02  0.2542E+03
     -8.990  0.2906E+02  0.2570E+03
     -8.893  0.3187E+02  0.2601E+03
     -8.797  0.3427E+02  0.2634E+03
     -8.700  0.3534E+02  0.2669E+03
     -8.603  0.3557E+02  0.2703E+03
     -8.507  0.3467E+02  0.2737E+03
     -8.410  0.3300E+02  0.2768E+03
     -8.313  0.3164E+02  0.2799E+03
     -8.216  0.3068E+02  0.2829E+03
     -8.120  0.2925E+02  0.2857E+03
     -8.023  0.2693E+02  0.2883E+03
     -7.926  0.2473E+02  0.2907E+03
     -7.830  0.2474E+02  0.2931E+03
     -7.733  0.2737E+02  0.2957E+03
     -7.636  0.3011E+02  0.2986E+03
     -7.539  0.3105E+02  0.3017E+03
     -7.443  0.3104E+02  0.3047E+03
     -7.346  0.3063E+02  0.3076E+03
     -7.249  0.2867E+02  0.3104E+03
     -7.153  0.2549E+02  0.3129E+03
     -7.056  0.2321E+02  0.3151E+03
     -6.959  0.2289E+02  0.3173E+03
     -6.862  0.2389E+02  0.3196E+03
     -6.766  0.2517E+02  0.3221E+03
     -6.669  0.2598E+02  0.3246E+03
     -6.572  0.2511E+02  0.3270E+03
     -6.475  0.2203E+02  0.3291E+03
     -6.379  0.1908E+02  0.3310E+03
     -6.282  0.1896E+02  0.3328E+03
     -6.185  0.2105E+02  0.3348E+03
     -6.089  0.2343E+02  0.3371E+03
     -5.992  0.2543E+02  0.3396E+03
     -5.895  0.2615E+02  0.3421E+03
     -5.798  0.2466E+02  0.3445E+03
     -5.702  0.2177E+02  0.3466E+03
     -5.605  0.1863E+02  0.3484E+03
     -5.508  0.1518E+02  0.3499E+03
     -5.412  0.1166E+02  0.3510E+03
     -5.315  0.9893E+01  0.3519E+03
     -5.218  0.1098E+02  0.3530E+03
     -5.121  0.1254E+02  0.3542E+03
     -5.025  0.1173E+02  0.3554E+03
     -4.928  0.9537E+01  0.3563E+03
     -4.831  0.8753E+01  0.3571E+03
     -4.735  0.1023E+02  0.3581E+03
     -4.638  0.1297E+02  0.3594E+03
     -4.541  0.1540E+02  0.3609E+03
     -4.444  0.1573E+02  0.3624E+03
     -4.348  0.1292E+02  0.3636E+03
     -4.251  0.8276E+01  0.3644E+03
     -4.154  0.4404E+01  0.3649E+03
     -4.058  0.2530E+01  0.3651E+03
     -3.961  0.2152E+01  0.3653E+03
     -3.864  0.2463E+01  0.3655E+03
     -3.767  0.3212E+01  0.3659E+03
     -3.671  0.4178E+01  0.3663E+03
     -3.574  0.4676E+01  0.3667E+03
     -3.477  0.4166E+01  0.3671E+03
     -3.381  0.3072E+01  0.3674E+03
     -3.284  0.2532E+01  0.3677E+03
     -3.187  0.2972E+01  0.3679E+03
     -3.090  0.3714E+01  0.3683E+03
     -2.994  0.4321E+01  0.3687E+03
     -2.897  0.4989E+01  0.3692E+03
     -2.800  0.5798E+01  0.3698E+03
     -2.704  0.6829E+01  0.3704E+03
     -2.607  0.8032E+01  0.3712E+03
     -2.510  0.8377E+01  0.3720E+03
     -2.413  0.7152E+01  0.3727E+03
     -2.317  0.5900E+01  0.3733E+03
     -2.220  0.6404E+01  0.3739E+03
     -2.123  0.7683E+01  0.3746E+03
     -2.027  0.7386E+01  0.3754E+03
     -1.930  0.5728E+01  0.3759E+03
     -1.833  0.5737E+01  0.3765E+03
     -1.736  0.9477E+01  0.3774E+03
     -1.640  0.1564E+02  0.3789E+03
     -1.543  0.2074E+02  0.3809E+03
     -1.446  0.2247E+02  0.3831E+03
     -1.349  0.2141E+02  0.3851E+03
     -1.253  0.1959E+02  0.3870E+03
     -1.156  0.1875E+02  0.3888E+03
     -1.059  0.1881E+02  0.3907E+03
     -0.963  0.1798E+02  0.3924E+03
     -0.866  0.1568E+02  0.3939E+03
     -0.769  0.1325E+02  0.3952E+03
     -0.672  0.1166E+02  0.3963E+03
     -0.576  0.1110E+02  0.3974E+03
     -0.479  0.1129E+02  0.3985E+03
     -0.382  0.1189E+02  0.3996E+03
     -0.286  0.1326E+02  0.4009E+03
     -0.189  0.1556E+02  0.4024E+03
     -0.092  0.1770E+02  0.4041E+03
      0.005  0.1901E+02  0.4060E+03
      0.101  0.2033E+02  0.4080E+03
      0.198  0.2182E+02  0.4101E+03
      0.295  0.2179E+02  0.4122E+03
      0.391  0.1970E+02  0.4141E+03
      0.488  0.1806E+02  0.4158E+03
      0.585  0.1949E+02  0.4177E+03
      0.682  0.2355E+02  0.4200E+03
      0.778  0.2762E+02  0.4227E+03
      0.875  0.3025E+02  0.4256E+03
      0.972  0.3244E+02  0.4287E+03
      1.068  0.3561E+02  0.4322E+03
      1.165  0.3997E+02  0.4360E+03
      1.262  0.4492E+02  0.4404E+03
      1.359  0.4907E+02  0.4451E+03
      1.455  0.5053E+02  0.4500E+03
      1.552  0.4757E+02  0.4546E+03
      1.649  0.3977E+02  0.4585E+03
      1.745  0.2877E+02  0.4612E+03
      1.842  0.1723E+02  0.4629E+03
      1.939  0.7971E+01  0.4637E+03
      2.036  0.2656E+01  0.4639E+03
      2.132  0.6072E+00  0.4640E+03
      2.229  0.9258E-01  0.4640E+03
      2.326  0.9274E-02  0.4640E+03
      2.422  0.6054E-03  0.4640E+03
      2.519  0.2562E-04  0.4640E+03
      2.616  0.7007E-06  0.4640E+03
      2.713  0.1234E-07  0.4640E+03
      2.809  0.1396E-09  0.4640E+03
      2.906  0.1014E-11  0.4640E+03
      3.003  0.3444E-14  0.4640E+03
      3.099  0.0000E+00  0.4640E+03
      3.196  0.0000E+00  0.4640E+03
      3.293  0.0000E+00  0.4640E+03
      3.390  0.0000E+00  0.4640E+03
      3.486  0.0000E+00  0.4640E+03
      3.583  0.0000E+00  0.4640E+03
      3.680  0.0000E+00  0.4640E+03
      3.777  0.0000E+00  0.4640E+03
