       N       E                     dE             d eps       ncg     rms          rms(c)
DAV:   1     0.365115143759E+04    0.36512E+04   -0.11930E+05  1712   0.105E+03
DAV:   2     0.175935608399E+03   -0.34752E+04   -0.32214E+04  2136   0.237E+02
DAV:   3    -0.834087451672E+03   -0.10100E+04   -0.99070E+03  1800   0.134E+02
DAV:   4    -0.895911778666E+03   -0.61824E+02   -0.60785E+02  1720   0.428E+01
DAV:   5    -0.897399765538E+03   -0.14880E+01   -0.14662E+01  1768   0.648E+00    0.452E+01
DAV:   6    -0.848646019911E+03    0.48754E+02   -0.46529E+01  1576   0.125E+01    0.265E+01
DAV:   7    -0.830496829179E+03    0.18149E+02   -0.64518E+01  1552   0.143E+01    0.726E+00
DAV:   8    -0.830209441650E+03    0.28739E+00   -0.23798E+00  1640   0.337E+00    0.101E+00
DAV:   9    -0.830101775471E+03    0.10767E+00   -0.27875E-01  1624   0.106E+00    0.571E-01
DAV:  10    -0.830065956659E+03    0.35819E-01   -0.53849E-02  1736   0.469E-01    0.356E-01
DAV:  11    -0.830039039355E+03    0.26917E-01   -0.20892E-02  1560   0.247E-01    0.252E-01
DAV:  12    -0.830035094291E+03    0.39451E-02   -0.24888E-02  1536   0.234E-01    0.154E-01
DAV:  13    -0.830047637931E+03   -0.12544E-01   -0.85054E-03  1560   0.159E-01    0.897E-02
DAV:  14    -0.830064443140E+03   -0.16805E-01   -0.15345E-03  1576   0.806E-02    0.601E-02
DAV:  15    -0.830083403547E+03   -0.18960E-01   -0.16562E-03  1568   0.646E-02    0.306E-02
DAV:  16    -0.830092329169E+03   -0.89256E-02   -0.50537E-04  1608   0.369E-02    0.225E-02
DAV:  17    -0.830097336320E+03   -0.50072E-02   -0.29898E-04  1576   0.230E-02    0.123E-02
DAV:  18    -0.830099493702E+03   -0.21574E-02   -0.92263E-05  1616   0.142E-02    0.595E-03
DAV:  19    -0.830100653959E+03   -0.11603E-02   -0.45308E-05  1456   0.916E-03    0.400E-03
DAV:  20    -0.830100967754E+03   -0.31379E-03   -0.46673E-06  1392   0.342E-03    0.263E-03
DAV:  21    -0.830101221050E+03   -0.25330E-03   -0.43014E-06  1272   0.299E-03    0.112E-03
DAV:  22    -0.830101270551E+03   -0.49500E-04   -0.28002E-07  1064   0.125E-03    0.761E-04
DAV:  23    -0.830101315821E+03   -0.45270E-04   -0.41817E-07   960   0.102E-03    0.510E-04
DAV:  24    -0.830101328281E+03   -0.12460E-04   -0.99375E-08   992   0.567E-04    0.262E-04
DAV:  25    -0.830101334952E+03   -0.66708E-05   -0.51674E-08   920   0.464E-04    0.167E-04
DAV:  26    -0.830101339273E+03   -0.43214E-05   -0.31178E-08   912   0.287E-04    0.147E-04
DAV:  27    -0.830101340768E+03   -0.14950E-05   -0.87372E-09   960   0.230E-04    0.958E-05
DAV:  28    -0.830101342658E+03   -0.18903E-05   -0.77243E-09   936   0.161E-04    0.927E-05
DAV:  29    -0.830101342959E+03   -0.30079E-06   -0.21216E-09   960   0.119E-04
   1 F= -.83010134E+03 E0= -.83006651E+03  d E =-.696580E-01
