<?xml version="1.0" encoding="ISO-8859-1"?>
<modeling>
 <generator>
  <i name="program" type="string">vasp </i>
  <i name="version" type="string">6.5.0  </i>
  <i name="subversion" type="string">16Dec24 (build Feb 19 2025 19:45:31) complex                          parallel </i>
  <i name="platform" type="string">LinuxNV </i>
  <i name="date" type="string">2025 10 25 </i>
  <i name="time" type="string">13:36:07 </i>
 </generator>
 <incar>
  <i type="int" name="ISTART">     0</i>
  <i type="string" name="PREC">Accurate   (Precision level)</i>
  <i type="string" name="ALGO">Normal</i>
  <i type="int" name="ISPIN">     1</i>
  <i type="int" name="ICHARG">     2</i>
  <i type="int" name="NELM">   150</i>
  <i type="int" name="IBRION">    -1</i>
  <i name="EDIFF">      0.00000100</i>
  <i type="int" name="NSW">     0</i>
  <i name="ENCUT">    500.00000000</i>
  <i type="string" name="LREAL">Auto         (Projection operators: automatic)</i>
  <i type="int" name="ISMEAR">     0</i>
  <i type="logical" name="KGAMMA"> T  </i>
  <i type="logical" name="LWAVE"> F  </i>
  <i type="logical" name="LCHARG"> F  </i>
 </incar>
 <primitive_cell>
  <structure name="primitive_cell" >
   <crystal>
    <varray name="basis" >
     <v>      28.05000000       0.00000000       0.00000000 </v>
     <v>       0.00000000       8.10000000       0.00000000 </v>
     <v>       0.00000000       0.00000000      33.50000000 </v>
    </varray>
    <i name="volume">   7611.36750000 </i>
    <varray name="rec_basis" >
     <v>       0.03565062       0.00000000       0.00000000 </v>
     <v>       0.00000000       0.12345679       0.00000000 </v>
     <v>       0.00000000       0.00000000       0.02985075 </v>
    </varray>
   </crystal>
   <varray name="positions" >
    <v>       0.00900499       0.09867136       0.51581194 </v>
    <v>       0.00750207       0.26584938       0.51284478 </v>
    <v>       0.05151907       0.01892617       0.50808060 </v>
    <v>       0.04757112       0.35036543       0.49821493 </v>
    <v>       0.09056257       0.10190284       0.48917015 </v>
    <v>       0.08891872       0.27004691       0.48480000 </v>
    <v>       0.13588485       0.02257395       0.48208060 </v>
    <v>       0.13054403       0.34902963       0.46906866 </v>
    <v>       0.17709127       0.10136963       0.46488060 </v>
    <v>       0.17309661       0.27066543       0.45568358 </v>
    <v>       0.22201176       0.02704469       0.46128358 </v>
    <v>       0.21875045       0.34960494       0.45074328 </v>
    <v>       0.26585169       0.10413025       0.45346567 </v>
    <v>       0.26493583       0.27172469       0.44839701 </v>
    <v>       0.30989447       0.01840691       0.45467463 </v>
    <v>       0.30977398       0.35286420       0.44565075 </v>
    <v>       0.35395615       0.10343333       0.45573134 </v>
    <v>       0.35506595       0.27001111       0.44807761 </v>
    <v>       0.39666667       0.02370469       0.46762388 </v>
    <v>       0.40124064       0.35360617       0.45186866 </v>
    <v>       0.44026738       0.10272716       0.47142985 </v>
    <v>       0.44364706       0.27359753       0.46226866 </v>
    <v>       0.48032086       0.02315765       0.48734328 </v>
    <v>       0.48773262       0.35742716       0.47032836 </v>
    <v>       0.52266310       0.10915235       0.49877910 </v>
    <v>       0.52542246       0.27530741       0.48922388 </v>
    <v>       0.56280927       0.02640691       0.51408060 </v>
    <v>       0.56723708       0.35736296       0.50078806 </v>
    <v>       0.60676292       0.10766025       0.52339701 </v>
    <v>       0.60996791       0.27341728       0.51160299 </v>
    <v>       0.65050267       0.02793790       0.53312239 </v>
    <v>       0.65350446       0.35653704       0.51791940 </v>
    <v>       0.69728342       0.11291543       0.53663284 </v>
    <v>       0.69612121       0.27759012       0.52794328 </v>
    <v>       0.74178966       0.02369543       0.54257910 </v>
    <v>       0.74017825       0.35125432       0.53243582 </v>
    <v>       0.78606417       0.10502679       0.54333134 </v>
    <v>       0.78444207       0.26854444       0.53624776 </v>
    <v>       0.83031729       0.02669432       0.55136119 </v>
    <v>       0.82824955       0.35713827       0.53855522 </v>
    <v>       0.87418182       0.10892198       0.54716716 </v>
    <v>       0.87251337       0.27207284       0.53841493 </v>
    <v>       0.91845276       0.02952086       0.54216418 </v>
    <v>       0.91600000       0.35622099       0.52935224 </v>
    <v>       0.95869875       0.10492444       0.52892537 </v>
    <v>       0.95917647       0.27420617       0.52462985 </v>
    <v>       0.01171800       0.59918519       0.52189254 </v>
    <v>       0.01325807       0.77087407       0.52580896 </v>
    <v>       0.04867166       0.51791111       0.50135224 </v>
    <v>       0.05355793       0.85035432       0.51336418 </v>
    <v>       0.09262460       0.60068889       0.49143284 </v>
    <v>       0.09434617       0.76692469       0.49881791 </v>
    <v>       0.13169982       0.51881852       0.47306567 </v>
    <v>       0.13636292       0.85358148       0.48489851 </v>
    <v>       0.17647451       0.59990864       0.46677612 </v>
    <v>       0.17838645       0.76908148       0.47200896 </v>
    <v>       0.21940606       0.51885062       0.45384179 </v>
    <v>       0.22121747       0.85471481       0.46322687 </v>
    <v>       0.26528806       0.60379136       0.45227164 </v>
    <v>       0.26497825       0.76779506       0.45790448 </v>
    <v>       0.31054510       0.52495556       0.44668955 </v>
    <v>       0.30948307       0.84871605       0.45991940 </v>
    <v>       0.35396934       0.60430123       0.45095821 </v>
    <v>       0.35400820       0.76699753       0.46025672 </v>
    <v>       0.40057041       0.52173704       0.45348955 </v>
    <v>       0.39612478       0.84957037       0.46788358 </v>
    <v>       0.44106595       0.60719259       0.46390149 </v>
    <v>       0.43842424       0.76856049       0.47721194 </v>
    <v>       0.48626738       0.52277284       0.47029254 </v>
    <v>       0.48105169       0.85486790       0.48815522 </v>
    <v>       0.52589661       0.60424815       0.48808657 </v>
    <v>       0.52364706       0.77050864       0.49758209 </v>
    <v>       0.57255971       0.52575679       0.49823284 </v>
    <v>       0.56425668       0.85531728       0.51145672 </v>
    <v>       0.61473440       0.60974815       0.50771045 </v>
    <v>       0.60961854       0.77432840       0.51941194 </v>
    <v>       0.65578610       0.53027284       0.51702985 </v>
    <v>       0.64945811       0.85688889       0.53467164 </v>
    <v>       0.69774332       0.60829383       0.53226866 </v>
    <v>       0.69459180       0.77665062       0.53961194 </v>
    <v>       0.74125134       0.51968395       0.53634627 </v>
    <v>       0.73905526       0.85280617       0.54938507 </v>
    <v>       0.78424242       0.60048889       0.54446866 </v>
    <v>       0.78204278       0.77098889       0.55295522 </v>
    <v>       0.82894118       0.52115309       0.54035821 </v>
    <v>       0.82816043       0.85299012       0.55380299 </v>
    <v>       0.87457754       0.60621481       0.54173731 </v>
    <v>       0.87491266       0.77519136       0.54751343 </v>
    <v>       0.91826025       0.52132963       0.53347463 </v>
    <v>       0.91987879       0.85940370       0.54625373 </v>
    <v>       0.96166488       0.60501975       0.53245075 </v>
    <v>       0.96276292       0.77820247       0.54159701 </v>
   </varray>
  </structure>
  <varray name="primitive_index" >
   <v type="int" >        1 </v>
   <v type="int" >        2 </v>
   <v type="int" >        3 </v>
   <v type="int" >        4 </v>
   <v type="int" >        5 </v>
   <v type="int" >        6 </v>
   <v type="int" >        7 </v>
   <v type="int" >        8 </v>
   <v type="int" >        9 </v>
   <v type="int" >       10 </v>
   <v type="int" >       11 </v>
   <v type="int" >       12 </v>
   <v type="int" >       13 </v>
   <v type="int" >       14 </v>
   <v type="int" >       15 </v>
   <v type="int" >       16 </v>
   <v type="int" >       17 </v>
   <v type="int" >       18 </v>
   <v type="int" >       19 </v>
   <v type="int" >       20 </v>
   <v type="int" >       21 </v>
   <v type="int" >       22 </v>
   <v type="int" >       23 </v>
   <v type="int" >       24 </v>
   <v type="int" >       25 </v>
   <v type="int" >       26 </v>
   <v type="int" >       27 </v>
   <v type="int" >       28 </v>
   <v type="int" >       29 </v>
   <v type="int" >       30 </v>
   <v type="int" >       31 </v>
   <v type="int" >       32 </v>
   <v type="int" >       33 </v>
   <v type="int" >       34 </v>
   <v type="int" >       35 </v>
   <v type="int" >       36 </v>
   <v type="int" >       37 </v>
   <v type="int" >       38 </v>
   <v type="int" >       39 </v>
   <v type="int" >       40 </v>
   <v type="int" >       41 </v>
   <v type="int" >       42 </v>
   <v type="int" >       43 </v>
   <v type="int" >       44 </v>
   <v type="int" >       45 </v>
   <v type="int" >       46 </v>
   <v type="int" >       47 </v>
   <v type="int" >       48 </v>
   <v type="int" >       49 </v>
   <v type="int" >       50 </v>
   <v type="int" >       51 </v>
   <v type="int" >       52 </v>
   <v type="int" >       53 </v>
   <v type="int" >       54 </v>
   <v type="int" >       55 </v>
   <v type="int" >       56 </v>
   <v type="int" >       57 </v>
   <v type="int" >       58 </v>
   <v type="int" >       59 </v>
   <v type="int" >       60 </v>
   <v type="int" >       61 </v>
   <v type="int" >       62 </v>
   <v type="int" >       63 </v>
   <v type="int" >       64 </v>
   <v type="int" >       65 </v>
   <v type="int" >       66 </v>
   <v type="int" >       67 </v>
   <v type="int" >       68 </v>
   <v type="int" >       69 </v>
   <v type="int" >       70 </v>
   <v type="int" >       71 </v>
   <v type="int" >       72 </v>
   <v type="int" >       73 </v>
   <v type="int" >       74 </v>
   <v type="int" >       75 </v>
   <v type="int" >       76 </v>
   <v type="int" >       77 </v>
   <v type="int" >       78 </v>
   <v type="int" >       79 </v>
   <v type="int" >       80 </v>
   <v type="int" >       81 </v>
   <v type="int" >       82 </v>
   <v type="int" >       83 </v>
   <v type="int" >       84 </v>
   <v type="int" >       85 </v>
   <v type="int" >       86 </v>
   <v type="int" >       87 </v>
   <v type="int" >       88 </v>
   <v type="int" >       89 </v>
   <v type="int" >       90 </v>
   <v type="int" >       91 </v>
   <v type="int" >       92 </v>
  </varray>
 </primitive_cell>
 <kpoints>
  <generation param="Gamma">
   <v type="int" name="divisions">       1        4        1 </v>
   <v name="usershift">      0.00000000       0.00000000       0.00000000 </v>
   <v name="genvec1">      1.00000000       0.00000000       0.00000000 </v>
   <v name="genvec2">      0.00000000       0.25000000       0.00000000 </v>
   <v name="genvec3">      0.00000000       0.00000000       1.00000000 </v>
   <v name="shift">      0.00000000       0.00000000       0.00000000 </v>
  </generation>
  <varray name="kpointlist" >
   <v>       0.00000000       0.00000000       0.00000000 </v>
   <v>       0.00000000       0.25000000       0.00000000 </v>
   <v>       0.00000000       0.50000000       0.00000000 </v>
  </varray>
  <varray name="weights" >
   <v>       0.25000000 </v>
   <v>       0.50000000 </v>
   <v>       0.25000000 </v>
  </varray>
 </kpoints>
 <parameters>
  <separator name="general" >
   <i type="string" name="SYSTEM">unknown system</i>
   <i type="logical" name="LCOMPAT"> F  </i>
  </separator>
  <separator name="electronic" >
   <i type="string" name="PREC">accura</i>
   <i name="ENMAX">    500.00000000</i>
   <i name="ENAUG">    644.87300000</i>
   <i name="EDIFF">      0.00000100</i>
   <i type="int" name="IALGO">    38</i>
   <i type="int" name="IWAVPR">    10</i>
   <i type="int" name="NBANDS">   232</i>
   <i type="int" name="NBANDSLOW">    -1</i>
   <i type="int" name="NBANDSHIGH">    -1</i>
   <i name="NELECT">    368.00000000</i>
   <i type="int" name="TURBO">     0</i>
   <i type="int" name="IRESTART">     0</i>
   <i type="int" name="NREBOOT">     0</i>
   <i type="int" name="NMIN">     0</i>
   <i name="EREF">      0.00000000</i>
   <separator name="electronic smearing" >
    <i type="int" name="ISMEAR">     0</i>
    <i name="SIGMA">      0.20000000</i>
    <i name="KSPACING">      0.50000000</i>
    <i type="logical" name="KGAMMA"> T  </i>
    <i type="logical" name="KBLOWUP"> T  </i>
   </separator>
   <separator name="electronic projectors" >
    <i type="logical" name="LREAL"> T  </i>
    <v name="ROPT">     -0.00025000</v>
    <i type="int" name="LMAXPAW">  -100</i>
    <i type="int" name="LMAXMIX">     2</i>
    <i type="logical" name="NLSPLINE"> F  </i>
   </separator>
   <separator name="electronic startup" >
    <i type="int" name="ISTART">     0</i>
    <i type="int" name="ICHARG">     2</i>
    <i type="int" name="INIWAV">     1</i>
   </separator>
   <separator name="electronic spin" >
    <i type="int" name="ISPIN">     1</i>
    <i type="logical" name="LNONCOLLINEAR"> F  </i>
    <v name="MAGMOM">      1.00000000      1.00000000      1.00000000      1.00000000      1.00000000      1.00000000      1.00000000      1.00000000      1.00000000      1.00000000      1.00000000      1.00000000      1.00000000      1.00000000      1.00000000      1.00000000      1.00000000      1.00000000      1.00000000      1.00000000
      1.00000000      1.00000000      1.00000000      1.00000000      1.00000000      1.00000000      1.00000000      1.00000000      1.00000000      1.00000000      1.00000000      1.00000000      1.00000000      1.00000000      1.00000000      1.00000000      1.00000000      1.00000000      1.00000000      1.00000000
      1.00000000      1.00000000      1.00000000      1.00000000      1.00000000      1.00000000      1.00000000      1.00000000      1.00000000      1.00000000      1.00000000      1.00000000      1.00000000      1.00000000      1.00000000      1.00000000      1.00000000      1.00000000      1.00000000      1.00000000
      1.00000000      1.00000000      1.00000000      1.00000000      1.00000000      1.00000000      1.00000000      1.00000000      1.00000000      1.00000000      1.00000000      1.00000000      1.00000000      1.00000000      1.00000000      1.00000000      1.00000000      1.00000000      1.00000000      1.00000000
      1.00000000      1.00000000      1.00000000      1.00000000      1.00000000      1.00000000      1.00000000      1.00000000      1.00000000      1.00000000      1.00000000      1.00000000</v>
    <i name="NUPDOWN">     -1.00000000</i>
    <i type="logical" name="LSORBIT"> F  </i>
    <v name="SAXIS">      0.00000000      0.00000000      1.00000000</v>
    <i type="logical" name="LSPIRAL"> F  </i>
    <v name="QSPIRAL">      0.00000000      0.00000000      0.00000000</v>
    <i type="logical" name="LZEROZ"> F  </i>
   </separator>
   <separator name="electronic exchange-correlation" >
    <i type="logical" name="LASPH"> F  </i>
   </separator>
   <separator name="electronic convergence" >
    <i type="int" name="NELM">   150</i>
    <i type="int" name="NELMDL">    -5</i>
    <i type="int" name="NELMIN">     2</i>
    <i name="ENINI">    500.00000000</i>
    <separator name="electronic convergence detail" >
     <i type="logical" name="LDIAG"> T  </i>
     <i type="logical" name="LSUBROT"> F  </i>
     <i name="WEIMIN">      0.00000000</i>
     <i name="EBREAK">      0.00000000</i>
     <i name="DEPER">      0.30000000</i>
     <i type="int" name="NRMM">     4</i>
     <i name="TIME">      0.40000000</i>
    </separator>
   </separator>
   <separator name="electronic mixer" >
    <i name="AMIX">      0.40000000</i>
    <i name="BMIX">      1.00000000</i>
    <i name="AMIN">      0.10000000</i>
    <i name="AMIX_MAG">      1.60000000</i>
    <i name="BMIX_MAG">      1.00000000</i>
    <separator name="electronic mixer details" >
     <i type="int" name="IMIX">     4</i>
     <i type="logical" name="MIXFIRST"> F  </i>
     <i type="int" name="MAXMIX">   -45</i>
     <i name="WC">    100.00000000</i>
     <i type="int" name="INIMIX">     1</i>
     <i type="int" name="MIXPRE">     1</i>
     <i type="int" name="MREMOVE">     5</i>
    </separator>
   </separator>
   <separator name="electronic dipolcorrection" >
    <i type="logical" name="LDIPOL"> F  </i>
    <i type="logical" name="LMONO"> F  </i>
    <i type="int" name="IDIPOL">     0</i>
    <i name="EPSILON">      1.00000000</i>
    <v name="DIPOL">   -100.00000000   -100.00000000   -100.00000000</v>
    <i name="EFIELD">      0.00000000</i>
    <i type="logical" name="LVACPOTAV"> F  </i>
   </separator>
  </separator>
  <separator name="grids" >
   <i type="int" name="NGX">   210</i>
   <i type="int" name="NGY">    60</i>
   <i type="int" name="NGZ">   250</i>
   <i type="int" name="NGXF">   420</i>
   <i type="int" name="NGYF">   120</i>
   <i type="int" name="NGZF">   500</i>
   <i type="logical" name="ADDGRID"> F  </i>
  </separator>
  <separator name="ionic" >
   <i type="int" name="NSW">     0</i>
   <i type="int" name="IBRION">    -1</i>
   <i type="int" name="MDALGO">     0</i>
   <i type="int" name="ISIF">     2</i>
   <i name="PSTRESS">      0.00000000</i>
   <i name="EDIFFG">      0.00001000</i>
   <i type="int" name="NFREE">     0</i>
   <i name="POTIM">      0.50000000</i>
   <i name="SMASS">     -3.00000000</i>
   <i name="SCALEE">      1.00000000</i>
  </separator>
  <separator name="ionic md" >
   <i name="TEBEG">      0.00010000</i>
   <i name="TEEND">      0.00010000</i>
   <i type="int" name="NBLOCK">     1</i>
   <i type="int" name="KBLOCK">     1</i>
   <i type="int" name="NPACO">   256</i>
   <i name="APACO">     10.00000000</i>
  </separator>
  <separator name="symmetry" >
   <i type="int" name="ISYM">     2</i>
   <i name="SYMPREC">      0.00001000</i>
  </separator>
  <separator name="dos" >
   <i type="int" name="LORBIT">     0</i>
   <v name="RWIGS">     -1.00000000</v>
   <i type="int" name="NEDOS">   301</i>
   <i name="EMIN">     10.00000000</i>
   <i name="EMAX">    -10.00000000</i>
   <i name="EFERMI">      0.00000000</i>
  </separator>
  <separator name="writing" >
   <i type="int" name="NWRITE">     2</i>
   <i type="logical" name="LWAVE"> F  </i>
   <i type="logical" name="LDOWNSAMPLE"> F  </i>
   <i type="logical" name="LCHARG"> F  </i>
   <i type="logical" name="LPARD"> F  </i>
   <i type="logical" name="LVTOT"> F  </i>
   <i type="logical" name="LVHAR"> F  </i>
   <i type="logical" name="LELF"> F  </i>
   <i type="logical" name="LOPTICS"> F  </i>
   <v name="STM">      0.00000000      0.00000000      0.00000000      0.00000000      0.00000000      0.00000000      0.00000000</v>
  </separator>
  <separator name="performance" >
   <i type="int" name="NPAR">     2</i>
   <i type="int" name="NSIM">     4</i>
   <i type="int" name="NBLK">    -1</i>
   <i type="logical" name="LPLANE"> T  </i>
   <i type="logical" name="LSCALAPACK"> T  </i>
   <i type="logical" name="LSCAAWARE"> F  </i>
   <i type="logical" name="LSCALU"> F  </i>
   <i type="logical" name="LASYNC"> F  </i>
   <i type="logical" name="LORBITALREAL"> F  </i>
  </separator>
  <separator name="miscellaneous" >
   <i type="int" name="IDIOT">     3</i>
   <i type="int" name="PHON_NSTRUCT">    -1</i>
   <i type="logical" name="LMUSIC"> F  </i>
   <v name="POMASS">     12.01100000</v>
   <v name="DARWINR">      0.00000000</v>
   <v name="DARWINV">      1.00000000</v>
   <i type="logical" name="LCORR"> T  </i>
  </separator>
  <i type="logical" name="GGA_COMPAT"> T  </i>
  <i type="logical" name="LBERRY"> F  </i>
  <i type="int" name="ICORELEVEL">     0</i>
  <i type="logical" name="LDAU"> F  </i>
  <i type="int" name="I_CONSTRAINED_M">     0</i>
  <separator name="electronic exchange-correlation" >
   <i type="string" name="GGA    ">PE</i>
   <i type="string" name="XC_C">1</i>
   <i type="int" name="VOSKOWN">     0</i>
   <i type="logical" name="LHFCALC"> F  </i>
   <i type="string" name="PRECFOCK"></i>
   <i type="logical" name="LSYMGRAD"> F  </i>
   <i type="logical" name="LHFONE"> F  </i>
   <i type="logical" name="LRHFCALC"> F  </i>
   <i type="logical" name="LTHOMAS"> F  </i>
   <i type="logical" name="LMODELHF"> F  </i>
   <i type="logical" name="LFOCKACE"> F  </i>
   <i name="ENCUT4O">     -1.00000000</i>
   <i type="int" name="EXXOEP">     0</i>
   <i type="int" name="FOURORBIT">     0</i>
   <i name="AEXX">      0.00000000</i>
   <i name="HFALPHA">      0.00000000</i>
   <i name="MCALPHA">      0.00000000</i>
   <i name="ALDAX">      1.00000000</i>
   <i name="AGGAX">      1.00000000</i>
   <i name="AMGGAX">      1.00000000</i>
   <i name="ALDAC">      1.00000000</i>
   <i name="AGGAC">      1.00000000</i>
   <i name="AMGGAC">      1.00000000</i>
   <i type="int" name="NKREDX">     1</i>
   <i type="int" name="NKREDY">     1</i>
   <i type="int" name="NKREDZ">     1</i>
   <i type="logical" name="SHIFTRED"> F  </i>
   <i type="logical" name="ODDONLY"> F  </i>
   <i type="logical" name="EVENONLY"> F  </i>
   <i type="int" name="LMAXFOCK">     0</i>
   <i type="int" name="NMAXFOCKAE">     0</i>
   <i type="logical" name="LFOCKAEDFT"> F  </i>
   <i name="HFSCREEN">      0.00000000</i>
   <i name="HFSCREENC">      0.00000000</i>
   <i type="int" name="NBANDSGWLOW">     0</i>
  </separator>
  <separator name="vdW DFT" >
   <i type="logical" name="LUSE_VDW"> F  </i>
   <i type="int" name="IVDW_NL">    -1</i>
   <i type="logical" name="LSPIN_VDW"> F  </i>
   <i name="ZAB_VDW">     -0.84910000</i>
   <i name="GAMMA_VDW">      1.39626340</i>
   <i name="ALPHA_VDW">      0.00000000</i>
   <i name="PARAM1">      0.12340000</i>
   <i name="PARAM2">      1.00000000</i>
   <i name="BPARAM">      6.30000000</i>
   <i name="CPARAM">      0.00930000</i>
  </separator>
  <separator name="model GW" >
   <i type="int" name="MODEL_GW">     0</i>
   <i name="MODEL_EPS0">     49.63935326</i>
   <i name="MODEL_ALPHA">      1.00000000</i>
  </separator>
  <separator name="linear response parameters" >
   <i type="logical" name="LEPSILON"> F  </i>
   <i type="logical" name="LRPA"> F  </i>
   <i type="logical" name="LNABLA"> F  </i>
   <i type="logical" name="LVEL"> F  </i>
   <i name="CSHIFT">      0.10000000</i>
   <i name="OMEGAMAX">     -1.00000000</i>
   <i name="DEG_THRESHOLD">      0.00200000</i>
   <i name="RTIME">     -0.10000000</i>
   <i name="WPLASMAI">      0.00000000</i>
   <v name="DFIELD">      0.00000000      0.00000000      0.00000000</v>
   <v name="WPLASMA">      0.00000000      0.00000000      0.00000000      0.00000000      0.00000000      0.00000000      0.00000000      0.00000000      0.00000000</v>
  </separator>
  <separator name="orbital magnetization" >
   <i type="logical" name="NUCIND"> F  </i>
   <v name="MAGPOS">      0.00000000      0.00000000      0.00000000</v>
   <i type="logical" name="LNICSALL"> T  </i>
   <i type="logical" name="ORBITALMAG"> F  </i>
   <i type="logical" name="LMAGBLOCH"> F  </i>
   <i type="logical" name="LCHIMAG"> F  </i>
   <i type="logical" name="LGAUGE"> T  </i>
   <i type="int" name="MAGATOM">     0</i>
   <v name="MAGDIPOL">      0.00000000      0.00000000      0.00000000</v>
   <v name="AVECCONST">      0.00000000      0.00000000      0.00000000</v>
  </separator>
  <separator name="response functions" >
   <i type="logical" name="LALL_IN_ONE"> F  </i>
   <i type="int" name="IALL_IN_ONE">    -1</i>
   <i type="int" name="NBANDS_WAVE">    -1</i>
   <i type="logical" name="LFINITE_TEMPERATURE"> F  </i>
   <i type="logical" name="LADDER"> F  </i>
   <i type="logical" name="LRPAFORCE"> F  </i>
   <i type="logical" name="LFXC"> F  </i>
   <i type="logical" name="LHARTREE"> T  </i>
   <i type="int" name="IBSE">     2</i>
   <v type="int" name="KPOINT">    -1     0     0     0</v>
   <i type="logical" name="LTCTC"> F  </i>
   <i type="logical" name="LTCTE"> F  </i>
   <i type="logical" name="LTETE"> F  </i>
   <i type="logical" name="LTRIPLET"> F  </i>
   <i type="logical" name="LFXCEPS"> F  </i>
   <i type="logical" name="LFXHEG"> F  </i>
   <i type="int" name="NATURALO">     2</i>
   <i type="logical" name="LHOLEGF"> F  </i>
   <i type="logical" name="L2ORDER"> F  </i>
   <i type="logical" name="LDMP1"> F  </i>
   <i type="logical" name="LMP2LT"> F  </i>
   <i type="logical" name="LSMP2LT"> F  </i>
   <i type="logical" name="LGWLF"> F  </i>
   <i name="ENCUTGW">     -1.60000002</i>
   <i name="ENCUTGWSOFT">     -1.60000002</i>
   <i name="ENCUTLF">     -1.00000000</i>
   <i type="logical" name="ESF_SPLINES"> F  </i>
   <i name="ESF_CONV">      0.01000000</i>
   <i type="int" name="ESF_NINTER">    15</i>
   <i type="int" name="LMAXMP2">    -1</i>
   <i name="SCISSOR">      0.00000000</i>
   <i type="int" name="NOMEGA">     0</i>
   <i type="int" name="NOMEGAR">     0</i>
   <i type="int" name="NBANDSGW">    -1</i>
   <i type="int" name="NBANDSO">    -1</i>
   <i type="int" name="NBANDSV">    -1</i>
   <i type="int" name="NELMGW">     1</i>
   <i type="int" name="NELMHF">     1</i>
   <i type="int" name="DIM">     3</i>
   <i type="int" name="IESPILON">     4</i>
   <i type="int" name="ANTIRES">     0</i>
   <i name="OMEGAMAX">    -30.00000000</i>
   <i name="OMEGAMIN">    -30.00000000</i>
   <i name="OMEGATL">   -200.00000000</i>
   <i type="int" name="OMEGAGRID">     0</i>
   <i name="CSHIFT">     -0.10000000</i>
   <i type="logical" name="LSELFENERGY"> F  </i>
   <i type="logical" name="LSPECTRAL"> F  </i>
   <i type="logical" name="LSPECTRALGW"> F  </i>
   <i type="logical" name="LSINGLES"> F  </i>
   <i type="logical" name="LFERMIGW"> F  </i>
   <i type="logical" name="ODDONLYGW"> F  </i>
   <i type="logical" name="EVENONLYGW"> F  </i>
   <i type="int" name="NKREDLFX">     1</i>
   <i type="int" name="NKREDLFY">     1</i>
   <i type="int" name="NKREDLFZ">     1</i>
   <i type="int" name="MAXMEM">  2800</i>
   <i type="int" name="TELESCOPE">     0</i>
   <i type="int" name="NTAUPAR">    -1</i>
   <i type="int" name="NOMEGAPAR">    -1</i>
   <i name="DAMP_NEWTON">      0.80000001</i>
   <i name="LAMBDA">      1.00000000</i>
  </separator>
  <separator name="External order field" >
   <i name="OFIELD_KAPPA">      0.00000000</i>
   <v name="OFIELD_K">      0.00000000      0.00000000      0.00000000</v>
   <i name="OFIELD_Q6_NEAR">      0.00000000</i>
   <i name="OFIELD_Q6_FAR">      0.00000000</i>
   <i name="OFIELD_A">      0.00000000</i>
  </separator>
  <separator name="optional k-points parameters" >
   <i type="int" name="KPOINTS_OPT_MODE">     1</i>
   <i type="logical" name="LKPOINTS_OPT"> F  </i>
  </separator>
 </parameters>
 <atominfo>
  <atoms>      92 </atoms>
  <types>       1 </types>
  <array name="atoms" >
   <dimension dim="1">ion</dimension>
   <field type="string">element</field>
   <field type="int">atomtype</field>
   <set>
    <rc><c>C </c><c>   1</c></rc>
    <rc><c>C </c><c>   1</c></rc>
    <rc><c>C </c><c>   1</c></rc>
    <rc><c>C </c><c>   1</c></rc>
    <rc><c>C </c><c>   1</c></rc>
    <rc><c>C </c><c>   1</c></rc>
    <rc><c>C </c><c>   1</c></rc>
    <rc><c>C </c><c>   1</c></rc>
    <rc><c>C </c><c>   1</c></rc>
    <rc><c>C </c><c>   1</c></rc>
    <rc><c>C </c><c>   1</c></rc>
    <rc><c>C </c><c>   1</c></rc>
    <rc><c>C </c><c>   1</c></rc>
    <rc><c>C </c><c>   1</c></rc>
    <rc><c>C </c><c>   1</c></rc>
    <rc><c>C </c><c>   1</c></rc>
    <rc><c>C </c><c>   1</c></rc>
    <rc><c>C </c><c>   1</c></rc>
    <rc><c>C </c><c>   1</c></rc>
    <rc><c>C </c><c>   1</c></rc>
    <rc><c>C </c><c>   1</c></rc>
    <rc><c>C </c><c>   1</c></rc>
    <rc><c>C </c><c>   1</c></rc>
    <rc><c>C </c><c>   1</c></rc>
    <rc><c>C </c><c>   1</c></rc>
    <rc><c>C </c><c>   1</c></rc>
    <rc><c>C </c><c>   1</c></rc>
    <rc><c>C </c><c>   1</c></rc>
    <rc><c>C </c><c>   1</c></rc>
    <rc><c>C </c><c>   1</c></rc>
    <rc><c>C </c><c>   1</c></rc>
    <rc><c>C </c><c>   1</c></rc>
    <rc><c>C </c><c>   1</c></rc>
    <rc><c>C </c><c>   1</c></rc>
    <rc><c>C </c><c>   1</c></rc>
    <rc><c>C </c><c>   1</c></rc>
    <rc><c>C </c><c>   1</c></rc>
    <rc><c>C </c><c>   1</c></rc>
    <rc><c>C </c><c>   1</c></rc>
    <rc><c>C </c><c>   1</c></rc>
    <rc><c>C </c><c>   1</c></rc>
    <rc><c>C </c><c>   1</c></rc>
    <rc><c>C </c><c>   1</c></rc>
    <rc><c>C </c><c>   1</c></rc>
    <rc><c>C </c><c>   1</c></rc>
    <rc><c>C </c><c>   1</c></rc>
    <rc><c>C </c><c>   1</c></rc>
    <rc><c>C </c><c>   1</c></rc>
    <rc><c>C </c><c>   1</c></rc>
    <rc><c>C </c><c>   1</c></rc>
    <rc><c>C </c><c>   1</c></rc>
    <rc><c>C </c><c>   1</c></rc>
    <rc><c>C </c><c>   1</c></rc>
    <rc><c>C </c><c>   1</c></rc>
    <rc><c>C </c><c>   1</c></rc>
    <rc><c>C </c><c>   1</c></rc>
    <rc><c>C </c><c>   1</c></rc>
    <rc><c>C </c><c>   1</c></rc>
    <rc><c>C </c><c>   1</c></rc>
    <rc><c>C </c><c>   1</c></rc>
    <rc><c>C </c><c>   1</c></rc>
    <rc><c>C </c><c>   1</c></rc>
    <rc><c>C </c><c>   1</c></rc>
    <rc><c>C </c><c>   1</c></rc>
    <rc><c>C </c><c>   1</c></rc>
    <rc><c>C </c><c>   1</c></rc>
    <rc><c>C </c><c>   1</c></rc>
    <rc><c>C </c><c>   1</c></rc>
    <rc><c>C </c><c>   1</c></rc>
    <rc><c>C </c><c>   1</c></rc>
    <rc><c>C </c><c>   1</c></rc>
    <rc><c>C </c><c>   1</c></rc>
    <rc><c>C </c><c>   1</c></rc>
    <rc><c>C </c><c>   1</c></rc>
    <rc><c>C </c><c>   1</c></rc>
    <rc><c>C </c><c>   1</c></rc>
    <rc><c>C </c><c>   1</c></rc>
    <rc><c>C </c><c>   1</c></rc>
    <rc><c>C </c><c>   1</c></rc>
    <rc><c>C </c><c>   1</c></rc>
    <rc><c>C </c><c>   1</c></rc>
    <rc><c>C </c><c>   1</c></rc>
    <rc><c>C </c><c>   1</c></rc>
    <rc><c>C </c><c>   1</c></rc>
    <rc><c>C </c><c>   1</c></rc>
    <rc><c>C </c><c>   1</c></rc>
    <rc><c>C </c><c>   1</c></rc>
    <rc><c>C </c><c>   1</c></rc>
    <rc><c>C </c><c>   1</c></rc>
    <rc><c>C </c><c>   1</c></rc>
    <rc><c>C </c><c>   1</c></rc>
    <rc><c>C </c><c>   1</c></rc>
   </set>
  </array>
  <array name="atomtypes" >
   <dimension dim="1">type</dimension>
   <field type="int">atomspertype</field>
   <field type="string">element</field>
   <field>mass</field>
   <field>valence</field>
   <field type="string">pseudopotential</field>
   <set>
    <rc><c>  92</c><c>C </c><c>     12.01100000</c><c>      4.00000000</c><c>  PAW_PBE C 08Apr2002                   </c></rc>
   </set>
  </array>
 </atominfo>
 <structure name="initialpos" >
  <crystal>
   <varray name="basis" >
    <v>      28.05000000       0.00000000       0.00000000 </v>
    <v>       0.00000000       8.10000000       0.00000000 </v>
    <v>       0.00000000       0.00000000      33.50000000 </v>
   </varray>
   <i name="volume">   7611.36750000 </i>
   <varray name="rec_basis" >
    <v>       0.03565062       0.00000000       0.00000000 </v>
    <v>       0.00000000       0.12345679       0.00000000 </v>
    <v>       0.00000000       0.00000000       0.02985075 </v>
   </varray>
  </crystal>
  <varray name="positions" >
   <v>       0.00900499       0.09867136       0.51581194 </v>
   <v>       0.00750207       0.26584938       0.51284478 </v>
   <v>       0.05151907       0.01892617       0.50808060 </v>
   <v>       0.04757112       0.35036543       0.49821493 </v>
   <v>       0.09056257       0.10190284       0.48917015 </v>
   <v>       0.08891872       0.27004691       0.48480000 </v>
   <v>       0.13588485       0.02257395       0.48208060 </v>
   <v>       0.13054403       0.34902963       0.46906866 </v>
   <v>       0.17709127       0.10136963       0.46488060 </v>
   <v>       0.17309661       0.27066543       0.45568358 </v>
   <v>       0.22201176       0.02704469       0.46128358 </v>
   <v>       0.21875045       0.34960494       0.45074328 </v>
   <v>       0.26585169       0.10413025       0.45346567 </v>
   <v>       0.26493583       0.27172469       0.44839701 </v>
   <v>       0.30989447       0.01840691       0.45467463 </v>
   <v>       0.30977398       0.35286420       0.44565075 </v>
   <v>       0.35395615       0.10343333       0.45573134 </v>
   <v>       0.35506595       0.27001111       0.44807761 </v>
   <v>       0.39666667       0.02370469       0.46762388 </v>
   <v>       0.40124064       0.35360617       0.45186866 </v>
   <v>       0.44026738       0.10272716       0.47142985 </v>
   <v>       0.44364706       0.27359753       0.46226866 </v>
   <v>       0.48032086       0.02315765       0.48734328 </v>
   <v>       0.48773262       0.35742716       0.47032836 </v>
   <v>       0.52266310       0.10915235       0.49877910 </v>
   <v>       0.52542246       0.27530741       0.48922388 </v>
   <v>       0.56280927       0.02640691       0.51408060 </v>
   <v>       0.56723708       0.35736296       0.50078806 </v>
   <v>       0.60676292       0.10766025       0.52339701 </v>
   <v>       0.60996791       0.27341728       0.51160299 </v>
   <v>       0.65050267       0.02793790       0.53312239 </v>
   <v>       0.65350446       0.35653704       0.51791940 </v>
   <v>       0.69728342       0.11291543       0.53663284 </v>
   <v>       0.69612121       0.27759012       0.52794328 </v>
   <v>       0.74178966       0.02369543       0.54257910 </v>
   <v>       0.74017825       0.35125432       0.53243582 </v>
   <v>       0.78606417       0.10502679       0.54333134 </v>
   <v>       0.78444207       0.26854444       0.53624776 </v>
   <v>       0.83031729       0.02669432       0.55136119 </v>
   <v>       0.82824955       0.35713827       0.53855522 </v>
   <v>       0.87418182       0.10892198       0.54716716 </v>
   <v>       0.87251337       0.27207284       0.53841493 </v>
   <v>       0.91845276       0.02952086       0.54216418 </v>
   <v>       0.91600000       0.35622099       0.52935224 </v>
   <v>       0.95869875       0.10492444       0.52892537 </v>
   <v>       0.95917647       0.27420617       0.52462985 </v>
   <v>       0.01171800       0.59918519       0.52189254 </v>
   <v>       0.01325807       0.77087407       0.52580896 </v>
   <v>       0.04867166       0.51791111       0.50135224 </v>
   <v>       0.05355793       0.85035432       0.51336418 </v>
   <v>       0.09262460       0.60068889       0.49143284 </v>
   <v>       0.09434617       0.76692469       0.49881791 </v>
   <v>       0.13169982       0.51881852       0.47306567 </v>
   <v>       0.13636292       0.85358148       0.48489851 </v>
   <v>       0.17647451       0.59990864       0.46677612 </v>
   <v>       0.17838645       0.76908148       0.47200896 </v>
   <v>       0.21940606       0.51885062       0.45384179 </v>
   <v>       0.22121747       0.85471481       0.46322687 </v>
   <v>       0.26528806       0.60379136       0.45227164 </v>
   <v>       0.26497825       0.76779506       0.45790448 </v>
   <v>       0.31054510       0.52495556       0.44668955 </v>
   <v>       0.30948307       0.84871605       0.45991940 </v>
   <v>       0.35396934       0.60430123       0.45095821 </v>
   <v>       0.35400820       0.76699753       0.46025672 </v>
   <v>       0.40057041       0.52173704       0.45348955 </v>
   <v>       0.39612478       0.84957037       0.46788358 </v>
   <v>       0.44106595       0.60719259       0.46390149 </v>
   <v>       0.43842424       0.76856049       0.47721194 </v>
   <v>       0.48626738       0.52277284       0.47029254 </v>
   <v>       0.48105169       0.85486790       0.48815522 </v>
   <v>       0.52589661       0.60424815       0.48808657 </v>
   <v>       0.52364706       0.77050864       0.49758209 </v>
   <v>       0.57255971       0.52575679       0.49823284 </v>
   <v>       0.56425668       0.85531728       0.51145672 </v>
   <v>       0.61473440       0.60974815       0.50771045 </v>
   <v>       0.60961854       0.77432840       0.51941194 </v>
   <v>       0.65578610       0.53027284       0.51702985 </v>
   <v>       0.64945811       0.85688889       0.53467164 </v>
   <v>       0.69774332       0.60829383       0.53226866 </v>
   <v>       0.69459180       0.77665062       0.53961194 </v>
   <v>       0.74125134       0.51968395       0.53634627 </v>
   <v>       0.73905526       0.85280617       0.54938507 </v>
   <v>       0.78424242       0.60048889       0.54446866 </v>
   <v>       0.78204278       0.77098889       0.55295522 </v>
   <v>       0.82894118       0.52115309       0.54035821 </v>
   <v>       0.82816043       0.85299012       0.55380299 </v>
   <v>       0.87457754       0.60621481       0.54173731 </v>
   <v>       0.87491266       0.77519136       0.54751343 </v>
   <v>       0.91826025       0.52132963       0.53347463 </v>
   <v>       0.91987879       0.85940370       0.54625373 </v>
   <v>       0.96166488       0.60501975       0.53245075 </v>
   <v>       0.96276292       0.77820247       0.54159701 </v>
  </varray>
 </structure>
 <calculation>
  <scstep>
   <time name="dav">   11.06   11.07</time>
   <time name="total">   11.52   11.55</time>
   <energy>
    <i name="alphaZ">     91.34886789 </i>
    <i name="ewald"> 119335.51622109 </i>
    <i name="hartreedc">-128679.53660088 </i>
    <i name="XCdc">   1220.34007375 </i>
    <i name="pawpsdc">   9984.02826696 </i>
    <i name="pawaedc"> -10036.41360137 </i>
    <i name="eentropy">     -0.83492494 </i>
    <i name="bandstr">  -1800.95165883 </i>
    <i name="atom">  13537.65479391 </i>
    <i name="e_fr_energy">   3651.15143759 </i>
    <i name="e_wo_entrp">   3651.98636252 </i>
    <i name="e_0_energy">   3651.56890005 </i>
   </energy>
  </scstep>
  <scstep>
   <time name="dav">   13.09   13.09</time>
   <time name="total">   13.09   13.09</time>
   <energy>
    <i name="e_fr_energy">    175.93560840 </i>
    <i name="e_wo_entrp">    176.11893969 </i>
    <i name="e_0_energy">    176.02727404 </i>
   </energy>
  </scstep>
  <scstep>
   <time name="dav">   11.33   11.33</time>
   <time name="total">   11.33   11.33</time>
   <energy>
    <i name="e_fr_energy">   -834.08745167 </i>
    <i name="e_wo_entrp">   -834.04558411 </i>
    <i name="e_0_energy">   -834.06651789 </i>
   </energy>
  </scstep>
  <scstep>
   <time name="dav">   10.96   10.97</time>
   <time name="total">   10.96   10.97</time>
   <energy>
    <i name="e_fr_energy">   -895.91177867 </i>
    <i name="e_wo_entrp">   -895.85199101 </i>
    <i name="e_0_energy">   -895.88188484 </i>
   </energy>
  </scstep>
  <scstep>
   <time name="dav">   11.20   11.21</time>
   <time name="total">   12.69   12.69</time>
   <energy>
    <i name="e_fr_energy">   -897.39976554 </i>
    <i name="e_wo_entrp">   -897.33940727 </i>
    <i name="e_0_energy">   -897.36958640 </i>
   </energy>
  </scstep>
  <scstep>
   <time name="dav">   10.22   10.22</time>
   <time name="total">   12.02   12.02</time>
   <energy>
    <i name="e_fr_energy">   -848.64601991 </i>
    <i name="e_wo_entrp">   -848.58172353 </i>
    <i name="e_0_energy">   -848.61387172 </i>
   </energy>
  </scstep>
  <scstep>
   <time name="dav">   10.09   10.10</time>
   <time name="total">   11.89   11.89</time>
   <energy>
    <i name="e_fr_energy">   -830.49682918 </i>
    <i name="e_wo_entrp">   -830.42517763 </i>
    <i name="e_0_energy">   -830.46100341 </i>
   </energy>
  </scstep>
  <scstep>
   <time name="dav">   10.58   10.58</time>
   <time name="total">   12.38   12.38</time>
   <energy>
    <i name="e_fr_energy">   -830.20944165 </i>
    <i name="e_wo_entrp">   -830.13982542 </i>
    <i name="e_0_energy">   -830.17463354 </i>
   </energy>
  </scstep>
  <scstep>
   <time name="dav">   10.49   10.50</time>
   <time name="total">   12.30   12.30</time>
   <energy>
    <i name="e_fr_energy">   -830.10177547 </i>
    <i name="e_wo_entrp">   -830.03224161 </i>
    <i name="e_0_energy">   -830.06700854 </i>
   </energy>
  </scstep>
  <scstep>
   <time name="dav">   11.01   11.02</time>
   <time name="total">   12.82   12.83</time>
   <energy>
    <i name="e_fr_energy">   -830.06595666 </i>
    <i name="e_wo_entrp">   -829.99651312 </i>
    <i name="e_0_energy">   -830.03123489 </i>
   </energy>
  </scstep>
  <scstep>
   <time name="dav">   10.13   10.13</time>
   <time name="total">   11.95   11.96</time>
   <energy>
    <i name="e_fr_energy">   -830.03903936 </i>
    <i name="e_wo_entrp">   -829.96946972 </i>
    <i name="e_0_energy">   -830.00425454 </i>
   </energy>
  </scstep>
  <scstep>
   <time name="dav">   10.00   10.00</time>
   <time name="total">   11.82   11.82</time>
   <energy>
    <i name="e_fr_energy">   -830.03509429 </i>
    <i name="e_wo_entrp">   -829.96539765 </i>
    <i name="e_0_energy">   -830.00024597 </i>
   </energy>
  </scstep>
  <scstep>
   <time name="dav">   10.12   10.12</time>
   <time name="total">   11.94   11.95</time>
   <energy>
    <i name="e_fr_energy">   -830.04763793 </i>
    <i name="e_wo_entrp">   -829.97802711 </i>
    <i name="e_0_energy">   -830.01283252 </i>
   </energy>
  </scstep>
  <scstep>
   <time name="dav">   10.21   10.21</time>
   <time name="total">   12.04   12.05</time>
   <energy>
    <i name="e_fr_energy">   -830.06444314 </i>
    <i name="e_wo_entrp">   -829.99478909 </i>
    <i name="e_0_energy">   -830.02961611 </i>
   </energy>
  </scstep>
  <scstep>
   <time name="dav">   10.16   10.17</time>
   <time name="total">   12.01   12.02</time>
   <energy>
    <i name="e_fr_energy">   -830.08340355 </i>
    <i name="e_wo_entrp">   -830.01372795 </i>
    <i name="e_0_energy">   -830.04856575 </i>
   </energy>
  </scstep>
  <scstep>
   <time name="dav">   10.36   10.37</time>
   <time name="total">   12.23   12.24</time>
   <energy>
    <i name="e_fr_energy">   -830.09232917 </i>
    <i name="e_wo_entrp">   -830.02269123 </i>
    <i name="e_0_energy">   -830.05751020 </i>
   </energy>
  </scstep>
  <scstep>
   <time name="dav">   10.21   10.21</time>
   <time name="total">   12.07   12.08</time>
   <energy>
    <i name="e_fr_energy">   -830.09733632 </i>
    <i name="e_wo_entrp">   -830.02768159 </i>
    <i name="e_0_energy">   -830.06250896 </i>
   </energy>
  </scstep>
  <scstep>
   <time name="dav">   10.40   10.40</time>
   <time name="total">   12.28   12.29</time>
   <energy>
    <i name="e_fr_energy">   -830.09949370 </i>
    <i name="e_wo_entrp">   -830.02983160 </i>
    <i name="e_0_energy">   -830.06466265 </i>
   </energy>
  </scstep>
  <scstep>
   <time name="dav">    9.60    9.61</time>
   <time name="total">   11.48   11.50</time>
   <energy>
    <i name="e_fr_energy">   -830.10065396 </i>
    <i name="e_wo_entrp">   -830.03099612 </i>
    <i name="e_0_energy">   -830.06582504 </i>
   </energy>
  </scstep>
  <scstep>
   <time name="dav">    9.32    9.32</time>
   <time name="total">   11.22   11.22</time>
   <energy>
    <i name="e_fr_energy">   -830.10096775 </i>
    <i name="e_wo_entrp">   -830.03130983 </i>
    <i name="e_0_energy">   -830.06613879 </i>
   </energy>
  </scstep>
  <scstep>
   <time name="dav">    8.70    8.71</time>
   <time name="total">   10.63   10.63</time>
   <energy>
    <i name="e_fr_energy">   -830.10122105 </i>
    <i name="e_wo_entrp">   -830.03156300 </i>
    <i name="e_0_energy">   -830.06639202 </i>
   </energy>
  </scstep>
  <scstep>
   <time name="dav">    7.72    7.72</time>
   <time name="total">    9.65    9.65</time>
   <energy>
    <i name="e_fr_energy">   -830.10127055 </i>
    <i name="e_wo_entrp">   -830.03161290 </i>
    <i name="e_0_energy">   -830.06644173 </i>
   </energy>
  </scstep>
  <scstep>
   <time name="dav">    7.17    7.17</time>
   <time name="total">    9.11    9.11</time>
   <energy>
    <i name="e_fr_energy">   -830.10131582 </i>
    <i name="e_wo_entrp">   -830.03165780 </i>
    <i name="e_0_energy">   -830.06648681 </i>
   </energy>
  </scstep>
  <scstep>
   <time name="dav">    7.34    7.35</time>
   <time name="total">    9.30    9.30</time>
   <energy>
    <i name="e_fr_energy">   -830.10132828 </i>
    <i name="e_wo_entrp">   -830.03167012 </i>
    <i name="e_0_energy">   -830.06649920 </i>
   </energy>
  </scstep>
  <scstep>
   <time name="dav">    6.97    6.97</time>
   <time name="total">    8.94    8.94</time>
   <energy>
    <i name="e_fr_energy">   -830.10133495 </i>
    <i name="e_wo_entrp">   -830.03167697 </i>
    <i name="e_0_energy">   -830.06650596 </i>
   </energy>
  </scstep>
  <scstep>
   <time name="dav">    6.93    6.94</time>
   <time name="total">    8.93    8.93</time>
   <energy>
    <i name="e_fr_energy">   -830.10133927 </i>
    <i name="e_wo_entrp">   -830.03168135 </i>
    <i name="e_0_energy">   -830.06651031 </i>
   </energy>
  </scstep>
  <scstep>
   <time name="dav">    7.18    7.18</time>
   <time name="total">    9.19    9.19</time>
   <energy>
    <i name="e_fr_energy">   -830.10134077 </i>
    <i name="e_wo_entrp">   -830.03168284 </i>
    <i name="e_0_energy">   -830.06651180 </i>
   </energy>
  </scstep>
  <scstep>
   <time name="dav">    7.06    7.07</time>
   <time name="total">    9.08    9.09</time>
   <energy>
    <i name="e_fr_energy">   -830.10134266 </i>
    <i name="e_wo_entrp">   -830.03168471 </i>
    <i name="e_0_energy">   -830.06651368 </i>
   </energy>
  </scstep>
  <scstep>
   <time name="dav">    7.20    7.20</time>
   <time name="total">    7.56    7.56</time>
   <energy>
    <i name="alphaZ">     91.34886789 </i>
    <i name="ewald"> 119335.51622109 </i>
    <i name="hartreedc">-130423.48322231 </i>
    <i name="XCdc">   1277.24225558 </i>
    <i name="pawpsdc">  40728.30030780 </i>
    <i name="pawaedc"> -40792.22215697 </i>
    <i name="eentropy">     -0.06965796 </i>
    <i name="bandstr">  -4584.38875197 </i>
    <i name="atom">  13537.65479391 </i>
    <i name="e_fr_energy">   -830.10134296 </i>
    <i name="e_wo_entrp">   -830.03168499 </i>
    <i name="e_0_energy">   -830.06651398 </i>
   </energy>
  </scstep>
  <structure>
   <crystal>
    <varray name="basis" >
     <v>      28.05000000       0.00000000       0.00000000 </v>
     <v>       0.00000000       8.10000000       0.00000000 </v>
     <v>       0.00000000       0.00000000      33.50000000 </v>
    </varray>
    <i name="volume">   7611.36750000 </i>
    <varray name="rec_basis" >
     <v>       0.03565062       0.00000000       0.00000000 </v>
     <v>       0.00000000       0.12345679       0.00000000 </v>
     <v>       0.00000000       0.00000000       0.02985075 </v>
    </varray>
   </crystal>
   <varray name="positions" >
    <v>       0.00900499       0.09867136       0.51581194 </v>
    <v>       0.00750207       0.26584938       0.51284478 </v>
    <v>       0.05151907       0.01892617       0.50808060 </v>
    <v>       0.04757112       0.35036543       0.49821493 </v>
    <v>       0.09056257       0.10190284       0.48917015 </v>
    <v>       0.08891872       0.27004691       0.48480000 </v>
    <v>       0.13588485       0.02257395       0.48208060 </v>
    <v>       0.13054403       0.34902963       0.46906866 </v>
    <v>       0.17709127       0.10136963       0.46488060 </v>
    <v>       0.17309661       0.27066543       0.45568358 </v>
    <v>       0.22201176       0.02704469       0.46128358 </v>
    <v>       0.21875045       0.34960494       0.45074328 </v>
    <v>       0.26585169       0.10413025       0.45346567 </v>
    <v>       0.26493583       0.27172469       0.44839701 </v>
    <v>       0.30989447       0.01840691       0.45467463 </v>
    <v>       0.30977398       0.35286420       0.44565075 </v>
    <v>       0.35395615       0.10343333       0.45573134 </v>
    <v>       0.35506595       0.27001111       0.44807761 </v>
    <v>       0.39666667       0.02370469       0.46762388 </v>
    <v>       0.40124064       0.35360617       0.45186866 </v>
    <v>       0.44026738       0.10272716       0.47142985 </v>
    <v>       0.44364706       0.27359753       0.46226866 </v>
    <v>       0.48032086       0.02315765       0.48734328 </v>
    <v>       0.48773262       0.35742716       0.47032836 </v>
    <v>       0.52266310       0.10915235       0.49877910 </v>
    <v>       0.52542246       0.27530741       0.48922388 </v>
    <v>       0.56280927       0.02640691       0.51408060 </v>
    <v>       0.56723708       0.35736296       0.50078806 </v>
    <v>       0.60676292       0.10766025       0.52339701 </v>
    <v>       0.60996791       0.27341728       0.51160299 </v>
    <v>       0.65050267       0.02793790       0.53312239 </v>
    <v>       0.65350446       0.35653704       0.51791940 </v>
    <v>       0.69728342       0.11291543       0.53663284 </v>
    <v>       0.69612121       0.27759012       0.52794328 </v>
    <v>       0.74178966       0.02369543       0.54257910 </v>
    <v>       0.74017825       0.35125432       0.53243582 </v>
    <v>       0.78606417       0.10502679       0.54333134 </v>
    <v>       0.78444207       0.26854444       0.53624776 </v>
    <v>       0.83031729       0.02669432       0.55136119 </v>
    <v>       0.82824955       0.35713827       0.53855522 </v>
    <v>       0.87418182       0.10892198       0.54716716 </v>
    <v>       0.87251337       0.27207284       0.53841493 </v>
    <v>       0.91845276       0.02952086       0.54216418 </v>
    <v>       0.91600000       0.35622099       0.52935224 </v>
    <v>       0.95869875       0.10492444       0.52892537 </v>
    <v>       0.95917647       0.27420617       0.52462985 </v>
    <v>       0.01171800       0.59918519       0.52189254 </v>
    <v>       0.01325807       0.77087407       0.52580896 </v>
    <v>       0.04867166       0.51791111       0.50135224 </v>
    <v>       0.05355793       0.85035432       0.51336418 </v>
    <v>       0.09262460       0.60068889       0.49143284 </v>
    <v>       0.09434617       0.76692469       0.49881791 </v>
    <v>       0.13169982       0.51881852       0.47306567 </v>
    <v>       0.13636292       0.85358148       0.48489851 </v>
    <v>       0.17647451       0.59990864       0.46677612 </v>
    <v>       0.17838645       0.76908148       0.47200896 </v>
    <v>       0.21940606       0.51885062       0.45384179 </v>
    <v>       0.22121747       0.85471481       0.46322687 </v>
    <v>       0.26528806       0.60379136       0.45227164 </v>
    <v>       0.26497825       0.76779506       0.45790448 </v>
    <v>       0.31054510       0.52495556       0.44668955 </v>
    <v>       0.30948307       0.84871605       0.45991940 </v>
    <v>       0.35396934       0.60430123       0.45095821 </v>
    <v>       0.35400820       0.76699753       0.46025672 </v>
    <v>       0.40057041       0.52173704       0.45348955 </v>
    <v>       0.39612478       0.84957037       0.46788358 </v>
    <v>       0.44106595       0.60719259       0.46390149 </v>
    <v>       0.43842424       0.76856049       0.47721194 </v>
    <v>       0.48626738       0.52277284       0.47029254 </v>
    <v>       0.48105169       0.85486790       0.48815522 </v>
    <v>       0.52589661       0.60424815       0.48808657 </v>
    <v>       0.52364706       0.77050864       0.49758209 </v>
    <v>       0.57255971       0.52575679       0.49823284 </v>
    <v>       0.56425668       0.85531728       0.51145672 </v>
    <v>       0.61473440       0.60974815       0.50771045 </v>
    <v>       0.60961854       0.77432840       0.51941194 </v>
    <v>       0.65578610       0.53027284       0.51702985 </v>
    <v>       0.64945811       0.85688889       0.53467164 </v>
    <v>       0.69774332       0.60829383       0.53226866 </v>
    <v>       0.69459180       0.77665062       0.53961194 </v>
    <v>       0.74125134       0.51968395       0.53634627 </v>
    <v>       0.73905526       0.85280617       0.54938507 </v>
    <v>       0.78424242       0.60048889       0.54446866 </v>
    <v>       0.78204278       0.77098889       0.55295522 </v>
    <v>       0.82894118       0.52115309       0.54035821 </v>
    <v>       0.82816043       0.85299012       0.55380299 </v>
    <v>       0.87457754       0.60621481       0.54173731 </v>
    <v>       0.87491266       0.77519136       0.54751343 </v>
    <v>       0.91826025       0.52132963       0.53347463 </v>
    <v>       0.91987879       0.85940370       0.54625373 </v>
    <v>       0.96166488       0.60501975       0.53245075 </v>
    <v>       0.96276292       0.77820247       0.54159701 </v>
   </varray>
  </structure>
  <varray name="forces" >
   <v>       1.18013819      -0.22794763       0.06892997 </v>
   <v>       3.56149897       1.34467071      -1.91926484 </v>
   <v>       0.18562883       0.31817022      -0.60746052 </v>
   <v>      -0.87564095      -0.53148968       0.02938227 </v>
   <v>       0.90030158      -0.68363151       0.94639733 </v>
   <v>       0.34577113      -0.56922803      -0.85085508 </v>
   <v>      -0.35773706       0.25235972      -1.01925419 </v>
   <v>      -0.17062558       0.64462877      -0.34615907 </v>
   <v>      -1.28132584       1.30278932       0.27226694 </v>
   <v>       0.95457933      -1.28352751       1.53982908 </v>
   <v>      -0.56945057      -2.06826619      -0.06591518 </v>
   <v>      -0.04538837       0.45682449      -0.56485897 </v>
   <v>       0.03986030      -0.44143556      -0.13061989 </v>
   <v>      -0.30203922       0.24041750      -0.23985940 </v>
   <v>      -0.23673539       0.28821995       0.89756455 </v>
   <v>       0.60749495       0.39807771      -0.32873203 </v>
   <v>       0.27385709      -0.37619471      -0.02284795 </v>
   <v>       0.23133654       0.80494071       0.39647843 </v>
   <v>      -0.91687565      -1.29270136      -0.94309892 </v>
   <v>      -1.52196078      -1.06272989      -0.44564042 </v>
   <v>       0.39491077       2.00185246       0.15046038 </v>
   <v>       0.38175321      -1.65257996       0.33302255 </v>
   <v>       0.96562602       0.67942510       0.27406078 </v>
   <v>      -1.75440941      -2.59628655      -0.09379683 </v>
   <v>      -0.71020119      -0.10764404      -0.71858063 </v>
   <v>       0.47938461      -0.22058033       0.48343982 </v>
   <v>       0.86332877      -0.31753496       0.40813230 </v>
   <v>       2.29202823      -0.05060240      -0.73067263 </v>
   <v>       0.66190358       0.71635082      -1.15242844 </v>
   <v>      -0.39422116      -0.40739404       1.39698394 </v>
   <v>       0.74634755       0.56509817       0.76978896 </v>
   <v>       0.15478781       0.99184512      -0.38054537 </v>
   <v>      -1.70995398      -2.84956110      -0.66814536 </v>
   <v>       0.15975663      -1.34164554       0.32671859 </v>
   <v>      -1.75554350       0.09393141       0.98514422 </v>
   <v>       1.44505159       1.01052676      -0.38740851 </v>
   <v>      -0.09549073      -1.48583937       0.39760652 </v>
   <v>       0.26008022       2.22680814       0.33847002 </v>
   <v>      -1.18693531      -1.65100192      -0.03951293 </v>
   <v>       0.03826910      -2.70387645      -0.69467340 </v>
   <v>      -0.03826749      -0.41816483      -0.69550822 </v>
   <v>       0.46412019       1.35785285      -0.43762229 </v>
   <v>       0.04892855      -1.09417619       0.58427403 </v>
   <v>       0.76209139      -1.85392077       0.16332779 </v>
   <v>      -0.84271727       0.32443078       0.60357942 </v>
   <v>      -3.30853311      -0.47433293       0.32491942 </v>
   <v>       1.39076401       0.99730968      -1.30077505 </v>
   <v>       0.71781827      -1.06348123       0.85048412 </v>
   <v>       0.10410567       1.62438287       0.89923049 </v>
   <v>       0.46228507       0.27266610      -0.10641604 </v>
   <v>      -1.03845996      -0.58389922       0.04255004 </v>
   <v>       1.18236244       0.74128792      -0.67839216 </v>
   <v>       0.91751724       0.47140063       0.47078921 </v>
   <v>      -0.02091620      -1.09958174       0.60168668 </v>
   <v>       0.22346307      -0.24503748      -0.69700028 </v>
   <v>      -0.41048640       0.69905706       0.12777130 </v>
   <v>       0.46420504       0.88419452       0.46853637 </v>
   <v>       0.39875745      -0.21272030       0.48608337 </v>
   <v>      -0.89752703      -2.18831551      -0.29092374 </v>
   <v>      -0.09128577       1.87200037       0.50588283 </v>
   <v>      -1.60197087      -1.15438741       0.09170639 </v>
   <v>       0.00147649       0.85510203      -0.74218414 </v>
   <v>       2.23431502      -1.25981809       0.50022630 </v>
   <v>      -1.37766916       0.79239717      -0.31040376 </v>
   <v>      -2.61478230       1.07993788      -0.86452124 </v>
   <v>       0.45693519       1.99361119       1.32160854 </v>
   <v>       2.43444615      -0.54581170       1.31219966 </v>
   <v>       1.10983385       0.29953381      -1.41977426 </v>
   <v>      -0.01872217       2.83345552       0.69385671 </v>
   <v>      -0.90405195      -1.26576193       0.47049945 </v>
   <v>       2.21827874       0.40038438       0.39315340 </v>
   <v>      -0.30376428       0.04788409      -0.66085972 </v>
   <v>      -3.70201032       0.22652077      -1.59235514 </v>
   <v>       1.17373124      -0.52872916       0.78947356 </v>
   <v>      -2.18447612       1.54668845       0.97093792 </v>
   <v>      -1.43011961       0.41244544      -0.77483897 </v>
   <v>       1.76472256      -2.01667477       0.60295140 </v>
   <v>       1.52801741       0.13886940      -0.47624461 </v>
   <v>      -0.86367434      -0.14554667      -0.50434656 </v>
   <v>       0.38939379      -0.95897287       0.54899139 </v>
   <v>      -0.42448453       1.05314339      -0.07689540 </v>
   <v>      -1.20711386       1.89098261      -0.71263951 </v>
   <v>       0.25420369       1.19168594       0.21201568 </v>
   <v>       2.83731146      -1.12525049      -0.66417455 </v>
   <v>       0.57808264       3.03738412       0.58470212 </v>
   <v>       0.96768219       0.80770563      -0.32563320 </v>
   <v>      -0.41093557      -0.17397879      -0.22002298 </v>
   <v>      -1.20524848      -0.64935902       0.97988482 </v>
   <v>      -0.41642944       2.83014370       0.02244913 </v>
   <v>      -0.33628481      -0.31890470       0.05384516 </v>
   <v>      -2.32366561       0.99230078       1.48724190 </v>
   <v>      -0.35041241      -2.71317161      -1.27767289 </v>
  </varray>
  <varray name="stress" >
   <v>      -4.50308023      -0.42256867       0.68901935 </v>
   <v>      -0.42256867      49.87570308      -0.29475359 </v>
   <v>       0.68901935      -0.29475358      -0.91412291 </v>
  </varray>
  <energy>
   <i name="e_fr_energy">   -830.10134296 </i>
   <i name="e_wo_entrp">   -830.03168499 </i>
   <i name="e_0_energy">   -830.06651398 </i>
  </energy>
  <time name="totalsc">  333.94  334.13</time>
  <eigenvalues>
   <array>
    <dimension dim="1">band</dimension>
    <dimension dim="2">kpoint</dimension>
    <dimension dim="3">spin</dimension>
    <field>eigene</field>
    <field>occ</field>
    <set>
     <set comment="spin 1">
      <set comment="kpoint 1">
       <r>  -23.2386    1.0000 </r>
       <r>  -23.0613    1.0000 </r>
       <r>  -22.9498    1.0000 </r>
       <r>  -22.6740    1.0000 </r>
       <r>  -22.5690    1.0000 </r>
       <r>  -22.3543    1.0000 </r>
       <r>  -22.0149    1.0000 </r>
       <r>  -21.9547    1.0000 </r>
       <r>  -21.5012    1.0000 </r>
       <r>  -21.4500    1.0000 </r>
       <r>  -21.3612    1.0000 </r>
       <r>  -21.3095    1.0000 </r>
       <r>  -21.2252    1.0000 </r>
       <r>  -21.1883    1.0000 </r>
       <r>  -21.0938    1.0000 </r>
       <r>  -21.0464    1.0000 </r>
       <r>  -20.9527    1.0000 </r>
       <r>  -20.9276    1.0000 </r>
       <r>  -20.7600    1.0000 </r>
       <r>  -20.4908    1.0000 </r>
       <r>  -20.3876    1.0000 </r>
       <r>  -20.3314    1.0000 </r>
       <r>  -20.1208    1.0000 </r>
       <r>  -20.1138    1.0000 </r>
       <r>  -19.9589    1.0000 </r>
       <r>  -19.6992    1.0000 </r>
       <r>  -19.5497    1.0000 </r>
       <r>  -19.4594    1.0000 </r>
       <r>  -19.1810    1.0000 </r>
       <r>  -18.9213    1.0000 </r>
       <r>  -18.6666    1.0000 </r>
       <r>  -18.6270    1.0000 </r>
       <r>  -18.5542    1.0000 </r>
       <r>  -18.3779    1.0000 </r>
       <r>  -18.1759    1.0000 </r>
       <r>  -17.6650    1.0000 </r>
       <r>  -17.3751    1.0000 </r>
       <r>  -17.1595    1.0000 </r>
       <r>  -17.0640    1.0000 </r>
       <r>  -16.9252    1.0000 </r>
       <r>  -16.8101    1.0000 </r>
       <r>  -16.6428    1.0000 </r>
       <r>  -16.6293    1.0000 </r>
       <r>  -16.6113    1.0000 </r>
       <r>  -16.5693    1.0000 </r>
       <r>  -16.5285    1.0000 </r>
       <r>  -16.4918    1.0000 </r>
       <r>  -16.4567    1.0000 </r>
       <r>  -16.3682    1.0000 </r>
       <r>  -16.3275    1.0000 </r>
       <r>  -16.2672    1.0000 </r>
       <r>  -16.1031    1.0000 </r>
       <r>  -16.0736    1.0000 </r>
       <r>  -16.0499    1.0000 </r>
       <r>  -15.9240    1.0000 </r>
       <r>  -15.6422    1.0000 </r>
       <r>  -15.4083    1.0000 </r>
       <r>  -15.3702    1.0000 </r>
       <r>  -15.3327    1.0000 </r>
       <r>  -15.2149    1.0000 </r>
       <r>  -15.0865    1.0000 </r>
       <r>  -15.0029    1.0000 </r>
       <r>  -14.3973    1.0000 </r>
       <r>  -14.1922    1.0000 </r>
       <r>  -14.1039    1.0000 </r>
       <r>  -14.0213    1.0000 </r>
       <r>  -13.8803    1.0000 </r>
       <r>  -13.7697    1.0000 </r>
       <r>  -13.6740    1.0000 </r>
       <r>  -13.6495    1.0000 </r>
       <r>  -13.4642    1.0000 </r>
       <r>  -13.4153    1.0000 </r>
       <r>  -13.2429    1.0000 </r>
       <r>  -13.2152    1.0000 </r>
       <r>  -13.0636    1.0000 </r>
       <r>  -12.9124    1.0000 </r>
       <r>  -12.6587    1.0000 </r>
       <r>  -12.4756    1.0000 </r>
       <r>  -12.1660    1.0000 </r>
       <r>  -12.0882    1.0000 </r>
       <r>  -12.0502    1.0000 </r>
       <r>  -11.9734    1.0000 </r>
       <r>  -11.8721    1.0000 </r>
       <r>  -11.8431    1.0000 </r>
       <r>  -11.7376    1.0000 </r>
       <r>  -11.5249    1.0000 </r>
       <r>  -11.3786    1.0000 </r>
       <r>  -11.2126    1.0000 </r>
       <r>  -11.0962    1.0000 </r>
       <r>  -11.0436    1.0000 </r>
       <r>  -11.0074    1.0000 </r>
       <r>  -10.9441    1.0000 </r>
       <r>  -10.7925    1.0000 </r>
       <r>  -10.7443    1.0000 </r>
       <r>  -10.7378    1.0000 </r>
       <r>  -10.6182    1.0000 </r>
       <r>  -10.5475    1.0000 </r>
       <r>  -10.4991    1.0000 </r>
       <r>  -10.4440    1.0000 </r>
       <r>  -10.4095    1.0000 </r>
       <r>  -10.3859    1.0000 </r>
       <r>  -10.3408    1.0000 </r>
       <r>  -10.2208    1.0000 </r>
       <r>  -10.1643    1.0000 </r>
       <r>  -10.1501    1.0000 </r>
       <r>  -10.0156    1.0000 </r>
       <r>   -9.9245    1.0000 </r>
       <r>   -9.8505    1.0000 </r>
       <r>   -9.7969    1.0000 </r>
       <r>   -9.6651    1.0000 </r>
       <r>   -9.6399    1.0000 </r>
       <r>   -9.6164    1.0000 </r>
       <r>   -9.6074    1.0000 </r>
       <r>   -9.5641    1.0000 </r>
       <r>   -9.5513    1.0000 </r>
       <r>   -9.5215    1.0000 </r>
       <r>   -9.4683    1.0000 </r>
       <r>   -9.4595    1.0000 </r>
       <r>   -9.4294    1.0000 </r>
       <r>   -9.4192    1.0000 </r>
       <r>   -9.3766    1.0000 </r>
       <r>   -9.3514    1.0000 </r>
       <r>   -9.3323    1.0000 </r>
       <r>   -9.3258    1.0000 </r>
       <r>   -9.2617    1.0000 </r>
       <r>   -9.2468    1.0000 </r>
       <r>   -9.2323    1.0000 </r>
       <r>   -9.2152    1.0000 </r>
       <r>   -9.1777    1.0000 </r>
       <r>   -9.0747    1.0000 </r>
       <r>   -9.0140    1.0000 </r>
       <r>   -9.0060    1.0000 </r>
       <r>   -8.9615    1.0000 </r>
       <r>   -8.9492    1.0000 </r>
       <r>   -8.9059    1.0000 </r>
       <r>   -8.8930    1.0000 </r>
       <r>   -8.8722    1.0000 </r>
       <r>   -8.7757    1.0000 </r>
       <r>   -8.7404    1.0000 </r>
       <r>   -8.6823    1.0000 </r>
       <r>   -8.6493    1.0000 </r>
       <r>   -8.6179    1.0000 </r>
       <r>   -8.5958    1.0000 </r>
       <r>   -8.5192    1.0000 </r>
       <r>   -8.4619    1.0000 </r>
       <r>   -8.4157    1.0000 </r>
       <r>   -8.0724    1.0000 </r>
       <r>   -7.9955    1.0000 </r>
       <r>   -7.8529    1.0000 </r>
       <r>   -7.7623    1.0000 </r>
       <r>   -7.6745    1.0000 </r>
       <r>   -7.6463    1.0000 </r>
       <r>   -7.5715    1.0000 </r>
       <r>   -7.5206    1.0000 </r>
       <r>   -7.4546    1.0000 </r>
       <r>   -7.4104    1.0000 </r>
       <r>   -7.3409    1.0000 </r>
       <r>   -7.1286    1.0000 </r>
       <r>   -7.0944    1.0000 </r>
       <r>   -6.9026    1.0000 </r>
       <r>   -6.8985    1.0000 </r>
       <r>   -6.6990    1.0000 </r>
       <r>   -6.6244    1.0000 </r>
       <r>   -6.5766    1.0000 </r>
       <r>   -6.5108    1.0000 </r>
       <r>   -6.2233    1.0000 </r>
       <r>   -6.1966    1.0000 </r>
       <r>   -6.0793    1.0000 </r>
       <r>   -5.9915    1.0000 </r>
       <r>   -5.9646    1.0000 </r>
       <r>   -5.9421    1.0000 </r>
       <r>   -5.9184    1.0000 </r>
       <r>   -5.8683    1.0000 </r>
       <r>   -5.0575    1.0000 </r>
       <r>   -4.9133    1.0000 </r>
       <r>   -4.8761    1.0000 </r>
       <r>   -4.6885    1.0000 </r>
       <r>   -4.5712    1.0000 </r>
       <r>   -4.4580    1.0000 </r>
       <r>   -4.4358    1.0000 </r>
       <r>   -4.3878    1.0000 </r>
       <r>   -3.7450    1.0000 </r>
       <r>   -3.6691    0.9998 </r>
       <r>   -3.1851    0.5380 </r>
       <r>   -3.1337    0.3942 </r>
       <r>   -2.7710    0.0023 </r>
       <r>   -2.5820    0.0000 </r>
       <r>   -2.5346    0.0000 </r>
       <r>   -2.2856    0.0000 </r>
       <r>   -2.1105    0.0000 </r>
       <r>   -1.7695    0.0000 </r>
       <r>   -1.6560    0.0000 </r>
       <r>   -1.5653    0.0000 </r>
       <r>   -1.5391    0.0000 </r>
       <r>   -1.4841    0.0000 </r>
       <r>   -1.3493    0.0000 </r>
       <r>   -1.2681    0.0000 </r>
       <r>   -1.0024    0.0000 </r>
       <r>   -0.8197    0.0000 </r>
       <r>   -0.7400    0.0000 </r>
       <r>   -0.5278    0.0000 </r>
       <r>   -0.4576    0.0000 </r>
       <r>   -0.0701    0.0000 </r>
       <r>    0.0909    0.0000 </r>
       <r>    0.1219    0.0000 </r>
       <r>    0.1774    0.0000 </r>
       <r>    0.1952    0.0000 </r>
       <r>    0.6180    0.0000 </r>
       <r>    0.6396    0.0000 </r>
       <r>    0.6695    0.0000 </r>
       <r>    0.7026    0.0000 </r>
       <r>    0.8117    0.0000 </r>
       <r>    0.9077    0.0000 </r>
       <r>    0.9129    0.0000 </r>
       <r>    0.9243    0.0000 </r>
       <r>    0.9847    0.0000 </r>
       <r>    0.9986    0.0000 </r>
       <r>    1.1501    0.0000 </r>
       <r>    1.1581    0.0000 </r>
       <r>    1.2209    0.0000 </r>
       <r>    1.3009    0.0000 </r>
       <r>    1.3106    0.0000 </r>
       <r>    1.3224    0.0000 </r>
       <r>    1.4084    0.0000 </r>
       <r>    1.4686    0.0000 </r>
       <r>    1.5493    0.0000 </r>
       <r>    1.5594    0.0000 </r>
       <r>    1.7148    0.0000 </r>
       <r>    1.7288    0.0000 </r>
       <r>    1.7300    0.0000 </r>
       <r>    1.7384    0.0000 </r>
       <r>    1.7765    0.0000 </r>
      </set>
      <set comment="kpoint 2">
       <r>  -23.1756    1.0000 </r>
       <r>  -22.9646    1.0000 </r>
       <r>  -22.8530    1.0000 </r>
       <r>  -22.6081    1.0000 </r>
       <r>  -22.4955    1.0000 </r>
       <r>  -22.4361    1.0000 </r>
       <r>  -22.1673    1.0000 </r>
       <r>  -22.0282    1.0000 </r>
       <r>  -21.9276    1.0000 </r>
       <r>  -21.8546    1.0000 </r>
       <r>  -21.7702    1.0000 </r>
       <r>  -21.6389    1.0000 </r>
       <r>  -21.2693    1.0000 </r>
       <r>  -21.0890    1.0000 </r>
       <r>  -21.0393    1.0000 </r>
       <r>  -20.9623    1.0000 </r>
       <r>  -20.5826    1.0000 </r>
       <r>  -20.5438    1.0000 </r>
       <r>  -20.4322    1.0000 </r>
       <r>  -20.2405    1.0000 </r>
       <r>  -20.1792    1.0000 </r>
       <r>  -20.0808    1.0000 </r>
       <r>  -20.0393    1.0000 </r>
       <r>  -19.9076    1.0000 </r>
       <r>  -19.8405    1.0000 </r>
       <r>  -19.5028    1.0000 </r>
       <r>  -19.4609    1.0000 </r>
       <r>  -19.1177    1.0000 </r>
       <r>  -19.0705    1.0000 </r>
       <r>  -18.8841    1.0000 </r>
       <r>  -18.6737    1.0000 </r>
       <r>  -18.5529    1.0000 </r>
       <r>  -18.5006    1.0000 </r>
       <r>  -18.2605    1.0000 </r>
       <r>  -18.1258    1.0000 </r>
       <r>  -18.0823    1.0000 </r>
       <r>  -18.0227    1.0000 </r>
       <r>  -17.9760    1.0000 </r>
       <r>  -17.7849    1.0000 </r>
       <r>  -17.7621    1.0000 </r>
       <r>  -17.4684    1.0000 </r>
       <r>  -17.3946    1.0000 </r>
       <r>  -17.2826    1.0000 </r>
       <r>  -17.0884    1.0000 </r>
       <r>  -17.0479    1.0000 </r>
       <r>  -16.5573    1.0000 </r>
       <r>  -16.4081    1.0000 </r>
       <r>  -16.1790    1.0000 </r>
       <r>  -16.0945    1.0000 </r>
       <r>  -15.8296    1.0000 </r>
       <r>  -15.7896    1.0000 </r>
       <r>  -15.6589    1.0000 </r>
       <r>  -15.5767    1.0000 </r>
       <r>  -15.4071    1.0000 </r>
       <r>  -15.3051    1.0000 </r>
       <r>  -15.1897    1.0000 </r>
       <r>  -15.0990    1.0000 </r>
       <r>  -15.0574    1.0000 </r>
       <r>  -14.9745    1.0000 </r>
       <r>  -14.9517    1.0000 </r>
       <r>  -14.9288    1.0000 </r>
       <r>  -14.7867    1.0000 </r>
       <r>  -14.5246    1.0000 </r>
       <r>  -14.3940    1.0000 </r>
       <r>  -14.3112    1.0000 </r>
       <r>  -14.1778    1.0000 </r>
       <r>  -13.9551    1.0000 </r>
       <r>  -13.9039    1.0000 </r>
       <r>  -13.3268    1.0000 </r>
       <r>  -13.2643    1.0000 </r>
       <r>  -13.1945    1.0000 </r>
       <r>  -13.1451    1.0000 </r>
       <r>  -12.9525    1.0000 </r>
       <r>  -12.8400    1.0000 </r>
       <r>  -12.7780    1.0000 </r>
       <r>  -12.7390    1.0000 </r>
       <r>  -12.6347    1.0000 </r>
       <r>  -12.5327    1.0000 </r>
       <r>  -12.3926    1.0000 </r>
       <r>  -12.3068    1.0000 </r>
       <r>  -12.1580    1.0000 </r>
       <r>  -12.1347    1.0000 </r>
       <r>  -12.0037    1.0000 </r>
       <r>  -11.9816    1.0000 </r>
       <r>  -11.7018    1.0000 </r>
       <r>  -11.6392    1.0000 </r>
       <r>  -11.4628    1.0000 </r>
       <r>  -11.3589    1.0000 </r>
       <r>  -11.2612    1.0000 </r>
       <r>  -11.1846    1.0000 </r>
       <r>  -11.0784    1.0000 </r>
       <r>  -11.0380    1.0000 </r>
       <r>  -10.9813    1.0000 </r>
       <r>  -10.9482    1.0000 </r>
       <r>  -10.9198    1.0000 </r>
       <r>  -10.8902    1.0000 </r>
       <r>  -10.8533    1.0000 </r>
       <r>  -10.7965    1.0000 </r>
       <r>  -10.7576    1.0000 </r>
       <r>  -10.6409    1.0000 </r>
       <r>  -10.5762    1.0000 </r>
       <r>  -10.4926    1.0000 </r>
       <r>  -10.4397    1.0000 </r>
       <r>  -10.3907    1.0000 </r>
       <r>  -10.3789    1.0000 </r>
       <r>  -10.3319    1.0000 </r>
       <r>  -10.2532    1.0000 </r>
       <r>  -10.0661    1.0000 </r>
       <r>  -10.0314    1.0000 </r>
       <r>  -10.0158    1.0000 </r>
       <r>   -9.9837    1.0000 </r>
       <r>   -9.9646    1.0000 </r>
       <r>   -9.8708    1.0000 </r>
       <r>   -9.8069    1.0000 </r>
       <r>   -9.7450    1.0000 </r>
       <r>   -9.6917    1.0000 </r>
       <r>   -9.6547    1.0000 </r>
       <r>   -9.6168    1.0000 </r>
       <r>   -9.5624    1.0000 </r>
       <r>   -9.5446    1.0000 </r>
       <r>   -9.4887    1.0000 </r>
       <r>   -9.4443    1.0000 </r>
       <r>   -9.4168    1.0000 </r>
       <r>   -9.3476    1.0000 </r>
       <r>   -9.2949    1.0000 </r>
       <r>   -9.2538    1.0000 </r>
       <r>   -8.9992    1.0000 </r>
       <r>   -8.9425    1.0000 </r>
       <r>   -8.8872    1.0000 </r>
       <r>   -8.8336    1.0000 </r>
       <r>   -8.7785    1.0000 </r>
       <r>   -8.6860    1.0000 </r>
       <r>   -8.6659    1.0000 </r>
       <r>   -8.6067    1.0000 </r>
       <r>   -8.5607    1.0000 </r>
       <r>   -8.5340    1.0000 </r>
       <r>   -8.4619    1.0000 </r>
       <r>   -8.4025    1.0000 </r>
       <r>   -8.3325    1.0000 </r>
       <r>   -8.3007    1.0000 </r>
       <r>   -8.2521    1.0000 </r>
       <r>   -8.2054    1.0000 </r>
       <r>   -8.1582    1.0000 </r>
       <r>   -8.0996    1.0000 </r>
       <r>   -8.0650    1.0000 </r>
       <r>   -8.0182    1.0000 </r>
       <r>   -7.9604    1.0000 </r>
       <r>   -7.8555    1.0000 </r>
       <r>   -7.7564    1.0000 </r>
       <r>   -7.6954    1.0000 </r>
       <r>   -7.6731    1.0000 </r>
       <r>   -7.5476    1.0000 </r>
       <r>   -7.4428    1.0000 </r>
       <r>   -7.4037    1.0000 </r>
       <r>   -7.3748    1.0000 </r>
       <r>   -7.3042    1.0000 </r>
       <r>   -7.2445    1.0000 </r>
       <r>   -7.0493    1.0000 </r>
       <r>   -6.9397    1.0000 </r>
       <r>   -6.8819    1.0000 </r>
       <r>   -6.8466    1.0000 </r>
       <r>   -6.7031    1.0000 </r>
       <r>   -6.6707    1.0000 </r>
       <r>   -6.5351    1.0000 </r>
       <r>   -6.5015    1.0000 </r>
       <r>   -6.2593    1.0000 </r>
       <r>   -6.2174    1.0000 </r>
       <r>   -6.1139    1.0000 </r>
       <r>   -6.0751    1.0000 </r>
       <r>   -5.9829    1.0000 </r>
       <r>   -5.9192    1.0000 </r>
       <r>   -5.7811    1.0000 </r>
       <r>   -5.7377    1.0000 </r>
       <r>   -5.6587    1.0000 </r>
       <r>   -5.5376    1.0000 </r>
       <r>   -5.4819    1.0000 </r>
       <r>   -5.1450    1.0000 </r>
       <r>   -5.1341    1.0000 </r>
       <r>   -4.7538    1.0000 </r>
       <r>   -4.6495    1.0000 </r>
       <r>   -4.5567    1.0000 </r>
       <r>   -4.4817    1.0000 </r>
       <r>   -4.4328    1.0000 </r>
       <r>   -3.5366    0.9951 </r>
       <r>   -2.9194    0.0372 </r>
       <r>   -2.5434    0.0000 </r>
       <r>   -2.1339    0.0000 </r>
       <r>   -2.1015    0.0000 </r>
       <r>   -1.6108    0.0000 </r>
       <r>   -1.5567    0.0000 </r>
       <r>   -1.4636    0.0000 </r>
       <r>   -1.3943    0.0000 </r>
       <r>   -1.3724    0.0000 </r>
       <r>   -1.2958    0.0000 </r>
       <r>   -1.0848    0.0000 </r>
       <r>   -1.0740    0.0000 </r>
       <r>   -1.0188    0.0000 </r>
       <r>   -0.9097    0.0000 </r>
       <r>   -0.8149    0.0000 </r>
       <r>   -0.4075    0.0000 </r>
       <r>   -0.2376    0.0000 </r>
       <r>   -0.1602    0.0000 </r>
       <r>   -0.0761    0.0000 </r>
       <r>   -0.0250    0.0000 </r>
       <r>    0.1139    0.0000 </r>
       <r>    0.1744    0.0000 </r>
       <r>    0.2382    0.0000 </r>
       <r>    0.2897    0.0000 </r>
       <r>    0.3161    0.0000 </r>
       <r>    0.7691    0.0000 </r>
       <r>    0.7912    0.0000 </r>
       <r>    0.8433    0.0000 </r>
       <r>    1.0214    0.0000 </r>
       <r>    1.0341    0.0000 </r>
       <r>    1.0643    0.0000 </r>
       <r>    1.1089    0.0000 </r>
       <r>    1.1351    0.0000 </r>
       <r>    1.2405    0.0000 </r>
       <r>    1.2931    0.0000 </r>
       <r>    1.3000    0.0000 </r>
       <r>    1.3636    0.0000 </r>
       <r>    1.3848    0.0000 </r>
       <r>    1.4152    0.0000 </r>
       <r>    1.4435    0.0000 </r>
       <r>    1.4504    0.0000 </r>
       <r>    1.4663    0.0000 </r>
       <r>    1.5400    0.0000 </r>
       <r>    1.5500    0.0000 </r>
       <r>    1.5933    0.0000 </r>
       <r>    1.6116    0.0000 </r>
       <r>    1.6932    0.0000 </r>
       <r>    1.7098    0.0000 </r>
      </set>
      <set comment="kpoint 3">
       <r>  -23.0833    1.0000 </r>
       <r>  -22.7311    1.0000 </r>
       <r>  -22.6703    1.0000 </r>
       <r>  -22.6465    1.0000 </r>
       <r>  -22.5741    1.0000 </r>
       <r>  -22.4889    1.0000 </r>
       <r>  -22.3214    1.0000 </r>
       <r>  -22.2113    1.0000 </r>
       <r>  -22.1655    1.0000 </r>
       <r>  -22.1085    1.0000 </r>
       <r>  -21.7107    1.0000 </r>
       <r>  -21.6102    1.0000 </r>
       <r>  -21.5786    1.0000 </r>
       <r>  -21.4949    1.0000 </r>
       <r>  -20.9061    1.0000 </r>
       <r>  -20.8064    1.0000 </r>
       <r>  -20.7032    1.0000 </r>
       <r>  -20.6427    1.0000 </r>
       <r>  -19.9424    1.0000 </r>
       <r>  -19.8208    1.0000 </r>
       <r>  -19.6422    1.0000 </r>
       <r>  -19.5807    1.0000 </r>
       <r>  -19.5368    1.0000 </r>
       <r>  -19.4524    1.0000 </r>
       <r>  -19.3836    1.0000 </r>
       <r>  -19.3256    1.0000 </r>
       <r>  -19.2637    1.0000 </r>
       <r>  -19.2132    1.0000 </r>
       <r>  -19.0309    1.0000 </r>
       <r>  -18.9781    1.0000 </r>
       <r>  -18.9615    1.0000 </r>
       <r>  -18.8670    1.0000 </r>
       <r>  -18.6746    1.0000 </r>
       <r>  -18.5884    1.0000 </r>
       <r>  -18.5102    1.0000 </r>
       <r>  -18.3764    1.0000 </r>
       <r>  -18.2978    1.0000 </r>
       <r>  -18.2614    1.0000 </r>
       <r>  -18.1520    1.0000 </r>
       <r>  -18.0435    1.0000 </r>
       <r>  -17.7385    1.0000 </r>
       <r>  -17.6890    1.0000 </r>
       <r>  -17.6295    1.0000 </r>
       <r>  -17.6254    1.0000 </r>
       <r>  -16.9811    1.0000 </r>
       <r>  -16.7884    1.0000 </r>
       <r>  -16.3047    1.0000 </r>
       <r>  -16.1357    1.0000 </r>
       <r>  -16.0627    1.0000 </r>
       <r>  -16.0352    1.0000 </r>
       <r>  -15.9495    1.0000 </r>
       <r>  -15.8759    1.0000 </r>
       <r>  -15.3366    1.0000 </r>
       <r>  -15.2000    1.0000 </r>
       <r>  -15.0875    1.0000 </r>
       <r>  -15.0028    1.0000 </r>
       <r>  -14.8748    1.0000 </r>
       <r>  -14.8494    1.0000 </r>
       <r>  -14.7617    1.0000 </r>
       <r>  -14.7242    1.0000 </r>
       <r>  -14.0265    1.0000 </r>
       <r>  -13.9631    1.0000 </r>
       <r>  -13.8068    1.0000 </r>
       <r>  -13.7334    1.0000 </r>
       <r>  -13.6833    1.0000 </r>
       <r>  -13.6392    1.0000 </r>
       <r>  -13.6323    1.0000 </r>
       <r>  -13.5963    1.0000 </r>
       <r>  -13.5736    1.0000 </r>
       <r>  -13.5483    1.0000 </r>
       <r>  -13.4840    1.0000 </r>
       <r>  -13.4368    1.0000 </r>
       <r>  -13.4269    1.0000 </r>
       <r>  -13.4217    1.0000 </r>
       <r>  -13.1614    1.0000 </r>
       <r>  -13.0623    1.0000 </r>
       <r>  -12.3267    1.0000 </r>
       <r>  -12.2742    1.0000 </r>
       <r>  -12.1956    1.0000 </r>
       <r>  -12.1703    1.0000 </r>
       <r>  -12.1197    1.0000 </r>
       <r>  -12.0686    1.0000 </r>
       <r>  -11.9847    1.0000 </r>
       <r>  -11.9424    1.0000 </r>
       <r>  -11.8732    1.0000 </r>
       <r>  -11.8494    1.0000 </r>
       <r>  -11.7697    1.0000 </r>
       <r>  -11.7087    1.0000 </r>
       <r>  -11.6808    1.0000 </r>
       <r>  -11.5788    1.0000 </r>
       <r>  -11.3314    1.0000 </r>
       <r>  -11.2567    1.0000 </r>
       <r>  -11.2258    1.0000 </r>
       <r>  -11.0903    1.0000 </r>
       <r>  -11.0345    1.0000 </r>
       <r>  -10.9775    1.0000 </r>
       <r>  -10.7568    1.0000 </r>
       <r>  -10.7300    1.0000 </r>
       <r>  -10.7131    1.0000 </r>
       <r>  -10.6498    1.0000 </r>
       <r>  -10.5931    1.0000 </r>
       <r>  -10.5454    1.0000 </r>
       <r>  -10.5051    1.0000 </r>
       <r>  -10.4709    1.0000 </r>
       <r>  -10.4469    1.0000 </r>
       <r>  -10.4018    1.0000 </r>
       <r>  -10.3449    1.0000 </r>
       <r>  -10.3168    1.0000 </r>
       <r>  -10.2612    1.0000 </r>
       <r>  -10.2346    1.0000 </r>
       <r>  -10.2024    1.0000 </r>
       <r>  -10.1587    1.0000 </r>
       <r>  -10.1259    1.0000 </r>
       <r>  -10.0900    1.0000 </r>
       <r>  -10.0452    1.0000 </r>
[...]
       <r>   -22.7239    12.3317     5.9513 </r>
       <r>   -22.6272    14.7487     7.3777 </r>
       <r>   -22.5305    16.3398     8.9581 </r>
       <r>   -22.4338    15.6251    10.4693 </r>
       <r>   -22.3371    13.5481    11.7796 </r>
       <r>   -22.2404    12.3051    12.9697 </r>
       <r>   -22.1436    12.7656    14.2044 </r>
       <r>   -22.0469    13.9154    15.5502 </r>
       <r>   -21.9502    14.5258    16.9551 </r>
       <r>   -21.8535    14.2577    18.3341 </r>
       <r>   -21.7568    13.5780    19.6473 </r>
       <r>   -21.6601    13.0506    20.9095 </r>
       <r>   -21.5633    12.5862    22.1268 </r>
       <r>   -21.4666    11.9436    23.2820 </r>
       <r>   -21.3699    11.6298    24.4068 </r>
       <r>   -21.2732    12.3423    25.6005 </r>
       <r>   -21.1765    14.0588    26.9602 </r>
       <r>   -21.0798    16.0357    28.5111 </r>
       <r>   -20.9830    16.8349    30.1393 </r>
       <r>   -20.8863    15.4083    31.6296 </r>
       <r>   -20.7896    12.9251    32.8797 </r>
       <r>   -20.6929    11.6910    34.0104 </r>
       <r>   -20.5962    12.2775    35.1978 </r>
       <r>   -20.4995    13.2024    36.4747 </r>
       <r>   -20.4027    13.2576    37.7570 </r>
       <r>   -20.3060    13.1090    39.0248 </r>
       <r>   -20.2093    14.0305    40.3818 </r>
       <r>   -20.1126    15.7413    41.9043 </r>
       <r>   -20.0159    16.6948    43.5189 </r>
       <r>   -19.9191    16.0257    45.0689 </r>
       <r>   -19.8224    14.1253    46.4350 </r>
       <r>   -19.7257    12.4177    47.6360 </r>
       <r>   -19.6290    12.7117    48.8655 </r>
       <r>   -19.5323    14.8564    50.3024 </r>
       <r>   -19.4356    16.1548    51.8648 </r>
       <r>   -19.3388    15.0951    53.3248 </r>
       <r>   -19.2421    13.5311    54.6334 </r>
       <r>   -19.1454    13.4885    55.9380 </r>
       <r>   -19.0487    14.4251    57.3332 </r>
       <r>   -18.9520    14.6742    58.7524 </r>
       <r>   -18.8553    13.8402    60.0910 </r>
       <r>   -18.7585    13.4566    61.3925 </r>
       <r>   -18.6618    14.9457    62.8380 </r>
       <r>   -18.5651    16.9249    64.4749 </r>
       <r>   -18.4684    17.0171    66.1207 </r>
       <r>   -18.3717    15.7372    67.6428 </r>
       <r>   -18.2750    15.4374    69.1359 </r>
       <r>   -18.1782    16.6224    70.7435 </r>
       <r>   -18.0815    17.5196    72.4380 </r>
       <r>   -17.9848    16.4912    74.0329 </r>
       <r>   -17.8881    14.3881    75.4245 </r>
       <r>   -17.7914    13.4528    76.7256 </r>
       <r>   -17.6947    13.5719    78.0383 </r>
       <r>   -17.5979    12.9363    79.2894 </r>
       <r>   -17.5012    11.7097    80.4219 </r>
       <r>   -17.4045    11.0924    81.4948 </r>
       <r>   -17.3078    10.9114    82.5501 </r>
       <r>   -17.2111    10.9307    83.6073 </r>
       <r>   -17.1144    11.5205    84.7215 </r>
       <r>   -17.0176    11.8610    85.8687 </r>
       <r>   -16.9209    10.8115    86.9143 </r>
       <r>   -16.8242     9.3643    87.8200 </r>
       <r>   -16.7275     9.6105    88.7495 </r>
       <r>   -16.6308    12.0586    89.9158 </r>
       <r>   -16.5341    14.9571    91.3624 </r>
       <r>   -16.4373    16.2657    92.9356 </r>
       <r>   -16.3406    16.0382    94.4867 </r>
       <r>   -16.2439    16.0152    96.0357 </r>
       <r>   -16.1472    17.1288    97.6923 </r>
       <r>   -16.0505    18.0682    99.4398 </r>
       <r>   -15.9538    17.3087   101.1139 </r>
       <r>   -15.8570    15.4858   102.6116 </r>
       <r>   -15.7603    13.8633   103.9524 </r>
       <r>   -15.6636    12.6915   105.1799 </r>
       <r>   -15.5669    12.0808   106.3483 </r>
       <r>   -15.4702    12.7126   107.5779 </r>
       <r>   -15.3735    14.8851   109.0175 </r>
       <r>   -15.2767    17.6076   110.7205 </r>
       <r>   -15.1800    20.1305   112.6674 </r>
       <r>   -15.0833    22.5390   114.8473 </r>
       <r>   -14.9866    23.8184   117.1510 </r>
       <r>   -14.8899    22.2306   119.3010 </r>
       <r>   -14.7931    17.8268   121.0252 </r>
       <r>   -14.6964    12.6499   122.2487 </r>
       <r>   -14.5997     9.0621   123.1251 </r>
       <r>   -14.5030     8.2655   123.9245 </r>
       <r>   -14.4063     9.4336   124.8369 </r>
       <r>   -14.3096    10.7613   125.8777 </r>
       <r>   -14.2128    11.5317   126.9930 </r>
       <r>   -14.1161    12.3802   128.1904 </r>
       <r>   -14.0194    13.8135   129.5264 </r>
       <r>   -13.9227    15.2498   131.0013 </r>
       <r>   -13.8260    16.0290   132.5516 </r>
       <r>   -13.7293    16.7170   134.1684 </r>
       <r>   -13.6325    17.8292   135.8928 </r>
       <r>   -13.5358    18.7230   137.7036 </r>
       <r>   -13.4391    19.0535   139.5464 </r>
       <r>   -13.3424    19.3017   141.4132 </r>
       <r>   -13.2457    19.5258   143.3017 </r>
       <r>   -13.1490    18.7817   145.1182 </r>
       <r>   -13.0522    16.6393   146.7275 </r>
       <r>   -12.9555    14.5571   148.1355 </r>
       <r>   -12.8588    13.9827   149.4878 </r>
       <r>   -12.7621    14.3293   150.8737 </r>
       <r>   -12.6654    14.1823   152.2454 </r>
       <r>   -12.5687    13.3370   153.5353 </r>
       <r>   -12.4719    12.9023   154.7832 </r>
       <r>   -12.3752    14.0406   156.1411 </r>
       <r>   -12.2785    17.0782   157.7929 </r>
       <r>   -12.1818    21.2494   159.8481 </r>
       <r>   -12.0851    24.6734   162.2344 </r>
       <r>   -11.9884    25.4708   164.6979 </r>
       <r>   -11.8916    23.6627   166.9864 </r>
       <r>   -11.7949    21.0833   169.0256 </r>
       <r>   -11.6982    18.9983   170.8630 </r>
       <r>   -11.6015    17.0869   172.5156 </r>
       <r>   -11.5048    15.4901   174.0138 </r>
       <r>   -11.4081    15.5281   175.5156 </r>
       <r>   -11.3113    17.6556   177.2232 </r>
       <r>   -11.2146    21.1095   179.2648 </r>
       <r>   -11.1179    25.4224   181.7236 </r>
       <r>   -11.0212    30.0009   184.6252 </r>
       <r>   -10.9245    33.0825   187.8248 </r>
       <r>   -10.8278    33.6560   191.0800 </r>
       <r>   -10.7310    32.9543   194.2672 </r>
       <r>   -10.6343    33.0029   197.4591 </r>
       <r>   -10.5376    35.0350   200.8476 </r>
       <r>   -10.4409    37.9784   204.5208 </r>
       <r>   -10.3442    38.8135   208.2747 </r>
       <r>   -10.2474    36.6817   211.8224 </r>
       <r>   -10.1507    34.5658   215.1655 </r>
       <r>   -10.0540    34.6358   218.5154 </r>
       <r>    -9.9573    34.9891   221.8994 </r>
       <r>    -9.8606    33.7932   225.1678 </r>
       <r>    -9.7639    33.0636   228.3656 </r>
       <r>    -9.6671    35.1062   231.7610 </r>
       <r>    -9.5704    38.9779   235.5308 </r>
       <r>    -9.4737    42.4683   239.6382 </r>
       <r>    -9.3770    43.9744   243.8913 </r>
       <r>    -9.2803    41.6904   247.9235 </r>
       <r>    -9.1836    35.4760   251.3546 </r>
       <r>    -9.0868    29.7650   254.2334 </r>
       <r>    -8.9901    29.0595   257.0439 </r>
       <r>    -8.8934    31.8731   260.1266 </r>
       <r>    -8.7967    34.2672   263.4408 </r>
       <r>    -8.7000    35.3403   266.8588 </r>
       <r>    -8.6033    35.5708   270.2991 </r>
       <r>    -8.5065    34.6679   273.6521 </r>
       <r>    -8.4098    32.9972   276.8435 </r>
       <r>    -8.3131    31.6433   279.9039 </r>
       <r>    -8.2164    30.6794   282.8712 </r>
       <r>    -8.1197    29.2478   285.6999 </r>
       <r>    -8.0230    26.9306   288.3046 </r>
       <r>    -7.9262    24.7298   290.6964 </r>
       <r>    -7.8295    24.7411   293.0893 </r>
       <r>    -7.7328    27.3730   295.7367 </r>
       <r>    -7.6361    30.1150   298.6493 </r>
       <r>    -7.5394    31.0532   301.6527 </r>
       <r>    -7.4427    31.0450   304.6553 </r>
       <r>    -7.3459    30.6306   307.6178 </r>
       <r>    -7.2492    28.6738   310.3910 </r>
       <r>    -7.1525    25.4913   312.8565 </r>
       <r>    -7.0558    23.2064   315.1009 </r>
       <r>    -6.9591    22.8944   317.3152 </r>
       <r>    -6.8624    23.8910   319.6259 </r>
       <r>    -6.7656    25.1681   322.0600 </r>
       <r>    -6.6689    25.9798   324.5727 </r>
       <r>    -6.5722    25.1100   327.0013 </r>
       <r>    -6.4755    22.0330   329.1323 </r>
       <r>    -6.3788    19.0824   330.9779 </r>
       <r>    -6.2821    18.9634   332.8119 </r>
       <r>    -6.1853    21.0537   334.8482 </r>
       <r>    -6.0886    23.4315   337.1144 </r>
       <r>    -5.9919    25.4336   339.5743 </r>
       <r>    -5.8952    26.1487   342.1033 </r>
       <r>    -5.7985    24.6620   344.4885 </r>
       <r>    -5.7018    21.7750   346.5946 </r>
       <r>    -5.6050    18.6270   348.3961 </r>
       <r>    -5.5083    15.1842   349.8647 </r>
       <r>    -5.4116    11.6565   350.9921 </r>
       <r>    -5.3149     9.8927   351.9488 </r>
       <r>    -5.2182    10.9828   353.0111 </r>
       <r>    -5.1214    12.5353   354.2234 </r>
       <r>    -5.0247    11.7284   355.3578 </r>
       <r>    -4.9280     9.5372   356.2802 </r>
       <r>    -4.8313     8.7525   357.1267 </r>
       <r>    -4.7346    10.2308   358.1162 </r>
       <r>    -4.6379    12.9658   359.3702 </r>
       <r>    -4.5411    15.3992   360.8596 </r>
       <r>    -4.4444    15.7307   362.3810 </r>
       <r>    -4.3477    12.9162   363.6302 </r>
       <r>    -4.2510     8.2758   364.4306 </r>
       <r>    -4.1543     4.4044   364.8566 </r>
       <r>    -4.0576     2.5298   365.1013 </r>
       <r>    -3.9608     2.1520   365.3094 </r>
       <r>    -3.8641     2.4631   365.5476 </r>
       <r>    -3.7674     3.2123   365.8583 </r>
       <r>    -3.6707     4.1783   366.2624 </r>
       <r>    -3.5740     4.6764   366.7147 </r>
       <r>    -3.4773     4.1662   367.1177 </r>
       <r>    -3.3805     3.0718   367.4148 </r>
       <r>    -3.2838     2.5319   367.6596 </r>
       <r>    -3.1871     2.9717   367.9470 </r>
       <r>    -3.0904     3.7139   368.3063 </r>
       <r>    -2.9937     4.3206   368.7241 </r>
       <r>    -2.8970     4.9892   369.2067 </r>
       <r>    -2.8002     5.7975   369.7674 </r>
       <r>    -2.7035     6.8286   370.4278 </r>
       <r>    -2.6068     8.0315   371.2046 </r>
       <r>    -2.5101     8.3771   372.0148 </r>
       <r>    -2.4134     7.1521   372.7066 </r>
       <r>    -2.3167     5.8999   373.2772 </r>
       <r>    -2.2199     6.4043   373.8966 </r>
       <r>    -2.1232     7.6826   374.6396 </r>
       <r>    -2.0265     7.3864   375.3540 </r>
       <r>    -1.9298     5.7280   375.9080 </r>
       <r>    -1.8331     5.7373   376.4629 </r>
       <r>    -1.7364     9.4770   377.3795 </r>
       <r>    -1.6396    15.6373   378.8919 </r>
       <r>    -1.5429    20.7374   380.8976 </r>
       <r>    -1.4462    22.4673   383.0705 </r>
       <r>    -1.3495    21.4087   385.1411 </r>
       <r>    -1.2528    19.5877   387.0356 </r>
       <r>    -1.1561    18.7460   388.8486 </r>
       <r>    -1.0593    18.8142   390.6683 </r>
       <r>    -0.9626    17.9761   392.4069 </r>
       <r>    -0.8659    15.6830   393.9237 </r>
       <r>    -0.7692    13.2525   395.2054 </r>
       <r>    -0.6725    11.6630   396.3334 </r>
       <r>    -0.5757    11.1034   397.4073 </r>
       <r>    -0.4790    11.2896   398.4992 </r>
       <r>    -0.3823    11.8856   399.6488 </r>
       <r>    -0.2856    13.2604   400.9313 </r>
       <r>    -0.1889    15.5591   402.4361 </r>
       <r>    -0.0922    17.6970   404.1477 </r>
       <r>     0.0046    19.0055   405.9859 </r>
       <r>     0.1013    20.3295   407.9521 </r>
       <r>     0.1980    21.8235   410.0628 </r>
       <r>     0.2947    21.7931   412.1705 </r>
       <r>     0.3914    19.7021   414.0761 </r>
       <r>     0.4881    18.0558   415.8224 </r>
       <r>     0.5849    19.4865   417.7070 </r>
       <r>     0.6816    23.5492   419.9847 </r>
       <r>     0.7783    27.6211   422.6561 </r>
       <r>     0.8750    30.2507   425.5818 </r>
       <r>     0.9717    32.4435   428.7197 </r>
       <r>     1.0684    35.6081   432.1636 </r>
       <r>     1.1652    39.9683   436.0292 </r>
       <r>     1.2619    44.9169   440.3734 </r>
       <r>     1.3586    49.0718   445.1195 </r>
       <r>     1.4553    50.5273   450.0063 </r>
       <r>     1.5520    47.5674   454.6069 </r>
       <r>     1.6487    39.7750   458.4538 </r>
       <r>     1.7455    28.7740   461.2368 </r>
       <r>     1.8422    17.2335   462.9035 </r>
       <r>     1.9389     7.9710   463.6745 </r>
       <r>     2.0356     2.6560   463.9314 </r>
       <r>     2.1323     0.6072   463.9901 </r>
       <r>     2.2290     0.0926   463.9990 </r>
       <r>     2.3258     0.0093   463.9999 </r>
       <r>     2.4225     0.0006   464.0000 </r>
       <r>     2.5192     0.0000   464.0000 </r>
       <r>     2.6159     0.0000   464.0000 </r>
       <r>     2.7126     0.0000   464.0000 </r>
       <r>     2.8093     0.0000   464.0000 </r>
       <r>     2.9061     0.0000   464.0000 </r>
       <r>     3.0028     0.0000   464.0000 </r>
       <r>     3.0995     0.0000   464.0000 </r>
       <r>     3.1962     0.0000   464.0000 </r>
       <r>     3.2929     0.0000   464.0000 </r>
       <r>     3.3896     0.0000   464.0000 </r>
       <r>     3.4864     0.0000   464.0000 </r>
       <r>     3.5831     0.0000   464.0000 </r>
       <r>     3.6798     0.0000   464.0000 </r>
       <r>     3.7765     0.0000   464.0000 </r>
      </set>
     </set>
    </array>
   </total>
  </dos>
 </calculation>
 <structure name="finalpos" >
  <crystal>
   <varray name="basis" >
    <v>      28.05000000       0.00000000       0.00000000 </v>
    <v>       0.00000000       8.10000000       0.00000000 </v>
    <v>       0.00000000       0.00000000      33.50000000 </v>
   </varray>
   <i name="volume">   7611.36750000 </i>
   <varray name="rec_basis" >
    <v>       0.03565062       0.00000000       0.00000000 </v>
    <v>       0.00000000       0.12345679       0.00000000 </v>
    <v>       0.00000000       0.00000000       0.02985075 </v>
   </varray>
  </crystal>
  <varray name="positions" >
   <v>       0.00900499       0.09867136       0.51581194 </v>
   <v>       0.00750207       0.26584938       0.51284478 </v>
   <v>       0.05151907       0.01892617       0.50808060 </v>
   <v>       0.04757112       0.35036543       0.49821493 </v>
   <v>       0.09056257       0.10190284       0.48917015 </v>
   <v>       0.08891872       0.27004691       0.48480000 </v>
   <v>       0.13588485       0.02257395       0.48208060 </v>
   <v>       0.13054403       0.34902963       0.46906866 </v>
   <v>       0.17709127       0.10136963       0.46488060 </v>
   <v>       0.17309661       0.27066543       0.45568358 </v>
   <v>       0.22201176       0.02704469       0.46128358 </v>
   <v>       0.21875045       0.34960494       0.45074328 </v>
   <v>       0.26585169       0.10413025       0.45346567 </v>
   <v>       0.26493583       0.27172469       0.44839701 </v>
   <v>       0.30989447       0.01840691       0.45467463 </v>
   <v>       0.30977398       0.35286420       0.44565075 </v>
   <v>       0.35395615       0.10343333       0.45573134 </v>
   <v>       0.35506595       0.27001111       0.44807761 </v>
   <v>       0.39666667       0.02370469       0.46762388 </v>
   <v>       0.40124064       0.35360617       0.45186866 </v>
   <v>       0.44026738       0.10272716       0.47142985 </v>
   <v>       0.44364706       0.27359753       0.46226866 </v>
   <v>       0.48032086       0.02315765       0.48734328 </v>
   <v>       0.48773262       0.35742716       0.47032836 </v>
   <v>       0.52266310       0.10915235       0.49877910 </v>
   <v>       0.52542246       0.27530741       0.48922388 </v>
   <v>       0.56280927       0.02640691       0.51408060 </v>
   <v>       0.56723708       0.35736296       0.50078806 </v>
   <v>       0.60676292       0.10766025       0.52339701 </v>
   <v>       0.60996791       0.27341728       0.51160299 </v>
   <v>       0.65050267       0.02793790       0.53312239 </v>
   <v>       0.65350446       0.35653704       0.51791940 </v>
   <v>       0.69728342       0.11291543       0.53663284 </v>
   <v>       0.69612121       0.27759012       0.52794328 </v>
   <v>       0.74178966       0.02369543       0.54257910 </v>
   <v>       0.74017825       0.35125432       0.53243582 </v>
   <v>       0.78606417       0.10502679       0.54333134 </v>
   <v>       0.78444207       0.26854444       0.53624776 </v>
   <v>       0.83031729       0.02669432       0.55136119 </v>
   <v>       0.82824955       0.35713827       0.53855522 </v>
   <v>       0.87418182       0.10892198       0.54716716 </v>
   <v>       0.87251337       0.27207284       0.53841493 </v>
   <v>       0.91845276       0.02952086       0.54216418 </v>
   <v>       0.91600000       0.35622099       0.52935224 </v>
   <v>       0.95869875       0.10492444       0.52892537 </v>
   <v>       0.95917647       0.27420617       0.52462985 </v>
   <v>       0.01171800       0.59918519       0.52189254 </v>
   <v>       0.01325807       0.77087407       0.52580896 </v>
   <v>       0.04867166       0.51791111       0.50135224 </v>
   <v>       0.05355793       0.85035432       0.51336418 </v>
   <v>       0.09262460       0.60068889       0.49143284 </v>
   <v>       0.09434617       0.76692469       0.49881791 </v>
   <v>       0.13169982       0.51881852       0.47306567 </v>
   <v>       0.13636292       0.85358148       0.48489851 </v>
   <v>       0.17647451       0.59990864       0.46677612 </v>
   <v>       0.17838645       0.76908148       0.47200896 </v>
   <v>       0.21940606       0.51885062       0.45384179 </v>
   <v>       0.22121747       0.85471481       0.46322687 </v>
   <v>       0.26528806       0.60379136       0.45227164 </v>
   <v>       0.26497825       0.76779506       0.45790448 </v>
   <v>       0.31054510       0.52495556       0.44668955 </v>
   <v>       0.30948307       0.84871605       0.45991940 </v>
   <v>       0.35396934       0.60430123       0.45095821 </v>
   <v>       0.35400820       0.76699753       0.46025672 </v>
   <v>       0.40057041       0.52173704       0.45348955 </v>
   <v>       0.39612478       0.84957037       0.46788358 </v>
   <v>       0.44106595       0.60719259       0.46390149 </v>
   <v>       0.43842424       0.76856049       0.47721194 </v>
   <v>       0.48626738       0.52277284       0.47029254 </v>
   <v>       0.48105169       0.85486790       0.48815522 </v>
   <v>       0.52589661       0.60424815       0.48808657 </v>
   <v>       0.52364706       0.77050864       0.49758209 </v>
   <v>       0.57255971       0.52575679       0.49823284 </v>
   <v>       0.56425668       0.85531728       0.51145672 </v>
   <v>       0.61473440       0.60974815       0.50771045 </v>
   <v>       0.60961854       0.77432840       0.51941194 </v>
   <v>       0.65578610       0.53027284       0.51702985 </v>
   <v>       0.64945811       0.85688889       0.53467164 </v>
   <v>       0.69774332       0.60829383       0.53226866 </v>
   <v>       0.69459180       0.77665062       0.53961194 </v>
   <v>       0.74125134       0.51968395       0.53634627 </v>
   <v>       0.73905526       0.85280617       0.54938507 </v>
   <v>       0.78424242       0.60048889       0.54446866 </v>
   <v>       0.78204278       0.77098889       0.55295522 </v>
   <v>       0.82894118       0.52115309       0.54035821 </v>
   <v>       0.82816043       0.85299012       0.55380299 </v>
   <v>       0.87457754       0.60621481       0.54173731 </v>
   <v>       0.87491266       0.77519136       0.54751343 </v>
   <v>       0.91826025       0.52132963       0.53347463 </v>
   <v>       0.91987879       0.85940370       0.54625373 </v>
   <v>       0.96166488       0.60501975       0.53245075 </v>
   <v>       0.96276292       0.77820247       0.54159701 </v>
  </varray>
 </structure>
</modeling>
