unknown system                          
            1
    28.050000    0.000000    0.000000
     0.000000    8.100000    0.000000
     0.000000    0.000000   33.500000
   C 
    92
Direct configuration=     1
   0.00900499  0.09867136  0.51581194
   0.00750207  0.26584938  0.51284478
   0.05151907  0.01892617  0.50808060
   0.04757112  0.35036543  0.49821493
   0.09056257  0.10190284  0.48917015
   0.08891872  0.27004691  0.48480000
   0.13588485  0.02257395  0.48208060
   0.13054403  0.34902963  0.46906866
   0.17709127  0.10136963  0.46488060
   0.17309661  0.27066543  0.45568358
   0.22201176  0.02704469  0.46128358
   0.21875045  0.34960494  0.45074328
   0.26585169  0.10413025  0.45346567
   0.26493583  0.27172469  0.44839701
   0.30989447  0.01840691  0.45467463
   0.30977398  0.35286420  0.44565075
   0.35395615  0.10343333  0.45573134
   0.35506595  0.27001111  0.44807761
   0.39666667  0.02370469  0.46762388
   0.40124064  0.35360617  0.45186866
   0.44026738  0.10272716  0.47142985
   0.44364706  0.27359753  0.46226866
   0.48032086  0.02315765  0.48734328
   0.48773262  0.35742716  0.47032836
   0.52266310  0.10915235  0.49877910
   0.52542246  0.27530741  0.48922388
   0.56280927  0.02640691  0.51408060
   0.56723708  0.35736296  0.50078806
   0.60676292  0.10766025  0.52339701
   0.60996791  0.27341728  0.51160299
   0.65050267  0.02793790  0.53312239
   0.65350446  0.35653704  0.51791940
   0.69728342  0.11291543  0.53663284
   0.69612121  0.27759012  0.52794328
   0.74178966  0.02369543  0.54257910
   0.74017825  0.35125432  0.53243582
   0.78606417  0.10502679  0.54333134
   0.78444207  0.26854444  0.53624776
   0.83031729  0.02669432  0.55136119
   0.82824955  0.35713827  0.53855522
   0.87418182  0.10892198  0.54716716
   0.87251337  0.27207284  0.53841493
   0.91845276  0.02952086  0.54216418
   0.91600000  0.35622099  0.52935224
   0.95869875  0.10492444  0.52892537
   0.95917647  0.27420617  0.52462985
   0.01171800  0.59918519  0.52189254
   0.01325807  0.77087407  0.52580896
   0.04867166  0.51791111  0.50135224
   0.05355793  0.85035432  0.51336418
   0.09262460  0.60068889  0.49143284
   0.09434617  0.76692469  0.49881791
   0.13169982  0.51881852  0.47306567
   0.13636292  0.85358148  0.48489851
   0.17647451  0.59990864  0.46677612
   0.17838645  0.76908148  0.47200896
   0.21940606  0.51885062  0.45384179
   0.22121747  0.85471481  0.46322687
   0.26528806  0.60379136  0.45227164
   0.26497825  0.76779506  0.45790448
   0.31054510  0.52495556  0.44668955
   0.30948307  0.84871605  0.45991940
   0.35396934  0.60430123  0.45095821
   0.35400820  0.76699753  0.46025672
   0.40057041  0.52173704  0.45348955
   0.39612478  0.84957037  0.46788358
   0.44106595  0.60719259  0.46390149
   0.43842424  0.76856049  0.47721194
   0.48626738  0.52277284  0.47029254
   0.48105169  0.85486790  0.48815522
   0.52589661  0.60424815  0.48808657
   0.52364706  0.77050864  0.49758209
   0.57255971  0.52575679  0.49823284
   0.56425668  0.85531728  0.51145672
   0.61473440  0.60974815  0.50771045
   0.60961854  0.77432840  0.51941194
   0.65578610  0.53027284  0.51702985
   0.64945811  0.85688889  0.53467164
   0.69774332  0.60829383  0.53226866
   0.69459180  0.77665062  0.53961194
   0.74125134  0.51968395  0.53634627
   0.73905526  0.85280617  0.54938507
   0.78424242  0.60048889  0.54446866
   0.78204278  0.77098889  0.55295522
   0.82894118  0.52115309  0.54035821
   0.82816043  0.85299012  0.55380299
   0.87457754  0.60621481  0.54173731
   0.87491266  0.77519136  0.54751343
   0.91826025  0.52132963  0.53347463
   0.91987879  0.85940370  0.54625373
   0.96166488  0.60501975  0.53245075
   0.96276292  0.77820247  0.54159701
