  92  92   0   0
  0.8273226E+02  0.2805000E-08  0.8100000E-09  0.3350000E-08  0.5000000E-15
   1.0000000000000000E-004
  CAR 
 unknown system                          
      3.77123845    -25.16965773  301     -3.20350329      1.00000000
    -25.170  0.0000E+00  0.0000E+00
    -25.073  0.0000E+00  0.0000E+00
    -24.977  0.0000E+00  0.0000E+00
    -24.880  0.0000E+00  0.0000E+00
    -24.784  0.0000E+00  0.0000E+00
    -24.687  0.0000E+00  0.0000E+00
    -24.591  0.0000E+00  0.0000E+00
    -24.494  0.0000E+00  0.0000E+00
    -24.398  0.0000E+00  0.0000E+00
    -24.301  0.3165E-14  0.3053E-15
    -24.205  0.6603E-12  0.6400E-13
    -24.108  0.8588E-10  0.8349E-11
    -24.012  0.7120E-08  0.6952E-09
    -23.916  0.3776E-06  0.3712E-07
    -23.819  0.1288E-04  0.1279E-05
    -23.723  0.2841E-03  0.2869E-04
    -23.626  0.4091E-02  0.4233E-03
    -23.530  0.3881E-01  0.4167E-02
    -23.433  0.2454E+00  0.2784E-01
    -23.337  0.1048E+01  0.1289E+00
    -23.240  0.3074E+01  0.4255E+00
    -23.144  0.6349E+01  0.1038E+01
    -23.047  0.9634E+01  0.1967E+01
    -22.951  0.1157E+02  0.3084E+01
    -22.854  0.1224E+02  0.4264E+01
    -22.758  0.1277E+02  0.5496E+01
    -22.661  0.1406E+02  0.6852E+01
    -22.565  0.1566E+02  0.8363E+01
    -22.469  0.1586E+02  0.9893E+01
    -22.372  0.1448E+02  0.1129E+02
    -22.276  0.1353E+02  0.1260E+02
    -22.179  0.1372E+02  0.1392E+02
    -22.083  0.1402E+02  0.1527E+02
    -21.986  0.1413E+02  0.1664E+02
    -21.890  0.1419E+02  0.1800E+02
    -21.793  0.1410E+02  0.1936E+02
    -21.697  0.1387E+02  0.2070E+02
    -21.600  0.1315E+02  0.2197E+02
    -21.504  0.1172E+02  0.2310E+02
    -21.407  0.1056E+02  0.2412E+02
    -21.311  0.1102E+02  0.2518E+02
    -21.214  0.1333E+02  0.2647E+02
    -21.118  0.1626E+02  0.2804E+02
    -21.021  0.1766E+02  0.2974E+02
    -20.925  0.1626E+02  0.3131E+02
    -20.829  0.1361E+02  0.3262E+02
    -20.732  0.1221E+02  0.3380E+02
    -20.636  0.1240E+02  0.3500E+02
    -20.539  0.1296E+02  0.3625E+02
    -20.443  0.1321E+02  0.3752E+02
    -20.346  0.1350E+02  0.3882E+02
    -20.250  0.1422E+02  0.4020E+02
    -20.153  0.1513E+02  0.4166E+02
    -20.057  0.1584E+02  0.4318E+02
    -19.960  0.1590E+02  0.4472E+02
    -19.864  0.1471E+02  0.4614E+02
    -19.767  0.1289E+02  0.4738E+02
    -19.671  0.1284E+02  0.4862E+02
    -19.574  0.1506E+02  0.5007E+02
    -19.478  0.1666E+02  0.5168E+02
    -19.381  0.1580E+02  0.5320E+02
    -19.285  0.1400E+02  0.5456E+02
    -19.189  0.1325E+02  0.5583E+02
    -19.092  0.1365E+02  0.5715E+02
    -18.996  0.1396E+02  0.5850E+02
    -18.899  0.1350E+02  0.5980E+02
    -18.803  0.1316E+02  0.6107E+02
    -18.706  0.1422E+02  0.6244E+02
    -18.610  0.1626E+02  0.6401E+02
    -18.513  0.1729E+02  0.6568E+02
    -18.417  0.1673E+02  0.6729E+02
    -18.320  0.1619E+02  0.6885E+02
    -18.224  0.1685E+02  0.7048E+02
    -18.127  0.1763E+02  0.7218E+02
    -18.031  0.1675E+02  0.7379E+02
    -17.934  0.1462E+02  0.7521E+02
    -17.838  0.1333E+02  0.7649E+02
    -17.741  0.1300E+02  0.7775E+02
    -17.645  0.1213E+02  0.7892E+02
    -17.549  0.1086E+02  0.7996E+02
    -17.452  0.1079E+02  0.8101E+02
    -17.356  0.1183E+02  0.8215E+02
    -17.259  0.1227E+02  0.8333E+02
    -17.163  0.1175E+02  0.8446E+02
    -17.066  0.1119E+02  0.8554E+02
    -16.970  0.1091E+02  0.8660E+02
    -16.873  0.1066E+02  0.8762E+02
    -16.777  0.1058E+02  0.8864E+02
    -16.680  0.1130E+02  0.8974E+02
    -16.584  0.1299E+02  0.9099E+02
    -16.487  0.1461E+02  0.9240E+02
    -16.391  0.1517E+02  0.9386E+02
    -16.294  0.1514E+02  0.9532E+02
    -16.198  0.1579E+02  0.9684E+02
    -16.102  0.1704E+02  0.9849E+02
    -16.005  0.1747E+02  0.1002E+03
    -15.909  0.1660E+02  0.1018E+03
    -15.812  0.1494E+02  0.1032E+03
    -15.716  0.1305E+02  0.1045E+03
    -15.619  0.1194E+02  0.1056E+03
    -15.523  0.1248E+02  0.1068E+03
    -15.426  0.1475E+02  0.1083E+03
    -15.330  0.1802E+02  0.1100E+03
    -15.233  0.2072E+02  0.1120E+03
    -15.137  0.2196E+02  0.1141E+03
    -15.040  0.2199E+02  0.1162E+03
    -14.944  0.2095E+02  0.1183E+03
    -14.847  0.1863E+02  0.1200E+03
    -14.751  0.1512E+02  0.1215E+03
    -14.654  0.1130E+02  0.1226E+03
    -14.558  0.8567E+01  0.1234E+03
    -14.462  0.7855E+01  0.1242E+03
    -14.365  0.8877E+01  0.1250E+03
    -14.269  0.1053E+02  0.1261E+03
    -14.172  0.1223E+02  0.1272E+03
    -14.076  0.1415E+02  0.1286E+03
    -13.979  0.1603E+02  0.1301E+03
    -13.883  0.1740E+02  0.1318E+03
    -13.786  0.1827E+02  0.1336E+03
    -13.690  0.1863E+02  0.1354E+03
    -13.593  0.1814E+02  0.1371E+03
    -13.497  0.1720E+02  0.1388E+03
    -13.400  0.1686E+02  0.1404E+03
    -13.304  0.1726E+02  0.1421E+03
    -13.207  0.1748E+02  0.1438E+03
    -13.111  0.1703E+02  0.1454E+03
    -13.014  0.1649E+02  0.1470E+03
    -12.918  0.1640E+02  0.1486E+03
    -12.822  0.1629E+02  0.1502E+03
    -12.725  0.1533E+02  0.1516E+03
    -12.629  0.1352E+02  0.1529E+03
    -12.532  0.1198E+02  0.1541E+03
    -12.436  0.1236E+02  0.1553E+03
    -12.339  0.1541E+02  0.1568E+03
    -12.243  0.2012E+02  0.1587E+03
    -12.146  0.2438E+02  0.1611E+03
    -12.050  0.2574E+02  0.1636E+03
    -11.953  0.2356E+02  0.1658E+03
    -11.857  0.2038E+02  0.1678E+03
    -11.760  0.1872E+02  0.1696E+03
    -11.664  0.1796E+02  0.1713E+03
    -11.567  0.1658E+02  0.1729E+03
    -11.471  0.1548E+02  0.1744E+03
    -11.374  0.1627E+02  0.1760E+03
    -11.278  0.1876E+02  0.1778E+03
    -11.182  0.2238E+02  0.1800E+03
    -11.085  0.2691E+02  0.1826E+03
    -10.989  0.3110E+02  0.1856E+03
    -10.892  0.3337E+02  0.1888E+03
    -10.796  0.3362E+02  0.1920E+03
    -10.699  0.3319E+02  0.1952E+03
    -10.603  0.3392E+02  0.1985E+03
    -10.506  0.3661E+02  0.2020E+03
    -10.410  0.3935E+02  0.2058E+03
    -10.313  0.3930E+02  0.2096E+03
    -10.217  0.3674E+02  0.2132E+03
    -10.120  0.3481E+02  0.2165E+03
    -10.024  0.3442E+02  0.2198E+03
     -9.927  0.3386E+02  0.2231E+03
     -9.831  0.3350E+02  0.2263E+03
     -9.735  0.3492E+02  0.2297E+03
     -9.638  0.3734E+02  0.2333E+03
     -9.542  0.3939E+02  0.2371E+03
     -9.445  0.4080E+02  0.2410E+03
     -9.349  0.4069E+02  0.2450E+03
     -9.252  0.3797E+02  0.2486E+03
     -9.156  0.3374E+02  0.2519E+03
     -9.059  0.3121E+02  0.2549E+03
     -8.963  0.3209E+02  0.2580E+03
     -8.866  0.3420E+02  0.2613E+03
     -8.770  0.3497E+02  0.2647E+03
     -8.673  0.3486E+02  0.2680E+03
     -8.577  0.3468E+02  0.2714E+03
     -8.480  0.3324E+02  0.2746E+03
     -8.384  0.3033E+02  0.2775E+03
     -8.287  0.2808E+02  0.2802E+03
     -8.191  0.2763E+02  0.2829E+03
     -8.095  0.2795E+02  0.2856E+03
     -7.998  0.2813E+02  0.2883E+03
     -7.902  0.2828E+02  0.2910E+03
     -7.805  0.2846E+02  0.2938E+03
     -7.709  0.2853E+02  0.2965E+03
     -7.612  0.2849E+02  0.2993E+03
     -7.516  0.2861E+02  0.3020E+03
     -7.419  0.2888E+02  0.3048E+03
     -7.323  0.2849E+02  0.3076E+03
     -7.226  0.2709E+02  0.3102E+03
     -7.130  0.2588E+02  0.3127E+03
     -7.033  0.2580E+02  0.3152E+03
     -6.937  0.2608E+02  0.3177E+03
     -6.840  0.2585E+02  0.3202E+03
     -6.744  0.2554E+02  0.3226E+03
     -6.647  0.2552E+02  0.3251E+03
     -6.551  0.2465E+02  0.3275E+03
     -6.455  0.2246E+02  0.3296E+03
     -6.358  0.2066E+02  0.3316E+03
     -6.262  0.2051E+02  0.3336E+03
     -6.165  0.2144E+02  0.3357E+03
     -6.069  0.2291E+02  0.3379E+03
     -5.972  0.2459E+02  0.3403E+03
     -5.876  0.2523E+02  0.3427E+03
     -5.779  0.2384E+02  0.3450E+03
     -5.683  0.2101E+02  0.3470E+03
     -5.586  0.1781E+02  0.3487E+03
     -5.490  0.1459E+02  0.3501E+03
     -5.393  0.1175E+02  0.3513E+03
     -5.297  0.1056E+02  0.3523E+03
     -5.200  0.1132E+02  0.3534E+03
     -5.104  0.1181E+02  0.3545E+03
     -5.008  0.1039E+02  0.3555E+03
     -4.911  0.8624E+01  0.3564E+03
     -4.815  0.8512E+01  0.3572E+03
     -4.718  0.1005E+02  0.3581E+03
     -4.622  0.1254E+02  0.3594E+03
     -4.525  0.1507E+02  0.3608E+03
     -4.429  0.1559E+02  0.3623E+03
     -4.332  0.1267E+02  0.3635E+03
     -4.236  0.8029E+01  0.3643E+03
     -4.139  0.4546E+01  0.3648E+03
     -4.043  0.3013E+01  0.3650E+03
     -3.946  0.2571E+01  0.3653E+03
     -3.850  0.2597E+01  0.3655E+03
     -3.753  0.3117E+01  0.3658E+03
     -3.657  0.4060E+01  0.3662E+03
     -3.560  0.4759E+01  0.3667E+03
     -3.464  0.4519E+01  0.3671E+03
     -3.368  0.3664E+01  0.3675E+03
     -3.271  0.3168E+01  0.3678E+03
     -3.175  0.3164E+01  0.3681E+03
     -3.078  0.3186E+01  0.3684E+03
     -2.982  0.3456E+01  0.3687E+03
     -2.885  0.4335E+01  0.3692E+03
     -2.789  0.5555E+01  0.3697E+03
     -2.692  0.7009E+01  0.3704E+03
     -2.596  0.8532E+01  0.3712E+03
     -2.499  0.8937E+01  0.3720E+03
     -2.403  0.7736E+01  0.3728E+03
     -2.306  0.6610E+01  0.3734E+03
     -2.210  0.6759E+01  0.3741E+03
     -2.113  0.7158E+01  0.3748E+03
     -2.017  0.6725E+01  0.3754E+03
     -1.920  0.6072E+01  0.3760E+03
     -1.824  0.6815E+01  0.3767E+03
     -1.728  0.9972E+01  0.3776E+03
     -1.631  0.1472E+02  0.3790E+03
     -1.535  0.1894E+02  0.3809E+03
     -1.438  0.2115E+02  0.3829E+03
     -1.342  0.2159E+02  0.3850E+03
     -1.245  0.2126E+02  0.3871E+03
     -1.149  0.2069E+02  0.3890E+03
     -1.052  0.1966E+02  0.3909E+03
     -0.956  0.1779E+02  0.3927E+03
     -0.859  0.1509E+02  0.3941E+03
     -0.763  0.1264E+02  0.3953E+03
     -0.666  0.1176E+02  0.3965E+03
     -0.570  0.1191E+02  0.3976E+03
     -0.473  0.1158E+02  0.3987E+03
     -0.377  0.1121E+02  0.3998E+03
     -0.280  0.1257E+02  0.4010E+03
     -0.184  0.1556E+02  0.4025E+03
     -0.088  0.1819E+02  0.4043E+03
      0.009  0.1923E+02  0.4061E+03
      0.105  0.1941E+02  0.4080E+03
      0.202  0.2012E+02  0.4100E+03
      0.298  0.2130E+02  0.4120E+03
      0.395  0.2117E+02  0.4141E+03
      0.491  0.1964E+02  0.4159E+03
      0.588  0.1996E+02  0.4179E+03
      0.684  0.2382E+02  0.4202E+03
      0.781  0.2879E+02  0.4229E+03
      0.877  0.3196E+02  0.4260E+03
      0.974  0.3333E+02  0.4292E+03
      1.070  0.3494E+02  0.4326E+03
      1.167  0.3846E+02  0.4363E+03
      1.263  0.4384E+02  0.4406E+03
      1.359  0.4892E+02  0.4453E+03
      1.456  0.5068E+02  0.4502E+03
      1.552  0.4742E+02  0.4547E+03
      1.649  0.3948E+02  0.4585E+03
      1.745  0.2855E+02  0.4613E+03
      1.842  0.1701E+02  0.4629E+03
      1.938  0.7765E+01  0.4637E+03
      2.035  0.2543E+01  0.4639E+03
      2.131  0.5717E+00  0.4640E+03
      2.228  0.8598E-01  0.4640E+03
      2.324  0.8526E-02  0.4640E+03
      2.421  0.5526E-03  0.4640E+03
      2.517  0.2328E-04  0.4640E+03
      2.614  0.6345E-06  0.4640E+03
      2.710  0.1116E-07  0.4640E+03
      2.807  0.1261E-09  0.4640E+03
      2.903  0.9149E-12  0.4640E+03
      2.999  0.3453E-14  0.4640E+03
      3.096  0.0000E+00  0.4640E+03
      3.192  0.0000E+00  0.4640E+03
      3.289  0.0000E+00  0.4640E+03
      3.385  0.0000E+00  0.4640E+03
      3.482  0.0000E+00  0.4640E+03
      3.578  0.0000E+00  0.4640E+03
      3.675  0.0000E+00  0.4640E+03
      3.771  0.0000E+00  0.4640E+03
