       N       E                     dE             d eps       ncg     rms          rms(c)
DAV:   1     0.366642976858E+04    0.36664E+04   -0.11933E+05  1720   0.105E+03
DAV:   2     0.177402130290E+03   -0.34890E+04   -0.32381E+04  2144   0.238E+02
DAV:   3    -0.833535758384E+03   -0.10109E+04   -0.98747E+03  1792   0.134E+02
DAV:   4    -0.895743084161E+03   -0.62207E+02   -0.61113E+02  1720   0.428E+01
DAV:   5    -0.897329769970E+03   -0.15867E+01   -0.15614E+01  1784   0.661E+00    0.455E+01
DAV:   6    -0.847759553911E+03    0.49570E+02   -0.47381E+01  1560   0.126E+01    0.267E+01
DAV:   7    -0.829330364254E+03    0.18429E+02   -0.65185E+01  1536   0.144E+01    0.734E+00
DAV:   8    -0.829043158186E+03    0.28721E+00   -0.24347E+00  1608   0.341E+00    0.103E+00
DAV:   9    -0.828934760897E+03    0.10840E+00   -0.28488E-01  1640   0.106E+00    0.579E-01
DAV:  10    -0.828899621971E+03    0.35139E-01   -0.48746E-02  1752   0.455E-01    0.369E-01
DAV:  11    -0.828870652336E+03    0.28970E-01   -0.20991E-02  1576   0.253E-01    0.250E-01
DAV:  12    -0.828865395629E+03    0.52567E-02   -0.24897E-02  1536   0.233E-01    0.158E-01
DAV:  13    -0.828877464664E+03   -0.12069E-01   -0.90618E-03  1528   0.165E-01    0.864E-02
DAV:  14    -0.828892982726E+03   -0.15518E-01   -0.15217E-03  1584   0.801E-02    0.638E-02
DAV:  15    -0.828913917065E+03   -0.20934E-01   -0.19690E-03  1552   0.740E-02    0.304E-02
DAV:  16    -0.828921970270E+03   -0.80532E-02   -0.42689E-04  1624   0.385E-02    0.259E-02
DAV:  17    -0.828928020041E+03   -0.60498E-02   -0.44114E-04  1608   0.302E-02    0.132E-02
DAV:  18    -0.828929672316E+03   -0.16523E-02   -0.64141E-05  1640   0.136E-02    0.796E-03
DAV:  19    -0.828930914107E+03   -0.12418E-02   -0.43007E-05  1568   0.113E-02    0.433E-03
DAV:  20    -0.828931387625E+03   -0.47352E-03   -0.12153E-05  1376   0.520E-03    0.364E-03
DAV:  21    -0.828931620482E+03   -0.23286E-03   -0.39222E-06  1320   0.420E-03    0.240E-03
DAV:  22    -0.828931729417E+03   -0.10893E-03   -0.90735E-07  1048   0.199E-03    0.128E-03
DAV:  23    -0.828931780181E+03   -0.50764E-04   -0.72688E-07   984   0.163E-03    0.807E-04
DAV:  24    -0.828931798679E+03   -0.18498E-04   -0.15205E-07   976   0.806E-04    0.567E-04
DAV:  25    -0.828931805136E+03   -0.64563E-05   -0.60002E-08   936   0.556E-04    0.171E-04
DAV:  26    -0.828931810562E+03   -0.54261E-05   -0.60954E-08   872   0.571E-04    0.431E-04
DAV:  27    -0.828931812048E+03   -0.14861E-05   -0.15957E-08   952   0.360E-04    0.152E-04
DAV:  28    -0.828931813535E+03   -0.14874E-05   -0.10699E-08   904   0.214E-04    0.727E-05
DAV:  29    -0.828931814708E+03   -0.11730E-05   -0.40657E-09   936   0.122E-04    0.423E-05
DAV:  30    -0.828931815231E+03   -0.52238E-06   -0.21961E-09   896   0.690E-05
   1 F= -.82893182E+03 E0= -.82890003E+03  d E =-.635690E-01
