 vasp.6.5.0 16Dec24 (build Feb 19 2025 19:45:31) complex                         
 executed on              LinuxNV date 2025.10.25  10:36:36
 running    2 mpi-ranks, on    1 nodes
 distrk:  each k-point on    2 cores,    1 groups
 distr:  one band on NCORE=   1 cores,    2 groups
 Offloading initialized ...    2 GPUs detected


--------------------------------------------------------------------------------------------------------


 INCAR:
   ISTART = 0            (Not Read existing wavefunction
   ISPIN = 1            (Non-Spin polarised DFT, Default\=1)
   ICHARG = 2            (The initial guess charge density is generated by superposition of atomic charge density)
   LREAL = Auto         (Projection operators: automatic)
   ENCUT = 500          (Cut-off energy for plane wave basis set, in eV)
   LWAVE = .FALSE.       (Write WAVECAR or not)
   LCHARG = .FALSE.       (Write CHGCAR or not)
   PREC = Accurate   (Precision level)
   KGAMMA = .TRUE.
   ALGO = Normal
   NSW = 0           (Default: NSW \= 0)
   IBRION = -1           (Ions are not moved)
   ISMEAR = 0
   EDIFF = 1E-06        (SCF energy convergence
   NELM = 150          (Max electronic SCF steps)

 POTCAR:    PAW_PBE C 08Apr2002                   
 POTCAR:    PAW_PBE C 08Apr2002                   
   SHA256 =  253f7b50bb8d59471dbedb8285d89021f4a42ed1a2c5d38a03a736e69125dd95 C/POTCAR              
   COPYR  = (c) Copyright 08Apr2002 Georg Kresse                                                    
   COPYR  = This file is part of the software VASP. Any use, copying, and all other rights are regul
   COPYR  = If you do not have a valid VASP license, you may not use, copy or distribute this file. 
   VRHFIN =C: s2p2                                                                                  
   LEXCH  = PE                                                                                      
   EATOM  =   147.1560 eV,   10.8157 Ry                                                             
                                                                                                    
   TITEL  = PAW_PBE C 08Apr2002                                                                     
   LULTRA =        F    use ultrasoft PP ?                                                          
   IUNSCR =        1    unscreen: 0-lin 1-nonlin 2-no                                               
   RPACOR =    1.200    partial core radius                                                         
   POMASS =   12.011; ZVAL   =    4.000    mass and valenz                                          
   RCORE  =    1.500    outmost cutoff radius                                                       
   RWIGS  =    1.630; RWIGS  =    0.863    wigner-seitz radius (au A)                               
   ENMAX  =  400.000; ENMIN  =  300.000 eV                                                          
   ICORE  =        2    local potential                                                             
   LCOR   =        T    correct aug charges                                                         
   LPAW   =        T    paw PP                                                                      
   EAUG   =  644.873                                                                                
   DEXC   =    0.000                                                                                
   RMAX   =    1.529    core radius for proj-oper                                                   
   RAUG   =    1.300    factor for augmentation sphere                                              
   RDEP   =    1.501    radius for radial grids                                                     
   RDEPT  =    1.300    core radius for aug-charge                                                  
                                                                                                    
   Atomic configuration                                                                             
    4 entries                                                                                       
     n  l   j            E        occ.                                                              
     1  0  0.50      -273.3789   2.0000                                                             
     2  0  0.50       -13.7508   2.0000                                                             
     2  1  0.50        -5.2854   2.0000                                                             
     3  2  1.50        -5.4423   0.0000                                                             
   Description                                                                                      
     l       E           TYP  RCUT    TYP  RCUT                                                     
     0    -13.7508458     23  1.200                                                                 
     0     -8.2022199     23  1.200                                                                 
     1     -5.2854383     23  1.500                                                                 
     1     34.0145650     23  1.500                                                                 
     2     -5.4423304      7  1.500                                                                 
  local pseudopotential read in
  partial core-charges read in
  partial kinetic energy density read in
  atomic valenz-charges read in
  non local Contribution for L=            0  read in
    real space projection operators read in
  non local Contribution for L=            0  read in
    real space projection operators read in
  non local Contribution for L=            1  read in
    real space projection operators read in
  non local Contribution for L=            1  read in
    real space projection operators read in
    PAW grid and wavefunctions read in
 
   number of l-projection  operators is LMAX  =            4
   number of lm-projection operators is LMMAX =            8
 
 Optimization of the real space projectors (new method)

 maximal supplied QI-value         = 25.13
 optimisation between [QCUT,QGAM] = [ 11.31, 22.87] = [ 35.82,146.48] Ry 
 Optimized for a Real-space Cutoff    1.03 Angstroem

   l    n(q)    QCUT    max X(q) W(low)/X(q) W(high)/X(q)  e(spline) 
   0      7    11.310   115.676    0.20E-03    0.90E-03    0.20E-06
   0      7    11.310    87.132    0.20E-03    0.89E-03    0.19E-06
   1      6    11.310     4.429    0.16E-03    0.28E-03    0.12E-06
   1      6    11.310     2.733    0.12E-03    0.21E-03    0.99E-07
  PAW_PBE C 08Apr2002                   :
 energy of atom  1       EATOM= -147.1560
 kinetic energy error for atom=    0.0076 (will be added to EATOM!!)
 
 
 POSCAR:  C
  positions in cartesian coordinates
  No initial velocities read in


 exchange-correlation table for PE
   RHO(1)=    0.500       N(1)  =     2000
   RHO(2)=  100.500       N(2)  =     4000
 


--------------------------------------------------------------------------------------------------------


 ion  position               nearest neighbor table
   1  0.006  0.101  0.557-   3 1.41   2 1.41  45 1.48  46 2.07
   2  0.006  0.275  0.554-   4 1.37   1 1.41  46 1.48  45 2.01
   3  0.048  0.015  0.547-  50 1.33   5 1.41   1 1.41
   4  0.049  0.352  0.550-  49 1.35   2 1.37   6 1.42
   5  0.090  0.104  0.537-   6 1.39   3 1.41   7 1.43
   6  0.094  0.273  0.544-   5 1.39   4 1.42   8 1.44
   7  0.134  0.027  0.527-  54 1.39   5 1.43   9 1.43
   8  0.138  0.363  0.537-  53 1.36  10 1.41   6 1.44
   9  0.179  0.109  0.522-  10 1.40  11 1.43   7 1.43
  10  0.180  0.280  0.528-   9 1.40   8 1.41  12 1.45
  11  0.222  0.023  0.511-  58 1.37   9 1.43  13 1.48
  12  0.225  0.364  0.520-  57 1.33  14 1.42  10 1.45
  13  0.267  0.109  0.501-  15 1.36  14 1.40  11 1.48
  14  0.268  0.275  0.512-  13 1.40  16 1.42  12 1.42
  15  0.305  0.030  0.485-  13 1.36  62 1.38  17 1.46
  16  0.311  0.353  0.499-  18 1.40  61 1.41  14 1.42
  17  0.352  0.105  0.481-  18 1.36  19 1.40  15 1.46
  18  0.353  0.269  0.489-  17 1.36  16 1.40  20 1.42
  19  0.394  0.021  0.470-  66 1.35  17 1.40  21 1.44
  20  0.395  0.353  0.479-  65 1.40  22 1.41  18 1.42
  21  0.439  0.104  0.468-  22 1.36  23 1.41  19 1.44
  22  0.439  0.272  0.471-  21 1.36  20 1.41  24 1.41
  23  0.481  0.017  0.458-  70 1.39  21 1.41  25 1.41
  24  0.483  0.351  0.464-  69 1.32  26 1.41  22 1.41
  25  0.525  0.097  0.460-  26 1.37  23 1.41  27 1.44
  26  0.526  0.266  0.465-  28 1.37  25 1.37  24 1.41
  27  0.570  0.014  0.457-  74 1.32  25 1.44  29 1.45
  28  0.569  0.351  0.464-  73 1.33  26 1.37  30 1.41
  29  0.615  0.097  0.466-  31 1.38  30 1.38  27 1.45
  30  0.613  0.266  0.468-  29 1.38  32 1.39  28 1.41
  31  0.658  0.021  0.471-  29 1.38  78 1.42  33 1.46
  32  0.655  0.350  0.474-  77 1.38  30 1.39  34 1.41
  33  0.700  0.105  0.487-  34 1.37  35 1.40  31 1.46
  34  0.698  0.274  0.487-  33 1.37  32 1.41  36 1.47
  35  0.743  0.026  0.496-  82 1.39  33 1.40  37 1.44
  36  0.743  0.359  0.496-  81 1.39  38 1.42  34 1.47
  37  0.784  0.106  0.512-  38 1.36  39 1.41  35 1.44
  38  0.783  0.274  0.510-  37 1.36  40 1.41  36 1.42
  39  0.828  0.023  0.515-  86 1.35  37 1.41  41 1.44
  40  0.826  0.362  0.516-  85 1.33  38 1.41  42 1.48
  41  0.872  0.110  0.524-  42 1.35  39 1.44  43 1.46
  42  0.871  0.276  0.527-  41 1.35  44 1.41  40 1.48
  43  0.914  0.022  0.537-  90 1.39  45 1.39  41 1.46
  44  0.914  0.357  0.537-  46 1.35  89 1.36  42 1.41
  45  0.954  0.105  0.552-  46 1.39  43 1.39   1 1.48   2 2.01
  46  0.954  0.276  0.547-  44 1.35  45 1.39   2 1.48   1 2.07
  47  0.005  0.596  0.556-  49 1.37  48 1.40  91 1.49
  48  0.005  0.768  0.552-  50 1.40  47 1.40  92 1.43  91 1.99
  49  0.047  0.519  0.546-   4 1.35  47 1.37  51 1.46
  50  0.047  0.852  0.544-   3 1.33  48 1.40  52 1.45
  51  0.091  0.601  0.535-  52 1.34  53 1.43  49 1.46
  52  0.091  0.766  0.534-  51 1.34  50 1.45  54 1.50
  53  0.138  0.530  0.530-   8 1.36  55 1.40  51 1.43
  54  0.135  0.857  0.521-   7 1.39  56 1.40  52 1.50
  55  0.180  0.610  0.519-  56 1.36  53 1.40  57 1.46
  56  0.178  0.776  0.514-  55 1.36  54 1.40  58 1.42
  57  0.225  0.524  0.511-  12 1.33  59 1.44  55 1.46
  58  0.221  0.859  0.502-  11 1.37  56 1.42  60 1.43
  59  0.267  0.611  0.499-  61 1.40  60 1.41  57 1.44
  60  0.262  0.777  0.487-  59 1.41  58 1.43  62 1.44
  61  0.310  0.525  0.494-  59 1.40  16 1.41  63 1.45
  62  0.306  0.863  0.478-  15 1.38  64 1.43  60 1.44
  63  0.351  0.606  0.477-  64 1.38  65 1.39  61 1.45
  64  0.349  0.775  0.472-  63 1.38  62 1.43  66 1.46
  65  0.394  0.522  0.471-  63 1.39  20 1.40  67 1.43
  66  0.394  0.857  0.463-  19 1.35  68 1.42  64 1.46
  67  0.438  0.597  0.459-  68 1.41  69 1.42  65 1.43
  68  0.437  0.771  0.455-  70 1.40  67 1.41  66 1.42
  69  0.482  0.511  0.457-  24 1.32  67 1.42  71 1.44
  70  0.482  0.848  0.450-  23 1.39  68 1.40  72 1.42
  71  0.526  0.599  0.453-  72 1.38  73 1.43  69 1.44
  72  0.527  0.768  0.449-  71 1.38  70 1.42  74 1.43
  73  0.570  0.513  0.458-  28 1.33  75 1.40  71 1.43
  74  0.572  0.851  0.454-  27 1.32  76 1.40  72 1.43
  75  0.613  0.600  0.463-  76 1.35  73 1.40  77 1.41
  76  0.615  0.767  0.460-  75 1.35  74 1.40  78 1.43
  77  0.656  0.520  0.473-  32 1.38  75 1.41  79 1.47
  78  0.659  0.847  0.466-  80 1.41  31 1.42  76 1.43
  79  0.702  0.603  0.478-  80 1.37  81 1.43  77 1.47
  80  0.703  0.771  0.475-  79 1.37  78 1.41  82 1.41
  81  0.747  0.526  0.487-  36 1.39  83 1.41  79 1.43
  82  0.744  0.857  0.489-  35 1.39  80 1.41  84 1.46
  83  0.791  0.605  0.492-  84 1.38  81 1.41  85 1.42
  84  0.790  0.775  0.492-  83 1.38  86 1.42  82 1.46
  85  0.831  0.523  0.508-  40 1.33  87 1.40  83 1.42
  86  0.831  0.859  0.507-  39 1.35  84 1.42  88 1.43
  87  0.873  0.607  0.517-  88 1.35  85 1.40  89 1.44
  88  0.875  0.773  0.514-  87 1.35  90 1.41  86 1.43
  89  0.913  0.526  0.537-  91 1.34  44 1.36  87 1.44
  90  0.914  0.852  0.532-  92 1.35  43 1.39  88 1.41
  91  0.953  0.602  0.549-  89 1.34  92 1.42  47 1.49  48 1.99
  92  0.955  0.776  0.544-  90 1.35  91 1.42  48 1.43
 
  LATTYP: Found a simple orthorhombic cell.
 ALAT       =     8.1000000000
 B/A-ratio  =     3.4629629630
 C/A-ratio  =     4.1358024691
  
  Lattice vectors:
  
 A1 = (   0.0000000000,  -8.1000000000,   0.0000000000)
 A2 = (  28.0500000000,   0.0000000000,   0.0000000000)
 A3 = (   0.0000000000,   0.0000000000,  33.5000000000)


Analysis of symmetry for initial positions (statically):
=====================================================================
 Subroutine PRICEL returns:
 Original cell was already a primitive cell.
 

 Routine SETGRP: Setting up the symmetry group for a 
 simple orthorhombic supercell.


 Subroutine GETGRP returns: Found  1 space group operations
 (whereof  1 operations were pure point group operations)
 out of a pool of  8 trial point group operations.


The static configuration has the point symmetry C_1 .


Analysis of symmetry for dynamics (positions and initial velocities):
=====================================================================
 Subroutine PRICEL returns:
 Original cell was already a primitive cell.
 

 Routine SETGRP: Setting up the symmetry group for a 
 simple orthorhombic supercell.


 Subroutine GETGRP returns: Found  1 space group operations
 (whereof  1 operations were pure point group operations)
 out of a pool of  8 trial point group operations.


The dynamic configuration has the point symmetry C_1 .


 Subroutine INISYM returns: Found  1 space group operations
 (whereof  1 operations are pure point group operations),
 and found     1 'primitive' translations


----------------------------------------------------------------------------------------

                                     Primitive cell                                     

  volume of cell :    7611.3675

  direct lattice vectors                    reciprocal lattice vectors
    28.050000000  0.000000000  0.000000000     0.035650624  0.000000000  0.000000000
     0.000000000  8.100000000  0.000000000     0.000000000  0.123456790  0.000000000
     0.000000000  0.000000000 33.500000000     0.000000000  0.000000000  0.029850746

  length of vectors
    28.050000000  8.100000000 33.500000000     0.035650624  0.123456790  0.029850746

  position of ions in fractional coordinates (direct lattice)
     0.006496043  0.100844568  0.557247761
     0.006206203  0.275104938  0.554337313
     0.048486275  0.014882840  0.546814925
     0.049486275  0.352232099  0.549886567
     0.090227451  0.104092593  0.537429851
     0.093993583  0.273133333  0.543937313
     0.134322282  0.026649259  0.526865672
     0.137514795  0.363246914  0.536755224
     0.179139037  0.109432593  0.522005970
     0.180400713  0.280038272  0.528029851
     0.221508021  0.023040247  0.510826866
     0.225127273  0.363835802  0.519797015
     0.266638859  0.108636667  0.500931343
     0.267960071  0.275390123  0.511716418
     0.304947594  0.030241481  0.484692537
     0.310777184  0.352816049  0.499343284
     0.352211052  0.104809630  0.480805970
     0.352676649  0.269154321  0.488832836
     0.393771836  0.021263086  0.469958209
     0.395468806  0.352930864  0.478955224
     0.439023173  0.104001235  0.468002985
     0.438634581  0.271593827  0.470638806
     0.480691622  0.016840741  0.457656716
     0.482623886  0.351066667  0.463507463
     0.525180036  0.097152716  0.459964179
     0.526463458  0.265566667  0.464623881
     0.570303030  0.013871975  0.456704478
     0.568695187  0.350522222  0.463582090
     0.614552585  0.096512716  0.466185075
     0.612570410  0.266240741  0.467925373
     0.658099822  0.020772469  0.471071642
     0.655340463  0.350355556  0.473758209
     0.699914439  0.105094691  0.486847761
     0.697572193  0.274116049  0.487391045
     0.742659537  0.025518765  0.496152239
     0.742534759  0.359440741  0.496044776
     0.784135472  0.105695185  0.512155224
     0.783483066  0.273554321  0.510256716
     0.828253119  0.022554815  0.514862687
     0.826338681  0.361813580  0.515988060
     0.871607843  0.109811358  0.524143284
     0.871126560  0.276009877  0.527020896
     0.914313725  0.021951728  0.536785075
     0.913778966  0.357476543  0.537110448
     0.954156863  0.104974815  0.551519403
     0.954149733  0.275896296  0.547301493
     0.005163993  0.595585185  0.556113433
     0.004727344  0.767941975  0.551710448
     0.046998217  0.518543210  0.546214925
     0.047291266  0.851655556  0.544274627
     0.091258467  0.600577778  0.534677612
     0.090893761  0.766044444  0.533797015
     0.137500891  0.529660494  0.530379104
     0.134940820  0.856971605  0.521116418
     0.179730125  0.610145679  0.519065672
     0.178419251  0.776441975  0.513782090
     0.224623173  0.523888889  0.511340299
     0.220660606  0.858718519  0.501814925
     0.266832086  0.611041975  0.499200000
     0.262328342  0.777107407  0.487322388
     0.309813191  0.524900000  0.493955224
     0.305798930  0.862602469  0.477835821
     0.351112299  0.605837037  0.476570149
     0.349305169  0.775054321  0.471925373
     0.393825312  0.522449383  0.471098507
     0.394274510  0.857030864  0.462994030
     0.437572193  0.597477778  0.458713433
     0.437368984  0.771465432  0.455188060
     0.481782531  0.511233333  0.457062687
     0.481811052  0.847850617  0.450143284
     0.526281640  0.599428395  0.452946269
     0.526873440  0.768402469  0.448910448
     0.570438503  0.512871605  0.457767164
     0.571522282  0.850844444  0.453761194
     0.613083779  0.600279012  0.462719403
     0.614709447  0.766893827  0.459674627
     0.656049911  0.520246914  0.473104478
     0.659272727  0.846922222  0.466274627
     0.702185383  0.602813580  0.478277612
     0.703062389  0.771135802  0.475441791
     0.746869875  0.526439506  0.486686567
     0.743650624  0.856761728  0.488895522
     0.791418895  0.605216049  0.491611940
     0.789743316  0.775328395  0.492480597
     0.831286988  0.522504938  0.508188060
     0.830880570  0.858737037  0.507050746
     0.873497326  0.606919753  0.516811940
     0.874891266  0.773425926  0.514140299
     0.912812834  0.525830864  0.536570149
     0.914459893  0.852041975  0.532143284
     0.952563280  0.601712346  0.549477612
     0.954531194  0.775820988  0.544397015

  ion indices of the primitive-cell ions
   primitive index   ion index
                 1           1
                 2           2
                 3           3
                 4           4
                 5           5
                 6           6
                 7           7
                 8           8
                 9           9
                10          10
                11          11
                12          12
                13          13
                14          14
                15          15
                16          16
                17          17
                18          18
                19          19
                20          20
                21          21
                22          22
                23          23
                24          24
                25          25
                26          26
                27          27
                28          28
                29          29
                30          30
                31          31
                32          32
                33          33
                34          34
                35          35
                36          36
                37          37
                38          38
                39          39
                40          40
                41          41
                42          42
                43          43
                44          44
                45          45
                46          46
                47          47
                48          48
                49          49
                50          50
                51          51
                52          52
                53          53
                54          54
                55          55
                56          56
                57          57
                58          58
                59          59
                60          60
                61          61
                62          62
                63          63
                64          64
                65          65
                66          66
                67          67
                68          68
                69          69
                70          70
                71          71
                72          72
                73          73
                74          74
                75          75
                76          76
                77          77
                78          78
                79          79
                80          80
                81          81
                82          82
                83          83
                84          84
                85          85
                86          86
                87          87
                88          88
                89          89
                90          90
                91          91
                92          92

----------------------------------------------------------------------------------------

 
 
 KPOINTS: K-Spacing Value to Generate K-Mesh: 0.03

Automatic generation of k-mesh.
 Grid dimensions read from file:
 generate k-points for:    1    4    1

 Generating k-lattice:

  Cartesian coordinates                     Fractional coordinates (reciprocal lattice)
     0.035650624  0.000000000  0.000000000     1.000000000  0.000000000  0.000000000
     0.000000000  0.030864198  0.000000000     0.000000000  0.250000000  0.000000000
     0.000000000  0.000000000  0.029850746     0.000000000  0.000000000  1.000000000

  Length of vectors
     0.035650624  0.030864198  0.029850746

  Shift w.r.t. Gamma in fractional coordinates (k-lattice)
     0.000000000  0.000000000  0.000000000

 
 Subroutine IBZKPT returns following result:
 ===========================================
 
 Found      3 irreducible k-points:
 
 Following reciprocal coordinates:
            Coordinates               Weight
  0.000000  0.000000  0.000000      1.000000
  0.000000  0.250000  0.000000      2.000000
  0.000000  0.500000  0.000000      1.000000
 
 Following cartesian coordinates:
            Coordinates               Weight
  0.000000  0.000000  0.000000      1.000000
  0.000000  0.030864  0.000000      2.000000
  0.000000  0.061728  0.000000      1.000000
 


--------------------------------------------------------------------------------------------------------




 Dimension of arrays:
   k-points           NKPTS =      3   k-points in BZ     NKDIM =      3   number of bands    NBANDS=    232
   number of dos      NEDOS =    301   number of ions     NIONS =     92
   non local maximal  LDIM  =      4   non local SUM 2l+1 LMDIM =      8
   total plane-waves  NPLWV = ******
   max r-space proj   IRMAX =   1967   max aug-charges    IRDMAX=   5083
   dimension x,y,z NGX =   210 NGY =   60 NGZ =  250
   dimension x,y,z NGXF=   420 NGYF=  120 NGZF=  500
   support grid    NGXF=   420 NGYF=  120 NGZF=  500
   ions per type =              92
   NGX,Y,Z   is equivalent  to a cutoff of  12.45, 12.31, 12.41 a.u.
   NGXF,Y,Z  is equivalent  to a cutoff of  24.89, 24.63, 24.81 a.u.

 SYSTEM =  unknown system                          
 POSCAR =   C                                      

 Startparameter for this run:
   NWRITE =      2    write-flag & timer
   PREC   = accura    normal or accurate (medium, high low for compatibility)
   ISTART =      0    job   : 0-new  1-cont  2-samecut
   ICHARG =      2    charge: 1-file 2-atom 10-const
   ISPIN  =      1    spin polarized calculation?
   LNONCOLLINEAR =      F non collinear calculations
   LSORBIT =      F    spin-orbit coupling
   INIWAV =      1    electr: 0-lowe 1-rand  2-diag
   LASPH  =      F    aspherical Exc in radial PAW
 Electronic Relaxation 1
   ENCUT  =  500.0 eV  36.75 Ry    6.06 a.u.  51.14 14.77 61.08*2*pi/ulx,y,z
   ENINI  =  500.0     initial cutoff
   ENAUG  =  644.9 eV  augmentation charge cutoff
   NELM   =    150;   NELMIN=  2; NELMDL= -5     # of ELM steps 
   EDIFF  = 0.1E-05   stopping-criterion for ELM
   LREAL  =      T    real-space projection
   NLSPLINE    = F    spline interpolate recip. space projectors
   LCOMPAT=      F    compatible to vasp.4.4
   GGA_COMPAT  = T    GGA compatible to vasp.4.4-vasp.4.6
   LMAXPAW     = -100 max onsite density
   LMAXMIX     =    2 max onsite mixed and CHGCAR
   VOSKOWN=      0    Vosko Wilk Nusair interpolation
   ROPT   =   -0.00025
 Ionic relaxation
   EDIFFG = 0.1E-04   stopping-criterion for IOM
   NSW    =      0    number of steps for IOM
   NBLOCK =      1;   KBLOCK =      1    inner block; outer block 
   IBRION =     -1    ionic relax: 0-MD 1-quasi-New 2-CG
   NFREE  =      0    steps in history (QN), initial steepest desc. (CG)
   ISIF   =      2    stress and relaxation
   IWAVPR =     10    prediction:  0-non 1-charg 2-wave 3-comb
   ISYM   =      2    0-nonsym 1-usesym 2-fastsym
   LCORR  =      T    Harris-Foulkes like correction to forces

   POTIM  = 0.5000    time-step for ionic-motion
   TEIN   =    0.0    initial temperature
   TEBEG  =    0.0;   TEEND  =   0.0 temperature during run
   SMASS  =  -3.00    Nose mass-parameter (am)
   estimated Nose-frequenzy (Omega)   =  0.10E-29 period in steps = 0.13E+47 mass=  -0.180E-25a.u.
   SCALEE = 1.0000    scale energy and forces
   NPACO  =    256;   APACO  = 10.0  distance and # of slots for P.C.
   PSTRESS=    0.0 pullay stress

  Mass of Ions in am
   POMASS =  12.01
  Ionic Valenz
   ZVAL   =   4.00
  Atomic Wigner-Seitz radii
   RWIGS  =  -1.00
  virtual crystal weights 
   VCA    =   1.00
   NELECT =     368.0000    total number of electrons
   NUPDOWN=      -1.0000    fix difference up-down

 DOS related values:
   EMIN   =  10.00;   EMAX   =-10.00  energy-range for DOS
   EFERMI =   0.00;   METHOD = LEGACY      
   ISMEAR =     0;   SIGMA  =   0.20  broadening in eV -4-tet -1-fermi 0-gaus
   EFERMI_NEDOS =   21; number of points for ismear=-14 and -15

 Electronic relaxation 2 (details)
   IALGO  =     38    algorithm
   LDIAG  =      T    sub-space diagonalisation (order eigenvalues)
   LSUBROT=      F    optimize rotation matrix (better conditioning)
   TURBO    =      0    0=normal 1=particle mesh
   IRESTART =      0    0=no restart 2=restart with 2 vectors
   NREBOOT  =      0    no. of reboots
   NMIN     =      0    reboot dimension
   EREF     =   0.00    reference energy to select bands
   IMIX   =      4    mixing-type and parameters
     AMIX     =   0.40;   BMIX     =  1.00
     AMIX_MAG =   1.60;   BMIX_MAG =  1.00
     AMIN     =   0.10
     WC   =   100.;   INIMIX=   1;  MIXPRE=   1;  MAXMIX= -45

 Intra band minimization:
   WEIMIN = 0.0000     energy-eigenvalue tresh-hold
   EBREAK =  0.11E-08  absolut break condition
   DEPER  =   0.30     relativ break condition  

   TIME   =   0.40     timestep for ELM

  volume/ion in A,a.u.               =      82.73       558.30
  Fermi-wavevector in a.u.,A,eV,Ry     =   0.596398  1.127030  4.839472  0.355691
  Thomas-Fermi vector in A             =   1.646729
 
 Write flags
   LWAVE        =      F    write WAVECAR
   LDOWNSAMPLE  =      F    k-point downsampling of WAVECAR
   LCHARG       =      F    write CHGCAR
   LVTOT        =      F    write LOCPOT, total local potential
   LVHAR        =      F    write LOCPOT, Hartree potential only
   WRT_POTENTIAL= false  ! write potential to hdf5 file
   LELF         =      F    write electronic localiz. function (ELF)
   LORBIT       =      0    0 simple, 1 ext, 2 COOP (PROOUT), +10 PAW based schemes


 Python interface
   PLUGINS active      =      F    recompile with -DPLUGINS to activate
 
 Dipole corrections
   LMONO      =      F    monopole corrections only (constant potential shift)
   LDIPOL     =      F    correct potential (dipole corrections)
   IDIPOL     =      0    1-x, 2-y, 3-z, 4-all directions 
   EPSILON    =  1.0000000 bulk dielectric constant
   LVACPOTAV  =      F  vacuum potentials using an averaging scheme for the charge density
   VACPOTFLAT =  0.1000000 required flatness to determine vacuum potential
 
Coulomb truncation method
  LTRUNCATE          =      F  Coulomb kernel truncation to be used
  IDIMENSIONALITY    =      3  Dimensionality of cutoff (0 molecules / 2 surfaces)
  ISURFACE           =     -1  Direction of surface normal
  LCOARSEN           =      F  Coarsen the charge grid before padding, preferred

 
 Exchange correlation treatment:
   GGA     = PE    functional components
   XC_C    = 1    coefficients multiplying the functional components
   LIBXC   =     F    Libxc                    
   VOSKOWN =     0    Vosko Wilk Nusair interpolation
   LHFCALC =     F    Hartree Fock is set to
   LHFONE  =     F    Hartree Fock one center treatment
   AEXX    =    0.0000 exact exchange contribution

 Parameters of functionals:
   PE:
     No parameter
 
 Van der Waals corrections
   IVDW    =     0    specifies the selected vdW correction

 Linear response parameters
   LEPSILON=     F    determine dielectric tensor
   LRPA    =     F    only Hartree local field effects (RPA)
   LNABLA  =     F    use nabla operator in PAW spheres
   LVEL    =     F    velocity operator in full k-point grid
   CSHIFT  =0.1000    complex shift for real part using Kramers Kronig
   OMEGAMAX=  -1.0    maximum frequency
   DEG_THRESHOLD= 0.2000000E-02 threshold for treating states as degnerate
   RTIME   =   -0.100 relaxation time in fs
  (WPLASMAI=    0.000 imaginary part of plasma frequency in eV, 0.658/RTIME)
   DFIELD  = 0.0000000 0.0000000 0.0000000 field for delta impulse in time
 
  Optional k-point grid parameters
   LKPOINTS_OPT  =     F    use optional k-point grid
   KPOINTS_OPT_MODE=     1    mode for optional k-point grid
 
 Orbital magnetization related:
   ORBITALMAG=     F  switch on orbital magnetization
   LCHIMAG   =     F  perturbation theory with respect to B field
   DQ        =  0.001000  dq finite difference perturbation B field
   LLRAUG    =     F  two centre corrections for induced B field
   LBONE     =     F  B-component reconstruction in AE one-centre
   LVGVCALC  =     T  calculate vGv susceptibility
   LVGVAPPL  =     F  apply vGv susceptibility instead of pGv for G=0

 Random number generation:
   RANDOM_GENERATOR = DEFAULT
   PCG_SEED         = not used


--------------------------------------------------------------------------------------------------------


 Static calculation
 charge density and potential will be updated during run
 non-spin polarized calculation
 Variant of blocked Davidson
 Davidson routine will perform the subspace rotation
 perform sub-space diagonalisation
    after iterative eigenvector-optimisation
 modified Broyden-mixing scheme, WC =      100.0
 initial mixing is a Kerker type mixing with AMIX =  0.4000 and BMIX =      1.0000
 Hartree-type preconditioning will be used
 using additional bands            48
 real space projection scheme for non local part
 use partial core corrections
 calculate Harris-corrections to forces 
   (improved forces if not selfconsistent)
 use gradient corrections 
 use of overlap-Matrix (Vanderbilt PP)
 Gauss-broadening in eV      SIGMA  =   0.20


--------------------------------------------------------------------------------------------------------


  energy-cutoff  :      500.00
  volume of cell :     7611.37
      direct lattice vectors                 reciprocal lattice vectors
    28.050000000  0.000000000  0.000000000     0.035650624  0.000000000  0.000000000
     0.000000000  8.100000000  0.000000000     0.000000000  0.123456790  0.000000000
     0.000000000  0.000000000 33.500000000     0.000000000  0.000000000  0.029850746

  length of vectors
    28.050000000  8.100000000 33.500000000     0.035650624  0.123456790  0.029850746


 
 k-points in units of 2pi/SCALE and weight: K-Spacing Value to Generate K-Mesh: 0.03
   0.00000000  0.00000000  0.00000000       0.250
   0.00000000  0.03086420  0.00000000       0.500
   0.00000000  0.06172840  0.00000000       0.250
 
 k-points in reciprocal lattice and weights: K-Spacing Value to Generate K-Mesh: 0.03
   0.00000000  0.00000000  0.00000000       0.250
   0.00000000  0.25000000  0.00000000       0.500
   0.00000000  0.50000000  0.00000000       0.250
 
 position of ions in fractional coordinates (direct lattice) 
   0.00649604  0.10084457  0.55724776
   0.00620620  0.27510494  0.55433731
   0.04848627  0.01488284  0.54681493
   0.04948627  0.35223210  0.54988657
   0.09022745  0.10409259  0.53742985
   0.09399358  0.27313333  0.54393731
   0.13432228  0.02664926  0.52686567
   0.13751480  0.36324691  0.53675522
   0.17913904  0.10943259  0.52200597
   0.18040071  0.28003827  0.52802985
   0.22150802  0.02304025  0.51082687
   0.22512727  0.36383580  0.51979701
   0.26663886  0.10863667  0.50093134
   0.26796007  0.27539012  0.51171642
   0.30494759  0.03024148  0.48469254
   0.31077718  0.35281605  0.49934328
   0.35221105  0.10480963  0.48080597
   0.35267665  0.26915432  0.48883284
   0.39377184  0.02126309  0.46995821
   0.39546881  0.35293086  0.47895522
   0.43902317  0.10400123  0.46800299
   0.43863458  0.27159383  0.47063881
   0.48069162  0.01684074  0.45765672
   0.48262389  0.35106667  0.46350746
   0.52518004  0.09715272  0.45996418
   0.52646346  0.26556667  0.46462388
   0.57030303  0.01387198  0.45670448
   0.56869519  0.35052222  0.46358209
   0.61455258  0.09651272  0.46618507
   0.61257041  0.26624074  0.46792537
   0.65809982  0.02077247  0.47107164
   0.65534046  0.35035556  0.47375821
   0.69991444  0.10509469  0.48684776
   0.69757219  0.27411605  0.48739104
   0.74265954  0.02551877  0.49615224
   0.74253476  0.35944074  0.49604478
   0.78413547  0.10569519  0.51215522
   0.78348307  0.27355432  0.51025672
   0.82825312  0.02255481  0.51486269
   0.82633868  0.36181358  0.51598806
   0.87160784  0.10981136  0.52414328
   0.87112656  0.27600988  0.52702090
   0.91431373  0.02195173  0.53678507
   0.91377897  0.35747654  0.53711045
   0.95415686  0.10497481  0.55151940
   0.95414973  0.27589630  0.54730149
   0.00516399  0.59558519  0.55611343
   0.00472734  0.76794198  0.55171045
   0.04699822  0.51854321  0.54621493
   0.04729127  0.85165556  0.54427463
   0.09125847  0.60057778  0.53467761
   0.09089376  0.76604444  0.53379701
   0.13750089  0.52966049  0.53037910
   0.13494082  0.85697160  0.52111642
   0.17973012  0.61014568  0.51906567
   0.17841925  0.77644198  0.51378209
   0.22462317  0.52388889  0.51134030
   0.22066061  0.85871852  0.50181493
   0.26683209  0.61104198  0.49920000
   0.26232834  0.77710741  0.48732239
   0.30981319  0.52490000  0.49395522
   0.30579893  0.86260247  0.47783582
   0.35111230  0.60583704  0.47657015
   0.34930517  0.77505432  0.47192537
   0.39382531  0.52244938  0.47109851
   0.39427451  0.85703086  0.46299403
   0.43757219  0.59747778  0.45871343
   0.43736898  0.77146543  0.45518806
   0.48178253  0.51123333  0.45706269
   0.48181105  0.84785062  0.45014328
   0.52628164  0.59942840  0.45294627
   0.52687344  0.76840247  0.44891045
   0.57043850  0.51287160  0.45776716
   0.57152228  0.85084444  0.45376119
   0.61308378  0.60027901  0.46271940
   0.61470945  0.76689383  0.45967463
   0.65604991  0.52024691  0.47310448
   0.65927273  0.84692222  0.46627463
   0.70218538  0.60281358  0.47827761
   0.70306239  0.77113580  0.47544179
   0.74686988  0.52643951  0.48668657
   0.74365062  0.85676173  0.48889552
   0.79141889  0.60521605  0.49161194
   0.78974332  0.77532840  0.49248060
   0.83128699  0.52250494  0.50818806
   0.83088057  0.85873704  0.50705075
   0.87349733  0.60691975  0.51681194
   0.87489127  0.77342593  0.51414030
   0.91281283  0.52583086  0.53657015
   0.91445989  0.85204198  0.53214328
   0.95256328  0.60171235  0.54947761
   0.95453119  0.77582099  0.54439701
 
 position of ions in cartesian coordinates  (Angst):
   0.18221400  0.81684100 18.66780000
   0.17408400  2.22835000 18.57030000
   1.36004000  0.12055100 18.31830000
   1.38809000  2.85308000 18.42120000
   2.53088000  0.84315000 18.00390000
   2.63652000  2.21238000 18.22190000
   3.76774000  0.21585900 17.65000000
   3.85729000  2.94230000 17.98130000
   5.02485000  0.88640400 17.48720000
   5.06024000  2.26831000 17.68900000
   6.21330000  0.18662600 17.11270000
   6.31482000  2.94707000 17.41320000
   7.47922000  0.87995700 16.78120000
   7.51628000  2.23066000 17.14250000
   8.55378000  0.24495600 16.23720000
   8.71730000  2.85781000 16.72800000
   9.87952000  0.84895800 16.10700000
   9.89258000  2.18015000 16.37590000
  11.04530000  0.17223100 15.74360000
  11.09290000  2.85874000 16.04500000
  12.31460000  0.84241000 15.67810000
  12.30370000  2.19991000 15.76640000
  13.48340000  0.13641000 15.33150000
  13.53760000  2.84364000 15.52750000
  14.73130000  0.78693700 15.40880000
  14.76730000  2.15109000 15.56490000
  15.99700000  0.11236300 15.29960000
  15.95190000  2.83923000 15.53000000
  17.23820000  0.78175300 15.61720000
  17.18260000  2.15655000 15.67550000
  18.45970000  0.16825700 15.78090000
  18.38230000  2.83788000 15.87090000
  19.63260000  0.85126700 16.30940000
  19.56690000  2.22034000 16.32760000
  20.83160000  0.20670200 16.62110000
  20.82810000  2.91147000 16.61750000
  21.99500000  0.85613100 17.15720000
  21.97670000  2.21579000 17.09360000
  23.23250000  0.18269400 17.24790000
  23.17880000  2.93069000 17.28560000
  24.44860000  0.88947200 17.55880000
  24.43510000  2.23568000 17.65520000
  25.64650000  0.17780900 17.98230000
  25.63150000  2.89556000 17.99320000
  26.76410000  0.85029600 18.47590000
  26.76390000  2.23476000 18.33460000
   0.14485000  4.82424000 18.62980000
   0.13260200  6.22033000 18.48230000
   1.31830000  4.20020000 18.29820000
   1.32652000  6.89841000 18.23320000
   2.55980000  4.86468000 17.91170000
   2.54957000  6.20496000 17.88220000
   3.85690000  4.29025000 17.76770000
   3.78509000  6.94147000 17.45740000
   5.04143000  4.94218000 17.38870000
   5.00466000  6.28918000 17.21170000
   6.30068000  4.24350000 17.12990000
   6.18953000  6.95562000 16.81080000
   7.48464000  4.94944000 16.72320000
   7.35831000  6.29457000 16.32530000
   8.69026000  4.25169000 16.54750000
   8.57766000  6.98708000 16.00750000
   9.84870000  4.90728000 15.96510000
   9.79801000  6.27794000 15.80950000
  11.04680000  4.23184000 15.78180000
  11.05940000  6.94195000 15.51030000
  12.27390000  4.83957000 15.36690000
  12.26820000  6.24887000 15.24880000
  13.51400000  4.14099000 15.31160000
  13.51480000  6.86759000 15.07980000
  14.76220000  4.85537000 15.17370000
  14.77880000  6.22406000 15.03850000
  16.00080000  4.15426000 15.33520000
  16.03120000  6.89184000 15.20100000
  17.19700000  4.86226000 15.50110000
  17.24260000  6.21184000 15.39910000
  18.40220000  4.21400000 15.84900000
  18.49260000  6.86007000 15.62020000
  19.69630000  4.88279000 16.02230000
  19.72090000  6.24620000 15.92730000
  20.94970000  4.26416000 16.30400000
  20.85940000  6.93977000 16.37800000
  22.19930000  4.90225000 16.46900000
  22.15230000  6.28016000 16.49810000
  23.31760000  4.23229000 17.02430000
  23.30620000  6.95577000 16.98620000
  24.50160000  4.91605000 17.31320000
  24.54070000  6.26475000 17.22370000
  25.60440000  4.25923000 17.97510000
  25.65060000  6.90154000 17.82680000
  26.71940000  4.87387000 18.40750000
  26.77460000  6.28415000 18.23730000
 


--------------------------------------------------------------------------------------------------------


 k-point     1 :   0.0000 0.0000 0.0000  plane waves:  193173
 k-point     2 :   0.0000 0.2500 0.0000  plane waves:  193166
 k-point     3 :   0.0000 0.5000 0.0000  plane waves:  193226

 maximum and minimum number of plane-waves per node :    193226   193166

 maximum number of plane-waves:    193226
 maximum index in each direction: 
   IXMAX=   51   IYMAX=   14   IZMAX=   61
   IXMIN=  -51   IYMIN=  -15   IZMIN=  -61


 serial   3D FFT for wavefunctions
 parallel 3D FFT for charge:
    minimum data exchange during FFTs selected (reduces bandwidth)


 total amount of memory used by VASP MPI-rank0  2294515. kBytes
=======================================================================

   base                                    :      30000. kBytes
   nonlr-proj                              :      15081. kBytes
   fftplans                                :     436558. kBytes
   grid                                    :     732614. kBytes
   one-center                              :        282. kBytes
   wavefun                                 :    1079980. kBytes
 
     INWAV:  cpu time      0.0000: real time      0.0000
 Broyden mixing: mesh for mixing (old mesh)
   NGX =103   NGY = 29   NGZ =123
  (NGX  =420   NGY  =120   NGZ  =500)
  gives a total of 367401 points

 initial charge density was supplied:
 charge density of overlapping atoms calculated
 number of electron     368.0000000 magnetization 
 keeping initial charge density in first step


--------------------------------------------------------------------------------------------------------


 Maximum index for non-local projection operator          1873
 Maximum index for augmentation-charges          2385 (set IRDMAX)


--------------------------------------------------------------------------------------------------------


 First call to EWALD:  gamma=   0.090
 Maximum number of real-space cells   2x   6x   2
 Maximum number of reciprocal cells   4x   1x   4

    FEWALD:  cpu time      0.1598: real time      0.1598


--------------------------------------- Ionic step        1  -------------------------------------------




--------------------------------------- Iteration      1(   1)  ---------------------------------------


    POTLOK:  cpu time      0.4228: real time      0.4454
    SETDIJ:  cpu time      0.0418: real time      0.0417
     EDDAV:  cpu time     11.0931: real time     11.0979
       DOS:  cpu time      0.0008: real time      0.0008
    --------------------------------------------
      LOOP:  cpu time     11.5584: real time     11.5859

 eigenvalue-minimisations  :  1720
 total energy-change (2. order) : 0.3666430E+04  (-0.1193256E+05)
 number of electron     368.0000000 magnetization 
 augmentation part      368.0000000 magnetization 

 Free energy of the ion-electron system (eV)
  ---------------------------------------------------
  alpha Z        PSCENC =        91.34886789
  Ewald energy   TEWEN  =    119935.00519924
  -Hartree energ DENC   =   -129263.31856372
  -exchange      EXHF   =         0.00000000
  -V(xc)+E(xc)   XCENC  =      1221.28002201
  PAW double counting   =      9984.02826696   -10036.41360137
  entropy T*S    EENTRO =        -0.85182898
  eigenvalues    EBANDS =     -1802.30338737
  atomic energy  EATOM  =     13537.65479391
  Solvation  Ediel_sol  =         0.00000000
  ---------------------------------------------------
  free energy    TOTEN  =      3666.42976858 eV

  energy without entropy =     3667.28159756  energy(sigma->0) =     3666.85568307


--------------------------------------------------------------------------------------------------------




--------------------------------------- Iteration      1(   2)  ---------------------------------------


     EDDAV:  cpu time     13.1335: real time     13.1386
       DOS:  cpu time      0.0007: real time      0.0007
    --------------------------------------------
      LOOP:  cpu time     13.1342: real time     13.1393

 eigenvalue-minimisations  :  2144
 total energy-change (2. order) :-0.3489028E+04  (-0.3238143E+04)
 number of electron     368.0000000 magnetization 
 augmentation part      368.0000000 magnetization 

 Free energy of the ion-electron system (eV)
  ---------------------------------------------------
  alpha Z        PSCENC =        91.34886789
  Ewald energy   TEWEN  =    119935.00519924
  -Hartree energ DENC   =   -129263.31856372
  -exchange      EXHF   =         0.00000000
  -V(xc)+E(xc)   XCENC  =      1221.28002201
  PAW double counting   =      9984.02826696   -10036.41360137
  entropy T*S    EENTRO =        -0.18539179
  eigenvalues    EBANDS =     -5291.99746284
  atomic energy  EATOM  =     13537.65479391
  Solvation  Ediel_sol  =         0.00000000
  ---------------------------------------------------
  free energy    TOTEN  =       177.40213029 eV

  energy without entropy =      177.58752208  energy(sigma->0) =      177.49482619


--------------------------------------------------------------------------------------------------------




--------------------------------------- Iteration      1(   3)  ---------------------------------------


     EDDAV:  cpu time     11.2930: real time     11.2974
       DOS:  cpu time      0.0006: real time      0.0006
    --------------------------------------------
      LOOP:  cpu time     11.2937: real time     11.2981

 eigenvalue-minimisations  :  1792
 total energy-change (2. order) :-0.1010938E+04  (-0.9874728E+03)
 number of electron     368.0000000 magnetization 
 augmentation part      368.0000000 magnetization 

 Free energy of the ion-electron system (eV)
  ---------------------------------------------------
  alpha Z        PSCENC =        91.34886789
  Ewald energy   TEWEN  =    119935.00519924
  -Hartree energ DENC   =   -129263.31856372
  -exchange      EXHF   =         0.00000000
  -V(xc)+E(xc)   XCENC  =      1221.28002201
  PAW double counting   =      9984.02826696   -10036.41360137
  entropy T*S    EENTRO =        -0.02649001
  eigenvalues    EBANDS =     -6303.09425330
  atomic energy  EATOM  =     13537.65479391
  Solvation  Ediel_sol  =         0.00000000
  ---------------------------------------------------
  free energy    TOTEN  =      -833.53575838 eV

  energy without entropy =     -833.50926837  energy(sigma->0) =     -833.52251338


--------------------------------------------------------------------------------------------------------




--------------------------------------- Iteration      1(   4)  ---------------------------------------


     EDDAV:  cpu time     10.9172: real time     10.9218
       DOS:  cpu time      0.0007: real time      0.0007
    --------------------------------------------
      LOOP:  cpu time     10.9179: real time     10.9225

 eigenvalue-minimisations  :  1720
 total energy-change (2. order) :-0.6220733E+02  (-0.6111295E+02)
 number of electron     368.0000000 magnetization 
 augmentation part      368.0000000 magnetization 

 Free energy of the ion-electron system (eV)
  ---------------------------------------------------
  alpha Z        PSCENC =        91.34886789
  Ewald energy   TEWEN  =    119935.00519924
  -Hartree energ DENC   =   -129263.31856372
  -exchange      EXHF   =         0.00000000
  -V(xc)+E(xc)   XCENC  =      1221.28002201
  PAW double counting   =      9984.02826696   -10036.41360137
  entropy T*S    EENTRO =        -0.05872081
  eigenvalues    EBANDS =     -6365.26934827
  atomic energy  EATOM  =     13537.65479391
  Solvation  Ediel_sol  =         0.00000000
  ---------------------------------------------------
  free energy    TOTEN  =      -895.74308416 eV

  energy without entropy =     -895.68436335  energy(sigma->0) =     -895.71372376


--------------------------------------------------------------------------------------------------------




--------------------------------------- Iteration      1(   5)  ---------------------------------------


     EDDAV:  cpu time     11.2289: real time     11.2355
       DOS:  cpu time      0.0007: real time      0.0007
    CHARGE:  cpu time      1.2149: real time      1.2162
    MIXING:  cpu time      0.2743: real time      0.2755
    --------------------------------------------
      LOOP:  cpu time     12.7188: real time     12.7278

 eigenvalue-minimisations  :  1784
 total energy-change (2. order) :-0.1586686E+01  (-0.1561357E+01)
 number of electron     368.0000004 magnetization 
 augmentation part       10.1505504 magnetization 

 Broyden mixing:
  rms(total) = 0.45512E+01    rms(broyden)= 0.45506E+01
  rms(prec ) = 0.46685E+01
  weight for this iteration     100.00

 Free energy of the ion-electron system (eV)
  ---------------------------------------------------
  alpha Z        PSCENC =        91.34886789
  Ewald energy   TEWEN  =    119935.00519924
  -Hartree energ DENC   =   -129263.31856372
  -exchange      EXHF   =         0.00000000
  -V(xc)+E(xc)   XCENC  =      1221.28002201
  PAW double counting   =      9984.02826696   -10036.41360137
  entropy T*S    EENTRO =        -0.05979508
  eigenvalues    EBANDS =     -6366.85495982
  atomic energy  EATOM  =     13537.65479391
  Solvation  Ediel_sol  =         0.00000000
  ---------------------------------------------------
  free energy    TOTEN  =      -897.32976997 eV

  energy without entropy =     -897.26997489  energy(sigma->0) =     -897.29987243


--------------------------------------------------------------------------------------------------------




--------------------------------------- Iteration      1(   6)  ---------------------------------------


    POTLOK:  cpu time      0.3195: real time      0.3195
    SETDIJ:  cpu time      0.0406: real time      0.0407
     EDDAV:  cpu time     10.1232: real time     10.1277
       DOS:  cpu time      0.0007: real time      0.0007
    CHARGE:  cpu time      1.1663: real time      1.1673
    MIXING:  cpu time      0.2773: real time      0.2779
    --------------------------------------------
      LOOP:  cpu time     11.9277: real time     11.9338

 eigenvalue-minimisations  :  1560
 total energy-change (2. order) : 0.4957022E+02  (-0.4738087E+01)
 number of electron     368.0000004 magnetization 
 augmentation part        9.7249219 magnetization 

 Broyden mixing:
  rms(total) = 0.26725E+01    rms(broyden)= 0.26725E+01
  rms(prec ) = 0.27306E+01
  weight for this iteration     100.00

 eigenvalues of (default mixing * dielectric matrix)
  average eigenvalue GAMMA=   2.1815
  2.1815

 Free energy of the ion-electron system (eV)
  ---------------------------------------------------
  alpha Z        PSCENC =        91.34886789
  Ewald energy   TEWEN  =    119935.00519924
  -Hartree energ DENC   =   -129833.33231216
  -exchange      EXHF   =         0.00000000
  -V(xc)+E(xc)   XCENC  =      1244.59966050
  PAW double counting   =     18934.63660874   -18994.63630210
  entropy T*S    EENTRO =        -0.06254694
  eigenvalues    EBANDS =     -5762.97352299
  atomic energy  EATOM  =     13537.65479391
  Solvation  Ediel_sol  =         0.00000000
  ---------------------------------------------------
  free energy    TOTEN  =      -847.75955391 eV

  energy without entropy =     -847.69700698  energy(sigma->0) =     -847.72828044


--------------------------------------------------------------------------------------------------------




--------------------------------------- Iteration      1(   7)  ---------------------------------------


    POTLOK:  cpu time      0.3188: real time      0.3189
    SETDIJ:  cpu time      0.0403: real time      0.0403
     EDDAV:  cpu time     10.0019: real time     10.0061
       DOS:  cpu time      0.0007: real time      0.0007
    CHARGE:  cpu time      1.1578: real time      1.1591
    MIXING:  cpu time      0.2781: real time      0.2790
    --------------------------------------------
      LOOP:  cpu time     11.7977: real time     11.8041

 eigenvalue-minimisations  :  1536
 total energy-change (2. order) : 0.1842919E+02  (-0.6518532E+01)
 number of electron     368.0000004 magnetization 
 augmentation part        9.1702990 magnetization 

 Broyden mixing:
  rms(total) = 0.73375E+00    rms(broyden)= 0.73348E+00
  rms(prec ) = 0.74352E+00
  weight for this iteration     100.00

 eigenvalues of (default mixing * dielectric matrix)
  average eigenvalue GAMMA=   2.1903
  2.1903  2.1903

 Free energy of the ion-electron system (eV)
  ---------------------------------------------------
  alpha Z        PSCENC =        91.34886789
  Ewald energy   TEWEN  =    119935.00519924
  -Hartree energ DENC   =   -130596.51628545
  -exchange      EXHF   =         0.00000000
  -V(xc)+E(xc)   XCENC  =      1275.65249907
  PAW double counting   =     36532.88873442   -36599.78582984
  entropy T*S    EENTRO =        -0.06466355
  eigenvalues    EBANDS =     -5005.51367994
  atomic energy  EATOM  =     13537.65479391
  Solvation  Ediel_sol  =         0.00000000
  ---------------------------------------------------
  free energy    TOTEN  =      -829.33036425 eV

  energy without entropy =     -829.26570070  energy(sigma->0) =     -829.29803248


--------------------------------------------------------------------------------------------------------




--------------------------------------- Iteration      1(   8)  ---------------------------------------


    POTLOK:  cpu time      0.3189: real time      0.3189
    SETDIJ:  cpu time      0.0427: real time      0.0428
     EDDAV:  cpu time     10.3866: real time     10.3907
       DOS:  cpu time      0.0007: real time      0.0007
    CHARGE:  cpu time      1.1622: real time      1.1650
    MIXING:  cpu time      0.2811: real time      0.2831
    --------------------------------------------
      LOOP:  cpu time     12.1923: real time     12.2012

 eigenvalue-minimisations  :  1608
 total energy-change (2. order) : 0.2872061E+00  (-0.2434725E+00)
 number of electron     368.0000004 magnetization 
 augmentation part        9.1547387 magnetization 

 Broyden mixing:
  rms(total) = 0.10298E+00    rms(broyden)= 0.10295E+00
  rms(prec ) = 0.12490E+00
  weight for this iteration     100.00

 eigenvalues of (default mixing * dielectric matrix)
  average eigenvalue GAMMA=   1.8635
  1.2442  2.4419  1.9044

 Free energy of the ion-electron system (eV)
  ---------------------------------------------------
  alpha Z        PSCENC =        91.34886789
  Ewald energy   TEWEN  =    119935.00519924
  -Hartree energ DENC   =   -130689.85450514
  -exchange      EXHF   =         0.00000000
  -V(xc)+E(xc)   XCENC  =      1275.44177397
  PAW double counting   =     40769.35584023   -40833.60626966
  entropy T*S    EENTRO =        -0.06299777
  eigenvalues    EBANDS =     -4914.32586085
  atomic energy  EATOM  =     13537.65479391
  Solvation  Ediel_sol  =         0.00000000
  ---------------------------------------------------
  free energy    TOTEN  =      -829.04315819 eV

  energy without entropy =     -828.98016042  energy(sigma->0) =     -829.01165930


--------------------------------------------------------------------------------------------------------




--------------------------------------- Iteration      1(   9)  ---------------------------------------


    POTLOK:  cpu time      0.3194: real time      0.3195
    SETDIJ:  cpu time      0.0403: real time      0.0403
     EDDAV:  cpu time     10.5452: real time     10.5490
       DOS:  cpu time      0.0007: real time      0.0007
    CHARGE:  cpu time      1.1629: real time      1.1640
    MIXING:  cpu time      0.2881: real time      0.2880
    --------------------------------------------
      LOOP:  cpu time     12.3566: real time     12.3614

 eigenvalue-minimisations  :  1640
 total energy-change (2. order) : 0.1083973E+00  (-0.2848760E-01)
 number of electron     368.0000004 magnetization 
 augmentation part        9.1311641 magnetization 

 Broyden mixing:
  rms(total) = 0.57913E-01    rms(broyden)= 0.57904E-01
  rms(prec ) = 0.79111E-01
  weight for this iteration     100.00

 eigenvalues of (default mixing * dielectric matrix)
  average eigenvalue GAMMA=   1.6773
  2.1989  2.1989  1.0769  1.2347

 Free energy of the ion-electron system (eV)
  ---------------------------------------------------
  alpha Z        PSCENC =        91.34886789
  Ewald energy   TEWEN  =    119935.00519924
  -Hartree energ DENC   =   -130760.93016271
  -exchange      EXHF   =         0.00000000
  -V(xc)+E(xc)   XCENC  =      1276.88111270
  PAW double counting   =     41338.30077986   -41402.61077791
  entropy T*S    EENTRO =        -0.06346296
  eigenvalues    EBANDS =     -4844.52111090
  atomic energy  EATOM  =     13537.65479391
  Solvation  Ediel_sol  =         0.00000000
  ---------------------------------------------------
  free energy    TOTEN  =      -828.93476090 eV

  energy without entropy =     -828.87129793  energy(sigma->0) =     -828.90302942


--------------------------------------------------------------------------------------------------------




--------------------------------------- Iteration      1(  10)  ---------------------------------------


    POTLOK:  cpu time      0.3191: real time      0.3192
    SETDIJ:  cpu time      0.0405: real time      0.0404
     EDDAV:  cpu time     11.0971: real time     11.1012
       DOS:  cpu time      0.0007: real time      0.0007
    CHARGE:  cpu time      1.1599: real time      1.1614
    MIXING:  cpu time      0.2933: real time      0.2932
    --------------------------------------------
      LOOP:  cpu time     12.9106: real time     12.9162

 eigenvalue-minimisations  :  1752
 total energy-change (2. order) : 0.3513893E-01  (-0.4874629E-02)
 number of electron     368.0000004 magnetization 
 augmentation part        9.1214838 magnetization 

 Broyden mixing:
  rms(total) = 0.36888E-01    rms(broyden)= 0.36885E-01
  rms(prec ) = 0.56504E-01
  weight for this iteration     100.00

 eigenvalues of (default mixing * dielectric matrix)
  average eigenvalue GAMMA=   1.7052
  2.4236  2.4236  1.4159  1.4159  0.8473

 Free energy of the ion-electron system (eV)
  ---------------------------------------------------
  alpha Z        PSCENC =        91.34886789
  Ewald energy   TEWEN  =    119935.00519924
  -Hartree energ DENC   =   -130806.81141037
  -exchange      EXHF   =         0.00000000
  -V(xc)+E(xc)   XCENC  =      1277.17003134
  PAW double counting   =     41118.09596900   -41182.27199182
  entropy T*S    EENTRO =        -0.06356840
  eigenvalues    EBANDS =     -4799.02751276
  atomic energy  EATOM  =     13537.65479391
  Solvation  Ediel_sol  =         0.00000000
  ---------------------------------------------------
  free energy    TOTEN  =      -828.89962197 eV

  energy without entropy =     -828.83605357  energy(sigma->0) =     -828.86783777


--------------------------------------------------------------------------------------------------------




--------------------------------------- Iteration      1(  11)  ---------------------------------------


    POTLOK:  cpu time      0.3194: real time      0.3194
    SETDIJ:  cpu time      0.0404: real time      0.0404
     EDDAV:  cpu time     10.2031: real time     10.2069
       DOS:  cpu time      0.0007: real time      0.0007
    CHARGE:  cpu time      1.1693: real time      1.1716
    MIXING:  cpu time      0.2971: real time      0.2994
    --------------------------------------------
      LOOP:  cpu time     12.0300: real time     12.0384

 eigenvalue-minimisations  :  1576
 total energy-change (2. order) : 0.2896963E-01  (-0.2099138E-02)
 number of electron     368.0000004 magnetization 
 augmentation part        9.1170175 magnetization 

 Broyden mixing:
  rms(total) = 0.25043E-01    rms(broyden)= 0.25041E-01
  rms(prec ) = 0.39145E-01
  weight for this iteration     100.00

 eigenvalues of (default mixing * dielectric matrix)
  average eigenvalue GAMMA=   1.7711
  2.8974  2.6004  1.9136  0.9596  1.1279  1.1279

 Free energy of the ion-electron system (eV)
  ---------------------------------------------------
  alpha Z        PSCENC =        91.34886789
  Ewald energy   TEWEN  =    119935.00519924
  -Hartree energ DENC   =   -130868.35020309
  -exchange      EXHF   =         0.00000000
  -V(xc)+E(xc)   XCENC  =      1277.69513074
  PAW double counting   =     41036.54661967   -41100.61415159
  entropy T*S    EENTRO =        -0.06349171
  eigenvalues    EBANDS =     -4738.09341740
  atomic energy  EATOM  =     13537.65479391
  Solvation  Ediel_sol  =         0.00000000
  ---------------------------------------------------
  free energy    TOTEN  =      -828.87065234 eV

  energy without entropy =     -828.80716063  energy(sigma->0) =     -828.83890648


--------------------------------------------------------------------------------------------------------




--------------------------------------- Iteration      1(  12)  ---------------------------------------


    POTLOK:  cpu time      0.3190: real time      0.3189
    SETDIJ:  cpu time      0.0404: real time      0.0404
     EDDAV:  cpu time      9.9998: real time     10.0083
       DOS:  cpu time      0.0007: real time      0.0007
    CHARGE:  cpu time      1.1591: real time      1.1608
    MIXING:  cpu time      0.3045: real time      0.3054
    --------------------------------------------
      LOOP:  cpu time     11.8236: real time     11.8346

 eigenvalue-minimisations  :  1536
 total energy-change (2. order) : 0.5256707E-02  (-0.2489727E-02)
 number of electron     368.0000004 magnetization 
 augmentation part        9.1096389 magnetization 

 Broyden mixing:
  rms(total) = 0.15773E-01    rms(broyden)= 0.15769E-01
  rms(prec ) = 0.23945E-01
  weight for this iteration     100.00

 eigenvalues of (default mixing * dielectric matrix)
  average eigenvalue GAMMA=   2.0412
  4.6895  2.4245  2.0018  2.0018  0.9323  1.1193  1.1193

 Free energy of the ion-electron system (eV)
  ---------------------------------------------------
  alpha Z        PSCENC =        91.34886789
  Ewald energy   TEWEN  =    119935.00519924
  -Hartree energ DENC   =   -130934.61832071
  -exchange      EXHF   =         0.00000000
  -V(xc)+E(xc)   XCENC  =      1278.34323164
  PAW double counting   =     41079.38152652   -41143.43261945
  entropy T*S    EENTRO =        -0.06357790
  eigenvalues    EBANDS =     -4672.48449677
  atomic energy  EATOM  =     13537.65479391
  Solvation  Ediel_sol  =         0.00000000
  ---------------------------------------------------
  free energy    TOTEN  =      -828.86539563 eV

  energy without entropy =     -828.80181773  energy(sigma->0) =     -828.83360668


--------------------------------------------------------------------------------------------------------




--------------------------------------- Iteration      1(  13)  ---------------------------------------


    POTLOK:  cpu time      0.3196: real time      0.3197
    SETDIJ:  cpu time      0.0403: real time      0.0403
     EDDAV:  cpu time      9.9581: real time      9.9617
       DOS:  cpu time      0.0008: real time      0.0008
    CHARGE:  cpu time      1.1596: real time      1.1615
    MIXING:  cpu time      0.3132: real time      0.3141
    --------------------------------------------
      LOOP:  cpu time     11.7916: real time     11.7981

 eigenvalue-minimisations  :  1528
 total energy-change (2. order) :-0.1206903E-01  (-0.9061779E-03)
 number of electron     368.0000004 magnetization 
 augmentation part        9.1068221 magnetization 

 Broyden mixing:
  rms(total) = 0.86363E-02    rms(broyden)= 0.86339E-02
  rms(prec ) = 0.12415E-01
  weight for this iteration     100.00

 eigenvalues of (default mixing * dielectric matrix)
  average eigenvalue GAMMA=   2.0750
  5.4394  2.4541  2.4541  1.8752  1.1837  1.1837  1.1377  0.8722

 Free energy of the ion-electron system (eV)
  ---------------------------------------------------
  alpha Z        PSCENC =        91.34886789
  Ewald energy   TEWEN  =    119935.00519924
  -Hartree energ DENC   =   -130986.18357939
  -exchange      EXHF   =         0.00000000
  -V(xc)+E(xc)   XCENC  =      1278.56024051
  PAW double counting   =     41047.74073223   -41111.78099200
  entropy T*S    EENTRO =        -0.06353232
  eigenvalues    EBANDS =     -4621.15919474
  atomic energy  EATOM  =     13537.65479391
  Solvation  Ediel_sol  =         0.00000000
  ---------------------------------------------------
  free energy    TOTEN  =      -828.87746466 eV

  energy without entropy =     -828.81393234  energy(sigma->0) =     -828.84569850


--------------------------------------------------------------------------------------------------------




--------------------------------------- Iteration      1(  14)  ---------------------------------------


    POTLOK:  cpu time      0.3199: real time      0.3199
    SETDIJ:  cpu time      0.0405: real time      0.0405
     EDDAV:  cpu time     10.2479: real time     10.2516
       DOS:  cpu time      0.0007: real time      0.0007
    CHARGE:  cpu time      1.1601: real time      1.1612
    MIXING:  cpu time      0.3233: real time      0.3233
    --------------------------------------------
      LOOP:  cpu time     12.0924: real time     12.0972

 eigenvalue-minimisations  :  1584
 total energy-change (2. order) :-0.1551806E-01  (-0.1521678E-03)
 number of electron     368.0000004 magnetization 
 augmentation part        9.1057221 magnetization 

 Broyden mixing:
  rms(total) = 0.63829E-02    rms(broyden)= 0.63823E-02
  rms(prec ) = 0.85228E-02
  weight for this iteration     100.00

 eigenvalues of (default mixing * dielectric matrix)
  average eigenvalue GAMMA=   2.1838
  6.2332  2.7138  2.7138  1.7632  1.7632  1.2791  1.2791  0.9542  0.9542

 Free energy of the ion-electron system (eV)
  ---------------------------------------------------
  alpha Z        PSCENC =        91.34886789
  Ewald energy   TEWEN  =    119935.00519924
  -Hartree energ DENC   =   -131003.14347249
  -exchange      EXHF   =         0.00000000
  -V(xc)+E(xc)   XCENC  =      1278.59929597
  PAW double counting   =     41042.52718126   -41106.58393834
  entropy T*S    EENTRO =        -0.06353326
  eigenvalues    EBANDS =     -4604.23737690
  atomic energy  EATOM  =     13537.65479391
  Solvation  Ediel_sol  =         0.00000000
  ---------------------------------------------------
  free energy    TOTEN  =      -828.89298273 eV

  energy without entropy =     -828.82944946  energy(sigma->0) =     -828.86121609


--------------------------------------------------------------------------------------------------------




--------------------------------------- Iteration      1(  15)  ---------------------------------------


    POTLOK:  cpu time      0.3197: real time      0.3197
    SETDIJ:  cpu time      0.0403: real time      0.0403
     EDDAV:  cpu time     10.0907: real time     10.0948
       DOS:  cpu time      0.0008: real time      0.0007
    CHARGE:  cpu time      1.1607: real time      1.1611
    MIXING:  cpu time      0.3333: real time      0.3331
    --------------------------------------------
      LOOP:  cpu time     11.9455: real time     11.9498

 eigenvalue-minimisations  :  1552
 total energy-change (2. order) :-0.2093434E-01  (-0.1969003E-03)
 number of electron     368.0000004 magnetization 
 augmentation part        9.1053646 magnetization 

 Broyden mixing:
  rms(total) = 0.30353E-02    rms(broyden)= 0.30348E-02
  rms(prec ) = 0.42358E-02
  weight for this iteration     100.00

 eigenvalues of (default mixing * dielectric matrix)
  average eigenvalue GAMMA=   2.2290
  7.0386  3.4473  2.2423  2.2423  1.6677  1.2919  1.2919  0.9708  0.9708  1.1264

 Free energy of the ion-electron system (eV)
  ---------------------------------------------------
  alpha Z        PSCENC =        91.34886789
  Ewald energy   TEWEN  =    119935.00519924
  -Hartree energ DENC   =   -131013.59538353
  -exchange      EXHF   =         0.00000000
  -V(xc)+E(xc)   XCENC  =      1278.57526886
  PAW double counting   =     41051.12289956   -41115.17857679
  entropy T*S    EENTRO =        -0.06356216
  eigenvalues    EBANDS =     -4593.78342404
  atomic energy  EATOM  =     13537.65479391
  Solvation  Ediel_sol  =         0.00000000
  ---------------------------------------------------
  free energy    TOTEN  =      -828.91391707 eV

  energy without entropy =     -828.85035491  energy(sigma->0) =     -828.88213599


--------------------------------------------------------------------------------------------------------




--------------------------------------- Iteration      1(  16)  ---------------------------------------


    POTLOK:  cpu time      0.3194: real time      0.3195
    SETDIJ:  cpu time      0.0403: real time      0.0403
     EDDAV:  cpu time     10.4524: real time     10.4564
       DOS:  cpu time      0.0008: real time      0.0008
    CHARGE:  cpu time      1.1698: real time      1.1727
    MIXING:  cpu time      0.3421: real time      0.3421
    --------------------------------------------
      LOOP:  cpu time     12.3247: real time     12.3317

 eigenvalue-minimisations  :  1624
 total energy-change (2. order) :-0.8053205E-02  (-0.4268940E-04)
 number of electron     368.0000004 magnetization 
 augmentation part        9.1053715 magnetization 

 Broyden mixing:
  rms(total) = 0.25852E-02    rms(broyden)= 0.25851E-02
  rms(prec ) = 0.31504E-02
  weight for this iteration     100.00

 eigenvalues of (default mixing * dielectric matrix)
  average eigenvalue GAMMA=   2.3431
  7.8167  3.9199  2.3446  2.3446  1.9663  1.6251  1.6251  0.9379  0.9832  1.1052
  1.1052

 Free energy of the ion-electron system (eV)
  ---------------------------------------------------
  alpha Z        PSCENC =        91.34886789
  Ewald energy   TEWEN  =    119935.00519924
  -Hartree energ DENC   =   -131017.41881778
  -exchange      EXHF   =         0.00000000
  -V(xc)+E(xc)   XCENC  =      1278.54874236
  PAW double counting   =     41037.31509600   -41101.36879523
  entropy T*S    EENTRO =        -0.06356836
  eigenvalues    EBANDS =     -4589.94348831
  atomic energy  EATOM  =     13537.65479391
  Solvation  Ediel_sol  =         0.00000000
  ---------------------------------------------------
  free energy    TOTEN  =      -828.92197027 eV

  energy without entropy =     -828.85840191  energy(sigma->0) =     -828.89018609


--------------------------------------------------------------------------------------------------------




--------------------------------------- Iteration      1(  17)  ---------------------------------------


    POTLOK:  cpu time      0.3217: real time      0.3216
    SETDIJ:  cpu time      0.0404: real time      0.0404
     EDDAV:  cpu time     10.3590: real time     10.3628
       DOS:  cpu time      0.0007: real time      0.0007
    CHARGE:  cpu time      1.1612: real time      1.1626
    MIXING:  cpu time      0.3505: real time      0.3517
    --------------------------------------------
      LOOP:  cpu time     12.2335: real time     12.2398

 eigenvalue-minimisations  :  1608
 total energy-change (2. order) :-0.6049770E-02  (-0.4411363E-04)
 number of electron     368.0000004 magnetization 
 augmentation part        9.1051900 magnetization 

 Broyden mixing:
  rms(total) = 0.13213E-02    rms(broyden)= 0.13212E-02
  rms(prec ) = 0.15992E-02
  weight for this iteration     100.00

 eigenvalues of (default mixing * dielectric matrix)
  average eigenvalue GAMMA=   2.3370
  8.3329  4.4252  2.4333  2.4333  1.9157  1.4334  1.4334  1.3062  1.3062  0.9498
  0.9498  1.1248

 Free energy of the ion-electron system (eV)
  ---------------------------------------------------
  alpha Z        PSCENC =        91.34886789
  Ewald energy   TEWEN  =    119935.00519924
  -Hartree energ DENC   =   -131020.16111290
  -exchange      EXHF   =         0.00000000
  -V(xc)+E(xc)   XCENC  =      1278.55266258
  PAW double counting   =     41047.27128052   -41111.32324430
  entropy T*S    EENTRO =        -0.06357052
  eigenvalues    EBANDS =     -4587.21289647
  atomic energy  EATOM  =     13537.65479391
  Solvation  Ediel_sol  =         0.00000000
  ---------------------------------------------------
  free energy    TOTEN  =      -828.92802004 eV

  energy without entropy =     -828.86444952  energy(sigma->0) =     -828.89623478


--------------------------------------------------------------------------------------------------------




--------------------------------------- Iteration      1(  18)  ---------------------------------------


    POTLOK:  cpu time      0.3219: real time      0.3220
    SETDIJ:  cpu time      0.0403: real time      0.0403
     EDDAV:  cpu time     10.5262: real time     10.5303
       DOS:  cpu time      0.0008: real time      0.0008
    CHARGE:  cpu time      1.1597: real time      1.1618
    MIXING:  cpu time      0.3596: real time      0.3617
    --------------------------------------------
      LOOP:  cpu time     12.4085: real time     12.4167

 eigenvalue-minimisations  :  1640
 total energy-change (2. order) :-0.1652276E-02  (-0.6414102E-05)
 number of electron     368.0000004 magnetization 
 augmentation part        9.1051723 magnetization 

 Broyden mixing:
  rms(total) = 0.79590E-03    rms(broyden)= 0.79583E-03
  rms(prec ) = 0.99049E-03
  weight for this iteration     100.00

 eigenvalues of (default mixing * dielectric matrix)
  average eigenvalue GAMMA=   2.3720
  8.7117  4.7602  2.6103  2.6103  1.6977  1.6977  1.8988  1.4871  0.9643  0.9643
  1.1763  1.1285  1.1285

 Free energy of the ion-electron system (eV)
  ---------------------------------------------------
  alpha Z        PSCENC =        91.34886789
  Ewald energy   TEWEN  =    119935.00519924
  -Hartree energ DENC   =   -131020.72415975
  -exchange      EXHF   =         0.00000000
  -V(xc)+E(xc)   XCENC  =      1278.54801546
  PAW double counting   =     41044.37770474   -41108.42915742
  entropy T*S    EENTRO =        -0.06356961
  eigenvalues    EBANDS =     -4586.64736679
  atomic energy  EATOM  =     13537.65479391
  Solvation  Ediel_sol  =         0.00000000
  ---------------------------------------------------
  free energy    TOTEN  =      -828.92967232 eV

  energy without entropy =     -828.86610271  energy(sigma->0) =     -828.89788751


--------------------------------------------------------------------------------------------------------




--------------------------------------- Iteration      1(  19)  ---------------------------------------


    POTLOK:  cpu time      0.3199: real time      0.3199
    SETDIJ:  cpu time      0.0403: real time      0.0403
     EDDAV:  cpu time     10.1563: real time     10.1597
       DOS:  cpu time      0.0007: real time      0.0007
    CHARGE:  cpu time      1.1578: real time      1.1607
    MIXING:  cpu time      0.3725: real time      0.3748
    --------------------------------------------
      LOOP:  cpu time     12.0475: real time     12.0562

 eigenvalue-minimisations  :  1568
 total energy-change (2. order) :-0.1241791E-02  (-0.4300665E-05)
 number of electron     368.0000004 magnetization 
 augmentation part        9.1051748 magnetization 

 Broyden mixing:
  rms(total) = 0.43343E-03    rms(broyden)= 0.43337E-03
  rms(prec ) = 0.53719E-03
  weight for this iteration     100.00

 eigenvalues of (default mixing * dielectric matrix)
  average eigenvalue GAMMA=   2.3774
  8.9193  5.3531  3.0448  2.3184  2.3184  1.8422  1.5628  1.5628  1.2108  1.2108
  0.9112  0.9713  0.9713  1.0861

 Free energy of the ion-electron system (eV)
  ---------------------------------------------------
  alpha Z        PSCENC =        91.34886789
  Ewald energy   TEWEN  =    119935.00519924
  -Hartree energ DENC   =   -131021.17228118
  -exchange      EXHF   =         0.00000000
  -V(xc)+E(xc)   XCENC  =      1278.54734090
  PAW double counting   =     41043.26360112   -41107.31354893
  entropy T*S    EENTRO =        -0.06356713
  eigenvalues    EBANDS =     -4586.20131991
  atomic energy  EATOM  =     13537.65479391
  Solvation  Ediel_sol  =         0.00000000
  ---------------------------------------------------
  free energy    TOTEN  =      -828.93091411 eV

  energy without entropy =     -828.86734698  energy(sigma->0) =     -828.89913054


--------------------------------------------------------------------------------------------------------




--------------------------------------- Iteration      1(  20)  ---------------------------------------


    POTLOK:  cpu time      0.3195: real time      0.3194
    SETDIJ:  cpu time      0.0403: real time      0.0403
     EDDAV:  cpu time      9.2240: real time      9.2274
       DOS:  cpu time      0.0008: real time      0.0008
    CHARGE:  cpu time      1.1593: real time      1.1628
    MIXING:  cpu time      0.3858: real time      0.3858
    --------------------------------------------
      LOOP:  cpu time     11.1296: real time     11.1366

 eigenvalue-minimisations  :  1376
 total energy-change (2. order) :-0.4735179E-03  (-0.1215315E-05)
 number of electron     368.0000004 magnetization 
 augmentation part        9.1051504 magnetization 

 Broyden mixing:
  rms(total) = 0.36436E-03    rms(broyden)= 0.36435E-03
  rms(prec ) = 0.41266E-03
  weight for this iteration     100.00

 eigenvalues of (default mixing * dielectric matrix)
  average eigenvalue GAMMA=   2.3882
  9.1208  5.6231  3.3528  2.4945  2.2290  1.9198  1.6230  1.6230  1.3547  1.3547
  0.9562  0.9562  1.0799  1.0674  1.0674

 Free energy of the ion-electron system (eV)
  ---------------------------------------------------
  alpha Z        PSCENC =        91.34886789
  Ewald energy   TEWEN  =    119935.00519924
  -Hartree energ DENC   =   -131021.39820774
  -exchange      EXHF   =         0.00000000
  -V(xc)+E(xc)   XCENC  =      1278.54783882
  PAW double counting   =     41043.50800664   -41107.55838211
  entropy T*S    EENTRO =        -0.06356694
  eigenvalues    EBANDS =     -4585.97593734
  atomic energy  EATOM  =     13537.65479391
  Solvation  Ediel_sol  =         0.00000000
  ---------------------------------------------------
  free energy    TOTEN  =      -828.93138763 eV

  energy without entropy =     -828.86782069  energy(sigma->0) =     -828.89960416


--------------------------------------------------------------------------------------------------------




--------------------------------------- Iteration      1(  21)  ---------------------------------------


    POTLOK:  cpu time      0.3199: real time      0.3199
    SETDIJ:  cpu time      0.0401: real time      0.0402
     EDDAV:  cpu time      8.9519: real time      8.9553
       DOS:  cpu time      0.0008: real time      0.0008
    CHARGE:  cpu time      1.1719: real time      1.1739
    MIXING:  cpu time      0.3971: real time      0.3982
    --------------------------------------------
      LOOP:  cpu time     10.8816: real time     10.8882

 eigenvalue-minimisations  :  1320
 total energy-change (2. order) :-0.2328572E-03  (-0.3922250E-06)
 number of electron     368.0000004 magnetization 
 augmentation part        9.1051552 magnetization 

 Broyden mixing:
  rms(total) = 0.24032E-03    rms(broyden)= 0.24030E-03
  rms(prec ) = 0.26551E-03
  weight for this iteration     100.00

 eigenvalues of (default mixing * dielectric matrix)
  average eigenvalue GAMMA=   2.3838
  9.1177  6.0649  3.5924  2.5098  2.5098  2.0141  1.5626  1.5626  1.5534  1.4371
  1.1571  1.1571  0.9959  0.9440  0.9813  0.9813

 Free energy of the ion-electron system (eV)
  ---------------------------------------------------
  alpha Z        PSCENC =        91.34886789
  Ewald energy   TEWEN  =    119935.00519924
  -Hartree energ DENC   =   -131021.45467810
  -exchange      EXHF   =         0.00000000
  -V(xc)+E(xc)   XCENC  =      1278.54660417
  PAW double counting   =     41042.68586455   -41106.73652944
  entropy T*S    EENTRO =        -0.06356887
  eigenvalues    EBANDS =     -4585.91817384
  atomic energy  EATOM  =     13537.65479391
  Solvation  Ediel_sol  =         0.00000000
  ---------------------------------------------------
  free energy    TOTEN  =      -828.93162048 eV

  energy without entropy =     -828.86805161  energy(sigma->0) =     -828.89983605


[...]
   -.882E+01 -.109E+02 -.531E+02   0.940E+01 0.112E+02 0.536E+02   0.557E+00 0.583E+00 -.791E+00   0.126E-04 -.387E-05 -.306E-05
   0.130E+02 -.104E+02 0.771E+02   -.120E+02 0.116E+02 -.774E+02   0.379E+00 0.451E+00 0.207E+00   0.883E-05 0.392E-05 -.170E-05
   -.228E+00 -.110E+01 -.197E+02   -.977E-01 0.171E+01 0.201E+02   0.256E+00 0.301E+00 -.774E+00   0.107E-04 -.325E-05 -.293E-05
   0.507E+01 0.168E+02 0.347E+02   -.576E+01 -.178E+02 -.340E+02   -.659E+00 -.706E+00 -.119E+01   0.312E-05 0.711E-05 -.101E-05
   0.644E+01 -.117E+02 0.227E+02   -.644E+01 0.124E+02 -.227E+02   0.295E+00 -.579E+00 0.339E+00   0.141E-04 0.701E-06 -.276E-05
   0.120E+02 -.436E+01 0.126E+03   -.120E+02 0.417E+01 -.126E+03   0.106E+01 0.575E+00 0.718E+00   -.154E-05 0.402E-05 0.136E-05
   0.538E+01 0.155E+02 0.653E+02   -.517E+01 -.178E+02 -.649E+02   -.516E+00 -.346E+00 0.517E+00   0.413E-05 0.456E-05 -.301E-06
   -.361E+01 0.146E+02 0.853E+02   0.386E+01 -.155E+02 -.851E+02   0.954E+00 0.425E+00 -.383E+00   -.895E-06 0.904E-05 0.113E-05
   0.302E+01 0.503E+00 0.247E+02   -.395E+01 -.893E+00 -.243E+02   -.839E+00 0.291E+00 -.102E+01   -.188E-05 0.125E-04 -.671E-06
   -.948E+01 -.252E+02 0.147E+03   0.952E+01 0.276E+02 -.147E+03   0.215E+00 0.729E+00 0.150E+01   -.181E-05 -.598E-05 0.318E-06
   -.870E+01 0.112E+02 0.615E+02   0.962E+01 -.127E+02 -.612E+02   0.949E+00 -.779E+00 -.404E-01   -.865E-05 0.462E-05 -.764E-06
   -.281E+01 0.126E+02 0.717E+02   0.148E+01 -.128E+02 -.714E+02   -.517E+00 0.832E+00 -.107E+01   -.122E-04 0.509E-05 -.189E-05
   -.598E+01 -.404E+01 0.594E+02   0.540E+01 0.389E+01 -.593E+02   0.604E+00 0.218E+00 -.345E-01   -.151E-04 0.500E-05 -.183E-05
   -.314E+02 -.463E+01 0.882E+02   0.330E+02 0.351E+01 -.884E+02   -.146E+00 -.541E+00 0.896E+00   -.938E-05 0.328E-05 -.168E-05
   -.202E+02 0.716E+01 0.677E+02   0.206E+02 -.711E+01 -.683E+02   0.455E+00 0.448E+00 0.181E+01   -.160E-04 -.385E-05 -.345E-05
   0.861E+01 0.157E+02 -.133E+02   -.953E+01 -.161E+02 0.135E+02   -.598E+00 -.948E-01 -.101E+01   -.581E-05 -.587E-06 -.219E-06
   -.195E+01 -.185E+02 -.282E+02   0.259E+01 0.194E+02 0.288E+02   0.101E+01 -.233E+00 -.585E+00   -.122E-04 -.288E-05 -.198E-05
   0.564E+00 -.473E+01 -.283E+02   0.486E+00 0.470E+01 0.282E+02   -.741E+00 -.914E+00 0.776E+00   -.104E-05 0.243E-05 0.175E-05
   0.155E+02 0.683E+01 -.279E+02   -.161E+02 -.693E+01 0.278E+02   -.242E+00 -.705E+00 -.113E+00   0.352E-05 -.987E-06 0.268E-05
   0.312E+02 0.185E+02 -.130E+03   -.316E+02 -.200E+02 0.130E+03   -.283E+00 -.915E-01 -.226E+01   0.550E-05 0.102E-05 0.470E-05
   0.251E+02 -.118E+02 -.932E+02   -.256E+02 0.130E+02 0.931E+02   0.373E+00 0.967E+00 -.361E-01   0.985E-05 0.185E-06 0.547E-05
   0.452E+01 -.107E+02 -.499E+02   -.409E+01 0.118E+02 0.501E+02   0.133E+00 0.549E+00 0.413E+00   0.799E-05 -.607E-06 0.349E-05
   0.966E+01 0.180E+02 -.707E+02   -.906E+01 -.203E+02 0.715E+02   0.148E+01 -.935E+00 0.329E+00   0.989E-05 0.824E-05 0.287E-05
   -.155E+01 0.185E+02 -.299E+02   0.211E+01 -.196E+02 0.297E+02   -.304E+00 -.816E+00 0.152E+01   0.602E-05 0.176E-05 0.313E-05
   0.218E+02 -.155E+02 -.770E+02   -.232E+02 0.165E+02 0.773E+02   -.334E+00 -.584E-01 -.594E+00   0.139E-04 0.876E-05 0.477E-05
   0.973E+01 -.280E+01 -.105E+03   -.101E+02 0.322E+01 0.105E+03   -.175E+00 0.702E+00 0.953E-04   0.161E-05 -.882E-05 0.191E-06
   0.642E+01 0.371E+01 -.995E+02   -.736E+01 -.366E+01 0.993E+02   -.107E+00 -.524E+00 -.717E-02   0.201E-05 0.968E-05 0.700E-06
   0.181E+02 0.627E+02 -.226E+03   -.211E+02 -.640E+02 0.227E+03   0.106E+01 0.111E+01 -.214E+01   -.971E-05 0.381E-05 -.454E-05
   -.180E+01 -.537E+02 -.149E+03   0.106E+00 0.540E+02 0.149E+03   0.188E+01 -.159E+01 0.828E+00   -.185E-04 0.681E-05 -.561E-05
   0.115E+02 0.562E+02 -.263E+03   -.986E+01 -.564E+02 0.265E+03   -.139E+01 0.257E+01 -.301E+01   -.463E-05 0.850E-06 -.574E-05
   -.187E+01 -.592E+02 -.196E+03   0.528E+01 0.598E+02 0.197E+03   -.858E+00 -.810E+00 -.105E+01   -.751E-05 0.289E-05 -.545E-05
   -.794E+01 -.122E+02 -.110E+03   0.894E+01 0.124E+02 0.109E+03   0.909E+00 0.652E+00 0.112E+01   -.343E-05 -.937E-05 -.631E-06
   -.539E+01 0.114E+02 -.107E+03   0.597E+01 -.138E+02 0.107E+03   0.278E+00 -.751E+00 0.185E-01   -.890E-05 0.651E-05 -.247E-06
   0.558E+01 0.235E+02 -.365E+02   -.627E+01 -.245E+02 0.360E+02   0.377E+00 0.866E+00 0.133E+01   -.934E-05 -.600E-05 0.175E-05
   -.989E+01 -.266E+02 -.452E+02   0.104E+02 0.283E+02 0.451E+02   -.110E+00 0.141E+01 -.830E+00   -.150E-04 -.357E-06 0.298E-05
   -.926E+01 -.151E+02 -.700E+02   0.911E+01 0.157E+02 0.700E+02   -.119E+01 -.105E+01 0.345E+00   -.414E-05 0.168E-05 0.147E-05
   0.257E+02 0.854E+01 0.346E+02   -.271E+02 -.872E+01 -.348E+02   -.472E+00 -.366E+00 0.194E+01   -.427E-06 -.502E-05 -.111E-05
   -.125E+02 0.143E+02 -.356E+02   0.138E+02 -.150E+02 0.352E+02   -.467E+00 -.578E+00 -.355E+00   -.293E-05 0.258E-05 0.690E-06
   0.587E+01 -.116E+02 0.170E+02   -.574E+01 0.121E+02 -.171E+02   -.440E+00 -.200E+00 -.587E+00   0.213E-05 -.419E-05 -.129E-05
   -.571E+00 -.217E+02 -.158E+02   0.193E+00 0.241E+02 0.152E+02   -.631E+00 0.130E+01 0.162E+01   -.409E-05 -.880E-06 0.277E-05
   0.151E+02 0.908E+01 0.705E+02   -.150E+02 -.928E+01 -.712E+02   -.372E+00 -.644E-01 0.563E+00   -.720E-05 -.445E-05 0.486E-07
   0.126E+01 -.143E+01 -.113E+02   -.145E+01 0.186E+01 0.115E+02   -.922E+00 -.893E+00 -.124E+01   -.193E-05 -.322E-05 0.221E-05
   0.401E+02 0.142E+01 0.156E+03   -.396E+02 -.161E+01 -.157E+03   0.425E+00 -.291E+00 0.251E+01   -.287E-05 0.260E-05 -.294E-05
   -.123E+02 -.125E+02 -.301E+02   0.132E+02 0.125E+02 0.301E+02   0.539E-01 0.194E+00 -.929E+00   0.117E-04 -.361E-05 -.172E-05
   0.318E+02 0.104E+02 0.154E+03   -.324E+02 -.111E+02 -.154E+03   -.774E+00 -.771E+00 0.572E+00   0.839E-05 0.778E-05 -.442E-05
   0.269E+02 0.107E+02 0.830E+02   -.284E+02 -.109E+02 -.831E+02   -.201E+00 0.160E+00 0.124E+01   0.149E-04 -.536E-05 -.452E-05
   0.231E+02 -.793E+01 0.118E+03   -.224E+02 0.844E+01 -.118E+03   0.112E+00 0.778E-01 -.999E+00   0.133E-04 0.387E-06 -.425E-05
   0.104E+02 -.868E+01 0.738E+02   -.931E+01 0.842E+01 -.736E+02   0.514E+00 -.594E+00 -.172E+00   0.759E-05 -.602E-05 -.123E-05
   0.270E+02 0.177E+02 0.152E+03   -.279E+02 -.191E+02 -.152E+03   -.651E+00 -.499E+00 0.724E+00   0.102E-04 0.886E-05 -.187E-05
   0.205E+02 0.670E+01 0.148E+03   -.209E+02 -.628E+01 -.148E+03   -.438E+00 0.491E+00 0.554E+00   0.994E-05 -.693E-05 0.140E-06
   0.264E+02 -.696E+00 0.175E+03   -.264E+02 -.530E+00 -.175E+03   -.981E-01 -.690E+00 -.190E+00   0.505E-05 0.254E-05 -.773E-06
   0.926E+01 -.240E+02 0.138E+03   -.885E+01 0.268E+02 -.138E+03   -.284E-01 0.167E+01 -.124E+00   0.472E-05 -.201E-04 0.380E-05
   0.899E+01 0.739E+01 0.209E+03   -.881E+01 -.725E+01 -.209E+03   -.408E+00 0.115E+01 0.892E+00   0.623E-06 0.374E-05 0.172E-05
   0.444E+01 0.906E+01 0.158E+03   -.453E+01 -.962E+01 -.158E+03   0.664E-02 -.622E+00 -.230E+00   0.113E-05 -.104E-04 0.319E-05
   -.125E+01 -.105E+02 0.207E+03   0.163E+01 0.105E+02 -.208E+03   -.705E+00 -.478E+00 0.643E+00   0.608E-05 0.161E-05 0.254E-05
   -.789E+01 -.158E+02 0.138E+03   0.704E+01 0.179E+02 -.138E+03   -.593E+00 0.109E+01 0.734E+00   -.748E-06 -.114E-04 0.298E-05
   -.972E+01 0.166E+02 0.163E+03   0.945E+01 -.181E+02 -.164E+03   -.673E+00 -.641E+00 -.611E+00   0.333E-06 0.106E-05 0.716E-06
   -.148E+02 0.928E+01 0.101E+03   0.153E+02 -.995E+01 -.101E+03   0.797E+00 -.407E+00 0.178E+00   -.174E-04 0.881E-09 -.372E-05
   -.234E+02 -.137E+02 0.135E+03   0.240E+02 0.145E+02 -.135E+03   0.203E+00 0.185E+00 -.127E+00   -.169E-04 -.500E-05 -.274E-05
   -.203E+02 -.163E+02 0.389E+02   0.209E+02 0.168E+02 -.384E+02   0.104E+01 0.215E-01 -.105E+01   -.177E-04 -.228E-05 -.440E-05
   -.241E+02 0.316E+01 0.139E+03   0.240E+02 -.228E+01 -.139E+03   -.325E+00 0.121E+01 0.518E+00   -.798E-05 -.368E-05 -.264E-05
   -.670E+01 0.219E+02 0.688E+02   0.621E+01 -.228E+02 -.690E+02   0.464E-01 0.117E+00 -.422E+00   -.406E-05 0.656E-05 -.246E-05
   -.262E+02 -.130E+02 0.113E+03   0.261E+02 0.131E+02 -.114E+03   -.853E+00 0.131E+00 0.775E+00   -.483E-05 0.784E-06 -.333E-05
   -.159E+02 -.311E+01 0.863E+02   0.159E+02 0.268E+01 -.864E+02   -.110E+01 -.121E+01 0.506E+00   0.589E-05 0.354E-05 -.828E-06
   -.113E+02 0.718E+01 0.327E+02   0.124E+02 -.725E+01 -.320E+02   0.123E+01 -.100E+00 -.138E+01   -.531E-05 -.642E-06 -.161E-05
   -.318E+02 0.132E+02 0.132E+03   0.323E+02 -.133E+02 -.132E+03   -.146E+01 0.254E+00 0.879E+00   0.132E-04 -.652E-05 0.265E-05
   -.195E+02 -.197E+02 0.111E+03   0.190E+02 0.207E+02 -.112E+03   -.171E+00 0.183E-01 0.119E+01   0.835E-05 -.258E-05 0.978E-06
   -.896E+01 -.855E+01 0.260E+02   0.859E+01 0.987E+01 -.263E+02   -.518E+00 0.532E+00 -.110E+01   0.112E-04 -.933E-06 0.435E-05
   -.112E+02 0.731E+01 0.337E+02   0.109E+02 -.845E+01 -.337E+02   0.391E+00 -.174E+00 -.910E+00   0.122E-04 0.348E-06 0.453E-05
   -.209E+02 0.178E+02 0.310E+02   0.218E+02 -.186E+02 -.313E+02   0.125E+00 -.382E+00 0.125E+01   0.831E-05 -.594E-05 0.631E-05
   -.246E+02 -.222E+02 0.769E+02   0.245E+02 0.232E+02 -.780E+02   -.521E+00 0.119E+00 0.202E+01   0.130E-04 -.231E-05 0.748E-05
   0.243E+02 -.463E+01 -.114E+03   -.257E+02 0.512E+01 0.114E+03   0.826E+00 -.233E+00 -.687E+00   0.165E-05 -.776E-05 0.359E-06
   0.596E+01 -.686E+01 -.585E+02   -.742E+01 0.778E+01 0.584E+02   0.125E+01 0.755E+00 -.664E+00   0.616E-05 -.632E-05 0.244E-05
   0.885E+01 0.507E+02 -.218E+03   -.110E+02 -.500E+02 0.219E+03   0.192E+01 0.171E+01 -.121E+01   -.167E-04 0.259E-05 -.805E-05
   -.620E+00 -.590E+02 -.136E+03   -.118E+01 0.587E+02 0.136E+03   0.107E+01 -.294E+01 0.865E+00   -.132E-04 -.162E-05 -.448E-05
 -----------------------------------------------------------------------------------------------
   -.934E+00 -.137E+00 0.300E+01   -.533E-12 -.426E-13 -.139E-11   0.932E+00 0.113E+00 -.299E+01   -.360E-05 0.466E-05 -.206E-04
 
 
 POSITION                                       TOTAL-FORCE (eV/Angst)
 -----------------------------------------------------------------------------------
      0.18221      0.81684     18.66780         1.005462      1.521439     -0.715853
      0.17408      2.22835     18.57030         1.256757     -2.644847      0.552414
      1.36004      0.12055     18.31830        -1.202607      3.758923      0.240270
      1.38809      2.85308     18.42120         0.157380     -0.306064     -0.292124
      2.53088      0.84315     18.00390         2.329618      0.230697      0.826455
      2.63652      2.21238     18.22190        -0.793485      0.103420     -0.386090
      3.76774      0.21586     17.65000         0.188180     -0.385337     -0.609478
      3.85729      2.94230     17.98130         0.272306     -2.184371     -0.352357
      5.02485      0.88640     17.48720        -0.158559     -0.061613      0.677916
      5.06024      2.26831     17.68900         1.050416     -0.494561     -0.017346
      6.21330      0.18663     17.11270         1.265331      1.829936     -1.747199
      6.31482      2.94707     17.41320        -0.272398     -3.294142      0.332690
      7.47922      0.87996     16.78120        -3.466535      0.346636      2.247023
      7.51628      2.23066     17.14250         0.708568     -0.545823     -1.446571
      8.55378      0.24496     16.23720         3.636275     -0.452692     -0.796473
      8.71730      2.85781     16.72800        -0.605133      1.670251      0.701502
      9.87952      0.84896     16.10700        -2.365141     -0.770933      0.614377
      9.89258      2.18015     16.37590         1.134808      0.936218     -0.313290
     11.04530      0.17223     15.74360         1.476223      1.582446     -0.164982
     11.09290      2.85874     16.04500        -0.068958      0.905207     -0.362780
     12.31460      0.84241     15.67810        -1.346919     -1.732031     -0.516184
     12.30370      2.19991     15.76640         0.302745      0.170142      0.399885
     13.48340      0.13641     15.33150         1.085456      0.390184      0.155966
     13.53760      2.84364     15.52750        -0.300064     -2.649882      0.897015
     14.73130      0.78694     15.40880         1.207356     -0.455071     -0.226970
     14.76730      2.15109     15.56490        -1.767730     -0.098585     -0.602996
     15.99700      0.11236     15.29960         0.248701      3.094244      1.139066
     15.95190      2.83923     15.53000         1.868657     -2.289040      0.232244
     17.23820      0.78175     15.61720        -1.846833      0.671258     -0.716661
     17.18260      2.15655     15.67550         0.019439      0.069543      0.134825
     18.45970      0.16826     15.78090         1.476452     -1.668781      0.696196
     18.38230      2.83788     15.87090         0.871288      0.502797      1.232857
     19.63260      0.85127     16.30940        -1.515637     -0.433667     -0.782425
     19.56690      2.22034     16.32760         1.660448      0.700393      0.054202
     20.83160      0.20670     16.62110         0.308251     -0.948660      0.666410
     20.82810      2.91147     16.61750        -0.854437     -0.799537     -0.222800
     21.99500      0.85613     17.15720        -0.666442     -1.553512     -1.471398
     21.97670      2.21579     17.09360        -0.083537      2.131430     -0.182709
     23.23250      0.18269     17.24790         0.567754      1.669676      0.535618
     23.17880      2.93069     17.28560         2.081385     -3.145621      1.095717
     24.44860      0.88947     17.55880         0.250864     -1.979715      1.297687
     24.43510      2.23568     17.65520        -1.706958      0.883816     -0.359041
     25.64650      0.17781     17.98230        -0.584462      1.118736     -0.439121
     25.63150      2.89556     17.99320        -1.044088     -0.481075     -0.228173
     26.76410      0.85030     18.47590        -1.947854     -0.260133     -1.210647
     26.76390      2.23476     18.33460         0.187875     -1.299008      1.145152
      0.14485      4.82424     18.62980         0.302061      2.363735     -0.926149
      0.13260      6.22033     18.48230         2.551182     -0.287546      0.210554
      1.31830      4.20020     18.29820         1.913153      0.804352      0.241028
      1.32652      6.89841     18.23320         0.853750     -3.137553     -0.629611
      2.55980      4.86468     17.91170        -0.313813     -0.152588      0.785088
      2.54957      6.20496     17.88220         0.446528      3.166548     -0.878985
      3.85690      4.29025     17.76770        -1.337747     -0.502088      0.321648
      3.78509      6.94147     17.45740        -1.886601     -0.553993      1.738594
      5.04143      4.94218     17.38870         0.836111     -1.362021     -0.738572
      5.00466      6.28918     17.21170        -0.308981      0.305623     -0.740358
      6.30068      4.24350     17.12990        -1.008940      3.764640      1.031625
      6.18953      6.95562     16.81080        -0.282054     -0.257068     -0.099756
      7.48464      4.94944     16.72320        -1.107122     -0.463726     -1.037326
      7.35831      6.29457     16.32530         0.894928     -0.477343      1.484913
      8.69026      4.25169     16.54750         0.973930      0.158199     -0.860275
      8.57766      6.98708     16.00750        -1.319343     -1.508042      0.476007
      9.84870      4.90728     15.96510        -1.745998     -0.109900      1.105256
      9.79801      6.27794     15.80950         0.812381      0.587889     -1.133263
     11.04680      4.23184     15.78180         1.630687     -0.861840     -0.028631
     11.05940      6.94195     15.51030        -1.535091     -1.920837      0.286237
     12.27390      4.83957     15.36690        -0.806880      0.907066      0.126734
     12.26820      6.24887     15.24880        -0.128947     -1.916073     -0.208436
     13.51400      4.14099     15.31160         0.385002      4.532140     -0.510644
     13.51480      6.86759     15.07980        -0.222878      1.292633      0.504975
     14.76220      4.85537     15.17370        -0.079570     -1.181478     -0.236735
     14.77880      6.22406     15.03850        -0.321568     -0.435153      0.316361
     16.00080      4.15426     15.33520        -1.443713      3.189833      0.156320
     16.03120      6.89184     15.20100        -0.945474     -2.165703     -0.772799
     17.19700      4.86226     15.50110         1.310898     -1.074762      0.026466
     17.24260      6.21184     15.39910         0.761495      0.988108     -0.342264
     18.40220      4.21400     15.84900         1.593813      0.531855     -0.534207
     18.49260      6.86007     15.62020        -0.394654      2.087760      0.584164
     19.69630      4.88279     16.02230        -0.444042     -0.818217     -0.658166
     19.72090      6.24620     15.92730        -0.996625      0.294508      0.087350
     20.94970      4.26416     16.30400        -1.154340     -1.632528      0.420863
     20.85940      6.93977     16.37800         2.262040     -0.169489     -0.651327
     22.19930      4.90225     16.46900        -0.980424      0.112906      0.360707
     22.15230      6.28016     16.49810        -0.662245      1.015255      0.794397
     23.31760      4.23229     17.02430        -0.885471      1.852313     -1.357964
     23.30620      6.95577     16.98620         0.086155     -1.316482     -0.934415
     24.50160      4.91605     17.31320         1.081556     -1.239063      0.975463
     24.54070      6.26475     17.22370        -0.653894      1.145627      0.890038
     25.60440      4.25923     17.97510        -0.582555      0.257672     -0.954695
     25.65060      6.90154     17.82680        -0.211333      1.681419     -0.804817
     26.71940      4.87387     18.40750        -0.223690      2.380215     -0.596739
     26.77460      6.28415     18.23730        -0.731894     -3.229492      0.999527
 -----------------------------------------------------------------------------------
    total drift:                               -0.001638     -0.023789      0.016483


--------------------------------------------------------------------------------------------------------



  FREE ENERGIE OF THE ION-ELECTRON SYSTEM (eV)
  ---------------------------------------------------
  free  energy   TOTEN  =      -828.93181523 eV

  energy  without entropy=     -828.86824620  energy(sigma->0) =     -828.90003072
 


--------------------------------------------------------------------------------------------------------


    POTLOK:  cpu time      0.4514: real time      0.4514


--------------------------------------------------------------------------------------------------------


     LOOP+:  cpu time    343.2379: real time    343.4463
    4ORBIT:  cpu time      0.0000: real time      0.0000

 total amount of memory used by VASP MPI-rank0  2294515. kBytes
=======================================================================

   base                                    :      30000. kBytes
   nonlr-proj                              :      15081. kBytes
   fftplans                                :     436558. kBytes
   grid                                    :     732614. kBytes
   one-center                              :        282. kBytes
   wavefun                                 :    1079980. kBytes
 
  
  
 General timing and accounting informations for this job:
 ========================================================
  
                  Total CPU time used (sec):      376.507
                            User time (sec):      367.822
                          System time (sec):        8.685
                         Elapsed time (sec):      376.849
  
                   Maximum memory used (kb):     3732552.
                   Average memory used (kb):          N/A
  
                          Minor page faults:      3265513
                          Major page faults:         5023
                 Voluntary context switches:        10477
