  92  92   0   0
  0.8273226E+02  0.2805000E-08  0.8100000E-09  0.3350000E-08  0.5000000E-15
   1.0000000000000000E-004
  CAR 
 unknown system                          
      3.89810548    -25.19613678  301     -3.14028396      1.00000000
    -25.196  0.0000E+00  0.0000E+00
    -25.099  0.0000E+00  0.0000E+00
    -25.002  0.0000E+00  0.0000E+00
    -24.905  0.0000E+00  0.0000E+00
    -24.808  0.0000E+00  0.0000E+00
    -24.711  0.0000E+00  0.0000E+00
    -24.614  0.0000E+00  0.0000E+00
    -24.517  0.0000E+00  0.0000E+00
    -24.420  0.0000E+00  0.0000E+00
    -24.323  0.4007E-14  0.3886E-15
    -24.226  0.8440E-12  0.8224E-13
    -24.129  0.1091E-09  0.1066E-10
    -24.032  0.8926E-08  0.8763E-09
    -23.935  0.4639E-06  0.4586E-07
    -23.838  0.1539E-04  0.1538E-05
    -23.741  0.3278E-03  0.3332E-04
    -23.644  0.4524E-02  0.4721E-03
    -23.547  0.4096E-01  0.4444E-02
    -23.450  0.2470E+00  0.2840E-01
    -23.354  0.1014E+01  0.1268E+00
    -23.257  0.2921E+01  0.4100E+00
    -23.160  0.6122E+01  0.1004E+01
    -23.063  0.9748E+01  0.1949E+01
    -22.966  0.1228E+02  0.3140E+01
    -22.869  0.1303E+02  0.4405E+01
    -22.772  0.1338E+02  0.5702E+01
    -22.675  0.1511E+02  0.7167E+01
    -22.578  0.1702E+02  0.8818E+01
    -22.481  0.1641E+02  0.1041E+02
    -22.384  0.1395E+02  0.1176E+02
    -22.287  0.1267E+02  0.1299E+02
    -22.190  0.1326E+02  0.1428E+02
    -22.093  0.1407E+02  0.1564E+02
    -21.996  0.1422E+02  0.1702E+02
    -21.899  0.1411E+02  0.1839E+02
    -21.802  0.1386E+02  0.1973E+02
    -21.705  0.1309E+02  0.2100E+02
    -21.608  0.1207E+02  0.2218E+02
    -21.511  0.1158E+02  0.2330E+02
    -21.414  0.1178E+02  0.2444E+02
    -21.317  0.1247E+02  0.2565E+02
    -21.220  0.1377E+02  0.2698E+02
    -21.123  0.1555E+02  0.2849E+02
    -21.026  0.1650E+02  0.3009E+02
    -20.929  0.1533E+02  0.3158E+02
    -20.832  0.1297E+02  0.3284E+02
    -20.735  0.1189E+02  0.3399E+02
    -20.638  0.1281E+02  0.3523E+02
    -20.541  0.1387E+02  0.3658E+02
    -20.444  0.1364E+02  0.3790E+02
    -20.347  0.1307E+02  0.3917E+02
    -20.250  0.1349E+02  0.4048E+02
    -20.153  0.1458E+02  0.4189E+02
    -20.056  0.1507E+02  0.4335E+02
    -19.959  0.1464E+02  0.4477E+02
    -19.862  0.1364E+02  0.4609E+02
    -19.765  0.1252E+02  0.4731E+02
    -19.668  0.1300E+02  0.4857E+02
    -19.571  0.1588E+02  0.5011E+02
    -19.474  0.1795E+02  0.5185E+02
    -19.377  0.1624E+02  0.5343E+02
    -19.280  0.1298E+02  0.5468E+02
    -19.183  0.1204E+02  0.5585E+02
    -19.086  0.1347E+02  0.5716E+02
    -18.989  0.1440E+02  0.5856E+02
    -18.892  0.1345E+02  0.5986E+02
    -18.795  0.1233E+02  0.6106E+02
    -18.698  0.1328E+02  0.6234E+02
    -18.601  0.1600E+02  0.6390E+02
    -18.504  0.1789E+02  0.6563E+02
    -18.407  0.1773E+02  0.6735E+02
    -18.310  0.1734E+02  0.6903E+02
    -18.214  0.1803E+02  0.7078E+02
    -18.117  0.1823E+02  0.7255E+02
    -18.020  0.1646E+02  0.7415E+02
    -17.923  0.1386E+02  0.7549E+02
    -17.826  0.1229E+02  0.7668E+02
    -17.729  0.1193E+02  0.7784E+02
    -17.632  0.1162E+02  0.7897E+02
    -17.535  0.1102E+02  0.8003E+02
    -17.438  0.1094E+02  0.8109E+02
    -17.341  0.1160E+02  0.8222E+02
    -17.244  0.1231E+02  0.8341E+02
    -17.147  0.1281E+02  0.8466E+02
    -17.050  0.1282E+02  0.8590E+02
    -16.953  0.1181E+02  0.8705E+02
    -16.856  0.1048E+02  0.8806E+02
    -16.759  0.1035E+02  0.8907E+02
    -16.662  0.1178E+02  0.9021E+02
    -16.565  0.1360E+02  0.9153E+02
    -16.468  0.1470E+02  0.9295E+02
    -16.371  0.1520E+02  0.9443E+02
    -16.274  0.1570E+02  0.9595E+02
    -16.177  0.1661E+02  0.9756E+02
    -16.080  0.1759E+02  0.9926E+02
    -15.983  0.1755E+02  0.1010E+03
    -15.886  0.1586E+02  0.1025E+03
    -15.789  0.1320E+02  0.1038E+03
    -15.692  0.1124E+02  0.1049E+03
    -15.595  0.1097E+02  0.1059E+03
    -15.498  0.1233E+02  0.1071E+03
    -15.401  0.1571E+02  0.1087E+03
    -15.304  0.2045E+02  0.1106E+03
    -15.207  0.2380E+02  0.1130E+03
    -15.110  0.2417E+02  0.1153E+03
    -15.013  0.2199E+02  0.1174E+03
    -14.916  0.1813E+02  0.1192E+03
    -14.819  0.1426E+02  0.1206E+03
    -14.722  0.1184E+02  0.1217E+03
    -14.625  0.1056E+02  0.1227E+03
    -14.528  0.9894E+01  0.1237E+03
    -14.431  0.9921E+01  0.1247E+03
    -14.334  0.1032E+02  0.1257E+03
    -14.237  0.1081E+02  0.1267E+03
    -14.140  0.1177E+02  0.1279E+03
    -14.043  0.1357E+02  0.1292E+03
    -13.946  0.1566E+02  0.1307E+03
    -13.849  0.1736E+02  0.1324E+03
    -13.752  0.1887E+02  0.1342E+03
    -13.655  0.1978E+02  0.1361E+03
    -13.558  0.1907E+02  0.1380E+03
    -13.461  0.1770E+02  0.1397E+03
    -13.364  0.1761E+02  0.1414E+03
    -13.267  0.1857E+02  0.1432E+03
    -13.171  0.1838E+02  0.1450E+03
    -13.074  0.1592E+02  0.1465E+03
    -12.977  0.1329E+02  0.1478E+03
    -12.880  0.1308E+02  0.1491E+03
    -12.783  0.1464E+02  0.1505E+03
    -12.686  0.1535E+02  0.1520E+03
    -12.589  0.1434E+02  0.1534E+03
    -12.492  0.1348E+02  0.1547E+03
    -12.395  0.1455E+02  0.1561E+03
    -12.298  0.1736E+02  0.1578E+03
    -12.201  0.2127E+02  0.1598E+03
    -12.104  0.2510E+02  0.1623E+03
    -12.007  0.2650E+02  0.1648E+03
    -11.910  0.2498E+02  0.1673E+03
    -11.813  0.2202E+02  0.1694E+03
    -11.716  0.1831E+02  0.1712E+03
    -11.619  0.1443E+02  0.1726E+03
    -11.522  0.1226E+02  0.1738E+03
    -11.425  0.1360E+02  0.1751E+03
    -11.328  0.1770E+02  0.1768E+03
    -11.231  0.2175E+02  0.1789E+03
    -11.134  0.2464E+02  0.1813E+03
    -11.037  0.2789E+02  0.1840E+03
    -10.940  0.3229E+02  0.1871E+03
    -10.843  0.3567E+02  0.1906E+03
    -10.746  0.3571E+02  0.1941E+03
    -10.649  0.3398E+02  0.1974E+03
    -10.552  0.3463E+02  0.2007E+03
    -10.455  0.3826E+02  0.2044E+03
    -10.358  0.4053E+02  0.2084E+03
    -10.261  0.3875E+02  0.2121E+03
    -10.164  0.3577E+02  0.2156E+03
    -10.067  0.3441E+02  0.2189E+03
     -9.970  0.3340E+02  0.2222E+03
     -9.873  0.3184E+02  0.2253E+03
     -9.776  0.3239E+02  0.2284E+03
     -9.679  0.3690E+02  0.2320E+03
     -9.582  0.4295E+02  0.2361E+03
     -9.485  0.4659E+02  0.2407E+03
     -9.388  0.4579E+02  0.2451E+03
     -9.291  0.4053E+02  0.2490E+03
     -9.194  0.3305E+02  0.2522E+03
     -9.097  0.2767E+02  0.2549E+03
     -9.000  0.2731E+02  0.2576E+03
     -8.903  0.3088E+02  0.2606E+03
     -8.806  0.3520E+02  0.2640E+03
     -8.709  0.3789E+02  0.2676E+03
     -8.612  0.3787E+02  0.2713E+03
     -8.515  0.3540E+02  0.2748E+03
     -8.418  0.3207E+02  0.2779E+03
     -8.321  0.2944E+02  0.2807E+03
     -8.224  0.2807E+02  0.2834E+03
     -8.128  0.2760E+02  0.2861E+03
     -8.031  0.2686E+02  0.2887E+03
     -7.934  0.2576E+02  0.2912E+03
     -7.837  0.2615E+02  0.2938E+03
     -7.740  0.2838E+02  0.2965E+03
     -7.643  0.3013E+02  0.2994E+03
     -7.546  0.3019E+02  0.3024E+03
     -7.449  0.2967E+02  0.3052E+03
     -7.352  0.2895E+02  0.3080E+03
     -7.255  0.2695E+02  0.3107E+03
     -7.158  0.2404E+02  0.3130E+03
     -7.061  0.2244E+02  0.3152E+03
     -6.964  0.2322E+02  0.3174E+03
     -6.867  0.2523E+02  0.3199E+03
     -6.770  0.2722E+02  0.3225E+03
     -6.673  0.2795E+02  0.3252E+03
     -6.576  0.2601E+02  0.3277E+03
     -6.479  0.2236E+02  0.3299E+03
     -6.382  0.1986E+02  0.3318E+03
     -6.285  0.1929E+02  0.3337E+03
     -6.188  0.1987E+02  0.3356E+03
     -6.091  0.2163E+02  0.3377E+03
     -5.994  0.2395E+02  0.3400E+03
     -5.897  0.2501E+02  0.3425E+03
     -5.800  0.2408E+02  0.3448E+03
     -5.703  0.2182E+02  0.3469E+03
     -5.606  0.1872E+02  0.3487E+03
     -5.509  0.1471E+02  0.3502E+03
     -5.412  0.1084E+02  0.3512E+03
     -5.315  0.9553E+01  0.3521E+03
     -5.218  0.1123E+02  0.3532E+03
     -5.121  0.1257E+02  0.3545E+03
     -5.024  0.1115E+02  0.3555E+03
     -4.927  0.8570E+01  0.3564E+03
     -4.830  0.7496E+01  0.3571E+03
     -4.733  0.8782E+01  0.3579E+03
     -4.636  0.1178E+02  0.3591E+03
     -4.539  0.1510E+02  0.3606E+03
     -4.442  0.1632E+02  0.3621E+03
     -4.345  0.1344E+02  0.3634E+03
     -4.248  0.8192E+01  0.3642E+03
     -4.151  0.4450E+01  0.3647E+03
     -4.054  0.3237E+01  0.3650E+03
     -3.957  0.2947E+01  0.3653E+03
     -3.860  0.2727E+01  0.3655E+03
     -3.763  0.2972E+01  0.3658E+03
     -3.666  0.3619E+01  0.3662E+03
     -3.569  0.4038E+01  0.3666E+03
     -3.472  0.3960E+01  0.3669E+03
     -3.375  0.3404E+01  0.3673E+03
     -3.278  0.2846E+01  0.3675E+03
     -3.181  0.3079E+01  0.3678E+03
     -3.085  0.4027E+01  0.3682E+03
     -2.988  0.4791E+01  0.3687E+03
     -2.891  0.4964E+01  0.3692E+03
     -2.794  0.5242E+01  0.3697E+03
     -2.697  0.6434E+01  0.3703E+03
     -2.600  0.7909E+01  0.3711E+03
     -2.503  0.8150E+01  0.3719E+03
     -2.406  0.6819E+01  0.3725E+03
     -2.309  0.5399E+01  0.3731E+03
     -2.212  0.5614E+01  0.3736E+03
     -2.115  0.7131E+01  0.3743E+03
     -2.018  0.7741E+01  0.3750E+03
     -1.921  0.6487E+01  0.3757E+03
     -1.824  0.5351E+01  0.3762E+03
     -1.727  0.6968E+01  0.3769E+03
     -1.630  0.1184E+02  0.3780E+03
     -1.533  0.1794E+02  0.3798E+03
     -1.436  0.2233E+02  0.3819E+03
     -1.339  0.2329E+02  0.3842E+03
     -1.242  0.2141E+02  0.3863E+03
     -1.145  0.1953E+02  0.3882E+03
     -1.048  0.1958E+02  0.3900E+03
     -0.951  0.1946E+02  0.3919E+03
     -0.854  0.1681E+02  0.3936E+03
     -0.757  0.1295E+02  0.3948E+03
     -0.660  0.1065E+02  0.3959E+03
     -0.563  0.1077E+02  0.3969E+03
     -0.466  0.1162E+02  0.3980E+03
     -0.369  0.1143E+02  0.3991E+03
     -0.272  0.1131E+02  0.4002E+03
     -0.175  0.1378E+02  0.4016E+03
     -0.078  0.1810E+02  0.4033E+03
      0.019  0.2087E+02  0.4053E+03
      0.116  0.2114E+02  0.4074E+03
      0.213  0.2085E+02  0.4094E+03
      0.310  0.2102E+02  0.4115E+03
      0.407  0.2066E+02  0.4135E+03
      0.504  0.1980E+02  0.4154E+03
      0.601  0.2084E+02  0.4174E+03
      0.698  0.2452E+02  0.4198E+03
      0.795  0.2783E+02  0.4225E+03
      0.892  0.2873E+02  0.4253E+03
      0.989  0.3010E+02  0.4282E+03
      1.086  0.3543E+02  0.4316E+03
      1.183  0.4313E+02  0.4358E+03
      1.280  0.4896E+02  0.4406E+03
      1.377  0.5128E+02  0.4455E+03
      1.474  0.5037E+02  0.4504E+03
      1.571  0.4582E+02  0.4549E+03
      1.668  0.3771E+02  0.4585E+03
      1.765  0.2741E+02  0.4612E+03
      1.862  0.1676E+02  0.4628E+03
      1.958  0.8157E+01  0.4636E+03
      2.055  0.3089E+01  0.4639E+03
      2.152  0.9118E+00  0.4640E+03
      2.249  0.2065E+00  0.4640E+03
      2.346  0.3410E-01  0.4640E+03
      2.443  0.3878E-02  0.4640E+03
      2.540  0.2914E-03  0.4640E+03
      2.637  0.1414E-04  0.4640E+03
      2.734  0.4373E-06  0.4640E+03
      2.831  0.8573E-08  0.4640E+03
      2.928  0.1061E-09  0.4640E+03
      3.025  0.8283E-12  0.4640E+03
      3.122  0.4007E-14  0.4640E+03
      3.219  0.0000E+00  0.4640E+03
      3.316  0.0000E+00  0.4640E+03
      3.413  0.0000E+00  0.4640E+03
      3.510  0.0000E+00  0.4640E+03
      3.607  0.0000E+00  0.4640E+03
      3.704  0.0000E+00  0.4640E+03
      3.801  0.0000E+00  0.4640E+03
      3.898  0.0000E+00  0.4640E+03
