       N       E                     dE             d eps       ncg     rms          rms(c)
DAV:   1     0.374749914252E+04    0.37475E+04   -0.11850E+05  1688   0.105E+03
DAV:   2     0.185171394058E+03   -0.35623E+04   -0.33020E+04  2136   0.240E+02
DAV:   3    -0.839134371906E+03   -0.10243E+04   -0.99931E+03  1784   0.136E+02
DAV:   4    -0.899875719797E+03   -0.60741E+02   -0.59874E+02  1704   0.430E+01
DAV:   5    -0.901331928316E+03   -0.14562E+01   -0.14399E+01  1816   0.642E+00    0.456E+01
DAV:   6    -0.851482879999E+03    0.49849E+02   -0.47520E+01  1584   0.125E+01    0.268E+01
DAV:   7    -0.832866870918E+03    0.18616E+02   -0.65644E+01  1568   0.143E+01    0.734E+00
DAV:   8    -0.832567719420E+03    0.29915E+00   -0.23302E+00  1608   0.320E+00    0.902E-01
DAV:   9    -0.832470278482E+03    0.97441E-01   -0.24535E-01  1656   0.910E-01    0.558E-01
DAV:  10    -0.832428482832E+03    0.41796E-01   -0.40683E-02  1728   0.392E-01    0.350E-01
DAV:  11    -0.832397760426E+03    0.30722E-01   -0.28401E-02  1544   0.251E-01    0.230E-01
DAV:  12    -0.832396848408E+03    0.91202E-03   -0.19203E-02  1512   0.210E-01    0.144E-01
DAV:  13    -0.832409668871E+03   -0.12820E-01   -0.73188E-03  1528   0.128E-01    0.846E-02
DAV:  14    -0.832425559207E+03   -0.15890E-01   -0.10229E-03  1544   0.540E-02    0.560E-02
DAV:  15    -0.832446274521E+03   -0.20715E-01   -0.16163E-03  1536   0.590E-02    0.296E-02
DAV:  16    -0.832456004821E+03   -0.97303E-02   -0.66784E-04  1552   0.367E-02    0.200E-02
DAV:  17    -0.832460031676E+03   -0.40269E-02   -0.19620E-04  1584   0.184E-02    0.106E-02
DAV:  18    -0.832462359439E+03   -0.23278E-02   -0.10794E-04  1520   0.129E-02    0.568E-03
DAV:  19    -0.832463255946E+03   -0.89651E-03   -0.24158E-05  1344   0.641E-03    0.369E-03
DAV:  20    -0.832463664816E+03   -0.40887E-03   -0.72409E-06  1296   0.353E-03    0.189E-03
DAV:  21    -0.832463849981E+03   -0.18517E-03   -0.22152E-06  1224   0.202E-03    0.869E-04
DAV:  22    -0.832463895398E+03   -0.45417E-04   -0.15819E-07   992   0.761E-04    0.526E-04
DAV:  23    -0.832463922930E+03   -0.27531E-04   -0.20062E-07   896   0.653E-04    0.259E-04
DAV:  24    -0.832463930980E+03   -0.80498E-05   -0.53554E-08   928   0.378E-04    0.158E-04
DAV:  25    -0.832463935494E+03   -0.45148E-05   -0.30567E-08   872   0.275E-04    0.105E-04
DAV:  26    -0.832463937522E+03   -0.20274E-05   -0.13068E-08   896   0.176E-04    0.711E-05
DAV:  27    -0.832463939398E+03   -0.18766E-05   -0.72575E-09   912   0.139E-04    0.398E-05
DAV:  28    -0.832463940169E+03   -0.77017E-06   -0.26390E-09   888   0.845E-05
   1 F= -.83246394E+03 E0= -.83242436E+03  d E =-.791617E-01
