<?xml version="1.0" encoding="ISO-8859-1"?>
<modeling>
 <generator>
  <i name="program" type="string">vasp </i>
  <i name="version" type="string">6.5.0  </i>
  <i name="subversion" type="string">16Dec24 (build Feb 19 2025 19:45:31) complex                          parallel </i>
  <i name="platform" type="string">LinuxNV </i>
  <i name="date" type="string">2025 10 25 </i>
  <i name="time" type="string">20:29:42 </i>
 </generator>
 <incar>
  <i type="int" name="ISTART">     0</i>
  <i type="string" name="PREC">Accurate   (Precision level)</i>
  <i type="string" name="ALGO">Normal</i>
  <i type="int" name="ISPIN">     1</i>
  <i type="int" name="ICHARG">     2</i>
  <i type="int" name="NELM">   150</i>
  <i type="int" name="IBRION">    -1</i>
  <i name="EDIFF">      0.00000100</i>
  <i type="int" name="NSW">     0</i>
  <i name="ENCUT">    500.00000000</i>
  <i type="string" name="LREAL">Auto         (Projection operators: automatic)</i>
  <i type="int" name="ISMEAR">     0</i>
  <i type="logical" name="KGAMMA"> T  </i>
  <i type="logical" name="LWAVE"> F  </i>
  <i type="logical" name="LCHARG"> F  </i>
 </incar>
 <primitive_cell>
  <structure name="primitive_cell" >
   <crystal>
    <varray name="basis" >
     <v>      28.05000000       0.00000000       0.00000000 </v>
     <v>       0.00000000       8.10000000       0.00000000 </v>
     <v>       0.00000000       0.00000000      33.50000000 </v>
    </varray>
    <i name="volume">   7611.36750000 </i>
    <varray name="rec_basis" >
     <v>       0.03565062       0.00000000       0.00000000 </v>
     <v>       0.00000000       0.12345679       0.00000000 </v>
     <v>       0.00000000       0.00000000       0.02985075 </v>
    </varray>
   </crystal>
   <varray name="positions" >
    <v>       0.72154367       0.30201975       0.07731343 </v>
    <v>       0.72224242       0.47608519       0.07731343 </v>
    <v>       0.76564706       0.22313210       0.07701493 </v>
    <v>       0.76614260       0.55924198       0.07940299 </v>
    <v>       0.80936898       0.30689383       0.08537313 </v>
    <v>       0.81007843       0.47723580       0.08716418 </v>
    <v>       0.85431373       0.22540617       0.08507463 </v>
    <v>       0.85524421       0.55956667       0.08716418 </v>
    <v>       0.89890909       0.30878148       0.08388060 </v>
    <v>       0.89920499       0.47924074       0.08477612 </v>
    <v>       0.94324421       0.22843827       0.07373134 </v>
    <v>       0.94292692       0.56323827       0.07701493 </v>
    <v>       0.98726203       0.31152963       0.06895522 </v>
    <v>       0.98712656       0.48104568       0.06985075 </v>
    <v>       0.02897433       0.22807654       0.05671642 </v>
    <v>       0.02867326       0.56527901       0.05611940 </v>
    <v>       0.07186025       0.31229630       0.04865672 </v>
    <v>       0.07144029       0.48373457       0.04895522 </v>
    <v>       0.11327522       0.23109012       0.03432836 </v>
    <v>       0.11243708       0.56375432       0.03402985 </v>
    <v>       0.15692157       0.31300617       0.02567164 </v>
    <v>       0.15710766       0.48051111       0.02597015 </v>
    <v>       0.19880784       0.22957531       0.01462687 </v>
    <v>       0.19828520       0.56351481       0.01253731 </v>
    <v>       0.24175365       0.31188395       0.01223881 </v>
    <v>       0.24271693       0.48158025       0.01134328 </v>
    <v>       0.28640642       0.22990000       0.00626866 </v>
    <v>       0.28628913       0.56738642       0.00298507 </v>
    <v>       0.33074724       0.31256543       0.00716418 </v>
    <v>       0.32991159       0.48068148       0.00388060 </v>
    <v>       0.37472727       0.22665185       0.00208955 </v>
    <v>       0.37482709       0.56392963       0.00059701 </v>
    <v>       0.41840285       0.31133704       0.00746269 </v>
    <v>       0.41799643       0.48357531       0.00686567 </v>
    <v>       0.46253119       0.22804444       0.00925373 </v>
    <v>       0.46151872       0.56413210       0.00985075 </v>
    <v>       0.50455615       0.31128272       0.02089552 </v>
    <v>       0.50422816       0.48007037       0.02149254 </v>
    <v>       0.54855971       0.23092716       0.02716418 </v>
    <v>       0.54694831       0.56360864       0.02835821 </v>
    <v>       0.58946881       0.31204938       0.04358209 </v>
    <v>       0.58867736       0.48218519       0.04328358 </v>
    <v>       0.63175401       0.22760617       0.05014925 </v>
    <v>       0.63206774       0.56485062       0.04895522 </v>
    <v>       0.67045989       0.31071975       0.06597015 </v>
    <v>       0.67214617       0.48238272       0.06597015 </v>
    <v>       0.72496257       0.80500617       0.05671642 </v>
    <v>       0.72643494       0.97582222       0.05611940 </v>
    <v>       0.76709804       0.72127531       0.06865672 </v>
    <v>       0.76765419       0.06013790       0.06626866 </v>
    <v>       0.81096257       0.80796914       0.07014925 </v>
    <v>       0.81131551       0.97783951       0.06895522 </v>
    <v>       0.85374688       0.72501728       0.07820896 </v>
    <v>       0.85411408       0.06098284       0.07552239 </v>
    <v>       0.89735116       0.80929383       0.07283582 </v>
    <v>       0.89736898       0.97885679       0.07253731 </v>
    <v>       0.94129055       0.72861975       0.06865672 </v>
    <v>       0.94086631       0.06293741       0.06656716 </v>
    <v>       0.98340107       0.81258272       0.05522388 </v>
    <v>       0.98366845       0.98036543       0.05552239 </v>
    <v>       0.02584064       0.72933457       0.04686567 </v>
    <v>       0.02652064       0.06314975       0.04776119 </v>
    <v>       0.06765847       0.81356173       0.03223881 </v>
    <v>       0.06795722       0.98122346       0.03194030 </v>
    <v>       0.11054581       0.72825802       0.02388060 </v>
    <v>       0.11150410       0.06592173       0.02567164 </v>
    <v>       0.15291551       0.81209753       0.01104478 </v>
    <v>       0.15303672       0.98284938       0.01223881 </v>
    <v>       0.19640749       0.73184938       0.00477612 </v>
    <v>       0.19691408       0.06218914       0.00805970 </v>
    <v>       0.24013904       0.81182963       0.99671642 </v>
    <v>       0.23997540       0.98207531       0.99731343 </v>
    <v>       0.28598146       0.73023827       0.99522388 </v>
    <v>       0.28571693       0.06750667       0.99582090 </v>
    <v>       0.33008948       0.81576173       0.98985075 </v>
    <v>       0.33010766       0.98751235       0.98955224 </v>
    <v>       0.37421390       0.73156296       0.99253731 </v>
    <v>       0.37501961       0.06286000       0.99253731 </v>
    <v>       0.41939037       0.81202222       0.99223881 </v>
    <v>       0.41885918       0.98017037       0.99194030 </v>
    <v>       0.46283779       0.73025309       0.00208955 </v>
    <v>       0.46385740       0.06292951       0.99940299 </v>
    <v>       0.50768627       0.80926667       0.00388060 </v>
    <v>       0.50708378       0.98189012       0.00537313 </v>
    <v>       0.54997504       0.72874444       0.01731343 </v>
    <v>       0.55020321       0.06473086       0.01761194 </v>
    <v>       0.59248485       0.81287284       0.02507463 </v>
    <v>       0.59357576       0.98288148       0.02447761 </v>
    <v>       0.63341889       0.72623827       0.03761194 </v>
    <v>       0.63389661       0.06615420       0.03940299 </v>
    <v>       0.67552941       0.80530370       0.04447761 </v>
    <v>       0.67578966       0.97726543       0.04507463 </v>
   </varray>
  </structure>
  <varray name="primitive_index" >
   <v type="int" >        1 </v>
   <v type="int" >        2 </v>
   <v type="int" >        3 </v>
   <v type="int" >        4 </v>
   <v type="int" >        5 </v>
   <v type="int" >        6 </v>
   <v type="int" >        7 </v>
   <v type="int" >        8 </v>
   <v type="int" >        9 </v>
   <v type="int" >       10 </v>
   <v type="int" >       11 </v>
   <v type="int" >       12 </v>
   <v type="int" >       13 </v>
   <v type="int" >       14 </v>
   <v type="int" >       15 </v>
   <v type="int" >       16 </v>
   <v type="int" >       17 </v>
   <v type="int" >       18 </v>
   <v type="int" >       19 </v>
   <v type="int" >       20 </v>
   <v type="int" >       21 </v>
   <v type="int" >       22 </v>
   <v type="int" >       23 </v>
   <v type="int" >       24 </v>
   <v type="int" >       25 </v>
   <v type="int" >       26 </v>
   <v type="int" >       27 </v>
   <v type="int" >       28 </v>
   <v type="int" >       29 </v>
   <v type="int" >       30 </v>
   <v type="int" >       31 </v>
   <v type="int" >       32 </v>
   <v type="int" >       33 </v>
   <v type="int" >       34 </v>
   <v type="int" >       35 </v>
   <v type="int" >       36 </v>
   <v type="int" >       37 </v>
   <v type="int" >       38 </v>
   <v type="int" >       39 </v>
   <v type="int" >       40 </v>
   <v type="int" >       41 </v>
   <v type="int" >       42 </v>
   <v type="int" >       43 </v>
   <v type="int" >       44 </v>
   <v type="int" >       45 </v>
   <v type="int" >       46 </v>
   <v type="int" >       47 </v>
   <v type="int" >       48 </v>
   <v type="int" >       49 </v>
   <v type="int" >       50 </v>
   <v type="int" >       51 </v>
   <v type="int" >       52 </v>
   <v type="int" >       53 </v>
   <v type="int" >       54 </v>
   <v type="int" >       55 </v>
   <v type="int" >       56 </v>
   <v type="int" >       57 </v>
   <v type="int" >       58 </v>
   <v type="int" >       59 </v>
   <v type="int" >       60 </v>
   <v type="int" >       61 </v>
   <v type="int" >       62 </v>
   <v type="int" >       63 </v>
   <v type="int" >       64 </v>
   <v type="int" >       65 </v>
   <v type="int" >       66 </v>
   <v type="int" >       67 </v>
   <v type="int" >       68 </v>
   <v type="int" >       69 </v>
   <v type="int" >       70 </v>
   <v type="int" >       71 </v>
   <v type="int" >       72 </v>
   <v type="int" >       73 </v>
   <v type="int" >       74 </v>
   <v type="int" >       75 </v>
   <v type="int" >       76 </v>
   <v type="int" >       77 </v>
   <v type="int" >       78 </v>
   <v type="int" >       79 </v>
   <v type="int" >       80 </v>
   <v type="int" >       81 </v>
   <v type="int" >       82 </v>
   <v type="int" >       83 </v>
   <v type="int" >       84 </v>
   <v type="int" >       85 </v>
   <v type="int" >       86 </v>
   <v type="int" >       87 </v>
   <v type="int" >       88 </v>
   <v type="int" >       89 </v>
   <v type="int" >       90 </v>
   <v type="int" >       91 </v>
   <v type="int" >       92 </v>
  </varray>
 </primitive_cell>
 <kpoints>
  <generation param="Gamma">
   <v type="int" name="divisions">       1        4        1 </v>
   <v name="usershift">      0.00000000       0.00000000       0.00000000 </v>
   <v name="genvec1">      1.00000000       0.00000000       0.00000000 </v>
   <v name="genvec2">      0.00000000       0.25000000       0.00000000 </v>
   <v name="genvec3">      0.00000000       0.00000000       1.00000000 </v>
   <v name="shift">      0.00000000       0.00000000       0.00000000 </v>
  </generation>
  <varray name="kpointlist" >
   <v>       0.00000000       0.00000000       0.00000000 </v>
   <v>       0.00000000       0.25000000       0.00000000 </v>
   <v>       0.00000000       0.50000000       0.00000000 </v>
  </varray>
  <varray name="weights" >
   <v>       0.25000000 </v>
   <v>       0.50000000 </v>
   <v>       0.25000000 </v>
  </varray>
 </kpoints>
 <parameters>
  <separator name="general" >
   <i type="string" name="SYSTEM">unknown system</i>
   <i type="logical" name="LCOMPAT"> F  </i>
  </separator>
  <separator name="electronic" >
   <i type="string" name="PREC">accura</i>
   <i name="ENMAX">    500.00000000</i>
   <i name="ENAUG">    644.87300000</i>
   <i name="EDIFF">      0.00000100</i>
   <i type="int" name="IALGO">    38</i>
   <i type="int" name="IWAVPR">    10</i>
   <i type="int" name="NBANDS">   232</i>
   <i type="int" name="NBANDSLOW">    -1</i>
   <i type="int" name="NBANDSHIGH">    -1</i>
   <i name="NELECT">    368.00000000</i>
   <i type="int" name="TURBO">     0</i>
   <i type="int" name="IRESTART">     0</i>
   <i type="int" name="NREBOOT">     0</i>
   <i type="int" name="NMIN">     0</i>
   <i name="EREF">      0.00000000</i>
   <separator name="electronic smearing" >
    <i type="int" name="ISMEAR">     0</i>
    <i name="SIGMA">      0.20000000</i>
    <i name="KSPACING">      0.50000000</i>
    <i type="logical" name="KGAMMA"> T  </i>
    <i type="logical" name="KBLOWUP"> T  </i>
   </separator>
   <separator name="electronic projectors" >
    <i type="logical" name="LREAL"> T  </i>
    <v name="ROPT">     -0.00025000</v>
    <i type="int" name="LMAXPAW">  -100</i>
    <i type="int" name="LMAXMIX">     2</i>
    <i type="logical" name="NLSPLINE"> F  </i>
   </separator>
   <separator name="electronic startup" >
    <i type="int" name="ISTART">     0</i>
    <i type="int" name="ICHARG">     2</i>
    <i type="int" name="INIWAV">     1</i>
   </separator>
   <separator name="electronic spin" >
    <i type="int" name="ISPIN">     1</i>
    <i type="logical" name="LNONCOLLINEAR"> F  </i>
    <v name="MAGMOM">      1.00000000      1.00000000      1.00000000      1.00000000      1.00000000      1.00000000      1.00000000      1.00000000      1.00000000      1.00000000      1.00000000      1.00000000      1.00000000      1.00000000      1.00000000      1.00000000      1.00000000      1.00000000      1.00000000      1.00000000
      1.00000000      1.00000000      1.00000000      1.00000000      1.00000000      1.00000000      1.00000000      1.00000000      1.00000000      1.00000000      1.00000000      1.00000000      1.00000000      1.00000000      1.00000000      1.00000000      1.00000000      1.00000000      1.00000000      1.00000000
      1.00000000      1.00000000      1.00000000      1.00000000      1.00000000      1.00000000      1.00000000      1.00000000      1.00000000      1.00000000      1.00000000      1.00000000      1.00000000      1.00000000      1.00000000      1.00000000      1.00000000      1.00000000      1.00000000      1.00000000
      1.00000000      1.00000000      1.00000000      1.00000000      1.00000000      1.00000000      1.00000000      1.00000000      1.00000000      1.00000000      1.00000000      1.00000000      1.00000000      1.00000000      1.00000000      1.00000000      1.00000000      1.00000000      1.00000000      1.00000000
      1.00000000      1.00000000      1.00000000      1.00000000      1.00000000      1.00000000      1.00000000      1.00000000      1.00000000      1.00000000      1.00000000      1.00000000</v>
    <i name="NUPDOWN">     -1.00000000</i>
    <i type="logical" name="LSORBIT"> F  </i>
    <v name="SAXIS">      0.00000000      0.00000000      1.00000000</v>
    <i type="logical" name="LSPIRAL"> F  </i>
    <v name="QSPIRAL">      0.00000000      0.00000000      0.00000000</v>
    <i type="logical" name="LZEROZ"> F  </i>
   </separator>
   <separator name="electronic exchange-correlation" >
    <i type="logical" name="LASPH"> F  </i>
   </separator>
   <separator name="electronic convergence" >
    <i type="int" name="NELM">   150</i>
    <i type="int" name="NELMDL">    -5</i>
    <i type="int" name="NELMIN">     2</i>
    <i name="ENINI">    500.00000000</i>
    <separator name="electronic convergence detail" >
     <i type="logical" name="LDIAG"> T  </i>
     <i type="logical" name="LSUBROT"> F  </i>
     <i name="WEIMIN">      0.00000000</i>
     <i name="EBREAK">      0.00000000</i>
     <i name="DEPER">      0.30000000</i>
     <i type="int" name="NRMM">     4</i>
     <i name="TIME">      0.40000000</i>
    </separator>
   </separator>
   <separator name="electronic mixer" >
    <i name="AMIX">      0.40000000</i>
    <i name="BMIX">      1.00000000</i>
    <i name="AMIN">      0.10000000</i>
    <i name="AMIX_MAG">      1.60000000</i>
    <i name="BMIX_MAG">      1.00000000</i>
    <separator name="electronic mixer details" >
     <i type="int" name="IMIX">     4</i>
     <i type="logical" name="MIXFIRST"> F  </i>
     <i type="int" name="MAXMIX">   -45</i>
     <i name="WC">    100.00000000</i>
     <i type="int" name="INIMIX">     1</i>
     <i type="int" name="MIXPRE">     1</i>
     <i type="int" name="MREMOVE">     5</i>
    </separator>
   </separator>
   <separator name="electronic dipolcorrection" >
    <i type="logical" name="LDIPOL"> F  </i>
    <i type="logical" name="LMONO"> F  </i>
    <i type="int" name="IDIPOL">     0</i>
    <i name="EPSILON">      1.00000000</i>
    <v name="DIPOL">   -100.00000000   -100.00000000   -100.00000000</v>
    <i name="EFIELD">      0.00000000</i>
    <i type="logical" name="LVACPOTAV"> F  </i>
   </separator>
  </separator>
  <separator name="grids" >
   <i type="int" name="NGX">   210</i>
   <i type="int" name="NGY">    60</i>
   <i type="int" name="NGZ">   250</i>
   <i type="int" name="NGXF">   420</i>
   <i type="int" name="NGYF">   120</i>
   <i type="int" name="NGZF">   500</i>
   <i type="logical" name="ADDGRID"> F  </i>
  </separator>
  <separator name="ionic" >
   <i type="int" name="NSW">     0</i>
   <i type="int" name="IBRION">    -1</i>
   <i type="int" name="MDALGO">     0</i>
   <i type="int" name="ISIF">     2</i>
   <i name="PSTRESS">      0.00000000</i>
   <i name="EDIFFG">      0.00001000</i>
   <i type="int" name="NFREE">     0</i>
   <i name="POTIM">      0.50000000</i>
   <i name="SMASS">     -3.00000000</i>
   <i name="SCALEE">      1.00000000</i>
  </separator>
  <separator name="ionic md" >
   <i name="TEBEG">      0.00010000</i>
   <i name="TEEND">      0.00010000</i>
   <i type="int" name="NBLOCK">     1</i>
   <i type="int" name="KBLOCK">     1</i>
   <i type="int" name="NPACO">   256</i>
   <i name="APACO">     10.00000000</i>
  </separator>
  <separator name="symmetry" >
   <i type="int" name="ISYM">     2</i>
   <i name="SYMPREC">      0.00001000</i>
  </separator>
  <separator name="dos" >
   <i type="int" name="LORBIT">     0</i>
   <v name="RWIGS">     -1.00000000</v>
   <i type="int" name="NEDOS">   301</i>
   <i name="EMIN">     10.00000000</i>
   <i name="EMAX">    -10.00000000</i>
   <i name="EFERMI">      0.00000000</i>
  </separator>
  <separator name="writing" >
   <i type="int" name="NWRITE">     2</i>
   <i type="logical" name="LWAVE"> F  </i>
   <i type="logical" name="LDOWNSAMPLE"> F  </i>
   <i type="logical" name="LCHARG"> F  </i>
   <i type="logical" name="LPARD"> F  </i>
   <i type="logical" name="LVTOT"> F  </i>
   <i type="logical" name="LVHAR"> F  </i>
   <i type="logical" name="LELF"> F  </i>
   <i type="logical" name="LOPTICS"> F  </i>
   <v name="STM">      0.00000000      0.00000000      0.00000000      0.00000000      0.00000000      0.00000000      0.00000000</v>
  </separator>
  <separator name="performance" >
   <i type="int" name="NPAR">     2</i>
   <i type="int" name="NSIM">     4</i>
   <i type="int" name="NBLK">    -1</i>
   <i type="logical" name="LPLANE"> T  </i>
   <i type="logical" name="LSCALAPACK"> T  </i>
   <i type="logical" name="LSCAAWARE"> F  </i>
   <i type="logical" name="LSCALU"> F  </i>
   <i type="logical" name="LASYNC"> F  </i>
   <i type="logical" name="LORBITALREAL"> F  </i>
  </separator>
  <separator name="miscellaneous" >
   <i type="int" name="IDIOT">     3</i>
   <i type="int" name="PHON_NSTRUCT">    -1</i>
   <i type="logical" name="LMUSIC"> F  </i>
   <v name="POMASS">     12.01100000</v>
   <v name="DARWINR">      0.00000000</v>
   <v name="DARWINV">      1.00000000</v>
   <i type="logical" name="LCORR"> T  </i>
  </separator>
  <i type="logical" name="GGA_COMPAT"> T  </i>
  <i type="logical" name="LBERRY"> F  </i>
  <i type="int" name="ICORELEVEL">     0</i>
  <i type="logical" name="LDAU"> F  </i>
  <i type="int" name="I_CONSTRAINED_M">     0</i>
  <separator name="electronic exchange-correlation" >
   <i type="string" name="GGA    ">PE</i>
   <i type="string" name="XC_C">1</i>
   <i type="int" name="VOSKOWN">     0</i>
   <i type="logical" name="LHFCALC"> F  </i>
   <i type="string" name="PRECFOCK"></i>
   <i type="logical" name="LSYMGRAD"> F  </i>
   <i type="logical" name="LHFONE"> F  </i>
   <i type="logical" name="LRHFCALC"> F  </i>
   <i type="logical" name="LTHOMAS"> F  </i>
   <i type="logical" name="LMODELHF"> F  </i>
   <i type="logical" name="LFOCKACE"> F  </i>
   <i name="ENCUT4O">     -1.00000000</i>
   <i type="int" name="EXXOEP">     0</i>
   <i type="int" name="FOURORBIT">     0</i>
   <i name="AEXX">      0.00000000</i>
   <i name="HFALPHA">      0.00000000</i>
   <i name="MCALPHA">      0.00000000</i>
   <i name="ALDAX">      1.00000000</i>
   <i name="AGGAX">      1.00000000</i>
   <i name="AMGGAX">      1.00000000</i>
   <i name="ALDAC">      1.00000000</i>
   <i name="AGGAC">      1.00000000</i>
   <i name="AMGGAC">      1.00000000</i>
   <i type="int" name="NKREDX">     1</i>
   <i type="int" name="NKREDY">     1</i>
   <i type="int" name="NKREDZ">     1</i>
   <i type="logical" name="SHIFTRED"> F  </i>
   <i type="logical" name="ODDONLY"> F  </i>
   <i type="logical" name="EVENONLY"> F  </i>
   <i type="int" name="LMAXFOCK">     0</i>
   <i type="int" name="NMAXFOCKAE">     0</i>
   <i type="logical" name="LFOCKAEDFT"> F  </i>
   <i name="HFSCREEN">      0.00000000</i>
   <i name="HFSCREENC">      0.00000000</i>
   <i type="int" name="NBANDSGWLOW">     0</i>
  </separator>
  <separator name="vdW DFT" >
   <i type="logical" name="LUSE_VDW"> F  </i>
   <i type="int" name="IVDW_NL">    -1</i>
   <i type="logical" name="LSPIN_VDW"> F  </i>
   <i name="ZAB_VDW">     -0.84910000</i>
   <i name="GAMMA_VDW">      1.39626340</i>
   <i name="ALPHA_VDW">      0.00000000</i>
   <i name="PARAM1">      0.12340000</i>
   <i name="PARAM2">      1.00000000</i>
   <i name="BPARAM">      6.30000000</i>
   <i name="CPARAM">      0.00930000</i>
  </separator>
  <separator name="model GW" >
   <i type="int" name="MODEL_GW">     0</i>
   <i name="MODEL_EPS0">     49.63935326</i>
   <i name="MODEL_ALPHA">      1.00000000</i>
  </separator>
  <separator name="linear response parameters" >
   <i type="logical" name="LEPSILON"> F  </i>
   <i type="logical" name="LRPA"> F  </i>
   <i type="logical" name="LNABLA"> F  </i>
   <i type="logical" name="LVEL"> F  </i>
   <i name="CSHIFT">      0.10000000</i>
   <i name="OMEGAMAX">     -1.00000000</i>
   <i name="DEG_THRESHOLD">      0.00200000</i>
   <i name="RTIME">     -0.10000000</i>
   <i name="WPLASMAI">      0.00000000</i>
   <v name="DFIELD">      0.00000000      0.00000000      0.00000000</v>
   <v name="WPLASMA">      0.00000000      0.00000000      0.00000000      0.00000000      0.00000000      0.00000000      0.00000000      0.00000000      0.00000000</v>
  </separator>
  <separator name="orbital magnetization" >
   <i type="logical" name="NUCIND"> F  </i>
   <v name="MAGPOS">      0.00000000      0.00000000      0.00000000</v>
   <i type="logical" name="LNICSALL"> T  </i>
   <i type="logical" name="ORBITALMAG"> F  </i>
   <i type="logical" name="LMAGBLOCH"> F  </i>
   <i type="logical" name="LCHIMAG"> F  </i>
   <i type="logical" name="LGAUGE"> T  </i>
   <i type="int" name="MAGATOM">     0</i>
   <v name="MAGDIPOL">      0.00000000      0.00000000      0.00000000</v>
   <v name="AVECCONST">      0.00000000      0.00000000      0.00000000</v>
  </separator>
  <separator name="response functions" >
   <i type="logical" name="LALL_IN_ONE"> F  </i>
   <i type="int" name="IALL_IN_ONE">    -1</i>
   <i type="int" name="NBANDS_WAVE">    -1</i>
   <i type="logical" name="LFINITE_TEMPERATURE"> F  </i>
   <i type="logical" name="LADDER"> F  </i>
   <i type="logical" name="LRPAFORCE"> F  </i>
   <i type="logical" name="LFXC"> F  </i>
   <i type="logical" name="LHARTREE"> T  </i>
   <i type="int" name="IBSE">     2</i>
   <v type="int" name="KPOINT">    -1     0     0     0</v>
   <i type="logical" name="LTCTC"> F  </i>
   <i type="logical" name="LTCTE"> F  </i>
   <i type="logical" name="LTETE"> F  </i>
   <i type="logical" name="LTRIPLET"> F  </i>
   <i type="logical" name="LFXCEPS"> F  </i>
   <i type="logical" name="LFXHEG"> F  </i>
   <i type="int" name="NATURALO">     2</i>
   <i type="logical" name="LHOLEGF"> F  </i>
   <i type="logical" name="L2ORDER"> F  </i>
   <i type="logical" name="LDMP1"> F  </i>
   <i type="logical" name="LMP2LT"> F  </i>
   <i type="logical" name="LSMP2LT"> F  </i>
   <i type="logical" name="LGWLF"> F  </i>
   <i name="ENCUTGW">     -1.60000002</i>
   <i name="ENCUTGWSOFT">     -1.60000002</i>
   <i name="ENCUTLF">     -1.00000000</i>
   <i type="logical" name="ESF_SPLINES"> F  </i>
   <i name="ESF_CONV">      0.01000000</i>
   <i type="int" name="ESF_NINTER">    15</i>
   <i type="int" name="LMAXMP2">    -1</i>
   <i name="SCISSOR">      0.00000000</i>
   <i type="int" name="NOMEGA">     0</i>
   <i type="int" name="NOMEGAR">     0</i>
   <i type="int" name="NBANDSGW">    -1</i>
   <i type="int" name="NBANDSO">    -1</i>
   <i type="int" name="NBANDSV">    -1</i>
   <i type="int" name="NELMGW">     1</i>
   <i type="int" name="NELMHF">     1</i>
   <i type="int" name="DIM">     3</i>
   <i type="int" name="IESPILON">     4</i>
   <i type="int" name="ANTIRES">     0</i>
   <i name="OMEGAMAX">    -30.00000000</i>
   <i name="OMEGAMIN">    -30.00000000</i>
   <i name="OMEGATL">   -200.00000000</i>
   <i type="int" name="OMEGAGRID">     0</i>
   <i name="CSHIFT">     -0.10000000</i>
   <i type="logical" name="LSELFENERGY"> F  </i>
   <i type="logical" name="LSPECTRAL"> F  </i>
   <i type="logical" name="LSPECTRALGW"> F  </i>
   <i type="logical" name="LSINGLES"> F  </i>
   <i type="logical" name="LFERMIGW"> F  </i>
   <i type="logical" name="ODDONLYGW"> F  </i>
   <i type="logical" name="EVENONLYGW"> F  </i>
   <i type="int" name="NKREDLFX">     1</i>
   <i type="int" name="NKREDLFY">     1</i>
   <i type="int" name="NKREDLFZ">     1</i>
   <i type="int" name="MAXMEM">  2800</i>
   <i type="int" name="TELESCOPE">     0</i>
   <i type="int" name="NTAUPAR">    -1</i>
   <i type="int" name="NOMEGAPAR">    -1</i>
   <i name="DAMP_NEWTON">      0.80000001</i>
   <i name="LAMBDA">      1.00000000</i>
  </separator>
  <separator name="External order field" >
   <i name="OFIELD_KAPPA">      0.00000000</i>
   <v name="OFIELD_K">      0.00000000      0.00000000      0.00000000</v>
   <i name="OFIELD_Q6_NEAR">      0.00000000</i>
   <i name="OFIELD_Q6_FAR">      0.00000000</i>
   <i name="OFIELD_A">      0.00000000</i>
  </separator>
  <separator name="optional k-points parameters" >
   <i type="int" name="KPOINTS_OPT_MODE">     1</i>
   <i type="logical" name="LKPOINTS_OPT"> F  </i>
  </separator>
 </parameters>
 <atominfo>
  <atoms>      92 </atoms>
  <types>       1 </types>
  <array name="atoms" >
   <dimension dim="1">ion</dimension>
   <field type="string">element</field>
   <field type="int">atomtype</field>
   <set>
    <rc><c>C </c><c>   1</c></rc>
    <rc><c>C </c><c>   1</c></rc>
    <rc><c>C </c><c>   1</c></rc>
    <rc><c>C </c><c>   1</c></rc>
    <rc><c>C </c><c>   1</c></rc>
    <rc><c>C </c><c>   1</c></rc>
    <rc><c>C </c><c>   1</c></rc>
    <rc><c>C </c><c>   1</c></rc>
    <rc><c>C </c><c>   1</c></rc>
    <rc><c>C </c><c>   1</c></rc>
    <rc><c>C </c><c>   1</c></rc>
    <rc><c>C </c><c>   1</c></rc>
    <rc><c>C </c><c>   1</c></rc>
    <rc><c>C </c><c>   1</c></rc>
    <rc><c>C </c><c>   1</c></rc>
    <rc><c>C </c><c>   1</c></rc>
    <rc><c>C </c><c>   1</c></rc>
    <rc><c>C </c><c>   1</c></rc>
    <rc><c>C </c><c>   1</c></rc>
    <rc><c>C </c><c>   1</c></rc>
    <rc><c>C </c><c>   1</c></rc>
    <rc><c>C </c><c>   1</c></rc>
    <rc><c>C </c><c>   1</c></rc>
    <rc><c>C </c><c>   1</c></rc>
    <rc><c>C </c><c>   1</c></rc>
    <rc><c>C </c><c>   1</c></rc>
    <rc><c>C </c><c>   1</c></rc>
    <rc><c>C </c><c>   1</c></rc>
    <rc><c>C </c><c>   1</c></rc>
    <rc><c>C </c><c>   1</c></rc>
    <rc><c>C </c><c>   1</c></rc>
    <rc><c>C </c><c>   1</c></rc>
    <rc><c>C </c><c>   1</c></rc>
    <rc><c>C </c><c>   1</c></rc>
    <rc><c>C </c><c>   1</c></rc>
    <rc><c>C </c><c>   1</c></rc>
    <rc><c>C </c><c>   1</c></rc>
    <rc><c>C </c><c>   1</c></rc>
    <rc><c>C </c><c>   1</c></rc>
    <rc><c>C </c><c>   1</c></rc>
    <rc><c>C </c><c>   1</c></rc>
    <rc><c>C </c><c>   1</c></rc>
    <rc><c>C </c><c>   1</c></rc>
    <rc><c>C </c><c>   1</c></rc>
    <rc><c>C </c><c>   1</c></rc>
    <rc><c>C </c><c>   1</c></rc>
    <rc><c>C </c><c>   1</c></rc>
    <rc><c>C </c><c>   1</c></rc>
    <rc><c>C </c><c>   1</c></rc>
    <rc><c>C </c><c>   1</c></rc>
    <rc><c>C </c><c>   1</c></rc>
    <rc><c>C </c><c>   1</c></rc>
    <rc><c>C </c><c>   1</c></rc>
    <rc><c>C </c><c>   1</c></rc>
    <rc><c>C </c><c>   1</c></rc>
    <rc><c>C </c><c>   1</c></rc>
    <rc><c>C </c><c>   1</c></rc>
    <rc><c>C </c><c>   1</c></rc>
    <rc><c>C </c><c>   1</c></rc>
    <rc><c>C </c><c>   1</c></rc>
    <rc><c>C </c><c>   1</c></rc>
    <rc><c>C </c><c>   1</c></rc>
    <rc><c>C </c><c>   1</c></rc>
    <rc><c>C </c><c>   1</c></rc>
    <rc><c>C </c><c>   1</c></rc>
    <rc><c>C </c><c>   1</c></rc>
    <rc><c>C </c><c>   1</c></rc>
    <rc><c>C </c><c>   1</c></rc>
    <rc><c>C </c><c>   1</c></rc>
    <rc><c>C </c><c>   1</c></rc>
    <rc><c>C </c><c>   1</c></rc>
    <rc><c>C </c><c>   1</c></rc>
    <rc><c>C </c><c>   1</c></rc>
    <rc><c>C </c><c>   1</c></rc>
    <rc><c>C </c><c>   1</c></rc>
    <rc><c>C </c><c>   1</c></rc>
    <rc><c>C </c><c>   1</c></rc>
    <rc><c>C </c><c>   1</c></rc>
    <rc><c>C </c><c>   1</c></rc>
    <rc><c>C </c><c>   1</c></rc>
    <rc><c>C </c><c>   1</c></rc>
    <rc><c>C </c><c>   1</c></rc>
    <rc><c>C </c><c>   1</c></rc>
    <rc><c>C </c><c>   1</c></rc>
    <rc><c>C </c><c>   1</c></rc>
    <rc><c>C </c><c>   1</c></rc>
    <rc><c>C </c><c>   1</c></rc>
    <rc><c>C </c><c>   1</c></rc>
    <rc><c>C </c><c>   1</c></rc>
    <rc><c>C </c><c>   1</c></rc>
    <rc><c>C </c><c>   1</c></rc>
    <rc><c>C </c><c>   1</c></rc>
   </set>
  </array>
  <array name="atomtypes" >
   <dimension dim="1">type</dimension>
   <field type="int">atomspertype</field>
   <field type="string">element</field>
   <field>mass</field>
   <field>valence</field>
   <field type="string">pseudopotential</field>
   <set>
    <rc><c>  92</c><c>C </c><c>     12.01100000</c><c>      4.00000000</c><c>  PAW_PBE C 08Apr2002                   </c></rc>
   </set>
  </array>
 </atominfo>
 <structure name="initialpos" >
  <crystal>
   <varray name="basis" >
    <v>      28.05000000       0.00000000       0.00000000 </v>
    <v>       0.00000000       8.10000000       0.00000000 </v>
    <v>       0.00000000       0.00000000      33.50000000 </v>
   </varray>
   <i name="volume">   7611.36750000 </i>
   <varray name="rec_basis" >
    <v>       0.03565062       0.00000000       0.00000000 </v>
    <v>       0.00000000       0.12345679       0.00000000 </v>
    <v>       0.00000000       0.00000000       0.02985075 </v>
   </varray>
  </crystal>
  <varray name="positions" >
   <v>       0.72154367       0.30201975       0.07731343 </v>
   <v>       0.72224242       0.47608519       0.07731343 </v>
   <v>       0.76564706       0.22313210       0.07701493 </v>
   <v>       0.76614260       0.55924198       0.07940299 </v>
   <v>       0.80936898       0.30689383       0.08537313 </v>
   <v>       0.81007843       0.47723580       0.08716418 </v>
   <v>       0.85431373       0.22540617       0.08507463 </v>
   <v>       0.85524421       0.55956667       0.08716418 </v>
   <v>       0.89890909       0.30878148       0.08388060 </v>
   <v>       0.89920499       0.47924074       0.08477612 </v>
   <v>       0.94324421       0.22843827       0.07373134 </v>
   <v>       0.94292692       0.56323827       0.07701493 </v>
   <v>       0.98726203       0.31152963       0.06895522 </v>
   <v>       0.98712656       0.48104568       0.06985075 </v>
   <v>       0.02897433       0.22807654       0.05671642 </v>
   <v>       0.02867326       0.56527901       0.05611940 </v>
   <v>       0.07186025       0.31229630       0.04865672 </v>
   <v>       0.07144029       0.48373457       0.04895522 </v>
   <v>       0.11327522       0.23109012       0.03432836 </v>
   <v>       0.11243708       0.56375432       0.03402985 </v>
   <v>       0.15692157       0.31300617       0.02567164 </v>
   <v>       0.15710766       0.48051111       0.02597015 </v>
   <v>       0.19880784       0.22957531       0.01462687 </v>
   <v>       0.19828520       0.56351481       0.01253731 </v>
   <v>       0.24175365       0.31188395       0.01223881 </v>
   <v>       0.24271693       0.48158025       0.01134328 </v>
   <v>       0.28640642       0.22990000       0.00626866 </v>
   <v>       0.28628913       0.56738642       0.00298507 </v>
   <v>       0.33074724       0.31256543       0.00716418 </v>
   <v>       0.32991159       0.48068148       0.00388060 </v>
   <v>       0.37472727       0.22665185       0.00208955 </v>
   <v>       0.37482709       0.56392963       0.00059701 </v>
   <v>       0.41840285       0.31133704       0.00746269 </v>
   <v>       0.41799643       0.48357531       0.00686567 </v>
   <v>       0.46253119       0.22804444       0.00925373 </v>
   <v>       0.46151872       0.56413210       0.00985075 </v>
   <v>       0.50455615       0.31128272       0.02089552 </v>
   <v>       0.50422816       0.48007037       0.02149254 </v>
   <v>       0.54855971       0.23092716       0.02716418 </v>
   <v>       0.54694831       0.56360864       0.02835821 </v>
   <v>       0.58946881       0.31204938       0.04358209 </v>
   <v>       0.58867736       0.48218519       0.04328358 </v>
   <v>       0.63175401       0.22760617       0.05014925 </v>
   <v>       0.63206774       0.56485062       0.04895522 </v>
   <v>       0.67045989       0.31071975       0.06597015 </v>
   <v>       0.67214617       0.48238272       0.06597015 </v>
   <v>       0.72496257       0.80500617       0.05671642 </v>
   <v>       0.72643494       0.97582222       0.05611940 </v>
   <v>       0.76709804       0.72127531       0.06865672 </v>
   <v>       0.76765419       0.06013790       0.06626866 </v>
   <v>       0.81096257       0.80796914       0.07014925 </v>
   <v>       0.81131551       0.97783951       0.06895522 </v>
   <v>       0.85374688       0.72501728       0.07820896 </v>
   <v>       0.85411408       0.06098284       0.07552239 </v>
   <v>       0.89735116       0.80929383       0.07283582 </v>
   <v>       0.89736898       0.97885679       0.07253731 </v>
   <v>       0.94129055       0.72861975       0.06865672 </v>
   <v>       0.94086631       0.06293741       0.06656716 </v>
   <v>       0.98340107       0.81258272       0.05522388 </v>
   <v>       0.98366845       0.98036543       0.05552239 </v>
   <v>       0.02584064       0.72933457       0.04686567 </v>
   <v>       0.02652064       0.06314975       0.04776119 </v>
   <v>       0.06765847       0.81356173       0.03223881 </v>
   <v>       0.06795722       0.98122346       0.03194030 </v>
   <v>       0.11054581       0.72825802       0.02388060 </v>
   <v>       0.11150410       0.06592173       0.02567164 </v>
   <v>       0.15291551       0.81209753       0.01104478 </v>
   <v>       0.15303672       0.98284938       0.01223881 </v>
   <v>       0.19640749       0.73184938       0.00477612 </v>
   <v>       0.19691408       0.06218914       0.00805970 </v>
   <v>       0.24013904       0.81182963       0.99671642 </v>
   <v>       0.23997540       0.98207531       0.99731343 </v>
   <v>       0.28598146       0.73023827       0.99522388 </v>
   <v>       0.28571693       0.06750667       0.99582090 </v>
   <v>       0.33008948       0.81576173       0.98985075 </v>
   <v>       0.33010766       0.98751235       0.98955224 </v>
   <v>       0.37421390       0.73156296       0.99253731 </v>
   <v>       0.37501961       0.06286000       0.99253731 </v>
   <v>       0.41939037       0.81202222       0.99223881 </v>
   <v>       0.41885918       0.98017037       0.99194030 </v>
   <v>       0.46283779       0.73025309       0.00208955 </v>
   <v>       0.46385740       0.06292951       0.99940299 </v>
   <v>       0.50768627       0.80926667       0.00388060 </v>
   <v>       0.50708378       0.98189012       0.00537313 </v>
   <v>       0.54997504       0.72874444       0.01731343 </v>
   <v>       0.55020321       0.06473086       0.01761194 </v>
   <v>       0.59248485       0.81287284       0.02507463 </v>
   <v>       0.59357576       0.98288148       0.02447761 </v>
   <v>       0.63341889       0.72623827       0.03761194 </v>
   <v>       0.63389661       0.06615420       0.03940299 </v>
   <v>       0.67552941       0.80530370       0.04447761 </v>
   <v>       0.67578966       0.97726543       0.04507463 </v>
  </varray>
 </structure>
 <calculation>
  <scstep>
   <time name="dav">   10.95   10.96</time>
   <time name="total">   11.42   11.44</time>
   <energy>
    <i name="alphaZ">     91.34886789 </i>
    <i name="ewald"> 120370.77503250 </i>
    <i name="hartreedc">-129684.52722764 </i>
    <i name="XCdc">   1222.28161818 </i>
    <i name="pawpsdc">   9984.02826696 </i>
    <i name="pawaedc"> -10036.41360137 </i>
    <i name="eentropy">     -0.82143968 </i>
    <i name="bandstr">  -1736.82716824 </i>
    <i name="atom">  13537.65479391 </i>
    <i name="e_fr_energy">   3747.49914252 </i>
    <i name="e_wo_entrp">   3748.32058220 </i>
    <i name="e_0_energy">   3747.90986236 </i>
   </energy>
  </scstep>
  <scstep>
   <time name="dav">   13.08   13.09</time>
   <time name="total">   13.09   13.09</time>
   <energy>
    <i name="e_fr_energy">    185.17139406 </i>
    <i name="e_wo_entrp">    185.36256729 </i>
    <i name="e_0_energy">    185.26698067 </i>
   </energy>
  </scstep>
  <scstep>
   <time name="dav">   11.28   11.28</time>
   <time name="total">   11.28   11.28</time>
   <energy>
    <i name="e_fr_energy">   -839.13437191 </i>
    <i name="e_wo_entrp">   -839.10071407 </i>
    <i name="e_0_energy">   -839.11754299 </i>
   </energy>
  </scstep>
  <scstep>
   <time name="dav">   10.86   10.86</time>
   <time name="total">   10.86   10.86</time>
   <energy>
    <i name="e_fr_energy">   -899.87571980 </i>
    <i name="e_wo_entrp">   -899.81347248 </i>
    <i name="e_0_energy">   -899.84459614 </i>
   </energy>
  </scstep>
  <scstep>
   <time name="dav">   11.41   11.41</time>
   <time name="total">   12.89   12.90</time>
   <energy>
    <i name="e_fr_energy">   -901.33192832 </i>
    <i name="e_wo_entrp">   -901.26885468 </i>
    <i name="e_0_energy">   -901.30039150 </i>
   </energy>
  </scstep>
  <scstep>
   <time name="dav">   10.26   10.26</time>
   <time name="total">   12.06   12.07</time>
   <energy>
    <i name="e_fr_energy">   -851.48288000 </i>
    <i name="e_wo_entrp">   -851.41052761 </i>
    <i name="e_0_energy">   -851.44670380 </i>
   </energy>
  </scstep>
  <scstep>
   <time name="dav">   10.18   10.18</time>
   <time name="total">   11.97   11.98</time>
   <energy>
    <i name="e_fr_energy">   -832.86687092 </i>
    <i name="e_wo_entrp">   -832.78450988 </i>
    <i name="e_0_energy">   -832.82569040 </i>
   </energy>
  </scstep>
  <scstep>
   <time name="dav">   10.38   10.38</time>
   <time name="total">   12.17   12.18</time>
   <energy>
    <i name="e_fr_energy">   -832.56771942 </i>
    <i name="e_wo_entrp">   -832.49007960 </i>
    <i name="e_0_energy">   -832.52889951 </i>
   </energy>
  </scstep>
  <scstep>
   <time name="dav">   10.62   10.62</time>
   <time name="total">   12.42   12.42</time>
   <energy>
    <i name="e_fr_energy">   -832.47027848 </i>
    <i name="e_wo_entrp">   -832.39120030 </i>
    <i name="e_0_energy">   -832.43073939 </i>
   </energy>
  </scstep>
  <scstep>
   <time name="dav">   10.96   10.96</time>
   <time name="total">   12.77   12.77</time>
   <energy>
    <i name="e_fr_energy">   -832.42848283 </i>
    <i name="e_wo_entrp">   -832.34944449 </i>
    <i name="e_0_energy">   -832.38896366 </i>
   </energy>
  </scstep>
  <scstep>
   <time name="dav">   10.04   10.04</time>
   <time name="total">   11.87   11.87</time>
   <energy>
    <i name="e_fr_energy">   -832.39776043 </i>
    <i name="e_wo_entrp">   -832.31880405 </i>
    <i name="e_0_energy">   -832.35828224 </i>
   </energy>
  </scstep>
  <scstep>
   <time name="dav">    9.87    9.88</time>
   <time name="total">   11.70   11.70</time>
   <energy>
    <i name="e_fr_energy">   -832.39684841 </i>
    <i name="e_wo_entrp">   -832.31757877 </i>
    <i name="e_0_energy">   -832.35721359 </i>
   </energy>
  </scstep>
  <scstep>
   <time name="dav">    9.95    9.96</time>
   <time name="total">   11.78   11.79</time>
   <energy>
    <i name="e_fr_energy">   -832.40966887 </i>
    <i name="e_wo_entrp">   -832.33062261 </i>
    <i name="e_0_energy">   -832.37014574 </i>
   </energy>
  </scstep>
  <scstep>
   <time name="dav">   10.03   10.03</time>
   <time name="total">   11.86   11.87</time>
   <energy>
    <i name="e_fr_energy">   -832.42555921 </i>
    <i name="e_wo_entrp">   -832.34645105 </i>
    <i name="e_0_energy">   -832.38600513 </i>
   </energy>
  </scstep>
  <scstep>
   <time name="dav">    9.97    9.98</time>
   <time name="total">   11.82   11.83</time>
   <energy>
    <i name="e_fr_energy">   -832.44627452 </i>
    <i name="e_wo_entrp">   -832.36707044 </i>
    <i name="e_0_energy">   -832.40667248 </i>
   </energy>
  </scstep>
  <scstep>
   <time name="dav">   10.06   10.07</time>
   <time name="total">   11.94   11.94</time>
   <energy>
    <i name="e_fr_energy">   -832.45600482 </i>
    <i name="e_wo_entrp">   -832.37685071 </i>
    <i name="e_0_energy">   -832.41642777 </i>
   </energy>
  </scstep>
  <scstep>
   <time name="dav">   10.25   10.25</time>
   <time name="total">   12.12   12.12</time>
   <energy>
    <i name="e_fr_energy">   -832.46003168 </i>
    <i name="e_wo_entrp">   -832.38086810 </i>
    <i name="e_0_energy">   -832.42044989 </i>
   </energy>
  </scstep>
  <scstep>
   <time name="dav">    9.92    9.93</time>
   <time name="total">   11.80   11.81</time>
   <energy>
    <i name="e_fr_energy">   -832.46235944 </i>
    <i name="e_wo_entrp">   -832.38320099 </i>
    <i name="e_0_energy">   -832.42278022 </i>
   </energy>
  </scstep>
  <scstep>
   <time name="dav">    9.06    9.07</time>
   <time name="total">   10.96   10.96</time>
   <energy>
    <i name="e_fr_energy">   -832.46325595 </i>
    <i name="e_wo_entrp">   -832.38409661 </i>
    <i name="e_0_energy">   -832.42367628 </i>
   </energy>
  </scstep>
  <scstep>
   <time name="dav">    8.83    8.83</time>
   <time name="total">   10.73   10.74</time>
   <energy>
    <i name="e_fr_energy">   -832.46366482 </i>
    <i name="e_wo_entrp">   -832.38450293 </i>
    <i name="e_0_energy">   -832.42408387 </i>
   </energy>
  </scstep>
  <scstep>
   <time name="dav">    8.47    8.47</time>
   <time name="total">   10.40   10.40</time>
   <energy>
    <i name="e_fr_energy">   -832.46384998 </i>
    <i name="e_wo_entrp">   -832.38468854 </i>
    <i name="e_0_energy">   -832.42426926 </i>
   </energy>
  </scstep>
  <scstep>
   <time name="dav">    7.34    7.34</time>
   <time name="total">    9.27    9.28</time>
   <energy>
    <i name="e_fr_energy">   -832.46389540 </i>
    <i name="e_wo_entrp">   -832.38473349 </i>
    <i name="e_0_energy">   -832.42431445 </i>
   </energy>
  </scstep>
  <scstep>
   <time name="dav">    6.85    6.85</time>
   <time name="total">    8.79    8.80</time>
   <energy>
    <i name="e_fr_energy">   -832.46392293 </i>
    <i name="e_wo_entrp">   -832.38476106 </i>
    <i name="e_0_energy">   -832.42434200 </i>
   </energy>
  </scstep>
  <scstep>
   <time name="dav">    7.02    7.02</time>
   <time name="total">    8.97    8.98</time>
   <energy>
    <i name="e_fr_energy">   -832.46393098 </i>
    <i name="e_wo_entrp">   -832.38476936 </i>
    <i name="e_0_energy">   -832.42435017 </i>
   </energy>
  </scstep>
  <scstep>
   <time name="dav">    6.73    6.73</time>
   <time name="total">    8.70    8.70</time>
   <energy>
    <i name="e_fr_energy">   -832.46393549 </i>
    <i name="e_wo_entrp">   -832.38477385 </i>
    <i name="e_0_energy">   -832.42435467 </i>
   </energy>
  </scstep>
  <scstep>
   <time name="dav">    6.86    6.86</time>
   <time name="total">    8.86    8.86</time>
   <energy>
    <i name="e_fr_energy">   -832.46393752 </i>
    <i name="e_wo_entrp">   -832.38477593 </i>
    <i name="e_0_energy">   -832.42435672 </i>
   </energy>
  </scstep>
  <scstep>
   <time name="dav">    6.94    6.94</time>
   <time name="total">    8.95    8.95</time>
   <energy>
    <i name="e_fr_energy">   -832.46393940 </i>
    <i name="e_wo_entrp">   -832.38477776 </i>
    <i name="e_0_energy">   -832.42435858 </i>
   </energy>
  </scstep>
  <scstep>
   <time name="dav">    6.82    6.83</time>
   <time name="total">    7.19    7.19</time>
   <energy>
    <i name="alphaZ">     91.34886789 </i>
    <i name="ewald"> 120370.77503250 </i>
    <i name="hartreedc">-131455.40709517 </i>
    <i name="XCdc">   1279.89227785 </i>
    <i name="pawpsdc">  41334.06977765 </i>
    <i name="pawaedc"> -41398.20875325 </i>
    <i name="eentropy">     -0.07916168 </i>
    <i name="bandstr">  -4592.50967987 </i>
    <i name="atom">  13537.65479391 </i>
    <i name="e_fr_energy">   -832.46394017 </i>
    <i name="e_wo_entrp">   -832.38477849 </i>
    <i name="e_0_energy">   -832.42435933 </i>
   </energy>
  </scstep>
  <structure>
   <crystal>
    <varray name="basis" >
     <v>      28.05000000       0.00000000       0.00000000 </v>
     <v>       0.00000000       8.10000000       0.00000000 </v>
     <v>       0.00000000       0.00000000      33.50000000 </v>
    </varray>
    <i name="volume">   7611.36750000 </i>
    <varray name="rec_basis" >
     <v>       0.03565062       0.00000000       0.00000000 </v>
     <v>       0.00000000       0.12345679       0.00000000 </v>
     <v>       0.00000000       0.00000000       0.02985075 </v>
    </varray>
   </crystal>
   <varray name="positions" >
    <v>       0.72154367       0.30201975       0.07731343 </v>
    <v>       0.72224242       0.47608519       0.07731343 </v>
    <v>       0.76564706       0.22313210       0.07701493 </v>
    <v>       0.76614260       0.55924198       0.07940299 </v>
    <v>       0.80936898       0.30689383       0.08537313 </v>
    <v>       0.81007843       0.47723580       0.08716418 </v>
    <v>       0.85431373       0.22540617       0.08507463 </v>
    <v>       0.85524421       0.55956667       0.08716418 </v>
    <v>       0.89890909       0.30878148       0.08388060 </v>
    <v>       0.89920499       0.47924074       0.08477612 </v>
    <v>       0.94324421       0.22843827       0.07373134 </v>
    <v>       0.94292692       0.56323827       0.07701493 </v>
    <v>       0.98726203       0.31152963       0.06895522 </v>
    <v>       0.98712656       0.48104568       0.06985075 </v>
    <v>       0.02897433       0.22807654       0.05671642 </v>
    <v>       0.02867326       0.56527901       0.05611940 </v>
    <v>       0.07186025       0.31229630       0.04865672 </v>
    <v>       0.07144029       0.48373457       0.04895522 </v>
    <v>       0.11327522       0.23109012       0.03432836 </v>
    <v>       0.11243708       0.56375432       0.03402985 </v>
    <v>       0.15692157       0.31300617       0.02567164 </v>
    <v>       0.15710766       0.48051111       0.02597015 </v>
    <v>       0.19880784       0.22957531       0.01462687 </v>
    <v>       0.19828520       0.56351481       0.01253731 </v>
    <v>       0.24175365       0.31188395       0.01223881 </v>
    <v>       0.24271693       0.48158025       0.01134328 </v>
    <v>       0.28640642       0.22990000       0.00626866 </v>
    <v>       0.28628913       0.56738642       0.00298507 </v>
    <v>       0.33074724       0.31256543       0.00716418 </v>
    <v>       0.32991159       0.48068148       0.00388060 </v>
    <v>       0.37472727       0.22665185       0.00208955 </v>
    <v>       0.37482709       0.56392963       0.00059701 </v>
    <v>       0.41840285       0.31133704       0.00746269 </v>
    <v>       0.41799643       0.48357531       0.00686567 </v>
    <v>       0.46253119       0.22804444       0.00925373 </v>
    <v>       0.46151872       0.56413210       0.00985075 </v>
    <v>       0.50455615       0.31128272       0.02089552 </v>
    <v>       0.50422816       0.48007037       0.02149254 </v>
    <v>       0.54855971       0.23092716       0.02716418 </v>
    <v>       0.54694831       0.56360864       0.02835821 </v>
    <v>       0.58946881       0.31204938       0.04358209 </v>
    <v>       0.58867736       0.48218519       0.04328358 </v>
    <v>       0.63175401       0.22760617       0.05014925 </v>
    <v>       0.63206774       0.56485062       0.04895522 </v>
    <v>       0.67045989       0.31071975       0.06597015 </v>
    <v>       0.67214617       0.48238272       0.06597015 </v>
    <v>       0.72496257       0.80500617       0.05671642 </v>
    <v>       0.72643494       0.97582222       0.05611940 </v>
    <v>       0.76709804       0.72127531       0.06865672 </v>
    <v>       0.76765419       0.06013790       0.06626866 </v>
    <v>       0.81096257       0.80796914       0.07014925 </v>
    <v>       0.81131551       0.97783951       0.06895522 </v>
    <v>       0.85374688       0.72501728       0.07820896 </v>
    <v>       0.85411408       0.06098284       0.07552239 </v>
    <v>       0.89735116       0.80929383       0.07283582 </v>
    <v>       0.89736898       0.97885679       0.07253731 </v>
    <v>       0.94129055       0.72861975       0.06865672 </v>
    <v>       0.94086631       0.06293741       0.06656716 </v>
    <v>       0.98340107       0.81258272       0.05522388 </v>
    <v>       0.98366845       0.98036543       0.05552239 </v>
    <v>       0.02584064       0.72933457       0.04686567 </v>
    <v>       0.02652064       0.06314975       0.04776119 </v>
    <v>       0.06765847       0.81356173       0.03223881 </v>
    <v>       0.06795722       0.98122346       0.03194030 </v>
    <v>       0.11054581       0.72825802       0.02388060 </v>
    <v>       0.11150410       0.06592173       0.02567164 </v>
    <v>       0.15291551       0.81209753       0.01104478 </v>
    <v>       0.15303672       0.98284938       0.01223881 </v>
    <v>       0.19640749       0.73184938       0.00477612 </v>
    <v>       0.19691408       0.06218914       0.00805970 </v>
    <v>       0.24013904       0.81182963       0.99671642 </v>
    <v>       0.23997540       0.98207531       0.99731343 </v>
    <v>       0.28598146       0.73023827       0.99522388 </v>
    <v>       0.28571693       0.06750667       0.99582090 </v>
    <v>       0.33008948       0.81576173       0.98985075 </v>
    <v>       0.33010766       0.98751235       0.98955224 </v>
    <v>       0.37421390       0.73156296       0.99253731 </v>
    <v>       0.37501961       0.06286000       0.99253731 </v>
    <v>       0.41939037       0.81202222       0.99223881 </v>
    <v>       0.41885918       0.98017037       0.99194030 </v>
    <v>       0.46283779       0.73025309       0.00208955 </v>
    <v>       0.46385740       0.06292951       0.99940299 </v>
    <v>       0.50768627       0.80926667       0.00388060 </v>
    <v>       0.50708378       0.98189012       0.00537313 </v>
    <v>       0.54997504       0.72874444       0.01731343 </v>
    <v>       0.55020321       0.06473086       0.01761194 </v>
    <v>       0.59248485       0.81287284       0.02507463 </v>
    <v>       0.59357576       0.98288148       0.02447761 </v>
    <v>       0.63341889       0.72623827       0.03761194 </v>
    <v>       0.63389661       0.06615420       0.03940299 </v>
    <v>       0.67552941       0.80530370       0.04447761 </v>
    <v>       0.67578966       0.97726543       0.04507463 </v>
   </varray>
  </structure>
  <varray name="forces" >
   <v>       1.42923775       1.63965085       0.27201600 </v>
   <v>       2.34962358      -0.64033822       0.75352593 </v>
   <v>      -0.54947623       0.77022081       0.25207918 </v>
   <v>      -0.87573321      -1.09736988       0.15143815 </v>
   <v>       0.20268638       0.15371319       0.36340893 </v>
   <v>      -0.08927352      -0.28373936       0.07449540 </v>
   <v>      -0.03906385       0.74678027      -0.79091309 </v>
   <v>      -1.35370932      -0.04022836      -0.56694186 </v>
   <v>       0.68635205      -0.28461247       0.00030996 </v>
   <v>       0.66091707      -0.17090317       0.57512040 </v>
   <v>      -1.12576258       0.85263060       0.50652216 </v>
   <v>       0.36690016      -0.81505208      -0.52215230 </v>
   <v>      -0.27446971      -0.43684614       0.13815169 </v>
   <v>      -0.21881884       0.67793113       0.04908260 </v>
   <v>       0.17319499       0.55665971      -0.22693169 </v>
   <v>      -0.77075533      -0.52137224       0.39883888 </v>
   <v>       0.39056173      -0.05430097       0.05457583 </v>
   <v>       0.89869568      -0.64666957      -0.40156423 </v>
   <v>       0.25478042       0.46465135      -0.06350721 </v>
   <v>       1.26923730      -0.31442816      -0.51475372 </v>
   <v>      -0.56591406      -0.86062148       0.52536958 </v>
   <v>      -1.19303859       1.45725476      -0.04793622 </v>
   <v>      -0.80870953      -0.05837079       0.42432458 </v>
   <v>       0.17082072       0.11466603       0.55871667 </v>
   <v>       2.07025453       0.09720650      -0.10789827 </v>
   <v>      -0.16973590       0.99861439      -0.56390244 </v>
   <v>      -0.53077078       0.71823393      -0.03986549 </v>
   <v>      -0.28225933      -2.49557429       0.53092302 </v>
   <v>      -0.16826528      -0.99893502      -0.61653698 </v>
   <v>       1.23902905       1.14897441       0.32497516 </v>
   <v>       0.12369080       1.75364928       0.44186679 </v>
   <v>      -1.61069571       0.12203509      -0.08817148 </v>
   <v>      -0.28865329       0.04102117      -0.13627368 </v>
   <v>      -0.06359517      -1.28602168       0.23106678 </v>
   <v>      -0.19716598       0.51058736      -0.11080950 </v>
   <v>       0.92766084      -0.26109340       0.39511021 </v>
   <v>       0.16965434      -0.67788542       0.01409480 </v>
   <v>      -0.91363906       1.05337799      -0.17850732 </v>
   <v>      -0.29225747      -0.14316572       0.30431631 </v>
   <v>       0.88459355       0.08481344      -0.01181952 </v>
   <v>      -1.75704294      -0.10083708      -0.92986305 </v>
   <v>      -0.49611938       0.01821145      -0.28336811 </v>
   <v>       0.63919551       1.03180579       0.75836928 </v>
   <v>       0.71716809      -1.31287524       1.05210494 </v>
   <v>      -0.64964732      -0.11058495      -0.08902862 </v>
   <v>      -2.61415700      -0.04948568      -0.84824929 </v>
   <v>       3.24646486      -0.43732876       0.56275448 </v>
   <v>       1.07071436      -0.23195632       0.14763485 </v>
   <v>      -1.19122283       1.79880257      -0.68526457 </v>
   <v>      -0.74108323      -0.55095065      -0.20536328 </v>
   <v>      -0.54261517      -0.61563628       0.30929287 </v>
   <v>      -0.33879227      -0.31400074      -0.00059058 </v>
   <v>       0.76508064       0.69591633      -0.12526278 </v>
   <v>       0.10739917      -0.13846942       0.36887183 </v>
   <v>       0.11988777      -0.13563505      -0.06069019 </v>
   <v>       0.69376696       0.04718419      -0.86407691 </v>
   <v>       0.48944938       0.55997088      -0.05435071 </v>
   <v>       0.70333493      -0.80031199       0.30703535 </v>
   <v>      -0.79850442      -1.22582316       0.38057840 </v>
   <v>      -0.76227318       0.79857503      -0.13562502 </v>
   <v>       0.93636347       0.94619405      -0.24614128 </v>
   <v>       0.71769167      -0.52417585      -0.52171590 </v>
   <v>      -0.55294646      -1.60854517      -0.00652100 </v>
   <v>      -0.64851211       1.47429178       0.83571334 </v>
   <v>       0.21291305       0.54564765       0.16050697 </v>
   <v>      -0.36254181      -0.78219769      -0.27488732 </v>
   <v>      -0.91912338      -0.09609364       0.07320312 </v>
   <v>      -0.44714029      -0.20123892       0.28551688 </v>
   <v>       0.57678325      -0.86272918       0.12624984 </v>
   <v>       0.83257754       0.11771852      -0.67823825 </v>
   <v>       0.77309629       0.12442167      -0.25638497 </v>
   <v>       1.07829388       0.46737599       0.12941998 </v>
   <v>      -0.83062542       2.02418013      -0.41457543 </v>
   <v>      -0.87034657      -1.21378278       0.13952758 </v>
   <v>      -0.39151384      -0.41234700      -0.11129139 </v>
   <v>      -0.48436801      -1.33047658       0.04038149 </v>
   <v>       0.51707603      -0.07981676       0.05507101 </v>
   <v>      -0.43546313       0.27032063       0.06173244 </v>
   <v>      -0.27641129      -0.77755242       0.27980129 </v>
   <v>       1.60985936       0.94761294      -0.09807404 </v>
   <v>       0.16190694       0.19478281      -0.84921029 </v>
   <v>      -1.26541230      -0.06543282       0.44688787 </v>
   <v>       0.15479473       0.59925277       0.86015122 </v>
   <v>       1.46690366      -0.42434259      -0.43982329 </v>
   <v>      -1.05752787      -0.10921058       0.07456979 </v>
   <v>      -0.76203665      -0.02649082      -0.13693164 </v>
   <v>       0.54494579      -0.33142905      -0.48626816 </v>
   <v>      -0.52632265      -0.10873428       0.12748717 </v>
   <v>       0.75859003       0.44742485       0.33217402 </v>
   <v>       1.37147388      -1.79923842      -0.21635723 </v>
   <v>      -1.17544584       1.65384016      -0.65393893 </v>
   <v>      -1.25466409       0.13905587      -0.59478782 </v>
  </varray>
  <varray name="stress" >
   <v>       2.12477332      -0.47323854       0.40435889 </v>
   <v>      -0.47323854      50.04128817       0.39548287 </v>
   <v>       0.40435890       0.39548286      -0.33329308 </v>
  </varray>
  <energy>
   <i name="e_fr_energy">   -832.46394017 </i>
   <i name="e_wo_entrp">   -832.38477849 </i>
   <i name="e_0_energy">   -832.42435933 </i>
  </energy>
  <time name="totalsc">  320.15  320.32</time>
  <eigenvalues>
   <array>
    <dimension dim="1">band</dimension>
    <dimension dim="2">kpoint</dimension>
    <dimension dim="3">spin</dimension>
    <field>eigene</field>
    <field>occ</field>
    <set>
     <set comment="spin 1">
      <set comment="kpoint 1">
       <r>  -23.1961    1.0000 </r>
       <r>  -23.0621    1.0000 </r>
       <r>  -23.0063    1.0000 </r>
       <r>  -22.6889    1.0000 </r>
       <r>  -22.6162    1.0000 </r>
       <r>  -22.3676    1.0000 </r>
       <r>  -22.0797    1.0000 </r>
       <r>  -21.9581    1.0000 </r>
       <r>  -21.5046    1.0000 </r>
       <r>  -21.4969    1.0000 </r>
       <r>  -21.4237    1.0000 </r>
       <r>  -21.3838    1.0000 </r>
       <r>  -21.2844    1.0000 </r>
       <r>  -21.2072    1.0000 </r>
       <r>  -21.1768    1.0000 </r>
       <r>  -21.0727    1.0000 </r>
       <r>  -21.0392    1.0000 </r>
       <r>  -21.0086    1.0000 </r>
       <r>  -20.8209    1.0000 </r>
       <r>  -20.6198    1.0000 </r>
       <r>  -20.4083    1.0000 </r>
       <r>  -20.3534    1.0000 </r>
       <r>  -20.1656    1.0000 </r>
       <r>  -20.1148    1.0000 </r>
       <r>  -19.9175    1.0000 </r>
       <r>  -19.7437    1.0000 </r>
       <r>  -19.5470    1.0000 </r>
       <r>  -19.4883    1.0000 </r>
       <r>  -19.1927    1.0000 </r>
       <r>  -18.9122    1.0000 </r>
       <r>  -18.7203    1.0000 </r>
       <r>  -18.6072    1.0000 </r>
       <r>  -18.5065    1.0000 </r>
       <r>  -18.3801    1.0000 </r>
       <r>  -18.1885    1.0000 </r>
       <r>  -17.5792    1.0000 </r>
       <r>  -17.3172    1.0000 </r>
       <r>  -17.1625    1.0000 </r>
       <r>  -17.0939    1.0000 </r>
       <r>  -17.0201    1.0000 </r>
       <r>  -16.9539    1.0000 </r>
       <r>  -16.7387    1.0000 </r>
       <r>  -16.7301    1.0000 </r>
       <r>  -16.6653    1.0000 </r>
       <r>  -16.6251    1.0000 </r>
       <r>  -16.5756    1.0000 </r>
       <r>  -16.5385    1.0000 </r>
       <r>  -16.4805    1.0000 </r>
       <r>  -16.3894    1.0000 </r>
       <r>  -16.3552    1.0000 </r>
       <r>  -16.3266    1.0000 </r>
       <r>  -16.1483    1.0000 </r>
       <r>  -16.1168    1.0000 </r>
       <r>  -16.1093    1.0000 </r>
       <r>  -15.9927    1.0000 </r>
       <r>  -15.5990    1.0000 </r>
       <r>  -15.4185    1.0000 </r>
       <r>  -15.3697    1.0000 </r>
       <r>  -15.3367    1.0000 </r>
       <r>  -15.2228    1.0000 </r>
       <r>  -15.1963    1.0000 </r>
       <r>  -14.9585    1.0000 </r>
       <r>  -14.3709    1.0000 </r>
       <r>  -14.2396    1.0000 </r>
       <r>  -14.1371    1.0000 </r>
       <r>  -14.0205    1.0000 </r>
       <r>  -13.9220    1.0000 </r>
       <r>  -13.7226    1.0000 </r>
       <r>  -13.7135    1.0000 </r>
       <r>  -13.6195    1.0000 </r>
       <r>  -13.4719    1.0000 </r>
       <r>  -13.3634    1.0000 </r>
       <r>  -13.2914    1.0000 </r>
       <r>  -13.2068    1.0000 </r>
       <r>  -13.0568    1.0000 </r>
       <r>  -12.8833    1.0000 </r>
       <r>  -12.6854    1.0000 </r>
       <r>  -12.3869    1.0000 </r>
       <r>  -12.1286    1.0000 </r>
       <r>  -12.0907    1.0000 </r>
       <r>  -12.0129    1.0000 </r>
       <r>  -11.9721    1.0000 </r>
       <r>  -11.8784    1.0000 </r>
       <r>  -11.8096    1.0000 </r>
       <r>  -11.7548    1.0000 </r>
       <r>  -11.4666    1.0000 </r>
       <r>  -11.3212    1.0000 </r>
       <r>  -11.2502    1.0000 </r>
       <r>  -11.1395    1.0000 </r>
       <r>  -11.1086    1.0000 </r>
       <r>  -10.8624    1.0000 </r>
       <r>  -10.8496    1.0000 </r>
       <r>  -10.8017    1.0000 </r>
       <r>  -10.7506    1.0000 </r>
       <r>  -10.7369    1.0000 </r>
       <r>  -10.7031    1.0000 </r>
       <r>  -10.5158    1.0000 </r>
       <r>  -10.4974    1.0000 </r>
       <r>  -10.4848    1.0000 </r>
       <r>  -10.4636    1.0000 </r>
       <r>  -10.4236    1.0000 </r>
       <r>  -10.3688    1.0000 </r>
       <r>  -10.3467    1.0000 </r>
       <r>  -10.2709    1.0000 </r>
       <r>  -10.1208    1.0000 </r>
       <r>  -10.0396    1.0000 </r>
       <r>   -9.9052    1.0000 </r>
       <r>   -9.8713    1.0000 </r>
       <r>   -9.8065    1.0000 </r>
       <r>   -9.7725    1.0000 </r>
       <r>   -9.6918    1.0000 </r>
       <r>   -9.6700    1.0000 </r>
       <r>   -9.6365    1.0000 </r>
       <r>   -9.6176    1.0000 </r>
       <r>   -9.5839    1.0000 </r>
       <r>   -9.5564    1.0000 </r>
       <r>   -9.5173    1.0000 </r>
       <r>   -9.5056    1.0000 </r>
       <r>   -9.4899    1.0000 </r>
       <r>   -9.4826    1.0000 </r>
       <r>   -9.4675    1.0000 </r>
       <r>   -9.4350    1.0000 </r>
       <r>   -9.4167    1.0000 </r>
       <r>   -9.3917    1.0000 </r>
       <r>   -9.3623    1.0000 </r>
       <r>   -9.3352    1.0000 </r>
       <r>   -9.2827    1.0000 </r>
       <r>   -9.1993    1.0000 </r>
       <r>   -9.1574    1.0000 </r>
       <r>   -9.1357    1.0000 </r>
       <r>   -9.0941    1.0000 </r>
       <r>   -9.0239    1.0000 </r>
       <r>   -8.9509    1.0000 </r>
       <r>   -8.9160    1.0000 </r>
       <r>   -8.8962    1.0000 </r>
       <r>   -8.8761    1.0000 </r>
       <r>   -8.8539    1.0000 </r>
       <r>   -8.8285    1.0000 </r>
       <r>   -8.7908    1.0000 </r>
       <r>   -8.7649    1.0000 </r>
       <r>   -8.6811    1.0000 </r>
       <r>   -8.6584    1.0000 </r>
       <r>   -8.6449    1.0000 </r>
       <r>   -8.5996    1.0000 </r>
       <r>   -8.4931    1.0000 </r>
       <r>   -8.4141    1.0000 </r>
       <r>   -8.1097    1.0000 </r>
       <r>   -8.0467    1.0000 </r>
       <r>   -7.9372    1.0000 </r>
       <r>   -7.7440    1.0000 </r>
       <r>   -7.7171    1.0000 </r>
       <r>   -7.6819    1.0000 </r>
       <r>   -7.5554    1.0000 </r>
       <r>   -7.5541    1.0000 </r>
       <r>   -7.4285    1.0000 </r>
       <r>   -7.3815    1.0000 </r>
       <r>   -7.3224    1.0000 </r>
       <r>   -7.1565    1.0000 </r>
       <r>   -7.0653    1.0000 </r>
       <r>   -6.9397    1.0000 </r>
       <r>   -6.7842    1.0000 </r>
       <r>   -6.7295    1.0000 </r>
       <r>   -6.6423    1.0000 </r>
       <r>   -6.6338    1.0000 </r>
       <r>   -6.4683    1.0000 </r>
       <r>   -6.2747    1.0000 </r>
       <r>   -6.1882    1.0000 </r>
       <r>   -6.0998    1.0000 </r>
       <r>   -6.0844    1.0000 </r>
       <r>   -6.0217    1.0000 </r>
       <r>   -5.9652    1.0000 </r>
       <r>   -5.9420    1.0000 </r>
       <r>   -5.9081    1.0000 </r>
       <r>   -5.0740    1.0000 </r>
       <r>   -4.9376    1.0000 </r>
       <r>   -4.8996    1.0000 </r>
       <r>   -4.6371    1.0000 </r>
       <r>   -4.4898    1.0000 </r>
       <r>   -4.4673    1.0000 </r>
       <r>   -4.4372    1.0000 </r>
       <r>   -4.4082    1.0000 </r>
       <r>   -3.7092    1.0000 </r>
       <r>   -3.6877    0.9999 </r>
       <r>   -3.1479    0.5214 </r>
       <r>   -3.0813    0.3382 </r>
       <r>   -2.6764    0.0005 </r>
       <r>   -2.6406    0.0002 </r>
       <r>   -2.4516    0.0000 </r>
       <r>   -2.2084    0.0000 </r>
       <r>   -2.1209    0.0000 </r>
       <r>   -1.7462    0.0000 </r>
       <r>   -1.6522    0.0000 </r>
       <r>   -1.5827    0.0000 </r>
       <r>   -1.4123    0.0000 </r>
       <r>   -1.3802    0.0000 </r>
       <r>   -1.3588    0.0000 </r>
       <r>   -1.2978    0.0000 </r>
       <r>   -1.0609    0.0000 </r>
       <r>   -0.7632    0.0000 </r>
       <r>   -0.5879    0.0000 </r>
       <r>   -0.4453    0.0000 </r>
       <r>   -0.3580    0.0000 </r>
       <r>   -0.0545    0.0000 </r>
       <r>    0.0289    0.0000 </r>
       <r>    0.1187    0.0000 </r>
       <r>    0.1400    0.0000 </r>
       <r>    0.3738    0.0000 </r>
       <r>    0.6429    0.0000 </r>
       <r>    0.6477    0.0000 </r>
       <r>    0.6992    0.0000 </r>
       <r>    0.7742    0.0000 </r>
       <r>    0.8984    0.0000 </r>
       <r>    0.9107    0.0000 </r>
       <r>    0.9541    0.0000 </r>
       <r>    0.9823    0.0000 </r>
       <r>    1.0482    0.0000 </r>
       <r>    1.0773    0.0000 </r>
       <r>    1.1521    0.0000 </r>
       <r>    1.1583    0.0000 </r>
       <r>    1.2175    0.0000 </r>
       <r>    1.3199    0.0000 </r>
       <r>    1.3254    0.0000 </r>
       <r>    1.3293    0.0000 </r>
       <r>    1.4046    0.0000 </r>
       <r>    1.4563    0.0000 </r>
       <r>    1.5541    0.0000 </r>
       <r>    1.5687    0.0000 </r>
       <r>    1.7152    0.0000 </r>
       <r>    1.7187    0.0000 </r>
       <r>    1.7304    0.0000 </r>
       <r>    1.7312    0.0000 </r>
       <r>    1.8981    0.0000 </r>
      </set>
      <set comment="kpoint 2">
       <r>  -23.1101    1.0000 </r>
       <r>  -22.9663    1.0000 </r>
       <r>  -22.9058    1.0000 </r>
       <r>  -22.5994    1.0000 </r>
       <r>  -22.5419    1.0000 </r>
       <r>  -22.5077    1.0000 </r>
       <r>  -22.1824    1.0000 </r>
       <r>  -22.1040    1.0000 </r>
       <r>  -21.9877    1.0000 </r>
       <r>  -21.8701    1.0000 </r>
       <r>  -21.8406    1.0000 </r>
       <r>  -21.7174    1.0000 </r>
       <r>  -21.3147    1.0000 </r>
       <r>  -21.1303    1.0000 </r>
       <r>  -21.0627    1.0000 </r>
       <r>  -20.9751    1.0000 </r>
       <r>  -20.6360    1.0000 </r>
       <r>  -20.5494    1.0000 </r>
       <r>  -20.5111    1.0000 </r>
       <r>  -20.3352    1.0000 </r>
       <r>  -20.2094    1.0000 </r>
       <r>  -20.1427    1.0000 </r>
       <r>  -20.0899    1.0000 </r>
       <r>  -19.9219    1.0000 </r>
       <r>  -19.8241    1.0000 </r>
       <r>  -19.5561    1.0000 </r>
       <r>  -19.5091    1.0000 </r>
       <r>  -19.0873    1.0000 </r>
       <r>  -19.0640    1.0000 </r>
       <r>  -18.8773    1.0000 </r>
       <r>  -18.6860    1.0000 </r>
       <r>  -18.5341    1.0000 </r>
       <r>  -18.5207    1.0000 </r>
       <r>  -18.3036    1.0000 </r>
       <r>  -18.2181    1.0000 </r>
       <r>  -18.1274    1.0000 </r>
       <r>  -18.0734    1.0000 </r>
       <r>  -17.9743    1.0000 </r>
       <r>  -17.8937    1.0000 </r>
       <r>  -17.7703    1.0000 </r>
       <r>  -17.4838    1.0000 </r>
       <r>  -17.3596    1.0000 </r>
       <r>  -17.3256    1.0000 </r>
       <r>  -17.1462    1.0000 </r>
       <r>  -17.0627    1.0000 </r>
       <r>  -16.5861    1.0000 </r>
       <r>  -16.4074    1.0000 </r>
       <r>  -16.1909    1.0000 </r>
       <r>  -16.0645    1.0000 </r>
       <r>  -15.8907    1.0000 </r>
       <r>  -15.8170    1.0000 </r>
       <r>  -15.6113    1.0000 </r>
       <r>  -15.6076    1.0000 </r>
       <r>  -15.3556    1.0000 </r>
       <r>  -15.3061    1.0000 </r>
       <r>  -15.2878    1.0000 </r>
       <r>  -15.1806    1.0000 </r>
       <r>  -15.1179    1.0000 </r>
       <r>  -15.0530    1.0000 </r>
       <r>  -15.0047    1.0000 </r>
       <r>  -14.9879    1.0000 </r>
       <r>  -14.7379    1.0000 </r>
       <r>  -14.5354    1.0000 </r>
       <r>  -14.4402    1.0000 </r>
       <r>  -14.3025    1.0000 </r>
       <r>  -14.1345    1.0000 </r>
       <r>  -13.9648    1.0000 </r>
       <r>  -13.8967    1.0000 </r>
       <r>  -13.3896    1.0000 </r>
       <r>  -13.2227    1.0000 </r>
       <r>  -13.1940    1.0000 </r>
       <r>  -13.1406    1.0000 </r>
       <r>  -12.9259    1.0000 </r>
       <r>  -12.8223    1.0000 </r>
       <r>  -12.7743    1.0000 </r>
       <r>  -12.7194    1.0000 </r>
       <r>  -12.6625    1.0000 </r>
       <r>  -12.5547    1.0000 </r>
       <r>  -12.3925    1.0000 </r>
       <r>  -12.3525    1.0000 </r>
       <r>  -12.1648    1.0000 </r>
       <r>  -12.1332    1.0000 </r>
       <r>  -12.0817    1.0000 </r>
       <r>  -12.0697    1.0000 </r>
       <r>  -11.8668    1.0000 </r>
       <r>  -11.6490    1.0000 </r>
       <r>  -11.4229    1.0000 </r>
       <r>  -11.3309    1.0000 </r>
       <r>  -11.2750    1.0000 </r>
       <r>  -11.1766    1.0000 </r>
       <r>  -11.0560    1.0000 </r>
       <r>  -11.0211    1.0000 </r>
       <r>  -11.0040    1.0000 </r>
       <r>  -10.9290    1.0000 </r>
       <r>  -10.9058    1.0000 </r>
       <r>  -10.8708    1.0000 </r>
       <r>  -10.8613    1.0000 </r>
       <r>  -10.8428    1.0000 </r>
       <r>  -10.8050    1.0000 </r>
       <r>  -10.6481    1.0000 </r>
       <r>  -10.6249    1.0000 </r>
       <r>  -10.4729    1.0000 </r>
       <r>  -10.4398    1.0000 </r>
       <r>  -10.4173    1.0000 </r>
       <r>  -10.3772    1.0000 </r>
       <r>  -10.3488    1.0000 </r>
       <r>  -10.2964    1.0000 </r>
       <r>  -10.1186    1.0000 </r>
       <r>  -10.1060    1.0000 </r>
       <r>  -10.0804    1.0000 </r>
       <r>   -9.9717    1.0000 </r>
       <r>   -9.9527    1.0000 </r>
       <r>   -9.9186    1.0000 </r>
       <r>   -9.8009    1.0000 </r>
       <r>   -9.7054    1.0000 </r>
       <r>   -9.6771    1.0000 </r>
       <r>   -9.6290    1.0000 </r>
       <r>   -9.6189    1.0000 </r>
       <r>   -9.5957    1.0000 </r>
       <r>   -9.5456    1.0000 </r>
       <r>   -9.5214    1.0000 </r>
       <r>   -9.4678    1.0000 </r>
       <r>   -9.4473    1.0000 </r>
       <r>   -9.3465    1.0000 </r>
       <r>   -9.3136    1.0000 </r>
       <r>   -9.2812    1.0000 </r>
       <r>   -9.1134    1.0000 </r>
       <r>   -8.9642    1.0000 </r>
       <r>   -8.9286    1.0000 </r>
       <r>   -8.8724    1.0000 </r>
       <r>   -8.8130    1.0000 </r>
       <r>   -8.7480    1.0000 </r>
       <r>   -8.6968    1.0000 </r>
       <r>   -8.6507    1.0000 </r>
       <r>   -8.6002    1.0000 </r>
       <r>   -8.5723    1.0000 </r>
       <r>   -8.5456    1.0000 </r>
       <r>   -8.4341    1.0000 </r>
       <r>   -8.4051    1.0000 </r>
       <r>   -8.3833    1.0000 </r>
       <r>   -8.3067    1.0000 </r>
       <r>   -8.1773    1.0000 </r>
       <r>   -8.1602    1.0000 </r>
       <r>   -8.0861    1.0000 </r>
       <r>   -8.0640    1.0000 </r>
       <r>   -8.0399    1.0000 </r>
       <r>   -7.9845    1.0000 </r>
       <r>   -7.8895    1.0000 </r>
       <r>   -7.8115    1.0000 </r>
       <r>   -7.7745    1.0000 </r>
       <r>   -7.6562    1.0000 </r>
       <r>   -7.6273    1.0000 </r>
       <r>   -7.5094    1.0000 </r>
       <r>   -7.4519    1.0000 </r>
       <r>   -7.3672    1.0000 </r>
       <r>   -7.3340    1.0000 </r>
       <r>   -7.2134    1.0000 </r>
       <r>   -7.0166    1.0000 </r>
       <r>   -6.9427    1.0000 </r>
       <r>   -6.8981    1.0000 </r>
       <r>   -6.7975    1.0000 </r>
       <r>   -6.7168    1.0000 </r>
       <r>   -6.6909    1.0000 </r>
       <r>   -6.5867    1.0000 </r>
       <r>   -6.5375    1.0000 </r>
       <r>   -6.3836    1.0000 </r>
       <r>   -6.2875    1.0000 </r>
       <r>   -6.1289    1.0000 </r>
       <r>   -6.0818    1.0000 </r>
       <r>   -6.0202    1.0000 </r>
       <r>   -5.9070    1.0000 </r>
       <r>   -5.7838    1.0000 </r>
       <r>   -5.7603    1.0000 </r>
       <r>   -5.6802    1.0000 </r>
       <r>   -5.5748    1.0000 </r>
       <r>   -5.5220    1.0000 </r>
       <r>   -5.1815    1.0000 </r>
       <r>   -5.1295    1.0000 </r>
       <r>   -4.7277    1.0000 </r>
       <r>   -4.6547    1.0000 </r>
       <r>   -4.5047    1.0000 </r>
       <r>   -4.4653    1.0000 </r>
       <r>   -4.4346    1.0000 </r>
       <r>   -3.4690    0.9899 </r>
       <r>   -2.9411    0.0795 </r>
       <r>   -2.5008    0.0000 </r>
       <r>   -2.0847    0.0000 </r>
       <r>   -2.0197    0.0000 </r>
       <r>   -1.5412    0.0000 </r>
       <r>   -1.4700    0.0000 </r>
       <r>   -1.4161    0.0000 </r>
       <r>   -1.3350    0.0000 </r>
       <r>   -1.2895    0.0000 </r>
       <r>   -1.2702    0.0000 </r>
       <r>   -1.0338    0.0000 </r>
       <r>   -1.0086    0.0000 </r>
       <r>   -0.9625    0.0000 </r>
       <r>   -0.8920    0.0000 </r>
       <r>   -0.8192    0.0000 </r>
       <r>   -0.4773    0.0000 </r>
       <r>   -0.1355    0.0000 </r>
       <r>   -0.0813    0.0000 </r>
       <r>   -0.0215    0.0000 </r>
       <r>    0.0824    0.0000 </r>
       <r>    0.1249    0.0000 </r>
       <r>    0.2576    0.0000 </r>
       <r>    0.2799    0.0000 </r>
       <r>    0.3201    0.0000 </r>
       <r>    0.3454    0.0000 </r>
       <r>    0.7891    0.0000 </r>
       <r>    0.8054    0.0000 </r>
       <r>    0.8410    0.0000 </r>
       <r>    1.0457    0.0000 </r>
       <r>    1.0525    0.0000 </r>
       <r>    1.1232    0.0000 </r>
       <r>    1.1358    0.0000 </r>
       <r>    1.1749    0.0000 </r>
       <r>    1.2448    0.0000 </r>
       <r>    1.2951    0.0000 </r>
       <r>    1.3012    0.0000 </r>
       <r>    1.3599    0.0000 </r>
       <r>    1.4130    0.0000 </r>
       <r>    1.4291    0.0000 </r>
       <r>    1.4625    0.0000 </r>
       <r>    1.4681    0.0000 </r>
       <r>    1.4705    0.0000 </r>
       <r>    1.5470    0.0000 </r>
       <r>    1.5822    0.0000 </r>
       <r>    1.6076    0.0000 </r>
       <r>    1.6915    0.0000 </r>
       <r>    1.7109    0.0000 </r>
       <r>    1.7371    0.0000 </r>
      </set>
      <set comment="kpoint 3">
       <r>  -22.9132    1.0000 </r>
       <r>  -22.8146    1.0000 </r>
       <r>  -22.6948    1.0000 </r>
       <r>  -22.6593    1.0000 </r>
       <r>  -22.6109    1.0000 </r>
       <r>  -22.5877    1.0000 </r>
       <r>  -22.3321    1.0000 </r>
       <r>  -22.2967    1.0000 </r>
       <r>  -22.2231    1.0000 </r>
       <r>  -22.2011    1.0000 </r>
       <r>  -21.7491    1.0000 </r>
       <r>  -21.7048    1.0000 </r>
       <r>  -21.5668    1.0000 </r>
       <r>  -21.5461    1.0000 </r>
       <r>  -20.9088    1.0000 </r>
       <r>  -20.8685    1.0000 </r>
       <r>  -20.6908    1.0000 </r>
       <r>  -20.6662    1.0000 </r>
       <r>  -19.9364    1.0000 </r>
       <r>  -19.9070    1.0000 </r>
       <r>  -19.5822    1.0000 </r>
       <r>  -19.5663    1.0000 </r>
       <r>  -19.5221    1.0000 </r>
       <r>  -19.5066    1.0000 </r>
       <r>  -19.4539    1.0000 </r>
       <r>  -19.4369    1.0000 </r>
       <r>  -19.3201    1.0000 </r>
       <r>  -19.3069    1.0000 </r>
       <r>  -19.1120    1.0000 </r>
       <r>  -19.0978    1.0000 </r>
       <r>  -18.9875    1.0000 </r>
       <r>  -18.9605    1.0000 </r>
       <r>  -18.6303    1.0000 </r>
       <r>  -18.6129    1.0000 </r>
       <r>  -18.4955    1.0000 </r>
       <r>  -18.4723    1.0000 </r>
       <r>  -18.3084    1.0000 </r>
       <r>  -18.2227    1.0000 </r>
       <r>  -18.1674    1.0000 </r>
       <r>  -18.1220    1.0000 </r>
       <r>  -17.7317    1.0000 </r>
       <r>  -17.7118    1.0000 </r>
       <r>  -17.6646    1.0000 </r>
       <r>  -17.6395    1.0000 </r>
       <r>  -16.9008    1.0000 </r>
       <r>  -16.8491    1.0000 </r>
       <r>  -16.2991    1.0000 </r>
       <r>  -16.2415    1.0000 </r>
       <r>  -16.0437    1.0000 </r>
       <r>  -16.0061    1.0000 </r>
       <r>  -15.9362    1.0000 </r>
       <r>  -15.8999    1.0000 </r>
       <r>  -15.2864    1.0000 </r>
       <r>  -15.2421    1.0000 </r>
       <r>  -15.0917    1.0000 </r>
       <r>  -15.0436    1.0000 </r>
       <r>  -14.8372    1.0000 </r>
       <r>  -14.7966    1.0000 </r>
       <r>  -14.6951    1.0000 </r>
       <r>  -14.6803    1.0000 </r>
       <r>  -13.9861    1.0000 </r>
       <r>  -13.9724    1.0000 </r>
       <r>  -13.7840    1.0000 </r>
       <r>  -13.7504    1.0000 </r>
       <r>  -13.7338    1.0000 </r>
       <r>  -13.7151    1.0000 </r>
       <r>  -13.7044    1.0000 </r>
       <r>  -13.6391    1.0000 </r>
       <r>  -13.6367    1.0000 </r>
       <r>  -13.6164    1.0000 </r>
       <r>  -13.5849    1.0000 </r>
       <r>  -13.5457    1.0000 </r>
       <r>  -13.4255    1.0000 </r>
       <r>  -13.3939    1.0000 </r>
       <r>  -13.2598    1.0000 </r>
       <r>  -13.1884    1.0000 </r>
       <r>  -12.3975    1.0000 </r>
       <r>  -12.3291    1.0000 </r>
       <r>  -12.2340    1.0000 </r>
       <r>  -12.1769    1.0000 </r>
       <r>  -12.1161    1.0000 </r>
       <r>  -12.0923    1.0000 </r>
       <r>  -11.9648    1.0000 </r>
       <r>  -11.9414    1.0000 </r>
       <r>  -11.8838    1.0000 </r>
       <r>  -11.8444    1.0000 </r>
       <r>  -11.8361    1.0000 </r>
       <r>  -11.7663    1.0000 </r>
       <r>  -11.6704    1.0000 </r>
       <r>  -11.6646    1.0000 </r>
       <r>  -11.3182    1.0000 </r>
       <r>  -11.3129    1.0000 </r>
       <r>  -11.1972    1.0000 </r>
       <r>  -11.1772    1.0000 </r>
       <r>  -10.9968    1.0000 </r>
       <r>  -10.9721    1.0000 </r>
       <r>  -10.7849    1.0000 </r>
       <r>  -10.7408    1.0000 </r>
       <r>  -10.7118    1.0000 </r>
       <r>  -10.6707    1.0000 </r>
       <r>  -10.5461    1.0000 </r>
       <r>  -10.5353    1.0000 </r>
       <r>  -10.5214    1.0000 </r>
       <r>  -10.4893    1.0000 </r>
       <r>  -10.4057    1.0000 </r>
       <r>  -10.3891    1.0000 </r>
       <r>  -10.3363    1.0000 </r>
       <r>  -10.2902    1.0000 </r>
       <r>  -10.2589    1.0000 </r>
       <r>  -10.2211    1.0000 </r>
       <r>  -10.2171    1.0000 </r>
       <r>  -10.2027    1.0000 </r>
       <r>  -10.0921    1.0000 </r>
       <r>  -10.0829    1.0000 </r>
       <r>  -10.0456    1.0000 </r>
       <r>  -10.0386    1.0000 </r>
       <r>  -10.0184    1.0000 </r>
       <r>   -9.9740    1.0000 </r>
       <r>   -9.7554    1.0000 </r>
       <r>   -9.7379    1.0000 </r>
       <r>   -9.4150    1.0000 </r>
       <r>   -9.3691    1.0000 </r>
       <r>   -9.3487    1.0000 </r>
[...]
       <r>   -22.6746    15.1125     7.1673 </r>
       <r>   -22.5777    17.0243     8.8183 </r>
       <r>   -22.4807    16.4116    10.4100 </r>
       <r>   -22.3837    13.9541    11.7632 </r>
       <r>   -22.2867    12.6737    12.9924 </r>
       <r>   -22.1897    13.2581    14.2781 </r>
       <r>   -22.0928    14.0685    15.6425 </r>
       <r>   -21.9958    14.2172    17.0213 </r>
       <r>   -21.8988    14.1123    18.3899 </r>
       <r>   -21.8018    13.8650    19.7346 </r>
       <r>   -21.7048    13.0937    21.0044 </r>
       <r>   -21.6078    12.0712    22.1751 </r>
       <r>   -21.5109    11.5780    23.2979 </r>
       <r>   -21.4139    11.7801    24.4404 </r>
       <r>   -21.3169    12.4657    25.6493 </r>
       <r>   -21.2199    13.7714    26.9849 </r>
       <r>   -21.1229    15.5539    28.4933 </r>
       <r>   -21.0260    16.5032    30.0938 </r>
       <r>   -20.9290    15.3281    31.5803 </r>
       <r>   -20.8320    12.9701    32.8382 </r>
       <r>   -20.7350    11.8871    33.9910 </r>
       <r>   -20.6380    12.8074    35.2331 </r>
       <r>   -20.5411    13.8656    36.5778 </r>
       <r>   -20.4441    13.6383    37.9004 </r>
       <r>   -20.3471    13.0652    39.1675 </r>
       <r>   -20.2501    13.4865    40.4754 </r>
       <r>   -20.1531    14.5798    41.8894 </r>
       <r>   -20.0562    15.0727    43.3511 </r>
       <r>   -19.9592    14.6442    44.7713 </r>
       <r>   -19.8622    13.6440    46.0945 </r>
       <r>   -19.7652    12.5240    47.3091 </r>
       <r>   -19.6682    13.0018    48.5701 </r>
       <r>   -19.5712    15.8778    50.1099 </r>
       <r>   -19.4743    17.9526    51.8510 </r>
       <r>   -19.3773    16.2384    53.4258 </r>
       <r>   -19.2803    12.9798    54.6846 </r>
       <r>   -19.1833    12.0396    55.8522 </r>
       <r>   -19.0863    13.4726    57.1588 </r>
       <r>   -18.9894    14.4027    58.5555 </r>
       <r>   -18.8924    13.4532    59.8602 </r>
       <r>   -18.7954    12.3341    61.0564 </r>
       <r>   -18.6984    13.2814    62.3445 </r>
       <r>   -18.6014    15.9961    63.8958 </r>
       <r>   -18.5045    17.8854    65.6303 </r>
       <r>   -18.4075    17.7339    67.3502 </r>
       <r>   -18.3105    17.3448    69.0323 </r>
       <r>   -18.2135    18.0339    70.7812 </r>
       <r>   -18.1165    18.2305    72.5492 </r>
       <r>   -18.0196    16.4598    74.1455 </r>
       <r>   -17.9226    13.8582    75.4895 </r>
       <r>   -17.8256    12.2931    76.6817 </r>
       <r>   -17.7286    11.9282    77.8385 </r>
       <r>   -17.6316    11.6210    78.9655 </r>
       <r>   -17.5347    11.0178    80.0340 </r>
       <r>   -17.4377    10.9388    81.0949 </r>
       <r>   -17.3407    11.5952    82.2194 </r>
       <r>   -17.2437    12.3108    83.4133 </r>
       <r>   -17.1467    12.8142    84.6560 </r>
       <r>   -17.0497    12.8215    85.8995 </r>
       <r>   -16.9528    11.8134    87.0451 </r>
       <r>   -16.8558    10.4818    88.0617 </r>
       <r>   -16.7588    10.3463    89.0651 </r>
       <r>   -16.6618    11.7787    90.2074 </r>
       <r>   -16.5648    13.5984    91.5262 </r>
       <r>   -16.4679    14.7005    92.9518 </r>
       <r>   -16.3709    15.1951    94.4255 </r>
       <r>   -16.2739    15.7045    95.9485 </r>
       <r>   -16.1769    16.6104    97.5594 </r>
       <r>   -16.0799    17.5855    99.2649 </r>
       <r>   -15.9830    17.5550   100.9673 </r>
       <r>   -15.8860    15.8583   102.5053 </r>
       <r>   -15.7890    13.1961   103.7851 </r>
       <r>   -15.6920    11.2433   104.8755 </r>
       <r>   -15.5950    10.9722   105.9395 </r>
       <r>   -15.4981    12.3274   107.1351 </r>
       <r>   -15.4011    15.7063   108.6583 </r>
       <r>   -15.3041    20.4524   110.6418 </r>
       <r>   -15.2071    23.8028   112.9502 </r>
       <r>   -15.1101    24.1731   115.2945 </r>
       <r>   -15.0132    21.9945   117.4276 </r>
       <r>   -14.9162    18.1279   119.1856 </r>
       <r>   -14.8192    14.2608   120.5686 </r>
       <r>   -14.7222    11.8435   121.7172 </r>
       <r>   -14.6252    10.5559   122.7410 </r>
       <r>   -14.5282     9.8945   123.7005 </r>
       <r>   -14.4313     9.9206   124.6626 </r>
       <r>   -14.3343    10.3191   125.6634 </r>
       <r>   -14.2373    10.8072   126.7115 </r>
       <r>   -14.1403    11.7692   127.8529 </r>
       <r>   -14.0433    13.5656   129.1685 </r>
       <r>   -13.9464    15.6557   130.6868 </r>
       <r>   -13.8494    17.3629   132.3707 </r>
       <r>   -13.7524    18.8711   134.2008 </r>
       <r>   -13.6554    19.7800   136.1191 </r>
       <r>   -13.5584    19.0733   137.9688 </r>
       <r>   -13.4615    17.7041   139.6858 </r>
       <r>   -13.3645    17.6091   141.3935 </r>
       <r>   -13.2675    18.5703   143.1945 </r>
       <r>   -13.1705    18.3813   144.9771 </r>
       <r>   -13.0735    15.9225   146.5213 </r>
       <r>   -12.9766    13.2896   147.8101 </r>
       <r>   -12.8796    13.0780   149.0784 </r>
       <r>   -12.7826    14.6406   150.4983 </r>
       <r>   -12.6856    15.3495   151.9869 </r>
       <r>   -12.5886    14.3424   153.3778 </r>
       <r>   -12.4917    13.4822   154.6854 </r>
       <r>   -12.3947    14.5532   156.0967 </r>
       <r>   -12.2977    17.3600   157.7803 </r>
       <r>   -12.2007    21.2736   159.8434 </r>
       <r>   -12.1037    25.1043   162.2781 </r>
       <r>   -12.0067    26.4997   164.8480 </r>
       <r>   -11.9098    24.9812   167.2707 </r>
       <r>   -11.8128    22.0223   169.4065 </r>
       <r>   -11.7158    18.3075   171.1820 </r>
       <r>   -11.6188    14.4321   172.5816 </r>
       <r>   -11.5218    12.2642   173.7710 </r>
       <r>   -11.4249    13.6031   175.0902 </r>
       <r>   -11.3279    17.6967   176.8065 </r>
       <r>   -11.2309    21.7515   178.9159 </r>
       <r>   -11.1339    24.6384   181.3054 </r>
       <r>   -11.0369    27.8912   184.0103 </r>
       <r>   -10.9400    32.2884   187.1417 </r>
       <r>   -10.8430    35.6697   190.6009 </r>
       <r>   -10.7460    35.7090   194.0640 </r>
       <r>   -10.6490    33.9845   197.3599 </r>
       <r>   -10.5520    34.6311   200.7184 </r>
       <r>   -10.4551    38.2574   204.4287 </r>
       <r>   -10.3581    40.5258   208.3589 </r>
       <r>   -10.2611    38.7497   212.1169 </r>
       <r>   -10.1641    35.7651   215.5854 </r>
       <r>   -10.0671    34.4116   218.9226 </r>
       <r>    -9.9701    33.4016   222.1620 </r>
       <r>    -9.8732    31.8434   225.2502 </r>
       <r>    -9.7762    32.3907   228.3914 </r>
       <r>    -9.6792    36.9028   231.9703 </r>
       <r>    -9.5822    42.9522   236.1358 </r>
       <r>    -9.4852    46.5948   240.6546 </r>
       <r>    -9.3883    45.7862   245.0950 </r>
       <r>    -9.2913    40.5324   249.0259 </r>
       <r>    -9.1943    33.0535   252.2315 </r>
       <r>    -9.0973    27.6689   254.9148 </r>
       <r>    -9.0003    27.3095   257.5633 </r>
       <r>    -8.9034    30.8791   260.5580 </r>
       <r>    -8.8064    35.2016   263.9719 </r>
       <r>    -8.7094    37.8860   267.6461 </r>
       <r>    -8.6124    37.8743   271.3191 </r>
       <r>    -8.5154    35.3969   274.7520 </r>
       <r>    -8.4185    32.0683   277.8620 </r>
       <r>    -8.3215    29.4447   280.7176 </r>
       <r>    -8.2245    28.0696   283.4398 </r>
       <r>    -8.1275    27.5984   286.1163 </r>
       <r>    -8.0305    26.8565   288.7208 </r>
       <r>    -7.9336    25.7595   291.2190 </r>
       <r>    -7.8366    26.1489   293.7550 </r>
       <r>    -7.7396    28.3787   296.5071 </r>
       <r>    -7.6426    30.1347   299.4296 </r>
       <r>    -7.5456    30.1930   302.3578 </r>
       <r>    -7.4486    29.6738   305.2356 </r>
       <r>    -7.3517    28.9503   308.0432 </r>
       <r>    -7.2547    26.9506   310.6569 </r>
       <r>    -7.1577    24.0408   312.9884 </r>
       <r>    -7.0607    22.4444   315.1650 </r>
       <r>    -6.9637    23.2159   317.4165 </r>
       <r>    -6.8668    25.2346   319.8638 </r>
       <r>    -6.7698    27.2237   322.5040 </r>
       <r>    -6.6728    27.9499   325.2146 </r>
       <r>    -6.5758    26.0091   327.7370 </r>
       <r>    -6.4788    22.3593   329.9054 </r>
       <r>    -6.3819    19.8557   331.8310 </r>
       <r>    -6.2849    19.2903   333.7018 </r>
       <r>    -6.1879    19.8710   335.6289 </r>
       <r>    -6.0909    21.6313   337.7267 </r>
       <r>    -5.9939    23.9466   340.0491 </r>
       <r>    -5.8970    25.0134   342.4749 </r>
       <r>    -5.8000    24.0768   344.8099 </r>
       <r>    -5.7030    21.8165   346.9256 </r>
       <r>    -5.6060    18.7170   348.7408 </r>
       <r>    -5.5090    14.7105   350.1675 </r>
       <r>    -5.4121    10.8410   351.2188 </r>
       <r>    -5.3151     9.5533   352.1453 </r>
       <r>    -5.2181    11.2251   353.2339 </r>
       <r>    -5.1211    12.5656   354.4526 </r>
       <r>    -5.0241    11.1476   355.5337 </r>
       <r>    -4.9271     8.5701   356.3648 </r>
       <r>    -4.8302     7.4965   357.0918 </r>
       <r>    -4.7332     8.7820   357.9435 </r>
       <r>    -4.6362    11.7827   359.0862 </r>
       <r>    -4.5392    15.0988   360.5505 </r>
       <r>    -4.4422    16.3217   362.1334 </r>
       <r>    -4.3453    13.4373   363.4365 </r>
       <r>    -4.2483     8.1916   364.2310 </r>
       <r>    -4.1513     4.4503   364.6626 </r>
       <r>    -4.0543     3.2370   364.9765 </r>
       <r>    -3.9573     2.9468   365.2623 </r>
       <r>    -3.8604     2.7270   365.5267 </r>
       <r>    -3.7634     2.9723   365.8150 </r>
       <r>    -3.6664     3.6186   366.1659 </r>
       <r>    -3.5694     4.0384   366.5576 </r>
       <r>    -3.4724     3.9597   366.9416 </r>
       <r>    -3.3755     3.4040   367.2717 </r>
       <r>    -3.2785     2.8462   367.5477 </r>
       <r>    -3.1815     3.0787   367.8463 </r>
       <r>    -3.0845     4.0269   368.2369 </r>
       <r>    -2.9875     4.7910   368.7015 </r>
       <r>    -2.8906     4.9641   369.1829 </r>
       <r>    -2.7936     5.2422   369.6913 </r>
       <r>    -2.6966     6.4341   370.3153 </r>
       <r>    -2.5996     7.9087   371.0823 </r>
       <r>    -2.5026     8.1496   371.8726 </r>
       <r>    -2.4056     6.8186   372.5339 </r>
       <r>    -2.3087     5.3990   373.0575 </r>
       <r>    -2.2117     5.6144   373.6020 </r>
       <r>    -2.1147     7.1315   374.2936 </r>
       <r>    -2.0177     7.7411   375.0444 </r>
       <r>    -1.9207     6.4873   375.6735 </r>
       <r>    -1.8238     5.3512   376.1925 </r>
       <r>    -1.7268     6.9679   376.8682 </r>
       <r>    -1.6298    11.8388   378.0164 </r>
       <r>    -1.5328    17.9361   379.7558 </r>
       <r>    -1.4358    22.3303   381.9214 </r>
       <r>    -1.3389    23.2909   384.1802 </r>
       <r>    -1.2419    21.4073   386.2563 </r>
       <r>    -1.1449    19.5321   388.1505 </r>
       <r>    -1.0479    19.5779   390.0492 </r>
       <r>    -0.9509    19.4561   391.9361 </r>
       <r>    -0.8540    16.8083   393.5662 </r>
       <r>    -0.7570    12.9535   394.8224 </r>
       <r>    -0.6600    10.6520   395.8555 </r>
       <r>    -0.5630    10.7665   396.8996 </r>
       <r>    -0.4660    11.6243   398.0270 </r>
       <r>    -0.3691    11.4332   399.1358 </r>
       <r>    -0.2721    11.3124   400.2328 </r>
       <r>    -0.1751    13.7823   401.5695 </r>
       <r>    -0.0781    18.0981   403.3246 </r>
       <r>     0.0189    20.8728   405.3489 </r>
       <r>     0.1159    21.1443   407.3995 </r>
       <r>     0.2128    20.8479   409.4213 </r>
       <r>     0.3098    21.0238   411.4602 </r>
       <r>     0.4068    20.6552   413.4634 </r>
       <r>     0.5038    19.7962   415.3832 </r>
       <r>     0.6008    20.8399   417.4043 </r>
       <r>     0.6977    24.5174   419.7820 </r>
       <r>     0.7947    27.8317   422.4812 </r>
       <r>     0.8917    28.7332   425.2677 </r>
       <r>     0.9887    30.1004   428.1869 </r>
       <r>     1.0857    35.4308   431.6230 </r>
       <r>     1.1826    43.1259   435.8054 </r>
       <r>     1.2796    48.9587   440.5535 </r>
       <r>     1.3766    51.2817   445.5268 </r>
       <r>     1.4736    50.3711   450.4118 </r>
       <r>     1.5706    45.8244   454.8559 </r>
       <r>     1.6675    37.7144   458.5135 </r>
       <r>     1.7645    27.4105   461.1718 </r>
       <r>     1.8615    16.7598   462.7972 </r>
       <r>     1.9585     8.1574   463.5883 </r>
       <r>     2.0555     3.0888   463.8878 </r>
       <r>     2.1525     0.9118   463.9763 </r>
       <r>     2.2494     0.2065   463.9963 </r>
       <r>     2.3464     0.0341   463.9996 </r>
       <r>     2.4434     0.0039   464.0000 </r>
       <r>     2.5404     0.0003   464.0000 </r>
       <r>     2.6374     0.0000   464.0000 </r>
       <r>     2.7343     0.0000   464.0000 </r>
       <r>     2.8313     0.0000   464.0000 </r>
       <r>     2.9283     0.0000   464.0000 </r>
       <r>     3.0253     0.0000   464.0000 </r>
       <r>     3.1223     0.0000   464.0000 </r>
       <r>     3.2192     0.0000   464.0000 </r>
       <r>     3.3162     0.0000   464.0000 </r>
       <r>     3.4132     0.0000   464.0000 </r>
       <r>     3.5102     0.0000   464.0000 </r>
       <r>     3.6072     0.0000   464.0000 </r>
       <r>     3.7041     0.0000   464.0000 </r>
       <r>     3.8011     0.0000   464.0000 </r>
       <r>     3.8981     0.0000   464.0000 </r>
      </set>
     </set>
    </array>
   </total>
  </dos>
 </calculation>
 <structure name="finalpos" >
  <crystal>
   <varray name="basis" >
    <v>      28.05000000       0.00000000       0.00000000 </v>
    <v>       0.00000000       8.10000000       0.00000000 </v>
    <v>       0.00000000       0.00000000      33.50000000 </v>
   </varray>
   <i name="volume">   7611.36750000 </i>
   <varray name="rec_basis" >
    <v>       0.03565062       0.00000000       0.00000000 </v>
    <v>       0.00000000       0.12345679       0.00000000 </v>
    <v>       0.00000000       0.00000000       0.02985075 </v>
   </varray>
  </crystal>
  <varray name="positions" >
   <v>       0.72154367       0.30201975       0.07731343 </v>
   <v>       0.72224242       0.47608519       0.07731343 </v>
   <v>       0.76564706       0.22313210       0.07701493 </v>
   <v>       0.76614260       0.55924198       0.07940299 </v>
   <v>       0.80936898       0.30689383       0.08537313 </v>
   <v>       0.81007843       0.47723580       0.08716418 </v>
   <v>       0.85431373       0.22540617       0.08507463 </v>
   <v>       0.85524421       0.55956667       0.08716418 </v>
   <v>       0.89890909       0.30878148       0.08388060 </v>
   <v>       0.89920499       0.47924074       0.08477612 </v>
   <v>       0.94324421       0.22843827       0.07373134 </v>
   <v>       0.94292692       0.56323827       0.07701493 </v>
   <v>       0.98726203       0.31152963       0.06895522 </v>
   <v>       0.98712656       0.48104568       0.06985075 </v>
   <v>       0.02897433       0.22807654       0.05671642 </v>
   <v>       0.02867326       0.56527901       0.05611940 </v>
   <v>       0.07186025       0.31229630       0.04865672 </v>
   <v>       0.07144029       0.48373457       0.04895522 </v>
   <v>       0.11327522       0.23109012       0.03432836 </v>
   <v>       0.11243708       0.56375432       0.03402985 </v>
   <v>       0.15692157       0.31300617       0.02567164 </v>
   <v>       0.15710766       0.48051111       0.02597015 </v>
   <v>       0.19880784       0.22957531       0.01462687 </v>
   <v>       0.19828520       0.56351481       0.01253731 </v>
   <v>       0.24175365       0.31188395       0.01223881 </v>
   <v>       0.24271693       0.48158025       0.01134328 </v>
   <v>       0.28640642       0.22990000       0.00626866 </v>
   <v>       0.28628913       0.56738642       0.00298507 </v>
   <v>       0.33074724       0.31256543       0.00716418 </v>
   <v>       0.32991159       0.48068148       0.00388060 </v>
   <v>       0.37472727       0.22665185       0.00208955 </v>
   <v>       0.37482709       0.56392963       0.00059701 </v>
   <v>       0.41840285       0.31133704       0.00746269 </v>
   <v>       0.41799643       0.48357531       0.00686567 </v>
   <v>       0.46253119       0.22804444       0.00925373 </v>
   <v>       0.46151872       0.56413210       0.00985075 </v>
   <v>       0.50455615       0.31128272       0.02089552 </v>
   <v>       0.50422816       0.48007037       0.02149254 </v>
   <v>       0.54855971       0.23092716       0.02716418 </v>
   <v>       0.54694831       0.56360864       0.02835821 </v>
   <v>       0.58946881       0.31204938       0.04358209 </v>
   <v>       0.58867736       0.48218519       0.04328358 </v>
   <v>       0.63175401       0.22760617       0.05014925 </v>
   <v>       0.63206774       0.56485062       0.04895522 </v>
   <v>       0.67045989       0.31071975       0.06597015 </v>
   <v>       0.67214617       0.48238272       0.06597015 </v>
   <v>       0.72496257       0.80500617       0.05671642 </v>
   <v>       0.72643494       0.97582222       0.05611940 </v>
   <v>       0.76709804       0.72127531       0.06865672 </v>
   <v>       0.76765419       0.06013790       0.06626866 </v>
   <v>       0.81096257       0.80796914       0.07014925 </v>
   <v>       0.81131551       0.97783951       0.06895522 </v>
   <v>       0.85374688       0.72501728       0.07820896 </v>
   <v>       0.85411408       0.06098284       0.07552239 </v>
   <v>       0.89735116       0.80929383       0.07283582 </v>
   <v>       0.89736898       0.97885679       0.07253731 </v>
   <v>       0.94129055       0.72861975       0.06865672 </v>
   <v>       0.94086631       0.06293741       0.06656716 </v>
   <v>       0.98340107       0.81258272       0.05522388 </v>
   <v>       0.98366845       0.98036543       0.05552239 </v>
   <v>       0.02584064       0.72933457       0.04686567 </v>
   <v>       0.02652064       0.06314975       0.04776119 </v>
   <v>       0.06765847       0.81356173       0.03223881 </v>
   <v>       0.06795722       0.98122346       0.03194030 </v>
   <v>       0.11054581       0.72825802       0.02388060 </v>
   <v>       0.11150410       0.06592173       0.02567164 </v>
   <v>       0.15291551       0.81209753       0.01104478 </v>
   <v>       0.15303672       0.98284938       0.01223881 </v>
   <v>       0.19640749       0.73184938       0.00477612 </v>
   <v>       0.19691408       0.06218914       0.00805970 </v>
   <v>       0.24013904       0.81182963       0.99671642 </v>
   <v>       0.23997540       0.98207531       0.99731343 </v>
   <v>       0.28598146       0.73023827       0.99522388 </v>
   <v>       0.28571693       0.06750667       0.99582090 </v>
   <v>       0.33008948       0.81576173       0.98985075 </v>
   <v>       0.33010766       0.98751235       0.98955224 </v>
   <v>       0.37421390       0.73156296       0.99253731 </v>
   <v>       0.37501961       0.06286000       0.99253731 </v>
   <v>       0.41939037       0.81202222       0.99223881 </v>
   <v>       0.41885918       0.98017037       0.99194030 </v>
   <v>       0.46283779       0.73025309       0.00208955 </v>
   <v>       0.46385740       0.06292951       0.99940299 </v>
   <v>       0.50768627       0.80926667       0.00388060 </v>
   <v>       0.50708378       0.98189012       0.00537313 </v>
   <v>       0.54997504       0.72874444       0.01731343 </v>
   <v>       0.55020321       0.06473086       0.01761194 </v>
   <v>       0.59248485       0.81287284       0.02507463 </v>
   <v>       0.59357576       0.98288148       0.02447761 </v>
   <v>       0.63341889       0.72623827       0.03761194 </v>
   <v>       0.63389661       0.06615420       0.03940299 </v>
   <v>       0.67552941       0.80530370       0.04447761 </v>
   <v>       0.67578966       0.97726543       0.04507463 </v>
  </varray>
 </structure>
</modeling>
