  92  92   0   0
  0.8273226E+02  0.2805000E-08  0.8100000E-09  0.3350000E-08  0.5000000E-15
   1.0000000000000000E-004
  CAR 
 unknown system                          
      3.82160695    -25.17959313  301     -3.17423676      1.00000000
    -25.180  0.0000E+00  0.0000E+00
    -25.083  0.0000E+00  0.0000E+00
    -24.986  0.0000E+00  0.0000E+00
    -24.890  0.0000E+00  0.0000E+00
    -24.793  0.0000E+00  0.0000E+00
    -24.696  0.0000E+00  0.0000E+00
    -24.600  0.0000E+00  0.0000E+00
    -24.503  0.0000E+00  0.0000E+00
    -24.406  0.0000E+00  0.0000E+00
    -24.310  0.3445E-14  0.3331E-15
    -24.213  0.7149E-12  0.6944E-13
    -24.116  0.9227E-10  0.8989E-11
    -24.020  0.7554E-08  0.7392E-09
    -23.923  0.3938E-06  0.3881E-07
    -23.826  0.1314E-04  0.1309E-05
    -23.730  0.2825E-03  0.2861E-04
    -23.633  0.3954E-02  0.4108E-03
    -23.536  0.3653E-01  0.3942E-02
    -23.440  0.2267E+00  0.2585E-01
    -23.343  0.9650E+00  0.1191E+00
    -23.246  0.2888E+01  0.3984E+00
    -23.150  0.6237E+01  0.1001E+01
    -23.053  0.1000E+02  0.1968E+01
    -22.956  0.1242E+02  0.3169E+01
    -22.859  0.1302E+02  0.4428E+01
    -22.763  0.1339E+02  0.5722E+01
    -22.666  0.1481E+02  0.7153E+01
    -22.569  0.1593E+02  0.8693E+01
    -22.473  0.1524E+02  0.1017E+02
    -22.376  0.1396E+02  0.1152E+02
    -22.279  0.1397E+02  0.1287E+02
    -22.183  0.1468E+02  0.1429E+02
    -22.086  0.1452E+02  0.1569E+02
    -21.989  0.1385E+02  0.1703E+02
    -21.893  0.1372E+02  0.1835E+02
    -21.796  0.1386E+02  0.1969E+02
    -21.699  0.1370E+02  0.2102E+02
    -21.603  0.1313E+02  0.2229E+02
    -21.506  0.1206E+02  0.2345E+02
    -21.409  0.1096E+02  0.2451E+02
    -21.313  0.1115E+02  0.2559E+02
    -21.216  0.1316E+02  0.2686E+02
    -21.119  0.1565E+02  0.2838E+02
    -21.023  0.1652E+02  0.2997E+02
    -20.926  0.1520E+02  0.3144E+02
    -20.829  0.1335E+02  0.3273E+02
    -20.733  0.1287E+02  0.3398E+02
    -20.636  0.1355E+02  0.3529E+02
    -20.539  0.1391E+02  0.3663E+02
    -20.443  0.1338E+02  0.3793E+02
    -20.346  0.1258E+02  0.3914E+02
    -20.249  0.1243E+02  0.4034E+02
    -20.153  0.1350E+02  0.4165E+02
    -20.056  0.1521E+02  0.4312E+02
    -19.959  0.1604E+02  0.4467E+02
    -19.863  0.1510E+02  0.4613E+02
    -19.766  0.1345E+02  0.4743E+02
    -19.669  0.1360E+02  0.4875E+02
    -19.573  0.1596E+02  0.5029E+02
    -19.476  0.1726E+02  0.5196E+02
    -19.379  0.1520E+02  0.5343E+02
    -19.283  0.1225E+02  0.5461E+02
    -19.186  0.1183E+02  0.5575E+02
    -19.089  0.1358E+02  0.5707E+02
    -18.993  0.1450E+02  0.5847E+02
    -18.896  0.1341E+02  0.5976E+02
    -18.799  0.1237E+02  0.6096E+02
    -18.703  0.1370E+02  0.6228E+02
    -18.606  0.1689E+02  0.6392E+02
    -18.509  0.1904E+02  0.6576E+02
    -18.413  0.1852E+02  0.6755E+02
    -18.316  0.1706E+02  0.6920E+02
    -18.219  0.1678E+02  0.7082E+02
    -18.123  0.1701E+02  0.7246E+02
    -18.026  0.1597E+02  0.7401E+02
    -17.929  0.1398E+02  0.7536E+02
    -17.833  0.1288E+02  0.7660E+02
    -17.736  0.1282E+02  0.7784E+02
    -17.639  0.1247E+02  0.7905E+02
    -17.543  0.1166E+02  0.8018E+02
    -17.446  0.1134E+02  0.8127E+02
    -17.349  0.1142E+02  0.8238E+02
    -17.253  0.1137E+02  0.8348E+02
    -17.156  0.1145E+02  0.8458E+02
    -17.059  0.1167E+02  0.8571E+02
    -16.963  0.1139E+02  0.8681E+02
    -16.866  0.1079E+02  0.8786E+02
    -16.769  0.1084E+02  0.8890E+02
    -16.673  0.1173E+02  0.9004E+02
    -16.576  0.1270E+02  0.9126E+02
    -16.479  0.1330E+02  0.9255E+02
    -16.383  0.1412E+02  0.9391E+02
    -16.286  0.1583E+02  0.9545E+02
    -16.189  0.1786E+02  0.9717E+02
    -16.093  0.1886E+02  0.9899E+02
    -15.996  0.1807E+02  0.1007E+03
    -15.899  0.1598E+02  0.1023E+03
    -15.803  0.1357E+02  0.1036E+03
    -15.706  0.1193E+02  0.1048E+03
    -15.609  0.1177E+02  0.1059E+03
    -15.513  0.1287E+02  0.1071E+03
    -15.416  0.1522E+02  0.1086E+03
    -15.319  0.1879E+02  0.1104E+03
    -15.223  0.2211E+02  0.1126E+03
    -15.126  0.2321E+02  0.1148E+03
    -15.029  0.2175E+02  0.1169E+03
    -14.933  0.1889E+02  0.1187E+03
    -14.836  0.1575E+02  0.1203E+03
    -14.739  0.1291E+02  0.1215E+03
    -14.642  0.1053E+02  0.1225E+03
    -14.546  0.9097E+01  0.1234E+03
    -14.449  0.9121E+01  0.1243E+03
    -14.352  0.1006E+02  0.1253E+03
    -14.256  0.1123E+02  0.1263E+03
    -14.159  0.1282E+02  0.1276E+03
    -14.062  0.1483E+02  0.1290E+03
    -13.966  0.1659E+02  0.1306E+03
    -13.869  0.1760E+02  0.1323E+03
    -13.772  0.1780E+02  0.1340E+03
    -13.676  0.1738E+02  0.1357E+03
    -13.579  0.1705E+02  0.1374E+03
    -13.482  0.1747E+02  0.1391E+03
    -13.386  0.1844E+02  0.1408E+03
    -13.289  0.1914E+02  0.1427E+03
    -13.192  0.1851E+02  0.1445E+03
    -13.096  0.1598E+02  0.1460E+03
    -12.999  0.1307E+02  0.1473E+03
    -12.902  0.1249E+02  0.1485E+03
    -12.806  0.1432E+02  0.1499E+03
    -12.709  0.1582E+02  0.1514E+03
    -12.612  0.1547E+02  0.1529E+03
    -12.516  0.1471E+02  0.1543E+03
    -12.419  0.1557E+02  0.1558E+03
    -12.322  0.1835E+02  0.1576E+03
    -12.226  0.2185E+02  0.1597E+03
    -12.129  0.2409E+02  0.1620E+03
    -12.032  0.2367E+02  0.1643E+03
    -11.936  0.2191E+02  0.1665E+03
    -11.839  0.2062E+02  0.1684E+03
    -11.742  0.1902E+02  0.1703E+03
    -11.646  0.1636E+02  0.1719E+03
    -11.549  0.1424E+02  0.1732E+03
    -11.452  0.1456E+02  0.1746E+03
    -11.356  0.1741E+02  0.1763E+03
    -11.259  0.2129E+02  0.1784E+03
    -11.162  0.2488E+02  0.1808E+03
    -11.066  0.2809E+02  0.1835E+03
    -10.969  0.3114E+02  0.1865E+03
    -10.872  0.3344E+02  0.1898E+03
    -10.776  0.3393E+02  0.1930E+03
    -10.679  0.3317E+02  0.1962E+03
    -10.582  0.3366E+02  0.1995E+03
    -10.486  0.3630E+02  0.2030E+03
    -10.389  0.3875E+02  0.2067E+03
    -10.292  0.3853E+02  0.2105E+03
    -10.196  0.3616E+02  0.2140E+03
    -10.099  0.3434E+02  0.2173E+03
    -10.002  0.3436E+02  0.2206E+03
     -9.906  0.3511E+02  0.2240E+03
     -9.809  0.3574E+02  0.2275E+03
     -9.712  0.3703E+02  0.2310E+03
     -9.616  0.3965E+02  0.2349E+03
     -9.519  0.4251E+02  0.2390E+03
     -9.422  0.4355E+02  0.2432E+03
     -9.326  0.4121E+02  0.2472E+03
     -9.229  0.3587E+02  0.2506E+03
     -9.132  0.3042E+02  0.2536E+03
     -9.036  0.2801E+02  0.2563E+03
     -8.939  0.2929E+02  0.2591E+03
     -8.842  0.3280E+02  0.2623E+03
     -8.746  0.3647E+02  0.2658E+03
     -8.649  0.3828E+02  0.2695E+03
     -8.552  0.3716E+02  0.2731E+03
     -8.456  0.3368E+02  0.2764E+03
     -8.359  0.2987E+02  0.2793E+03
     -8.262  0.2741E+02  0.2819E+03
     -8.166  0.2637E+02  0.2845E+03
     -8.069  0.2620E+02  0.2870E+03
     -7.972  0.2658E+02  0.2896E+03
     -7.876  0.2729E+02  0.2922E+03
     -7.779  0.2797E+02  0.2949E+03
     -7.682  0.2809E+02  0.2976E+03
     -7.586  0.2761E+02  0.3003E+03
     -7.489  0.2751E+02  0.3029E+03
     -7.392  0.2842E+02  0.3057E+03
     -7.296  0.2882E+02  0.3085E+03
     -7.199  0.2696E+02  0.3111E+03
     -7.102  0.2409E+02  0.3134E+03
     -7.006  0.2287E+02  0.3156E+03
     -6.909  0.2404E+02  0.3179E+03
     -6.812  0.2613E+02  0.3205E+03
     -6.715  0.2753E+02  0.3231E+03
     -6.619  0.2736E+02  0.3258E+03
     -6.522  0.2528E+02  0.3282E+03
     -6.425  0.2248E+02  0.3304E+03
     -6.329  0.2109E+02  0.3324E+03
     -6.232  0.2124E+02  0.3345E+03
     -6.135  0.2178E+02  0.3366E+03
     -6.039  0.2282E+02  0.3388E+03
     -5.942  0.2432E+02  0.3411E+03
     -5.845  0.2476E+02  0.3435E+03
     -5.749  0.2317E+02  0.3458E+03
     -5.652  0.2017E+02  0.3477E+03
     -5.555  0.1657E+02  0.3493E+03
     -5.459  0.1288E+02  0.3506E+03
     -5.362  0.1025E+02  0.3516E+03
     -5.265  0.1008E+02  0.3525E+03
     -5.169  0.1160E+02  0.3537E+03
     -5.072  0.1194E+02  0.3548E+03
     -4.975  0.1018E+02  0.3558E+03
     -4.879  0.8507E+01  0.3566E+03
     -4.782  0.8803E+01  0.3575E+03
     -4.685  0.1078E+02  0.3585E+03
     -4.589  0.1329E+02  0.3598E+03
     -4.492  0.1508E+02  0.3613E+03
     -4.395  0.1456E+02  0.3627E+03
     -4.299  0.1117E+02  0.3637E+03
     -4.202  0.6801E+01  0.3644E+03
     -4.105  0.3787E+01  0.3648E+03
     -4.009  0.2559E+01  0.3650E+03
     -3.912  0.2453E+01  0.3653E+03
     -3.815  0.2918E+01  0.3655E+03
     -3.719  0.3518E+01  0.3659E+03
     -3.622  0.3839E+01  0.3663E+03
     -3.525  0.3886E+01  0.3666E+03
     -3.429  0.3949E+01  0.3670E+03
     -3.332  0.3938E+01  0.3674E+03
     -3.235  0.3832E+01  0.3678E+03
     -3.139  0.4020E+01  0.3681E+03
     -3.042  0.4512E+01  0.3686E+03
     -2.945  0.4807E+01  0.3690E+03
     -2.849  0.5017E+01  0.3695E+03
     -2.752  0.6102E+01  0.3701E+03
     -2.655  0.7948E+01  0.3709E+03
     -2.559  0.8776E+01  0.3717E+03
     -2.462  0.7597E+01  0.3725E+03
     -2.365  0.5709E+01  0.3730E+03
     -2.269  0.5082E+01  0.3735E+03
     -2.172  0.6128E+01  0.3741E+03
     -2.075  0.7287E+01  0.3748E+03
     -1.979  0.6982E+01  0.3755E+03
     -1.882  0.6149E+01  0.3761E+03
     -1.785  0.7308E+01  0.3768E+03
     -1.689  0.1101E+02  0.3779E+03
     -1.592  0.1519E+02  0.3793E+03
     -1.495  0.1810E+02  0.3811E+03
     -1.399  0.1987E+02  0.3830E+03
     -1.302  0.2095E+02  0.3850E+03
     -1.205  0.2144E+02  0.3871E+03
     -1.109  0.2174E+02  0.3892E+03
     -1.012  0.2131E+02  0.3913E+03
     -0.915  0.1868E+02  0.3931E+03
     -0.819  0.1431E+02  0.3944E+03
     -0.722  0.1109E+02  0.3955E+03
     -0.625  0.1090E+02  0.3966E+03
     -0.529  0.1223E+02  0.3978E+03
     -0.432  0.1250E+02  0.3990E+03
     -0.335  0.1196E+02  0.4001E+03
     -0.239  0.1293E+02  0.4014E+03
     -0.142  0.1571E+02  0.4029E+03
     -0.045  0.1826E+02  0.4046E+03
      0.051  0.1979E+02  0.4066E+03
      0.148  0.2129E+02  0.4086E+03
      0.245  0.2257E+02  0.4108E+03
      0.341  0.2191E+02  0.4129E+03
      0.438  0.1949E+02  0.4148E+03
      0.535  0.1841E+02  0.4166E+03
      0.631  0.2106E+02  0.4186E+03
      0.728  0.2594E+02  0.4211E+03
      0.825  0.2964E+02  0.4240E+03
      0.921  0.3119E+02  0.4270E+03
      1.018  0.3284E+02  0.4302E+03
      1.115  0.3645E+02  0.4337E+03
      1.211  0.4171E+02  0.4377E+03
      1.308  0.4712E+02  0.4423E+03
      1.405  0.5045E+02  0.4472E+03
      1.502  0.4967E+02  0.4520E+03
      1.598  0.4424E+02  0.4562E+03
      1.695  0.3517E+02  0.4596E+03
      1.792  0.2409E+02  0.4620E+03
      1.888  0.1332E+02  0.4633E+03
      1.985  0.5553E+01  0.4638E+03
      2.082  0.1663E+01  0.4640E+03
      2.178  0.3489E+00  0.4640E+03
      2.275  0.5049E-01  0.4640E+03
      2.372  0.4984E-02  0.4640E+03
      2.468  0.3312E-03  0.4640E+03
      2.565  0.1461E-04  0.4640E+03
      2.662  0.4222E-06  0.4640E+03
      2.758  0.7903E-08  0.4640E+03
      2.855  0.9498E-10  0.4640E+03
      2.952  0.7293E-12  0.4640E+03
      3.048  0.3445E-14  0.4640E+03
      3.145  0.0000E+00  0.4640E+03
      3.242  0.0000E+00  0.4640E+03
      3.338  0.0000E+00  0.4640E+03
      3.435  0.0000E+00  0.4640E+03
      3.532  0.0000E+00  0.4640E+03
      3.628  0.0000E+00  0.4640E+03
      3.725  0.0000E+00  0.4640E+03
      3.822  0.0000E+00  0.4640E+03
