  92  92   0   0
  0.8273226E+02  0.2805000E-08  0.8100000E-09  0.3350000E-08  0.5000000E-15
   1.0000000000000000E-004
  CAR 
 unknown system                          
      3.75086255    -25.20115538  301     -3.22066760      1.00000000
    -25.201  0.0000E+00  0.0000E+00
    -25.105  0.0000E+00  0.0000E+00
    -25.008  0.0000E+00  0.0000E+00
    -24.912  0.0000E+00  0.0000E+00
    -24.815  0.0000E+00  0.0000E+00
    -24.719  0.0000E+00  0.0000E+00
    -24.622  0.0000E+00  0.0000E+00
    -24.526  0.0000E+00  0.0000E+00
    -24.429  0.0000E+00  0.0000E+00
    -24.333  0.3164E-14  0.3053E-15
    -24.236  0.6652E-12  0.6450E-13
    -24.140  0.8617E-10  0.8380E-11
    -24.043  0.7098E-08  0.6934E-09
    -23.947  0.3730E-06  0.3669E-07
    -23.850  0.1256E-04  0.1249E-05
    -23.754  0.2723E-03  0.2753E-04
    -23.657  0.3832E-02  0.3973E-03
    -23.561  0.3532E-01  0.3806E-02
    -23.464  0.2162E+00  0.2467E-01
    -23.368  0.8959E+00  0.1111E+00
    -23.271  0.2595E+01  0.3615E+00
    -23.175  0.5499E+01  0.8922E+00
    -23.078  0.9019E+01  0.1763E+01
    -22.982  0.1196E+02  0.2917E+01
    -22.885  0.1330E+02  0.4200E+01
    -22.788  0.1353E+02  0.5506E+01
    -22.692  0.1451E+02  0.6905E+01
    -22.595  0.1633E+02  0.8481E+01
    -22.499  0.1660E+02  0.1008E+02
    -22.402  0.1422E+02  0.1146E+02
    -22.306  0.1150E+02  0.1257E+02
    -22.209  0.1123E+02  0.1365E+02
    -22.113  0.1308E+02  0.1491E+02
    -22.016  0.1452E+02  0.1631E+02
    -21.920  0.1438E+02  0.1770E+02
    -21.823  0.1354E+02  0.1901E+02
    -21.727  0.1289E+02  0.2025E+02
    -21.630  0.1247E+02  0.2145E+02
    -21.534  0.1207E+02  0.2262E+02
    -21.437  0.1173E+02  0.2375E+02
    -21.341  0.1188E+02  0.2490E+02
    -21.244  0.1303E+02  0.2615E+02
    -21.148  0.1503E+02  0.2760E+02
    -21.051  0.1656E+02  0.2920E+02
    -20.955  0.1611E+02  0.3076E+02
    -20.858  0.1383E+02  0.3209E+02
    -20.762  0.1177E+02  0.3323E+02
    -20.665  0.1177E+02  0.3436E+02
    -20.569  0.1331E+02  0.3565E+02
    -20.472  0.1422E+02  0.3702E+02
    -20.376  0.1360E+02  0.3833E+02
    -20.279  0.1296E+02  0.3959E+02
    -20.183  0.1374E+02  0.4091E+02
    -20.086  0.1531E+02  0.4239E+02
    -19.990  0.1608E+02  0.4394E+02
    -19.893  0.1545E+02  0.4543E+02
    -19.797  0.1387E+02  0.4677E+02
    -19.700  0.1271E+02  0.4800E+02
    -19.604  0.1365E+02  0.4932E+02
    -19.507  0.1587E+02  0.5085E+02
    -19.411  0.1616E+02  0.5241E+02
    -19.314  0.1382E+02  0.5374E+02
    -19.218  0.1198E+02  0.5490E+02
    -19.121  0.1284E+02  0.5614E+02
    -19.025  0.1492E+02  0.5758E+02
    -18.928  0.1564E+02  0.5908E+02
    -18.832  0.1474E+02  0.6051E+02
    -18.735  0.1441E+02  0.6190E+02
    -18.639  0.1586E+02  0.6343E+02
    -18.542  0.1740E+02  0.6511E+02
    -18.446  0.1717E+02  0.6677E+02
    -18.349  0.1589E+02  0.6830E+02
    -18.253  0.1567E+02  0.6981E+02
    -18.156  0.1674E+02  0.7143E+02
    -18.060  0.1701E+02  0.7307E+02
    -17.963  0.1520E+02  0.7454E+02
    -17.867  0.1312E+02  0.7580E+02
    -17.770  0.1287E+02  0.7704E+02
    -17.674  0.1360E+02  0.7836E+02
    -17.577  0.1375E+02  0.7968E+02
    -17.481  0.1322E+02  0.8096E+02
    -17.384  0.1232E+02  0.8215E+02
    -17.288  0.1148E+02  0.8325E+02
    -17.191  0.1124E+02  0.8434E+02
    -17.095  0.1125E+02  0.8543E+02
    -16.998  0.1067E+02  0.8646E+02
    -16.902  0.9596E+01  0.8738E+02
    -16.805  0.9059E+01  0.8826E+02
    -16.709  0.9808E+01  0.8920E+02
    -16.612  0.1181E+02  0.9034E+02
    -16.516  0.1416E+02  0.9171E+02
    -16.419  0.1544E+02  0.9320E+02
    -16.323  0.1547E+02  0.9469E+02
    -16.226  0.1556E+02  0.9619E+02
    -16.130  0.1595E+02  0.9773E+02
    -16.033  0.1606E+02  0.9928E+02
    -15.937  0.1598E+02  0.1008E+03
    -15.840  0.1558E+02  0.1023E+03
    -15.743  0.1435E+02  0.1037E+03
    -15.647  0.1308E+02  0.1050E+03
    -15.550  0.1299E+02  0.1062E+03
    -15.454  0.1410E+02  0.1076E+03
    -15.357  0.1602E+02  0.1091E+03
    -15.261  0.1839E+02  0.1109E+03
    -15.164  0.2044E+02  0.1129E+03
    -15.068  0.2159E+02  0.1150E+03
    -14.971  0.2141E+02  0.1170E+03
    -14.875  0.1965E+02  0.1189E+03
    -14.778  0.1671E+02  0.1205E+03
    -14.682  0.1369E+02  0.1219E+03
    -14.585  0.1163E+02  0.1230E+03
    -14.489  0.1065E+02  0.1240E+03
    -14.392  0.1011E+02  0.1250E+03
    -14.296  0.9735E+01  0.1259E+03
    -14.199  0.1012E+02  0.1269E+03
    -14.103  0.1180E+02  0.1280E+03
    -14.006  0.1399E+02  0.1294E+03
    -13.910  0.1578E+02  0.1309E+03
    -13.813  0.1721E+02  0.1326E+03
    -13.717  0.1834E+02  0.1343E+03
    -13.620  0.1874E+02  0.1362E+03
    -13.524  0.1820E+02  0.1379E+03
    -13.427  0.1744E+02  0.1396E+03
    -13.331  0.1769E+02  0.1413E+03
    -13.234  0.1872E+02  0.1431E+03
    -13.138  0.1857E+02  0.1449E+03
    -13.041  0.1662E+02  0.1465E+03
    -12.945  0.1501E+02  0.1480E+03
    -12.848  0.1513E+02  0.1494E+03
    -12.752  0.1547E+02  0.1509E+03
    -12.655  0.1455E+02  0.1523E+03
    -12.559  0.1300E+02  0.1536E+03
    -12.462  0.1243E+02  0.1548E+03
    -12.366  0.1397E+02  0.1561E+03
    -12.269  0.1766E+02  0.1578E+03
    -12.173  0.2211E+02  0.1600E+03
    -12.076  0.2490E+02  0.1624E+03
    -11.980  0.2439E+02  0.1647E+03
    -11.883  0.2182E+02  0.1668E+03
    -11.787  0.1989E+02  0.1687E+03
    -11.690  0.1921E+02  0.1706E+03
    -11.594  0.1838E+02  0.1724E+03
    -11.497  0.1697E+02  0.1740E+03
    -11.401  0.1646E+02  0.1756E+03
    -11.304  0.1778E+02  0.1773E+03
    -11.208  0.2025E+02  0.1793E+03
    -11.111  0.2356E+02  0.1815E+03
    -11.015  0.2790E+02  0.1842E+03
    -10.918  0.3203E+02  0.1873E+03
    -10.822  0.3423E+02  0.1906E+03
    -10.725  0.3448E+02  0.1939E+03
    -10.629  0.3439E+02  0.1973E+03
    -10.532  0.3533E+02  0.2007E+03
    -10.436  0.3695E+02  0.2042E+03
    -10.339  0.3810E+02  0.2079E+03
    -10.243  0.3809E+02  0.2116E+03
    -10.146  0.3689E+02  0.2152E+03
    -10.050  0.3521E+02  0.2186E+03
     -9.953  0.3396E+02  0.2218E+03
     -9.857  0.3339E+02  0.2251E+03
     -9.760  0.3362E+02  0.2283E+03
     -9.664  0.3505E+02  0.2317E+03
     -9.567  0.3750E+02  0.2353E+03
     -9.471  0.4003E+02  0.2392E+03
     -9.374  0.4121E+02  0.2431E+03
     -9.278  0.3951E+02  0.2470E+03
     -9.181  0.3519E+02  0.2503E+03
     -9.085  0.3106E+02  0.2533E+03
     -8.988  0.2986E+02  0.2562E+03
     -8.892  0.3197E+02  0.2593E+03
     -8.795  0.3588E+02  0.2628E+03
     -8.699  0.3882E+02  0.2665E+03
     -8.602  0.3856E+02  0.2702E+03
     -8.505  0.3561E+02  0.2737E+03
     -8.409  0.3220E+02  0.2768E+03
     -8.312  0.2973E+02  0.2797E+03
     -8.216  0.2842E+02  0.2824E+03
     -8.119  0.2796E+02  0.2851E+03
     -8.023  0.2818E+02  0.2878E+03
     -7.926  0.2897E+02  0.2906E+03
     -7.830  0.2995E+02  0.2935E+03
     -7.733  0.3053E+02  0.2964E+03
     -7.637  0.3047E+02  0.2994E+03
     -7.540  0.2996E+02  0.3023E+03
     -7.444  0.2912E+02  0.3051E+03
     -7.347  0.2790E+02  0.3078E+03
     -7.251  0.2638E+02  0.3103E+03
     -7.154  0.2528E+02  0.3128E+03
     -7.058  0.2511E+02  0.3152E+03
     -6.961  0.2502E+02  0.3176E+03
     -6.865  0.2435E+02  0.3200E+03
     -6.768  0.2401E+02  0.3223E+03
     -6.672  0.2436E+02  0.3246E+03
     -6.575  0.2392E+02  0.3269E+03
     -6.479  0.2194E+02  0.3291E+03
     -6.382  0.2024E+02  0.3310E+03
     -6.286  0.2057E+02  0.3330E+03
     -6.189  0.2242E+02  0.3352E+03
     -6.093  0.2462E+02  0.3375E+03
     -5.996  0.2634E+02  0.3401E+03
     -5.900  0.2620E+02  0.3426E+03
     -5.803  0.2351E+02  0.3449E+03
     -5.707  0.1959E+02  0.3468E+03
     -5.610  0.1627E+02  0.3483E+03
     -5.514  0.1396E+02  0.3497E+03
     -5.417  0.1201E+02  0.3508E+03
     -5.321  0.1058E+02  0.3519E+03
     -5.224  0.1053E+02  0.3529E+03
     -5.128  0.1149E+02  0.3540E+03
     -5.031  0.1185E+02  0.3551E+03
     -4.935  0.1142E+02  0.3562E+03
     -4.838  0.1165E+02  0.3574E+03
     -4.742  0.1279E+02  0.3586E+03
     -4.645  0.1375E+02  0.3599E+03
     -4.549  0.1424E+02  0.3613E+03
     -4.452  0.1397E+02  0.3626E+03
     -4.356  0.1181E+02  0.3638E+03
     -4.259  0.8082E+01  0.3646E+03
     -4.163  0.4736E+01  0.3650E+03
     -4.066  0.2712E+01  0.3653E+03
     -3.970  0.1615E+01  0.3654E+03
     -3.873  0.1339E+01  0.3656E+03
     -3.777  0.2293E+01  0.3658E+03
     -3.680  0.4178E+01  0.3662E+03
     -3.584  0.5411E+01  0.3667E+03
     -3.487  0.4828E+01  0.3672E+03
     -3.391  0.3450E+01  0.3675E+03
     -3.294  0.2878E+01  0.3678E+03
     -3.198  0.2936E+01  0.3681E+03
     -3.101  0.2581E+01  0.3683E+03
     -3.005  0.2012E+01  0.3685E+03
     -2.908  0.2333E+01  0.3687E+03
     -2.812  0.3697E+01  0.3691E+03
     -2.715  0.5009E+01  0.3696E+03
     -2.619  0.5686E+01  0.3701E+03
     -2.522  0.6578E+01  0.3708E+03
     -2.426  0.8259E+01  0.3716E+03
     -2.329  0.9688E+01  0.3725E+03
     -2.233  0.9842E+01  0.3734E+03
     -2.136  0.9221E+01  0.3743E+03
     -2.040  0.8241E+01  0.3751E+03
     -1.943  0.6801E+01  0.3758E+03
     -1.847  0.6068E+01  0.3764E+03
     -1.750  0.7696E+01  0.3771E+03
     -1.654  0.1176E+02  0.3782E+03
     -1.557  0.1661E+02  0.3798E+03
     -1.461  0.2038E+02  0.3818E+03
     -1.364  0.2247E+02  0.3840E+03
     -1.267  0.2349E+02  0.3863E+03
     -1.171  0.2367E+02  0.3885E+03
     -1.074  0.2228E+02  0.3907E+03
     -0.978  0.1899E+02  0.3925E+03
     -0.881  0.1492E+02  0.3940E+03
     -0.785  0.1186E+02  0.3951E+03
     -0.688  0.1109E+02  0.3962E+03
     -0.592  0.1203E+02  0.3973E+03
     -0.495  0.1241E+02  0.3985E+03
     -0.399  0.1173E+02  0.3997E+03
     -0.302  0.1186E+02  0.4008E+03
     -0.206  0.1363E+02  0.4021E+03
     -0.109  0.1588E+02  0.4037E+03
     -0.013  0.1791E+02  0.4054E+03
      0.084  0.2014E+02  0.4073E+03
      0.180  0.2237E+02  0.4095E+03
      0.277  0.2327E+02  0.4117E+03
      0.373  0.2175E+02  0.4138E+03
      0.470  0.1920E+02  0.4157E+03
      0.566  0.1885E+02  0.4175E+03
      0.663  0.2178E+02  0.4196E+03
      0.759  0.2603E+02  0.4221E+03
      0.856  0.2970E+02  0.4250E+03
      0.952  0.3273E+02  0.4281E+03
      1.049  0.3560E+02  0.4316E+03
      1.145  0.3871E+02  0.4353E+03
      1.242  0.4281E+02  0.4394E+03
      1.338  0.4752E+02  0.4440E+03
      1.435  0.5033E+02  0.4489E+03
      1.531  0.4885E+02  0.4536E+03
      1.628  0.4239E+02  0.4577E+03
      1.724  0.3190E+02  0.4608E+03
      1.821  0.1980E+02  0.4627E+03
      1.917  0.9464E+01  0.4636E+03
      2.014  0.3263E+01  0.4639E+03
      2.110  0.7735E+00  0.4640E+03
      2.207  0.1223E+00  0.4640E+03
      2.303  0.1267E-01  0.4640E+03
      2.400  0.8508E-03  0.4640E+03
      2.496  0.3681E-04  0.4640E+03
      2.593  0.1021E-05  0.4640E+03
      2.689  0.1812E-07  0.4640E+03
      2.786  0.2051E-09  0.4640E+03
      2.882  0.1479E-11  0.4640E+03
      2.979  0.6327E-14  0.4640E+03
      3.075  0.0000E+00  0.4640E+03
      3.172  0.0000E+00  0.4640E+03
      3.268  0.0000E+00  0.4640E+03
      3.365  0.0000E+00  0.4640E+03
      3.461  0.0000E+00  0.4640E+03
      3.558  0.0000E+00  0.4640E+03
      3.654  0.0000E+00  0.4640E+03
      3.751  0.0000E+00  0.4640E+03
