 vasp.6.5.0 16Dec24 (build Feb 19 2025 19:45:31) complex                         
 executed on              LinuxNV date 2025.10.25  15:27:27
 running    2 mpi-ranks, on    1 nodes
 distrk:  each k-point on    2 cores,    1 groups
 distr:  one band on NCORE=   1 cores,    2 groups
 Offloading initialized ...    2 GPUs detected


--------------------------------------------------------------------------------------------------------


 INCAR:
   ISTART = 0            (Not Read existing wavefunction
   ISPIN = 1            (Non-Spin polarised DFT, Default\=1)
   ICHARG = 2            (The initial guess charge density is generated by superposition of atomic charge density)
   LREAL = Auto         (Projection operators: automatic)
   ENCUT = 500          (Cut-off energy for plane wave basis set, in eV)
   LWAVE = .FALSE.       (Write WAVECAR or not)
   LCHARG = .FALSE.       (Write CHGCAR or not)
   PREC = Accurate   (Precision level)
   KGAMMA = .TRUE.
   ALGO = Normal
   NSW = 0           (Default: NSW \= 0)
   IBRION = -1           (Ions are not moved)
   ISMEAR = 0
   EDIFF = 1E-06        (SCF energy convergence
   NELM = 150          (Max electronic SCF steps)

 POTCAR:    PAW_PBE C 08Apr2002                   
 POTCAR:    PAW_PBE C 08Apr2002                   
   SHA256 =  253f7b50bb8d59471dbedb8285d89021f4a42ed1a2c5d38a03a736e69125dd95 C/POTCAR              
   COPYR  = (c) Copyright 08Apr2002 Georg Kresse                                                    
   COPYR  = This file is part of the software VASP. Any use, copying, and all other rights are regul
   COPYR  = If you do not have a valid VASP license, you may not use, copy or distribute this file. 
   VRHFIN =C: s2p2                                                                                  
   LEXCH  = PE                                                                                      
   EATOM  =   147.1560 eV,   10.8157 Ry                                                             
                                                                                                    
   TITEL  = PAW_PBE C 08Apr2002                                                                     
   LULTRA =        F    use ultrasoft PP ?                                                          
   IUNSCR =        1    unscreen: 0-lin 1-nonlin 2-no                                               
   RPACOR =    1.200    partial core radius                                                         
   POMASS =   12.011; ZVAL   =    4.000    mass and valenz                                          
   RCORE  =    1.500    outmost cutoff radius                                                       
   RWIGS  =    1.630; RWIGS  =    0.863    wigner-seitz radius (au A)                               
   ENMAX  =  400.000; ENMIN  =  300.000 eV                                                          
   ICORE  =        2    local potential                                                             
   LCOR   =        T    correct aug charges                                                         
   LPAW   =        T    paw PP                                                                      
   EAUG   =  644.873                                                                                
   DEXC   =    0.000                                                                                
   RMAX   =    1.529    core radius for proj-oper                                                   
   RAUG   =    1.300    factor for augmentation sphere                                              
   RDEP   =    1.501    radius for radial grids                                                     
   RDEPT  =    1.300    core radius for aug-charge                                                  
                                                                                                    
   Atomic configuration                                                                             
    4 entries                                                                                       
     n  l   j            E        occ.                                                              
     1  0  0.50      -273.3789   2.0000                                                             
     2  0  0.50       -13.7508   2.0000                                                             
     2  1  0.50        -5.2854   2.0000                                                             
     3  2  1.50        -5.4423   0.0000                                                             
   Description                                                                                      
     l       E           TYP  RCUT    TYP  RCUT                                                     
     0    -13.7508458     23  1.200                                                                 
     0     -8.2022199     23  1.200                                                                 
     1     -5.2854383     23  1.500                                                                 
     1     34.0145650     23  1.500                                                                 
     2     -5.4423304      7  1.500                                                                 
  local pseudopotential read in
  partial core-charges read in
  partial kinetic energy density read in
  atomic valenz-charges read in
  non local Contribution for L=            0  read in
    real space projection operators read in
  non local Contribution for L=            0  read in
    real space projection operators read in
  non local Contribution for L=            1  read in
    real space projection operators read in
  non local Contribution for L=            1  read in
    real space projection operators read in
    PAW grid and wavefunctions read in
 
   number of l-projection  operators is LMAX  =            4
   number of lm-projection operators is LMMAX =            8
 
 Optimization of the real space projectors (new method)

 maximal supplied QI-value         = 25.13
 optimisation between [QCUT,QGAM] = [ 11.31, 22.87] = [ 35.82,146.48] Ry 
 Optimized for a Real-space Cutoff    1.03 Angstroem

   l    n(q)    QCUT    max X(q) W(low)/X(q) W(high)/X(q)  e(spline) 
   0      7    11.310   115.676    0.20E-03    0.90E-03    0.20E-06
   0      7    11.310    87.132    0.20E-03    0.89E-03    0.19E-06
   1      6    11.310     4.429    0.16E-03    0.28E-03    0.12E-06
   1      6    11.310     2.733    0.12E-03    0.21E-03    0.99E-07
  PAW_PBE C 08Apr2002                   :
 energy of atom  1       EATOM= -147.1560
 kinetic energy error for atom=    0.0076 (will be added to EATOM!!)
 
 
 POSCAR:  C
  positions in cartesian coordinates
  No initial velocities read in


 exchange-correlation table for PE
   RHO(1)=    0.500       N(1)  =     2000
   RHO(2)=  100.500       N(2)  =     4000
 


--------------------------------------------------------------------------------------------------------


 ion  position               nearest neighbor table
   1  0.010  0.119  0.550-   2 1.35   3 1.44  45 1.51  46 1.96
   2  0.008  0.283  0.543-   1 1.35   4 1.40  46 1.42  45 2.04
   3  0.054  0.031  0.542-  50 1.36   5 1.42   1 1.44
   4  0.049  0.365  0.529-  49 1.37   2 1.40   6 1.44
   5  0.095  0.110  0.526-   6 1.38   7 1.42   3 1.42
   6  0.091  0.276  0.518-   5 1.38   8 1.43   4 1.44
   7  0.139  0.033  0.516-   9 1.39   5 1.42  54 1.42
   8  0.135  0.359  0.508-  53 1.41  10 1.41   6 1.43
   9  0.180  0.108  0.500-  11 1.37   7 1.39  10 1.39
  10  0.175  0.277  0.493-   9 1.39   8 1.41  12 1.45
  11  0.221  0.029  0.491-  58 1.35   9 1.37  13 1.42
  12  0.218  0.363  0.481-  57 1.34  14 1.41  10 1.45
  13  0.263  0.109  0.477-  14 1.32  11 1.42  15 1.45
  14  0.260  0.271  0.474-  13 1.32  12 1.41  16 1.45
  15  0.308  0.026  0.473-  62 1.35  17 1.40  13 1.45
  16  0.304  0.358  0.465-  61 1.39  14 1.45  18 1.45
  17  0.351  0.111  0.466-  18 1.34  15 1.40  19 1.47
  18  0.350  0.276  0.462-  17 1.34  16 1.45  20 1.47
  19  0.395  0.017  0.458-  66 1.35  21 1.42  17 1.47
  20  0.396  0.352  0.451-  65 1.38  22 1.45  18 1.47
  21  0.440  0.097  0.457-  22 1.35  23 1.39  19 1.42
  22  0.440  0.264  0.454-  21 1.35  24 1.41  20 1.45
  23  0.484  0.016  0.457-  70 1.34  21 1.39  25 1.46
  24  0.485  0.343  0.452-  69 1.39  22 1.41  26 1.46
  25  0.530  0.096  0.463-  26 1.34  27 1.43  23 1.46
  26  0.531  0.258  0.455-  25 1.34  28 1.43  24 1.46
  27  0.573  0.017  0.474-  74 1.37  29 1.40  25 1.43
  28  0.573  0.348  0.464-  73 1.38  26 1.43  30 1.46
  29  0.616  0.101  0.478-  30 1.33  27 1.40  31 1.45
  30  0.618  0.263  0.472-  29 1.33  32 1.40  28 1.46
  31  0.656  0.022  0.499-  78 1.37  33 1.38  29 1.45
  32  0.661  0.346  0.481-  30 1.40  77 1.41  34 1.41
  33  0.700  0.098  0.503-  34 1.33  31 1.38  35 1.42
  34  0.701  0.260  0.496-  33 1.33  32 1.41  36 1.44
  35  0.739  0.014  0.520-  82 1.34  37 1.41  33 1.42
  36  0.743  0.346  0.507-  81 1.39  38 1.41  34 1.44
  37  0.784  0.093  0.526-  35 1.41  38 1.41  39 1.44
  38  0.786  0.263  0.517-  40 1.40  36 1.41  37 1.41
  39  0.825  0.021  0.544-  41 1.41  86 1.41  37 1.44
  40  0.828  0.347  0.526-  85 1.35  42 1.40  38 1.40
  41  0.869  0.103  0.547-  42 1.38  39 1.41  43 1.41
  42  0.870  0.270  0.539-  41 1.38  40 1.40  44 1.42
  43  0.914  0.025  0.553-  90 1.39  45 1.39  41 1.41
  44  0.914  0.359  0.544-  89 1.38  46 1.40  42 1.42
  45  0.957  0.111  0.553-  46 1.37  43 1.39   1 1.51   2 2.04
  46  0.957  0.276  0.545-  45 1.37  44 1.40   2 1.42   1 1.96
  47  0.008  0.617  0.546-  48 1.32  49 1.44  91 1.49  92 2.00
  48  0.013  0.776  0.553-  47 1.32  50 1.39  92 1.58  91 2.07
  49  0.051  0.532  0.534-   4 1.37  51 1.39  47 1.44
  50  0.055  0.863  0.544-   3 1.36  48 1.39  52 1.44
  51  0.094  0.609  0.524-  52 1.38  49 1.39  53 1.40
  52  0.096  0.777  0.530-  51 1.38  54 1.42  50 1.44
  53  0.134  0.532  0.509-  51 1.40   8 1.41  55 1.47
  54  0.139  0.859  0.522-  56 1.41  52 1.42   7 1.42
  55  0.180  0.615  0.502-  56 1.38  57 1.43  53 1.47
  56  0.182  0.785  0.508-  55 1.38  54 1.41  58 1.43
  57  0.218  0.528  0.483-  12 1.34  55 1.43  59 1.44
  58  0.223  0.863  0.492-  11 1.35  60 1.41  56 1.43
  59  0.262  0.612  0.473-  60 1.35  61 1.38  57 1.44
  60  0.263  0.778  0.476-  59 1.35  58 1.41  62 1.46
  61  0.303  0.529  0.461-  59 1.38  16 1.39  63 1.45
  62  0.309  0.859  0.471-  15 1.35  64 1.40  60 1.46
  63  0.348  0.607  0.453-  64 1.37  61 1.45  65 1.49
  64  0.350  0.773  0.461-  63 1.37  62 1.40  66 1.42
  65  0.395  0.522  0.446-  20 1.38  67 1.47  63 1.49
  66  0.395  0.851  0.457-  19 1.35  64 1.42  68 1.44
  67  0.441  0.606  0.448-  68 1.34  69 1.45  65 1.47
  68  0.441  0.770  0.453-  67 1.34  70 1.39  66 1.44
  69  0.485  0.515  0.450-  24 1.39  71 1.42  67 1.45
  70  0.484  0.851  0.455-  23 1.34  68 1.39  72 1.43
  71  0.529  0.595  0.458-  72 1.36  73 1.41  69 1.42
  72  0.528  0.762  0.459-  71 1.36  70 1.43  74 1.51
  73  0.574  0.519  0.464-  75 1.38  28 1.38  71 1.41
  74  0.572  0.848  0.476-  76 1.37  27 1.37  72 1.51
  75  0.614  0.597  0.480-  76 1.38  73 1.38  77 1.42
  76  0.612  0.764  0.487-  74 1.37  75 1.38  78 1.48
  77  0.658  0.517  0.487-  79 1.41  32 1.41  75 1.42
  78  0.654  0.854  0.503-  80 1.36  31 1.37  76 1.48
  79  0.696  0.597  0.507-  80 1.40  77 1.41  81 1.44
  80  0.693  0.768  0.513-  78 1.36  79 1.40  82 1.46
  81  0.742  0.517  0.512-  36 1.39  83 1.40  79 1.44
  82  0.738  0.849  0.523-  35 1.34  84 1.40  80 1.46
  83  0.783  0.599  0.525-  84 1.39  81 1.40  85 1.42
  84  0.781  0.768  0.532-  83 1.39  82 1.40  86 1.42
  85  0.827  0.514  0.529-  40 1.35  83 1.42  87 1.44
  86  0.823  0.846  0.546-  39 1.41  84 1.42  88 1.44
  87  0.868  0.601  0.543-  88 1.37  89 1.44  85 1.44
  88  0.869  0.768  0.550-  87 1.37  90 1.43  86 1.44
  89  0.915  0.529  0.542-  91 1.36  44 1.38  87 1.44
  90  0.913  0.854  0.555-  92 1.36  43 1.39  88 1.43
  91  0.956  0.615  0.550-  89 1.36  92 1.36  47 1.49  48 2.07
  92  0.957  0.780  0.558-  90 1.36  91 1.36  48 1.58  47 2.00
 
  LATTYP: Found a simple orthorhombic cell.
 ALAT       =     8.1000000000
 B/A-ratio  =     3.4629629630
 C/A-ratio  =     4.1358024691
  
  Lattice vectors:
  
 A1 = (   0.0000000000,  -8.1000000000,   0.0000000000)
 A2 = (  28.0500000000,   0.0000000000,   0.0000000000)
 A3 = (   0.0000000000,   0.0000000000,  33.5000000000)


Analysis of symmetry for initial positions (statically):
=====================================================================
 Subroutine PRICEL returns:
 Original cell was already a primitive cell.
 

 Routine SETGRP: Setting up the symmetry group for a 
 simple orthorhombic supercell.


 Subroutine GETGRP returns: Found  1 space group operations
 (whereof  1 operations were pure point group operations)
 out of a pool of  8 trial point group operations.


The static configuration has the point symmetry C_1 .


Analysis of symmetry for dynamics (positions and initial velocities):
=====================================================================
 Subroutine PRICEL returns:
 Original cell was already a primitive cell.
 

 Routine SETGRP: Setting up the symmetry group for a 
 simple orthorhombic supercell.


 Subroutine GETGRP returns: Found  1 space group operations
 (whereof  1 operations were pure point group operations)
 out of a pool of  8 trial point group operations.


The dynamic configuration has the point symmetry C_1 .


 Subroutine INISYM returns: Found  1 space group operations
 (whereof  1 operations are pure point group operations),
 and found     1 'primitive' translations


----------------------------------------------------------------------------------------

                                     Primitive cell                                     

  volume of cell :    7611.3675

  direct lattice vectors                    reciprocal lattice vectors
    28.050000000  0.000000000  0.000000000     0.035650624  0.000000000  0.000000000
     0.000000000  8.100000000  0.000000000     0.000000000  0.123456790  0.000000000
     0.000000000  0.000000000 33.500000000     0.000000000  0.000000000  0.029850746

  length of vectors
    28.050000000  8.100000000 33.500000000     0.035650624  0.123456790  0.029850746

  position of ions in fractional coordinates (direct lattice)
     0.010360036  0.118826173  0.549710448
     0.007908913  0.283018519  0.542653731
     0.054214973  0.031377778  0.542140299
     0.048536542  0.364717284  0.528773134
     0.095343316  0.109640000  0.526223881
     0.091090909  0.275848148  0.517668657
     0.138886988  0.032915679  0.515614925
     0.134500891  0.358701235  0.507555224
     0.179500178  0.107884691  0.499928358
     0.175399287  0.276906173  0.492898507
     0.221344385  0.029131358  0.491316418
     0.218372906  0.362849383  0.481232836
     0.262776114  0.108886173  0.476770149
     0.260281996  0.271113580  0.474388060
     0.308341533  0.025631235  0.472904478
     0.304000357  0.357779012  0.464579104
     0.351020677  0.111267531  0.465626866
     0.350064528  0.276350617  0.462074627
     0.394773619  0.017361481  0.457686567
     0.395761141  0.352256790  0.450856716
     0.439910873  0.096951111  0.456659701
     0.440335116  0.263539506  0.453650746
     0.483557932  0.015947160  0.456820896
     0.485065954  0.343380247  0.451761194
     0.529754011  0.096220988  0.462576119
     0.530595365  0.258460494  0.455495522
     0.573233512  0.016991728  0.473749254
     0.573426025  0.347890123  0.464211940
     0.616463458  0.101255432  0.478474627
     0.618363636  0.262953086  0.471641791
     0.656071301  0.022019753  0.498531343
     0.660680927  0.345917284  0.480626866
     0.699992870  0.097790000  0.502519403
     0.700623886  0.260333333  0.495964179
     0.739361854  0.014274691  0.519779104
     0.743265597  0.346085185  0.507447761
     0.783550802  0.092930864  0.526068657
     0.785743316  0.263285185  0.517364179
     0.825048128  0.020693580  0.544349254
     0.828320856  0.347371605  0.525997015
     0.869229947  0.103442716  0.547498507
     0.870424242  0.269602469  0.538522388
     0.913682709  0.025014568  0.553325373
     0.913682709  0.358704938  0.543800000
     0.956588235  0.110617901  0.553286567
     0.957304813  0.276064198  0.545194030
     0.008288449  0.616843210  0.545686567
     0.012663280  0.776470370  0.552540299
     0.051054189  0.532162963  0.533725373
     0.054532977  0.863180247  0.544462687
     0.093752228  0.609314815  0.524385075
     0.096103387  0.777325926  0.530361194
     0.134398930  0.532255556  0.509077612
     0.139457754  0.859493827  0.521808955
     0.180149733  0.615490123  0.502208955
     0.181664171  0.784579012  0.507764179
     0.218327273  0.528353086  0.483265672
     0.223378966  0.862995062  0.492310448
     0.262122995  0.611944444  0.473152239
     0.262882353  0.777962963  0.476017910
     0.302541176  0.528518519  0.460958209
     0.308803922  0.859235802  0.471029851
     0.348230303  0.606623457  0.453435821
     0.350317647  0.772806173  0.461194030
     0.394506239  0.521811111  0.445925373
     0.395379679  0.851066667  0.456820896
     0.440887701  0.605700000  0.447838806
     0.440762923  0.769596296  0.453391045
     0.485251337  0.514848148  0.450405970
     0.484481283  0.851177778  0.455053731
     0.529301248  0.594655556  0.457620896
     0.528335116  0.762348148  0.459423881
     0.574028520  0.518828395  0.464125373
     0.571518717  0.847728395  0.476423881
     0.613661319  0.596935802  0.479802985
     0.611750446  0.764181481  0.487337313
     0.657982175  0.517467901  0.487492537
     0.653750446  0.854483951  0.502552239
     0.696153298  0.596797531  0.506988060
     0.693468806  0.767703704  0.513152239
     0.741796791  0.517112346  0.512062687
     0.738160428  0.849111111  0.523337313
     0.783033868  0.599034568  0.524877612
     0.780901961  0.767696296  0.531826866
     0.826919786  0.513741975  0.528832836
     0.822994652  0.846407407  0.545791045
     0.868228164  0.601349383  0.543202985
     0.868959002  0.768098765  0.550080597
     0.915030303  0.529091358  0.542307463
     0.913197861  0.853738272  0.554835821
     0.955557932  0.614853086  0.550417910
     0.956762923  0.780358025  0.557865672

  ion indices of the primitive-cell ions
   primitive index   ion index
                 1           1
                 2           2
                 3           3
                 4           4
                 5           5
                 6           6
                 7           7
                 8           8
                 9           9
                10          10
                11          11
                12          12
                13          13
                14          14
                15          15
                16          16
                17          17
                18          18
                19          19
                20          20
                21          21
                22          22
                23          23
                24          24
                25          25
                26          26
                27          27
                28          28
                29          29
                30          30
                31          31
                32          32
                33          33
                34          34
                35          35
                36          36
                37          37
                38          38
                39          39
                40          40
                41          41
                42          42
                43          43
                44          44
                45          45
                46          46
                47          47
                48          48
                49          49
                50          50
                51          51
                52          52
                53          53
                54          54
                55          55
                56          56
                57          57
                58          58
                59          59
                60          60
                61          61
                62          62
                63          63
                64          64
                65          65
                66          66
                67          67
                68          68
                69          69
                70          70
                71          71
                72          72
                73          73
                74          74
                75          75
                76          76
                77          77
                78          78
                79          79
                80          80
                81          81
                82          82
                83          83
                84          84
                85          85
                86          86
                87          87
                88          88
                89          89
                90          90
                91          91
                92          92

----------------------------------------------------------------------------------------

 
 
 KPOINTS: K-Spacing Value to Generate K-Mesh: 0.03

Automatic generation of k-mesh.
 Grid dimensions read from file:
 generate k-points for:    1    4    1

 Generating k-lattice:

  Cartesian coordinates                     Fractional coordinates (reciprocal lattice)
     0.035650624  0.000000000  0.000000000     1.000000000  0.000000000  0.000000000
     0.000000000  0.030864198  0.000000000     0.000000000  0.250000000  0.000000000
     0.000000000  0.000000000  0.029850746     0.000000000  0.000000000  1.000000000

  Length of vectors
     0.035650624  0.030864198  0.029850746

  Shift w.r.t. Gamma in fractional coordinates (k-lattice)
     0.000000000  0.000000000  0.000000000

 
 Subroutine IBZKPT returns following result:
 ===========================================
 
 Found      3 irreducible k-points:
 
 Following reciprocal coordinates:
            Coordinates               Weight
  0.000000  0.000000  0.000000      1.000000
  0.000000  0.250000  0.000000      2.000000
  0.000000  0.500000  0.000000      1.000000
 
 Following cartesian coordinates:
            Coordinates               Weight
  0.000000  0.000000  0.000000      1.000000
  0.000000  0.030864  0.000000      2.000000
  0.000000  0.061728  0.000000      1.000000
 


--------------------------------------------------------------------------------------------------------




 Dimension of arrays:
   k-points           NKPTS =      3   k-points in BZ     NKDIM =      3   number of bands    NBANDS=    232
   number of dos      NEDOS =    301   number of ions     NIONS =     92
   non local maximal  LDIM  =      4   non local SUM 2l+1 LMDIM =      8
   total plane-waves  NPLWV = ******
   max r-space proj   IRMAX =   1967   max aug-charges    IRDMAX=   5083
   dimension x,y,z NGX =   210 NGY =   60 NGZ =  250
   dimension x,y,z NGXF=   420 NGYF=  120 NGZF=  500
   support grid    NGXF=   420 NGYF=  120 NGZF=  500
   ions per type =              92
   NGX,Y,Z   is equivalent  to a cutoff of  12.45, 12.31, 12.41 a.u.
   NGXF,Y,Z  is equivalent  to a cutoff of  24.89, 24.63, 24.81 a.u.

 SYSTEM =  unknown system                          
 POSCAR =   C                                      

 Startparameter for this run:
   NWRITE =      2    write-flag & timer
   PREC   = accura    normal or accurate (medium, high low for compatibility)
   ISTART =      0    job   : 0-new  1-cont  2-samecut
   ICHARG =      2    charge: 1-file 2-atom 10-const
   ISPIN  =      1    spin polarized calculation?
   LNONCOLLINEAR =      F non collinear calculations
   LSORBIT =      F    spin-orbit coupling
   INIWAV =      1    electr: 0-lowe 1-rand  2-diag
   LASPH  =      F    aspherical Exc in radial PAW
 Electronic Relaxation 1
   ENCUT  =  500.0 eV  36.75 Ry    6.06 a.u.  51.14 14.77 61.08*2*pi/ulx,y,z
   ENINI  =  500.0     initial cutoff
   ENAUG  =  644.9 eV  augmentation charge cutoff
   NELM   =    150;   NELMIN=  2; NELMDL= -5     # of ELM steps 
   EDIFF  = 0.1E-05   stopping-criterion for ELM
   LREAL  =      T    real-space projection
   NLSPLINE    = F    spline interpolate recip. space projectors
   LCOMPAT=      F    compatible to vasp.4.4
   GGA_COMPAT  = T    GGA compatible to vasp.4.4-vasp.4.6
   LMAXPAW     = -100 max onsite density
   LMAXMIX     =    2 max onsite mixed and CHGCAR
   VOSKOWN=      0    Vosko Wilk Nusair interpolation
   ROPT   =   -0.00025
 Ionic relaxation
   EDIFFG = 0.1E-04   stopping-criterion for IOM
   NSW    =      0    number of steps for IOM
   NBLOCK =      1;   KBLOCK =      1    inner block; outer block 
   IBRION =     -1    ionic relax: 0-MD 1-quasi-New 2-CG
   NFREE  =      0    steps in history (QN), initial steepest desc. (CG)
   ISIF   =      2    stress and relaxation
   IWAVPR =     10    prediction:  0-non 1-charg 2-wave 3-comb
   ISYM   =      2    0-nonsym 1-usesym 2-fastsym
   LCORR  =      T    Harris-Foulkes like correction to forces

   POTIM  = 0.5000    time-step for ionic-motion
   TEIN   =    0.0    initial temperature
   TEBEG  =    0.0;   TEEND  =   0.0 temperature during run
   SMASS  =  -3.00    Nose mass-parameter (am)
   estimated Nose-frequenzy (Omega)   =  0.10E-29 period in steps = 0.13E+47 mass=  -0.180E-25a.u.
   SCALEE = 1.0000    scale energy and forces
   NPACO  =    256;   APACO  = 10.0  distance and # of slots for P.C.
   PSTRESS=    0.0 pullay stress

  Mass of Ions in am
   POMASS =  12.01
  Ionic Valenz
   ZVAL   =   4.00
  Atomic Wigner-Seitz radii
   RWIGS  =  -1.00
  virtual crystal weights 
   VCA    =   1.00
   NELECT =     368.0000    total number of electrons
   NUPDOWN=      -1.0000    fix difference up-down

 DOS related values:
   EMIN   =  10.00;   EMAX   =-10.00  energy-range for DOS
   EFERMI =   0.00;   METHOD = LEGACY      
   ISMEAR =     0;   SIGMA  =   0.20  broadening in eV -4-tet -1-fermi 0-gaus
   EFERMI_NEDOS =   21; number of points for ismear=-14 and -15

 Electronic relaxation 2 (details)
   IALGO  =     38    algorithm
   LDIAG  =      T    sub-space diagonalisation (order eigenvalues)
   LSUBROT=      F    optimize rotation matrix (better conditioning)
   TURBO    =      0    0=normal 1=particle mesh
   IRESTART =      0    0=no restart 2=restart with 2 vectors
   NREBOOT  =      0    no. of reboots
   NMIN     =      0    reboot dimension
   EREF     =   0.00    reference energy to select bands
   IMIX   =      4    mixing-type and parameters
     AMIX     =   0.40;   BMIX     =  1.00
     AMIX_MAG =   1.60;   BMIX_MAG =  1.00
     AMIN     =   0.10
     WC   =   100.;   INIMIX=   1;  MIXPRE=   1;  MAXMIX= -45

 Intra band minimization:
   WEIMIN = 0.0000     energy-eigenvalue tresh-hold
   EBREAK =  0.11E-08  absolut break condition
   DEPER  =   0.30     relativ break condition  

   TIME   =   0.40     timestep for ELM

  volume/ion in A,a.u.               =      82.73       558.30
  Fermi-wavevector in a.u.,A,eV,Ry     =   0.596398  1.127030  4.839472  0.355691
  Thomas-Fermi vector in A             =   1.646729
 
 Write flags
   LWAVE        =      F    write WAVECAR
   LDOWNSAMPLE  =      F    k-point downsampling of WAVECAR
   LCHARG       =      F    write CHGCAR
   LVTOT        =      F    write LOCPOT, total local potential
   LVHAR        =      F    write LOCPOT, Hartree potential only
   WRT_POTENTIAL= false  ! write potential to hdf5 file
   LELF         =      F    write electronic localiz. function (ELF)
   LORBIT       =      0    0 simple, 1 ext, 2 COOP (PROOUT), +10 PAW based schemes


 Python interface
   PLUGINS active      =      F    recompile with -DPLUGINS to activate
 
 Dipole corrections
   LMONO      =      F    monopole corrections only (constant potential shift)
   LDIPOL     =      F    correct potential (dipole corrections)
   IDIPOL     =      0    1-x, 2-y, 3-z, 4-all directions 
   EPSILON    =  1.0000000 bulk dielectric constant
   LVACPOTAV  =      F  vacuum potentials using an averaging scheme for the charge density
   VACPOTFLAT =  0.1000000 required flatness to determine vacuum potential
 
Coulomb truncation method
  LTRUNCATE          =      F  Coulomb kernel truncation to be used
  IDIMENSIONALITY    =      3  Dimensionality of cutoff (0 molecules / 2 surfaces)
  ISURFACE           =     -1  Direction of surface normal
  LCOARSEN           =      F  Coarsen the charge grid before padding, preferred

 
 Exchange correlation treatment:
   GGA     = PE    functional components
   XC_C    = 1    coefficients multiplying the functional components
   LIBXC   =     F    Libxc                    
   VOSKOWN =     0    Vosko Wilk Nusair interpolation
   LHFCALC =     F    Hartree Fock is set to
   LHFONE  =     F    Hartree Fock one center treatment
   AEXX    =    0.0000 exact exchange contribution

 Parameters of functionals:
   PE:
     No parameter
 
 Van der Waals corrections
   IVDW    =     0    specifies the selected vdW correction

 Linear response parameters
   LEPSILON=     F    determine dielectric tensor
   LRPA    =     F    only Hartree local field effects (RPA)
   LNABLA  =     F    use nabla operator in PAW spheres
   LVEL    =     F    velocity operator in full k-point grid
   CSHIFT  =0.1000    complex shift for real part using Kramers Kronig
   OMEGAMAX=  -1.0    maximum frequency
   DEG_THRESHOLD= 0.2000000E-02 threshold for treating states as degnerate
   RTIME   =   -0.100 relaxation time in fs
  (WPLASMAI=    0.000 imaginary part of plasma frequency in eV, 0.658/RTIME)
   DFIELD  = 0.0000000 0.0000000 0.0000000 field for delta impulse in time
 
  Optional k-point grid parameters
   LKPOINTS_OPT  =     F    use optional k-point grid
   KPOINTS_OPT_MODE=     1    mode for optional k-point grid
 
 Orbital magnetization related:
   ORBITALMAG=     F  switch on orbital magnetization
   LCHIMAG   =     F  perturbation theory with respect to B field
   DQ        =  0.001000  dq finite difference perturbation B field
   LLRAUG    =     F  two centre corrections for induced B field
   LBONE     =     F  B-component reconstruction in AE one-centre
   LVGVCALC  =     T  calculate vGv susceptibility
   LVGVAPPL  =     F  apply vGv susceptibility instead of pGv for G=0

 Random number generation:
   RANDOM_GENERATOR = DEFAULT
   PCG_SEED         = not used


--------------------------------------------------------------------------------------------------------


 Static calculation
 charge density and potential will be updated during run
 non-spin polarized calculation
 Variant of blocked Davidson
 Davidson routine will perform the subspace rotation
 perform sub-space diagonalisation
    after iterative eigenvector-optimisation
 modified Broyden-mixing scheme, WC =      100.0
 initial mixing is a Kerker type mixing with AMIX =  0.4000 and BMIX =      1.0000
 Hartree-type preconditioning will be used
 using additional bands            48
 real space projection scheme for non local part
 use partial core corrections
 calculate Harris-corrections to forces 
   (improved forces if not selfconsistent)
 use gradient corrections 
 use of overlap-Matrix (Vanderbilt PP)
 Gauss-broadening in eV      SIGMA  =   0.20


--------------------------------------------------------------------------------------------------------


  energy-cutoff  :      500.00
  volume of cell :     7611.37
      direct lattice vectors                 reciprocal lattice vectors
    28.050000000  0.000000000  0.000000000     0.035650624  0.000000000  0.000000000
     0.000000000  8.100000000  0.000000000     0.000000000  0.123456790  0.000000000
     0.000000000  0.000000000 33.500000000     0.000000000  0.000000000  0.029850746

  length of vectors
    28.050000000  8.100000000 33.500000000     0.035650624  0.123456790  0.029850746


 
 k-points in units of 2pi/SCALE and weight: K-Spacing Value to Generate K-Mesh: 0.03
   0.00000000  0.00000000  0.00000000       0.250
   0.00000000  0.03086420  0.00000000       0.500
   0.00000000  0.06172840  0.00000000       0.250
 
 k-points in reciprocal lattice and weights: K-Spacing Value to Generate K-Mesh: 0.03
   0.00000000  0.00000000  0.00000000       0.250
   0.00000000  0.25000000  0.00000000       0.500
   0.00000000  0.50000000  0.00000000       0.250
 
 position of ions in fractional coordinates (direct lattice) 
   0.01036004  0.11882617  0.54971045
   0.00790891  0.28301852  0.54265373
   0.05421497  0.03137778  0.54214030
   0.04853654  0.36471728  0.52877313
   0.09534332  0.10964000  0.52622388
   0.09109091  0.27584815  0.51766866
   0.13888699  0.03291568  0.51561493
   0.13450089  0.35870123  0.50755522
   0.17950018  0.10788469  0.49992836
   0.17539929  0.27690617  0.49289851
   0.22134439  0.02913136  0.49131642
   0.21837291  0.36284938  0.48123284
   0.26277611  0.10888617  0.47677015
   0.26028200  0.27111358  0.47438806
   0.30834153  0.02563123  0.47290448
   0.30400036  0.35777901  0.46457910
   0.35102068  0.11126753  0.46562687
   0.35006453  0.27635062  0.46207463
   0.39477362  0.01736148  0.45768657
   0.39576114  0.35225679  0.45085672
   0.43991087  0.09695111  0.45665970
   0.44033512  0.26353951  0.45365075
   0.48355793  0.01594716  0.45682090
   0.48506595  0.34338025  0.45176119
   0.52975401  0.09622099  0.46257612
   0.53059537  0.25846049  0.45549552
   0.57323351  0.01699173  0.47374925
   0.57342602  0.34789012  0.46421194
   0.61646346  0.10125543  0.47847463
   0.61836364  0.26295309  0.47164179
   0.65607130  0.02201975  0.49853134
   0.66068093  0.34591728  0.48062687
   0.69999287  0.09779000  0.50251940
   0.70062389  0.26033333  0.49596418
   0.73936185  0.01427469  0.51977910
   0.74326560  0.34608519  0.50744776
   0.78355080  0.09293086  0.52606866
   0.78574332  0.26328519  0.51736418
   0.82504813  0.02069358  0.54434925
   0.82832086  0.34737160  0.52599701
   0.86922995  0.10344272  0.54749851
   0.87042424  0.26960247  0.53852239
   0.91368271  0.02501457  0.55332537
   0.91368271  0.35870494  0.54380000
   0.95658824  0.11061790  0.55328657
   0.95730481  0.27606420  0.54519403
   0.00828845  0.61684321  0.54568657
   0.01266328  0.77647037  0.55254030
   0.05105419  0.53216296  0.53372537
   0.05453298  0.86318025  0.54446269
   0.09375223  0.60931481  0.52438507
   0.09610339  0.77732593  0.53036119
   0.13439893  0.53225556  0.50907761
   0.13945775  0.85949383  0.52180896
   0.18014973  0.61549012  0.50220896
   0.18166417  0.78457901  0.50776418
   0.21832727  0.52835309  0.48326567
   0.22337897  0.86299506  0.49231045
   0.26212299  0.61194444  0.47315224
   0.26288235  0.77796296  0.47601791
   0.30254118  0.52851852  0.46095821
   0.30880392  0.85923580  0.47102985
   0.34823030  0.60662346  0.45343582
   0.35031765  0.77280617  0.46119403
   0.39450624  0.52181111  0.44592537
   0.39537968  0.85106667  0.45682090
   0.44088770  0.60570000  0.44783881
   0.44076292  0.76959630  0.45339104
   0.48525134  0.51484815  0.45040597
   0.48448128  0.85117778  0.45505373
   0.52930125  0.59465556  0.45762090
   0.52833512  0.76234815  0.45942388
   0.57402852  0.51882840  0.46412537
   0.57151872  0.84772840  0.47642388
   0.61366132  0.59693580  0.47980299
   0.61175045  0.76418148  0.48733731
   0.65798217  0.51746790  0.48749254
   0.65375045  0.85448395  0.50255224
   0.69615330  0.59679753  0.50698806
   0.69346881  0.76770370  0.51315224
   0.74179679  0.51711235  0.51206269
   0.73816043  0.84911111  0.52333731
   0.78303387  0.59903457  0.52487761
   0.78090196  0.76769630  0.53182687
   0.82691979  0.51374198  0.52883284
   0.82299465  0.84640741  0.54579104
   0.86822816  0.60134938  0.54320299
   0.86895900  0.76809877  0.55008060
   0.91503030  0.52909136  0.54230746
   0.91319786  0.85373827  0.55483582
   0.95555793  0.61485309  0.55041791
   0.95676292  0.78035802  0.55786567
 
 position of ions in cartesian coordinates  (Angst):
   0.29059900  0.96249200 18.41530000
   0.22184500  2.29245000 18.17890000
   1.52073000  0.25416000 18.16170000
   1.36145000  2.95421000 17.71390000
   2.67438000  0.88808400 17.62850000
   2.55510000  2.23437000 17.34190000
   3.89578000  0.26661700 17.27310000
   3.77275000  2.90548000 17.00310000
   5.03498000  0.87386600 16.74760000
   4.91995000  2.24294000 16.51210000
   6.20871000  0.23596400 16.45910000
   6.12536000  2.93908000 16.12130000
   7.37087000  0.88197800 15.97180000
   7.30091000  2.19602000 15.89200000
   8.64898000  0.20761300 15.84230000
   8.52721000  2.89801000 15.56340000
   9.84613000  0.90126700 15.59850000
   9.81931000  2.23844000 15.47950000
  11.07340000  0.14062800 15.33250000
  11.10110000  2.85328000 15.10370000
  12.33950000  0.78530400 15.29810000
  12.35140000  2.13467000 15.19730000
  13.56380000  0.12917200 15.30350000
  13.60610000  2.78138000 15.13400000
  14.85960000  0.77939000 15.49630000
  14.88320000  2.09353000 15.25910000
  16.07920000  0.13763300 15.87060000
  16.08460000  2.81791000 15.55110000
  17.29180000  0.82016900 16.02890000
  17.34510000  2.12992000 15.80000000
  18.40280000  0.17836000 16.70080000
  18.53210000  2.80193000 16.10100000
  19.63480000  0.79209900 16.83440000
  19.65250000  2.10870000 16.61480000
  20.73910000  0.11562500 17.41260000
  20.84860000  2.80329000 16.99950000
  21.97860000  0.75274000 17.62330000
  22.04010000  2.13261000 17.33170000
  23.14260000  0.16761800 18.23570000
  23.23440000  2.81371000 17.62090000
  24.38190000  0.83788600 18.34120000
  24.41540000  2.18378000 18.04050000
  25.62880000  0.20261800 18.53640000
  25.62880000  2.90551000 18.21730000
  26.83230000  0.89600500 18.53510000
  26.85240000  2.23612000 18.26400000
   0.23249100  4.99643000 18.28050000
   0.35520500  6.28941000 18.51010000
   1.43207000  4.31052000 17.87980000
   1.52965000  6.99176000 18.23950000
   2.62975000  4.93545000 17.56690000
   2.69570000  6.29634000 17.76710000
   3.76989000  4.31127000 17.05410000
   3.91179000  6.96190000 17.48060000
   5.05320000  4.98547000 16.82400000
   5.09568000  6.35509000 17.01010000
   6.12408000  4.27966000 16.18940000
   6.26578000  6.99026000 16.49240000
   7.35255000  4.95675000 15.85060000
   7.37385000  6.30150000 15.94660000
   8.48628000  4.28100000 15.44210000
   8.66195000  6.95981000 15.77950000
   9.76786000  4.91365000 15.19010000
   9.82641000  6.25973000 15.45000000
  11.06590000  4.22667000 14.93850000
  11.09040000  6.89364000 15.30350000
  12.36690000  4.90617000 15.00260000
  12.36340000  6.23373000 15.18860000
  13.61130000  4.17027000 15.08860000
  13.58970000  6.89454000 15.24430000
  14.84690000  4.81671000 15.33030000
  14.81980000  6.17502000 15.39070000
  16.10150000  4.20251000 15.54820000
  16.03110000  6.86660000 15.96020000
  17.21320000  4.83518000 16.07340000
  17.15960000  6.18987000 16.32580000
  18.45640000  4.19149000 16.33100000
  18.33770000  6.92132000 16.83550000
  19.52710000  4.83406000 16.98410000
  19.45180000  6.21840000 17.19060000
  20.80740000  4.18861000 17.15410000
  20.70540000  6.87780000 17.53180000
  21.96410000  4.85218000 17.58340000
  21.90430000  6.21834000 17.81620000
  23.19510000  4.16131000 17.71590000
  23.08500000  6.85590000 18.28400000
  24.35380000  4.87093000 18.19730000
  24.37430000  6.22160000 18.42770000
  25.66660000  4.28564000 18.16730000
  25.61520000  6.91528000 18.58700000
  26.80340000  4.98031000 18.43900000
  26.83720000  6.32090000 18.68850000
 


--------------------------------------------------------------------------------------------------------


 k-point     1 :   0.0000 0.0000 0.0000  plane waves:  193173
 k-point     2 :   0.0000 0.2500 0.0000  plane waves:  193166
 k-point     3 :   0.0000 0.5000 0.0000  plane waves:  193226

 maximum and minimum number of plane-waves per node :    193226   193166

 maximum number of plane-waves:    193226
 maximum index in each direction: 
   IXMAX=   51   IYMAX=   14   IZMAX=   61
   IXMIN=  -51   IYMIN=  -15   IZMIN=  -61


 serial   3D FFT for wavefunctions
 parallel 3D FFT for charge:
    minimum data exchange during FFTs selected (reduces bandwidth)


 total amount of memory used by VASP MPI-rank0  2294516. kBytes
=======================================================================

   base                                    :      30000. kBytes
   nonlr-proj                              :      15082. kBytes
   fftplans                                :     436558. kBytes
   grid                                    :     732614. kBytes
   one-center                              :        282. kBytes
   wavefun                                 :    1079980. kBytes
 
     INWAV:  cpu time      0.0000: real time      0.0000
 Broyden mixing: mesh for mixing (old mesh)
   NGX =103   NGY = 29   NGZ =123
  (NGX  =420   NGY  =120   NGZ  =500)
  gives a total of 367401 points

 initial charge density was supplied:
 charge density of overlapping atoms calculated
 number of electron     368.0000000 magnetization 
 keeping initial charge density in first step


--------------------------------------------------------------------------------------------------------


 Maximum index for non-local projection operator          1872
 Maximum index for augmentation-charges          2386 (set IRDMAX)


--------------------------------------------------------------------------------------------------------


 First call to EWALD:  gamma=   0.090
 Maximum number of real-space cells   2x   6x   2
 Maximum number of reciprocal cells   4x   1x   4

    FEWALD:  cpu time      0.1593: real time      0.1593


--------------------------------------- Ionic step        1  -------------------------------------------




--------------------------------------- Iteration      1(   1)  ---------------------------------------


    POTLOK:  cpu time      0.4199: real time      0.4377
    SETDIJ:  cpu time      0.0417: real time      0.0416
     EDDAV:  cpu time     11.1344: real time     11.1445
       DOS:  cpu time      0.0008: real time      0.0008
    --------------------------------------------
      LOOP:  cpu time     11.5967: real time     11.6247

 eigenvalue-minimisations  :  1728
 total energy-change (2. order) : 0.3623156E+04  (-0.1197404E+05)
 number of electron     368.0000000 magnetization 
 augmentation part      368.0000000 magnetization 

 Free energy of the ion-electron system (eV)
  ---------------------------------------------------
  alpha Z        PSCENC =        91.34886789
  Ewald energy   TEWEN  =    119289.73338017
  -Hartree energ DENC   =   -128622.47208741
  -exchange      EXHF   =         0.00000000
  -V(xc)+E(xc)   XCENC  =      1220.82292394
  PAW double counting   =      9984.02826696   -10036.41360137
  entropy T*S    EENTRO =        -0.82963504
  eigenvalues    EBANDS =     -1840.71731568
  atomic energy  EATOM  =     13537.65479391
  Solvation  Ediel_sol  =         0.00000000
  ---------------------------------------------------
  free energy    TOTEN  =      3623.15559336 eV

  energy without entropy =     3623.98522841  energy(sigma->0) =     3623.57041088


--------------------------------------------------------------------------------------------------------




--------------------------------------- Iteration      1(   2)  ---------------------------------------


     EDDAV:  cpu time     13.0378: real time     13.0426
       DOS:  cpu time      0.0007: real time      0.0007
    --------------------------------------------
      LOOP:  cpu time     13.0385: real time     13.0433

 eigenvalue-minimisations  :  2128
 total energy-change (2. order) :-0.3448126E+04  (-0.3193529E+04)
 number of electron     368.0000000 magnetization 
 augmentation part      368.0000000 magnetization 

 Free energy of the ion-electron system (eV)
  ---------------------------------------------------
  alpha Z        PSCENC =        91.34886789
  Ewald energy   TEWEN  =    119289.73338017
  -Hartree energ DENC   =   -128622.47208741
  -exchange      EXHF   =         0.00000000
  -V(xc)+E(xc)   XCENC  =      1220.82292394
  PAW double counting   =      9984.02826696   -10036.41360137
  entropy T*S    EENTRO =        -0.21826068
  eigenvalues    EBANDS =     -5289.45444095
  atomic energy  EATOM  =     13537.65479391
  Solvation  Ediel_sol  =         0.00000000
  ---------------------------------------------------
  free energy    TOTEN  =       175.02984246 eV

  energy without entropy =      175.24810314  energy(sigma->0) =      175.13897280


--------------------------------------------------------------------------------------------------------




--------------------------------------- Iteration      1(   3)  ---------------------------------------


     EDDAV:  cpu time     11.2635: real time     11.2675
       DOS:  cpu time      0.0007: real time      0.0007
    --------------------------------------------
      LOOP:  cpu time     11.2642: real time     11.2682

 eigenvalue-minimisations  :  1784
 total energy-change (2. order) :-0.1009206E+04  (-0.9875000E+03)
 number of electron     368.0000000 magnetization 
 augmentation part      368.0000000 magnetization 

 Free energy of the ion-electron system (eV)
  ---------------------------------------------------
  alpha Z        PSCENC =        91.34886789
  Ewald energy   TEWEN  =    119289.73338017
  -Hartree energ DENC   =   -128622.47208741
  -exchange      EXHF   =         0.00000000
  -V(xc)+E(xc)   XCENC  =      1220.82292394
  PAW double counting   =      9984.02826696   -10036.41360137
  entropy T*S    EENTRO =        -0.02625464
  eigenvalues    EBANDS =     -6298.85204224
  atomic energy  EATOM  =     13537.65479391
  Solvation  Ediel_sol  =         0.00000000
  ---------------------------------------------------
  free energy    TOTEN  =      -834.17575279 eV

  energy without entropy =     -834.14949815  energy(sigma->0) =     -834.16262547


--------------------------------------------------------------------------------------------------------




--------------------------------------- Iteration      1(   4)  ---------------------------------------


     EDDAV:  cpu time     10.8936: real time     10.8976
       DOS:  cpu time      0.0007: real time      0.0007
    --------------------------------------------
      LOOP:  cpu time     10.8943: real time     10.8983

 eigenvalue-minimisations  :  1712
 total energy-change (2. order) :-0.6165566E+02  (-0.6066195E+02)
 number of electron     368.0000000 magnetization 
 augmentation part      368.0000000 magnetization 

 Free energy of the ion-electron system (eV)
  ---------------------------------------------------
  alpha Z        PSCENC =        91.34886789
  Ewald energy   TEWEN  =    119289.73338017
  -Hartree energ DENC   =   -128622.47208741
  -exchange      EXHF   =         0.00000000
  -V(xc)+E(xc)   XCENC  =      1220.82292394
  PAW double counting   =      9984.02826696   -10036.41360137
  entropy T*S    EENTRO =        -0.06760387
  eigenvalues    EBANDS =     -6360.46635186
  atomic energy  EATOM  =     13537.65479391
  Solvation  Ediel_sol  =         0.00000000
  ---------------------------------------------------
  free energy    TOTEN  =      -895.83141164 eV

  energy without entropy =     -895.76380777  energy(sigma->0) =     -895.79760971


--------------------------------------------------------------------------------------------------------




--------------------------------------- Iteration      1(   5)  ---------------------------------------


     EDDAV:  cpu time     10.9938: real time     10.9979
       DOS:  cpu time      0.0007: real time      0.0007
    CHARGE:  cpu time      1.2061: real time      1.2077
    MIXING:  cpu time      0.2736: real time      0.2736
    --------------------------------------------
      LOOP:  cpu time     12.4741: real time     12.4799

 eigenvalue-minimisations  :  1736
 total energy-change (2. order) :-0.1515656E+01  (-0.1491897E+01)
 number of electron     368.0000001 magnetization 
 augmentation part       10.1369500 magnetization 

 Broyden mixing:
  rms(total) = 0.45487E+01    rms(broyden)= 0.45482E+01
  rms(prec ) = 0.46660E+01
  weight for this iteration     100.00

 Free energy of the ion-electron system (eV)
  ---------------------------------------------------
  alpha Z        PSCENC =        91.34886789
  Ewald energy   TEWEN  =    119289.73338017
  -Hartree energ DENC   =   -128622.47208741
  -exchange      EXHF   =         0.00000000
  -V(xc)+E(xc)   XCENC  =      1220.82292394
  PAW double counting   =      9984.02826696   -10036.41360137
  entropy T*S    EENTRO =        -0.06819124
  eigenvalues    EBANDS =     -6361.98142012
  atomic energy  EATOM  =     13537.65479391
  Solvation  Ediel_sol  =         0.00000000
  ---------------------------------------------------
  free energy    TOTEN  =      -897.34706727 eV

  energy without entropy =     -897.27887603  energy(sigma->0) =     -897.31297165


--------------------------------------------------------------------------------------------------------




--------------------------------------- Iteration      1(   6)  ---------------------------------------


    POTLOK:  cpu time      0.3215: real time      0.3215
    SETDIJ:  cpu time      0.0403: real time      0.0403
     EDDAV:  cpu time     10.2494: real time     10.2559
       DOS:  cpu time      0.0007: real time      0.0007
    CHARGE:  cpu time      1.1575: real time      1.1599
    MIXING:  cpu time      0.2779: real time      0.2778
    --------------------------------------------
      LOOP:  cpu time     12.0474: real time     12.0562

 eigenvalue-minimisations  :  1584
 total energy-change (2. order) : 0.4957398E+02  (-0.4728340E+01)
 number of electron     368.0000001 magnetization 
 augmentation part        9.7160479 magnetization 

 Broyden mixing:
  rms(total) = 0.26718E+01    rms(broyden)= 0.26718E+01
  rms(prec ) = 0.27299E+01
  weight for this iteration     100.00

 eigenvalues of (default mixing * dielectric matrix)
  average eigenvalue GAMMA=   2.1841
  2.1841

 Free energy of the ion-electron system (eV)
  ---------------------------------------------------
  alpha Z        PSCENC =        91.34886789
  Ewald energy   TEWEN  =    119289.73338017
  -Hartree energ DENC   =   -129192.05450909
  -exchange      EXHF   =         0.00000000
  -V(xc)+E(xc)   XCENC  =      1244.13306681
  PAW double counting   =     18914.91414436   -18974.89504622
  entropy T*S    EENTRO =        -0.06162293
  eigenvalues    EBANDS =     -5758.54616171
  atomic energy  EATOM  =     13537.65479391
  Solvation  Ediel_sol  =         0.00000000
  ---------------------------------------------------
  free energy    TOTEN  =      -847.77308681 eV

  energy without entropy =     -847.71146388  energy(sigma->0) =     -847.74227535


--------------------------------------------------------------------------------------------------------




--------------------------------------- Iteration      1(   7)  ---------------------------------------


    POTLOK:  cpu time      0.3221: real time      0.3221
    SETDIJ:  cpu time      0.0402: real time      0.0402
     EDDAV:  cpu time     10.0815: real time     10.0848
       DOS:  cpu time      0.0007: real time      0.0007
    CHARGE:  cpu time      1.1557: real time      1.1558
    MIXING:  cpu time      0.2806: real time      0.2807
    --------------------------------------------
      LOOP:  cpu time     11.8807: real time     11.8842

 eigenvalue-minimisations  :  1552
 total energy-change (2. order) : 0.1839212E+02  (-0.6585367E+01)
 number of electron     368.0000001 magnetization 
 augmentation part        9.1608868 magnetization 

 Broyden mixing:
  rms(total) = 0.73546E+00    rms(broyden)= 0.73519E+00
  rms(prec ) = 0.74530E+00
  weight for this iteration     100.00

 eigenvalues of (default mixing * dielectric matrix)
  average eigenvalue GAMMA=   2.1943
  2.1943  2.1943

 Free energy of the ion-electron system (eV)
  ---------------------------------------------------
  alpha Z        PSCENC =        91.34886789
  Ewald energy   TEWEN  =    119289.73338017
  -Hartree energ DENC   =   -129955.47324387
  -exchange      EXHF   =         0.00000000
  -V(xc)+E(xc)   XCENC  =      1275.22297538
  PAW double counting   =     36489.62582605   -36556.50140367
  entropy T*S    EENTRO =        -0.05856152
  eigenvalues    EBANDS =     -5000.93359983
  atomic energy  EATOM  =     13537.65479391
  Solvation  Ediel_sol  =         0.00000000
  ---------------------------------------------------
  free energy    TOTEN  =      -829.38096550 eV

  energy without entropy =     -829.32240398  energy(sigma->0) =     -829.35168474


--------------------------------------------------------------------------------------------------------




--------------------------------------- Iteration      1(   8)  ---------------------------------------


    POTLOK:  cpu time      0.3225: real time      0.3225
    SETDIJ:  cpu time      0.0400: real time      0.0400
     EDDAV:  cpu time     10.2856: real time     10.2890
       DOS:  cpu time      0.0008: real time      0.0008
    CHARGE:  cpu time      1.1559: real time      1.1570
    MIXING:  cpu time      0.2817: real time      0.2817
    --------------------------------------------
      LOOP:  cpu time     12.0865: real time     12.0909

 eigenvalue-minimisations  :  1592
 total energy-change (2. order) : 0.2825180E+00  (-0.2587816E+00)
 number of electron     368.0000001 magnetization 
 augmentation part        9.1459561 magnetization 

 Broyden mixing:
  rms(total) = 0.10529E+00    rms(broyden)= 0.10526E+00
  rms(prec ) = 0.12709E+00
  weight for this iteration     100.00

 eigenvalues of (default mixing * dielectric matrix)
  average eigenvalue GAMMA=   1.8587
  1.2483  2.4404  1.8875

 Free energy of the ion-electron system (eV)
  ---------------------------------------------------
  alpha Z        PSCENC =        91.34886789
  Ewald energy   TEWEN  =    119289.73338017
  -Hartree energ DENC   =   -130045.54420652
  -exchange      EXHF   =         0.00000000
  -V(xc)+E(xc)   XCENC  =      1274.88848478
  PAW double counting   =     40678.20950606   -40742.40744620
  entropy T*S    EENTRO =        -0.05864089
  eigenvalues    EBANDS =     -4912.92318673
  atomic energy  EATOM  =     13537.65479391
  Solvation  Ediel_sol  =         0.00000000
  ---------------------------------------------------
  free energy    TOTEN  =      -829.09844754 eV

  energy without entropy =     -829.03980666  energy(sigma->0) =     -829.06912710


--------------------------------------------------------------------------------------------------------




--------------------------------------- Iteration      1(   9)  ---------------------------------------


    POTLOK:  cpu time      0.3199: real time      0.3199
    SETDIJ:  cpu time      0.0403: real time      0.0403
     EDDAV:  cpu time     10.5719: real time     10.5784
       DOS:  cpu time      0.0007: real time      0.0007
    CHARGE:  cpu time      1.1545: real time      1.1560
    MIXING:  cpu time      0.2843: real time      0.2845
    --------------------------------------------
      LOOP:  cpu time     12.3716: real time     12.3799

 eigenvalue-minimisations  :  1648
 total energy-change (2. order) : 0.1138115E+00  (-0.2946209E-01)
 number of electron     368.0000001 magnetization 
 augmentation part        9.1221406 magnetization 

 Broyden mixing:
  rms(total) = 0.58579E-01    rms(broyden)= 0.58570E-01
  rms(prec ) = 0.79665E-01
  weight for this iteration     100.00

 eigenvalues of (default mixing * dielectric matrix)
  average eigenvalue GAMMA=   1.7054
  2.2086  2.2086  1.2021  1.2021

 Free energy of the ion-electron system (eV)
  ---------------------------------------------------
  alpha Z        PSCENC =        91.34886789
  Ewald energy   TEWEN  =    119289.73338017
  -Hartree energ DENC   =   -130117.53283383
  -exchange      EXHF   =         0.00000000
  -V(xc)+E(xc)   XCENC  =      1276.40192783
  PAW double counting   =     41258.49823294   -41322.79090455
  entropy T*S    EENTRO =        -0.05874607
  eigenvalues    EBANDS =     -4842.23935436
  atomic energy  EATOM  =     13537.65479391
  Solvation  Ediel_sol  =         0.00000000
  ---------------------------------------------------
  free energy    TOTEN  =      -828.98463608 eV

  energy without entropy =     -828.92589001  energy(sigma->0) =     -828.95526304


--------------------------------------------------------------------------------------------------------




--------------------------------------- Iteration      1(  10)  ---------------------------------------


    POTLOK:  cpu time      0.3221: real time      0.3221
    SETDIJ:  cpu time      0.0402: real time      0.0402
     EDDAV:  cpu time     10.9331: real time     10.9397
       DOS:  cpu time      0.0007: real time      0.0007
    CHARGE:  cpu time      1.1591: real time      1.1594
    MIXING:  cpu time      0.2916: real time      0.2923
    --------------------------------------------
      LOOP:  cpu time     12.7468: real time     12.7545

 eigenvalue-minimisations  :  1720
 total energy-change (2. order) : 0.3777664E-01  (-0.5889654E-02)
 number of electron     368.0000001 magnetization 
 augmentation part        9.1117190 magnetization 

 Broyden mixing:
  rms(total) = 0.36285E-01    rms(broyden)= 0.36282E-01
  rms(prec ) = 0.55525E-01
  weight for this iteration     100.00

 eigenvalues of (default mixing * dielectric matrix)
  average eigenvalue GAMMA=   1.7153
  2.4595  2.4595  1.5208  1.3224  0.8143

 Free energy of the ion-electron system (eV)
  ---------------------------------------------------
  alpha Z        PSCENC =        91.34886789
  Ewald energy   TEWEN  =    119289.73338017
  -Hartree energ DENC   =   -130167.32392457
  -exchange      EXHF   =         0.00000000
  -V(xc)+E(xc)   XCENC  =      1276.70902997
  PAW double counting   =     41021.57875515   -41085.71659507
  entropy T*S    EENTRO =        -0.05877494
  eigenvalues    EBANDS =     -4792.87239194
  atomic energy  EATOM  =     13537.65479391
  Solvation  Ediel_sol  =         0.00000000
  ---------------------------------------------------
  free energy    TOTEN  =      -828.94685944 eV

  energy without entropy =     -828.88808449  energy(sigma->0) =     -828.91747196


--------------------------------------------------------------------------------------------------------




--------------------------------------- Iteration      1(  11)  ---------------------------------------


    POTLOK:  cpu time      0.3198: real time      0.3198
    SETDIJ:  cpu time      0.0401: real time      0.0401
     EDDAV:  cpu time     10.1995: real time     10.2034
       DOS:  cpu time      0.0007: real time      0.0007
    CHARGE:  cpu time      1.1692: real time      1.1704
    MIXING:  cpu time      0.2986: real time      0.2995
    --------------------------------------------
      LOOP:  cpu time     12.0280: real time     12.0339

 eigenvalue-minimisations  :  1576
 total energy-change (2. order) : 0.2691210E-01  (-0.1844796E-02)
 number of electron     368.0000001 magnetization 
 augmentation part        9.1073552 magnetization 

 Broyden mixing:
  rms(total) = 0.25482E-01    rms(broyden)= 0.25481E-01
  rms(prec ) = 0.39397E-01
  weight for this iteration     100.00

 eigenvalues of (default mixing * dielectric matrix)
  average eigenvalue GAMMA=   1.7692
  2.8553  2.5794  1.9243  0.9339  1.1611  1.1611

 Free energy of the ion-electron system (eV)
  ---------------------------------------------------
  alpha Z        PSCENC =        91.34886789
  Ewald energy   TEWEN  =    119289.73338017
  -Hartree energ DENC   =   -130225.22089481
  -exchange      EXHF   =         0.00000000
  -V(xc)+E(xc)   XCENC  =      1277.21071792
  PAW double counting   =     40953.28754514   -41017.32449972
  entropy T*S    EENTRO =        -0.05873849
  eigenvalues    EBANDS =     -4735.55111934
  atomic energy  EATOM  =     13537.65479391
  Solvation  Ediel_sol  =         0.00000000
  ---------------------------------------------------
  free energy    TOTEN  =      -828.91994734 eV

  energy without entropy =     -828.86120885  energy(sigma->0) =     -828.89057809


--------------------------------------------------------------------------------------------------------




--------------------------------------- Iteration      1(  12)  ---------------------------------------


    POTLOK:  cpu time      0.3196: real time      0.3196
    SETDIJ:  cpu time      0.0400: real time      0.0400
     EDDAV:  cpu time     10.0953: real time     10.0989
       DOS:  cpu time      0.0007: real time      0.0008
    CHARGE:  cpu time      1.1578: real time      1.1584
    MIXING:  cpu time      0.3076: real time      0.3081
    --------------------------------------------
      LOOP:  cpu time     11.9211: real time     11.9258

 eigenvalue-minimisations  :  1552
 total energy-change (2. order) : 0.4453178E-02  (-0.2610426E-02)
 number of electron     368.0000001 magnetization 
 augmentation part        9.0996871 magnetization 

 Broyden mixing:
  rms(total) = 0.15453E-01    rms(broyden)= 0.15449E-01
  rms(prec ) = 0.23782E-01
  weight for this iteration     100.00

 eigenvalues of (default mixing * dielectric matrix)
  average eigenvalue GAMMA=   2.0370
  4.7333  2.3761  2.0077  2.0077  0.9790  1.0777  1.0777

 Free energy of the ion-electron system (eV)
  ---------------------------------------------------
  alpha Z        PSCENC =        91.34886789
  Ewald energy   TEWEN  =    119289.73338017
  -Hartree energ DENC   =   -130290.73721546
  -exchange      EXHF   =         0.00000000
  -V(xc)+E(xc)   XCENC  =      1277.86513133
  PAW double counting   =     41010.90828662   -41074.93661837
  entropy T*S    EENTRO =        -0.05874157
  eigenvalues    EBANDS =     -4670.69337869
  atomic energy  EATOM  =     13537.65479391
  Solvation  Ediel_sol  =         0.00000000
  ---------------------------------------------------
  free energy    TOTEN  =      -828.91549416 eV

  energy without entropy =     -828.85675259  energy(sigma->0) =     -828.88612338


--------------------------------------------------------------------------------------------------------




--------------------------------------- Iteration      1(  13)  ---------------------------------------


    POTLOK:  cpu time      0.3199: real time      0.3200
    SETDIJ:  cpu time      0.0401: real time      0.0401
     EDDAV:  cpu time     10.1826: real time     10.1864
       DOS:  cpu time      0.0007: real time      0.0007
    CHARGE:  cpu time      1.1586: real time      1.1601
    MIXING:  cpu time      0.3121: real time      0.3144
    --------------------------------------------
      LOOP:  cpu time     12.0140: real time     12.0217

 eigenvalue-minimisations  :  1568
 total energy-change (2. order) :-0.1085746E-01  (-0.9218562E-03)
 number of electron     368.0000001 magnetization 
 augmentation part        9.0969829 magnetization 

 Broyden mixing:
  rms(total) = 0.92620E-02    rms(broyden)= 0.92598E-02
  rms(prec ) = 0.12872E-01
  weight for this iteration     100.00

 eigenvalues of (default mixing * dielectric matrix)
  average eigenvalue GAMMA=   2.0704
  5.3522  2.4376  2.4376  1.8810  1.2397  1.2397  0.8872  1.0885

 Free energy of the ion-electron system (eV)
  ---------------------------------------------------
  alpha Z        PSCENC =        91.34886789
  Ewald energy   TEWEN  =    119289.73338017
  -Hartree energ DENC   =   -130342.69022243
  -exchange      EXHF   =         0.00000000
  -V(xc)+E(xc)   XCENC  =      1278.08408932
  PAW double counting   =     40965.04994019   -41029.06322863
  entropy T*S    EENTRO =        -0.05874453
  eigenvalues    EBANDS =     -4618.98522751
  atomic energy  EATOM  =     13537.65479391
  Solvation  Ediel_sol  =         0.00000000
  ---------------------------------------------------
  free energy    TOTEN  =      -828.92635162 eV

  energy without entropy =     -828.86760709  energy(sigma->0) =     -828.89697936


--------------------------------------------------------------------------------------------------------




--------------------------------------- Iteration      1(  14)  ---------------------------------------


    POTLOK:  cpu time      0.3201: real time      0.3201
    SETDIJ:  cpu time      0.0406: real time      0.0406
     EDDAV:  cpu time     10.1879: real time     10.1916
       DOS:  cpu time      0.0007: real time      0.0007
    CHARGE:  cpu time      1.1584: real time      1.1588
    MIXING:  cpu time      0.3212: real time      0.3211
    --------------------------------------------
      LOOP:  cpu time     12.0289: real time     12.0329

 eigenvalue-minimisations  :  1568
 total energy-change (2. order) :-0.1734309E-01  (-0.1364839E-03)
 number of electron     368.0000001 magnetization 
 augmentation part        9.0960112 magnetization 

 Broyden mixing:
  rms(total) = 0.56743E-02    rms(broyden)= 0.56737E-02
  rms(prec ) = 0.79274E-02
  weight for this iteration     100.00

 eigenvalues of (default mixing * dielectric matrix)
  average eigenvalue GAMMA=   2.1861
  6.3521  2.7179  2.7179  1.8548  1.6686  1.2297  1.2297  0.9521  0.9521

 Free energy of the ion-electron system (eV)
  ---------------------------------------------------
  alpha Z        PSCENC =        91.34886789
  Ewald energy   TEWEN  =    119289.73338017
  -Hartree energ DENC   =   -130359.40295757
  -exchange      EXHF   =         0.00000000
  -V(xc)+E(xc)   XCENC  =      1278.10835387
  PAW double counting   =     40959.63092078   -41023.65775699
  entropy T*S    EENTRO =        -0.05874083
  eigenvalues    EBANDS =     -4602.30055593
  atomic energy  EATOM  =     13537.65479391
  Solvation  Ediel_sol  =         0.00000000
  ---------------------------------------------------
  free energy    TOTEN  =      -828.94369471 eV

  energy without entropy =     -828.88495388  energy(sigma->0) =     -828.91432430


--------------------------------------------------------------------------------------------------------




--------------------------------------- Iteration      1(  15)  ---------------------------------------


    POTLOK:  cpu time      0.3203: real time      0.3204
    SETDIJ:  cpu time      0.0404: real time      0.0404
     EDDAV:  cpu time     10.2290: real time     10.2354
       DOS:  cpu time      0.0007: real time      0.0007
    CHARGE:  cpu time      1.1547: real time      1.1591
    MIXING:  cpu time      0.3285: real time      0.3306
    --------------------------------------------
      LOOP:  cpu time     12.0738: real time     12.0867

 eigenvalue-minimisations  :  1576
 total energy-change (2. order) :-0.1982723E-01  (-0.1747006E-03)
 number of electron     368.0000001 magnetization 
 augmentation part        9.0956393 magnetization 

 Broyden mixing:
  rms(total) = 0.32971E-02    rms(broyden)= 0.32966E-02
  rms(prec ) = 0.44088E-02
  weight for this iteration     100.00

 eigenvalues of (default mixing * dielectric matrix)
  average eigenvalue GAMMA=   2.2400
  7.0302  3.4542  2.2500  2.2500  1.6016  1.3850  1.3850  1.1403  0.9518  0.9518

 Free energy of the ion-electron system (eV)
  ---------------------------------------------------
  alpha Z        PSCENC =        91.34886789
  Ewald energy   TEWEN  =    119289.73338017
  -Hartree energ DENC   =   -130370.01676857
  -exchange      EXHF   =         0.00000000
  -V(xc)+E(xc)   XCENC  =      1278.08974467
  PAW double counting   =     40968.12851030   -41032.15720872
  entropy T*S    EENTRO =        -0.05874646
  eigenvalues    EBANDS =     -4591.68609512
  atomic energy  EATOM  =     13537.65479391
  Solvation  Ediel_sol  =         0.00000000
  ---------------------------------------------------
  free energy    TOTEN  =      -828.96352194 eV

  energy without entropy =     -828.90477548  energy(sigma->0) =     -828.93414871


--------------------------------------------------------------------------------------------------------




--------------------------------------- Iteration      1(  16)  ---------------------------------------


    POTLOK:  cpu time      0.3202: real time      0.3202
    SETDIJ:  cpu time      0.0400: real time      0.0401
     EDDAV:  cpu time     10.4781: real time     10.4853
       DOS:  cpu time      0.0008: real time      0.0008
    CHARGE:  cpu time      1.1673: real time      1.1695
    MIXING:  cpu time      0.3399: real time      0.3399
    --------------------------------------------
      LOOP:  cpu time     12.3464: real time     12.3557

 eigenvalue-minimisations  :  1624
 total energy-change (2. order) :-0.8876204E-02  (-0.4902342E-04)
 number of electron     368.0000001 magnetization 
 augmentation part        9.0955974 magnetization 

 Broyden mixing:
  rms(total) = 0.21859E-02    rms(broyden)= 0.21858E-02
  rms(prec ) = 0.27662E-02
  weight for this iteration     100.00

 eigenvalues of (default mixing * dielectric matrix)
  average eigenvalue GAMMA=   2.3241
  7.8873  3.9721  2.3824  2.3824  1.9080  1.4863  1.4863  0.9609  0.9609  1.0695
  1.0695

 Free energy of the ion-electron system (eV)
  ---------------------------------------------------
  alpha Z        PSCENC =        91.34886789
  Ewald energy   TEWEN  =    119289.73338017
  -Hartree energ DENC   =   -130374.00116529
  -exchange      EXHF   =         0.00000000
  -V(xc)+E(xc)   XCENC  =      1278.06902853
  PAW double counting   =     40959.27117835   -41023.29782897
  entropy T*S    EENTRO =        -0.05875182
  eigenvalues    EBANDS =     -4587.69190091
  atomic energy  EATOM  =     13537.65479391
  Solvation  Ediel_sol  =         0.00000000
  ---------------------------------------------------
  free energy    TOTEN  =      -828.97239815 eV

  energy without entropy =     -828.91364633  energy(sigma->0) =     -828.94302224


--------------------------------------------------------------------------------------------------------




--------------------------------------- Iteration      1(  17)  ---------------------------------------


    POTLOK:  cpu time      0.3202: real time      0.3204
    SETDIJ:  cpu time      0.0403: real time      0.0404
     EDDAV:  cpu time     10.1091: real time     10.1130
       DOS:  cpu time      0.0007: real time      0.0007
    CHARGE:  cpu time      1.1567: real time      1.1585
    MIXING:  cpu time      0.3495: real time      0.3512
    --------------------------------------------
      LOOP:  cpu time     11.9766: real time     11.9842

 eigenvalue-minimisations  :  1552
 total energy-change (2. order) :-0.5190498E-02  (-0.3155055E-04)
 number of electron     368.0000001 magnetization 
 augmentation part        9.0954468 magnetization 

 Broyden mixing:
  rms(total) = 0.11530E-02    rms(broyden)= 0.11529E-02
  rms(prec ) = 0.14736E-02
  weight for this iteration     100.00

 eigenvalues of (default mixing * dielectric matrix)
  average eigenvalue GAMMA=   2.3708
  8.3783  4.5274  2.4523  2.4523  2.0511  1.4336  1.4336  1.5165  1.2417  0.9790
  0.9916  0.9916

 Free energy of the ion-electron system (eV)
  ---------------------------------------------------
  alpha Z        PSCENC =        91.34886789
  Ewald energy   TEWEN  =    119289.73338017
  -Hartree energ DENC   =   -130376.37309734
  -exchange      EXHF   =         0.00000000
  -V(xc)+E(xc)   XCENC  =      1278.07112586
  PAW double counting   =     40966.58186049   -41030.60647803
  entropy T*S    EENTRO =        -0.05875003
  eigenvalues    EBANDS =     -4585.32929157
  atomic energy  EATOM  =     13537.65479391
  Solvation  Ediel_sol  =         0.00000000
  ---------------------------------------------------
  free energy    TOTEN  =      -828.97758865 eV

  energy without entropy =     -828.91883862  energy(sigma->0) =     -828.94821363


--------------------------------------------------------------------------------------------------------




--------------------------------------- Iteration      1(  18)  ---------------------------------------


    POTLOK:  cpu time      0.3203: real time      0.3203
    SETDIJ:  cpu time      0.0402: real time      0.0402
     EDDAV:  cpu time     10.3893: real time     10.3929
       DOS:  cpu time      0.0007: real time      0.0007
    CHARGE:  cpu time      1.1545: real time      1.1577
    MIXING:  cpu time      0.3619: real time      0.3619
    --------------------------------------------
      LOOP:  cpu time     12.2669: real time     12.2736

 eigenvalue-minimisations  :  1608
 total energy-change (2. order) :-0.2270060E-02  (-0.1022915E-04)
 number of electron     368.0000001 magnetization 
 augmentation part        9.0954070 magnetization 

 Broyden mixing:
  rms(total) = 0.58408E-03    rms(broyden)= 0.58400E-03
  rms(prec ) = 0.77156E-03
  weight for this iteration     100.00

 eigenvalues of (default mixing * dielectric matrix)
  average eigenvalue GAMMA=   2.4297
  8.8967  5.0856  2.9536  2.5724  1.8847  1.8847  1.4926  1.4926  0.9620  0.9620
  1.0117  1.1940  1.1940

 Free energy of the ion-electron system (eV)
  ---------------------------------------------------
  alpha Z        PSCENC =        91.34886789
  Ewald energy   TEWEN  =    119289.73338017
  -Hartree energ DENC   =   -130377.20921241
  -exchange      EXHF   =         0.00000000
  -V(xc)+E(xc)   XCENC  =      1278.06869706
  PAW double counting   =     40964.77602584   -41028.79988867
  entropy T*S    EENTRO =        -0.05874815
  eigenvalues    EBANDS =     -4584.49377434
  atomic energy  EATOM  =     13537.65479391
  Solvation  Ediel_sol  =         0.00000000
  ---------------------------------------------------
  free energy    TOTEN  =      -828.97985870 eV

  energy without entropy =     -828.92111056  energy(sigma->0) =     -828.95048463


--------------------------------------------------------------------------------------------------------




--------------------------------------- Iteration      1(  19)  ---------------------------------------


    POTLOK:  cpu time      0.3202: real time      0.3202
    SETDIJ:  cpu time      0.0404: real time      0.0404
     EDDAV:  cpu time      9.3676: real time      9.3708
       DOS:  cpu time      0.0007: real time      0.0007
    CHARGE:  cpu time      1.1562: real time      1.1590
    MIXING:  cpu time      0.3723: real time      0.3724
    --------------------------------------------
      LOOP:  cpu time     11.2575: real time     11.2635

 eigenvalue-minimisations  :  1400
 total energy-change (2. order) :-0.1087509E-02  (-0.4259408E-05)
 number of electron     368.0000001 magnetization 
 augmentation part        9.0954339 magnetization 

 Broyden mixing:
  rms(total) = 0.40950E-03    rms(broyden)= 0.40948E-03
  rms(prec ) = 0.48094E-03
  weight for this iteration     100.00

 eigenvalues of (default mixing * dielectric matrix)
  average eigenvalue GAMMA=   2.3948
  8.9215  5.4352  3.0293  2.3668  2.3668  1.8997  1.4877  1.4877  1.2856  1.2856
  0.9515  1.0207  0.9948  0.9948

 Free energy of the ion-electron system (eV)
  ---------------------------------------------------
  alpha Z        PSCENC =        91.34886789
  Ewald energy   TEWEN  =    119289.73338017
  -Hartree energ DENC   =   -130377.53226513
  -exchange      EXHF   =         0.00000000
  -V(xc)+E(xc)   XCENC  =      1278.06572880
  PAW double counting   =     40963.27876234   -41027.30106649
  entropy T*S    EENTRO =        -0.05874849
  eigenvalues    EBANDS =     -4584.17039921
  atomic energy  EATOM  =     13537.65479391
  Solvation  Ediel_sol  =         0.00000000
  ---------------------------------------------------
  free energy    TOTEN  =      -828.98094621 eV

  energy without entropy =     -828.92219773  energy(sigma->0) =     -828.95157197


--------------------------------------------------------------------------------------------------------




--------------------------------------- Iteration      1(  20)  ---------------------------------------


    POTLOK:  cpu time      0.3198: real time      0.3198
    SETDIJ:  cpu time      0.0401: real time      0.0401
     EDDAV:  cpu time      9.3562: real time      9.3621
       DOS:  cpu time      0.0007: real time      0.0007
    CHARGE:  cpu time      1.1526: real time      1.1571
    MIXING:  cpu time      0.3851: real time      0.3851
    --------------------------------------------
      LOOP:  cpu time     11.2544: real time     11.2649

 eigenvalue-minimisations  :  1392
 total energy-change (2. order) :-0.2683199E-03  (-0.3204578E-06)
 number of electron     368.0000001 magnetization 
 augmentation part        9.0954089 magnetization 

 Broyden mixing:
  rms(total) = 0.23259E-03    rms(broyden)= 0.23258E-03
  rms(prec ) = 0.28660E-03
  weight for this iteration     100.00

 eigenvalues of (default mixing * dielectric matrix)
  average eigenvalue GAMMA=   2.4582
  9.2052  5.9155  3.7254  2.5926  2.4803  1.9224  1.5596  1.5596  1.3839  1.3839
  1.1439  1.0657  0.9804  0.9804  0.9736

 Free energy of the ion-electron system (eV)
  ---------------------------------------------------
  alpha Z        PSCENC =        91.34886789
  Ewald energy   TEWEN  =    119289.73338017
  -Hartree energ DENC   =   -130377.67320942
  -exchange      EXHF   =         0.00000000
  -V(xc)+E(xc)   XCENC  =      1278.06620113
  PAW double counting   =     40964.28944648   -41028.31234274
  entropy T*S    EENTRO =        -0.05874915
  eigenvalues    EBANDS =     -4584.02960280
  atomic energy  EATOM  =     13537.65479391
  Solvation  Ediel_sol  =         0.00000000
  ---------------------------------------------------
  free energy    TOTEN  =      -828.98121453 eV

  energy without entropy =     -828.92246538  energy(sigma->0) =     -828.95183996


--------------------------------------------------------------------------------------------------------




--------------------------------------- Iteration      1(  21)  ---------------------------------------


    POTLOK:  cpu time      0.3226: real time      0.3226
    SETDIJ:  cpu time      0.0402: real time      0.0402
     EDDAV:  cpu time      8.7227: real time      8.7257
       DOS:  cpu time      0.0007: real time      0.0007
    CHARGE:  cpu time      1.1663: real time      1.1698
    MIXING:  cpu time      0.3968: real time      0.3982
    --------------------------------------------
      LOOP:  cpu time     10.6493: real time     10.6572

 eigenvalue-minimisations  :  1272
 total energy-change (2. order) :-0.2570750E-03  (-0.4327255E-06)
 number of electron     368.0000001 magnetization 
 augmentation part        9.0954064 magnetization 

 Broyden mixing:
  rms(total) = 0.10161E-03    rms(broyden)= 0.10159E-03
  rms(prec ) = 0.12584E-03
  weight for this iteration     100.00

 eigenvalues of (default mixing * dielectric matrix)
  average eigenvalue GAMMA=   2.3992
  9.1789  6.1569  3.7957  2.5290  2.5290  2.0343  1.7067  1.5117  1.5117  1.2388
  1.2388  1.1030  1.0046  1.0046  0.9218  0.9218

 Free energy of the ion-electron system (eV)
  ---------------------------------------------------
  alpha Z        PSCENC =        91.34886789
  Ewald energy   TEWEN  =    119289.73338017
  -Hartree energ DENC   =   -130377.78270281
  -exchange      EXHF   =         0.00000000
  -V(xc)+E(xc)   XCENC  =      1278.06553774
  PAW double counting   =     40963.28765986   -41027.31102721
  entropy T*S    EENTRO =        -0.05874946
  eigenvalues    EBANDS =     -4583.91923169
  atomic energy  EATOM  =     13537.65479391
  Solvation  Ediel_sol  =         0.00000000
  ---------------------------------------------------
  free energy    TOTEN  =      -828.98147161 eV

  energy without entropy =     -828.92272215  energy(sigma->0) =     -828.95209688


[...]
   0.286E+01 -.316E+02 0.645E+02   -.256E+01 0.340E+02 -.645E+02   0.600E-01 -.304E+00 -.130E+01   0.679E-05 -.999E-05 -.272E-06
   0.190E+02 -.210E+02 0.104E+03   -.197E+02 0.223E+02 -.104E+03   0.699E+00 0.933E+00 0.127E+01   0.877E-05 -.839E-05 0.161E-05
   0.134E+02 0.132E+02 0.163E+03   -.138E+02 -.134E+02 -.163E+03   -.761E+00 0.109E+00 0.108E+01   0.612E-05 -.305E-05 0.195E-05
   0.834E+01 0.702E+01 0.815E+02   -.938E+01 -.778E+01 -.811E+02   0.145E+00 0.377E+00 -.647E+00   -.316E-06 -.146E-05 0.258E-06
   0.103E+02 -.220E+02 0.108E+03   -.106E+02 0.233E+02 -.108E+03   -.264E+00 0.892E+00 -.836E+00   -.192E-06 -.106E-04 0.134E-05
   -.151E+02 -.196E+02 0.107E+03   0.165E+02 0.210E+02 -.107E+03   0.944E+00 0.652E-01 0.696E+00   -.157E-04 -.872E-05 0.666E-08
   -.100E+02 0.761E+01 0.150E+03   0.104E+02 -.771E+01 -.150E+03   0.449E-01 0.453E+00 -.144E+00   -.814E-05 0.183E-05 0.108E-05
   -.256E+01 0.222E+02 0.767E+02   0.223E+01 -.240E+02 -.762E+02   -.337E+00 -.145E-01 -.107E+01   -.106E-04 -.137E-05 -.208E-05
   -.163E+02 -.194E+02 0.179E+03   0.163E+02 0.212E+02 -.180E+03   -.567E+00 0.166E+01 0.194E+01   -.901E-05 -.658E-07 -.290E-06
   0.394E+01 -.791E+01 0.329E+02   -.453E+01 0.820E+01 -.327E+02   -.106E+01 -.200E+00 -.696E+00   -.104E-04 -.185E-05 -.231E-05
   -.150E+02 0.924E+01 0.115E+03   0.152E+02 -.966E+01 -.114E+03   0.993E+00 -.469E+00 -.181E+01   -.103E-04 0.575E-05 -.281E-05
   -.192E+02 0.223E+02 0.797E+02   0.202E+02 -.244E+02 -.796E+02   -.520E+00 -.725E+00 0.170E+01   -.908E-05 -.367E-05 -.342E-05
   -.214E+02 -.176E+02 0.154E+03   0.203E+02 0.199E+02 -.155E+03   -.520E+00 0.532E+00 0.268E+00   -.828E-05 0.329E-05 -.406E-05
   0.306E+02 -.149E+02 -.647E+02   -.319E+02 0.159E+02 0.649E+02   -.103E+00 -.109E+01 -.236E+01   -.313E-05 0.481E-06 0.772E-06
   -.441E+02 -.706E+01 0.153E+03   0.446E+02 0.784E+01 -.153E+03   -.242E+00 0.166E+00 0.138E+01   0.123E-05 0.170E-05 -.246E-05
   -.180E+02 0.152E+02 0.155E+02   0.189E+02 -.168E+02 -.159E+02   -.993E+00 0.581E-01 0.180E+01   0.624E-05 0.108E-05 0.100E-05
   -.229E+02 -.190E+02 0.670E+02   0.233E+02 0.212E+02 -.669E+02   0.120E+01 0.877E+00 -.624E+00   0.411E-05 0.219E-05 0.572E-07
   0.156E+02 -.192E+02 -.882E+02   -.156E+02 0.204E+02 0.890E+02   0.859E+00 0.413E+00 -.129E+01   0.496E-05 -.195E-05 0.272E-05
   -.107E+02 0.250E+01 0.413E+02   0.102E+02 -.239E+01 -.417E+02   0.196E+00 0.269E+00 -.228E+00   0.427E-05 0.249E-06 0.669E-06
   -.402E+01 0.773E+01 -.529E+02   0.493E+01 -.753E+01 0.525E+02   -.657E-01 0.151E+01 0.104E+01   0.753E-06 0.272E-05 -.232E-06
   -.161E+02 0.371E+01 0.388E+02   0.159E+02 -.470E+01 -.388E+02   -.204E-01 -.315E-01 0.481E+00   0.563E-05 0.614E-06 0.834E-06
   0.263E+02 -.136E+02 -.192E+03   -.272E+02 0.129E+02 0.193E+03   -.465E+00 -.530E+00 -.180E+01   0.210E-05 0.567E-05 0.481E-07
   -.142E+02 0.132E+02 0.222E+02   0.140E+02 -.145E+02 -.224E+02   -.123E-01 0.434E+00 0.321E+00   0.553E-05 -.598E-08 0.858E-06
   0.111E+02 0.900E+01 -.162E+03   -.108E+02 -.889E+01 0.162E+03   -.968E-01 0.381E+00 -.448E+00   0.681E-05 0.710E-05 -.984E-06
   -.704E+01 -.541E+01 -.612E+02   0.734E+01 0.510E+01 0.611E+02   0.697E-01 0.469E+00 0.480E+00   0.620E-05 0.275E-05 0.263E-07
   -.127E+02 -.417E+00 -.174E+03   0.125E+02 0.141E-02 0.174E+03   0.249E+00 0.340E+00 0.152E+00   -.564E-05 0.290E-05 -.242E-05
   -.907E+01 -.555E+00 -.999E+02   0.936E+01 0.337E+00 0.100E+03   0.117E+01 -.531E+00 -.204E+01   0.596E-05 0.567E-06 -.198E-05
   -.253E+02 0.679E+02 -.194E+03   0.233E+02 -.694E+02 0.195E+03   0.164E+01 0.884E+00 -.118E+01   0.298E-05 0.138E-04 -.507E-05
   -.760E+01 -.606E+02 -.826E+02   0.313E+01 0.626E+02 0.824E+02   0.722E+00 -.124E+01 0.123E+01   0.131E-04 0.109E-04 -.369E-05
   -.386E+01 0.748E+02 -.121E+03   0.625E+01 -.786E+02 0.121E+03   0.170E+00 0.589E+00 -.757E-01   0.532E-05 -.778E-05 -.235E-05
   -.743E+01 -.714E+02 -.221E+03   0.902E+01 0.736E+02 0.222E+03   -.284E+01 0.496E+00 -.479E+00   0.623E-05 -.137E-04 -.414E-05
   0.112E+02 -.480E+01 -.802E+02   -.124E+02 0.474E+01 0.805E+02   -.100E+01 -.170E+00 -.944E+00   -.613E-05 -.589E-05 0.737E-06
   -.160E+02 0.152E+01 -.181E+03   0.169E+02 -.176E+01 0.182E+03   -.644E+00 -.917E+00 -.462E+00   0.862E-06 -.755E-06 -.130E-05
   -.513E+01 0.905E+01 -.462E+02   0.541E+01 -.878E+01 0.463E+02   -.384E-01 0.910E+00 0.136E+00   -.592E-05 -.300E-05 0.170E-05
   -.132E+02 -.114E+02 -.105E+03   0.127E+02 0.117E+02 0.105E+03   0.481E+00 0.606E+00 0.984E+00   -.201E-05 -.723E-05 0.596E-06
   0.317E+01 -.105E+02 0.277E+02   -.173E+01 0.102E+02 -.290E+02   0.744E+00 -.715E+00 0.163E+01   -.922E-05 -.184E-05 0.266E-05
   -.243E+02 0.679E+01 -.134E+03   0.243E+02 -.563E+01 0.135E+03   0.491E+00 0.635E+00 -.160E+01   -.177E-05 0.225E-05 0.114E-05
   -.413E+01 0.174E+02 -.347E+02   0.365E+01 -.180E+02 0.355E+02   -.138E+01 -.967E+00 -.162E+01   -.943E-06 0.326E-06 -.532E-06
   -.221E+02 -.438E+01 -.859E+02   0.225E+02 0.443E+01 0.858E+02   0.122E+00 -.160E+01 -.371E+00   -.465E-06 0.148E-05 0.995E-06
   0.292E+02 -.192E+02 0.882E+02   -.293E+02 0.213E+02 -.885E+02   0.993E+00 0.506E+00 0.104E+01   0.728E-05 0.329E-06 -.329E-05
   -.589E+01 0.216E+02 -.136E+02   0.576E+01 -.226E+02 0.141E+02   -.102E+01 -.428E+00 0.189E+00   0.411E-05 0.299E-05 -.166E-05
   0.250E+02 0.127E+02 0.920E+02   -.263E+02 -.135E+02 -.911E+02   -.562E+00 -.167E+00 -.989E+00   0.595E-05 0.168E-05 -.286E-05
   0.165E+02 -.161E+02 0.893E+02   -.158E+02 0.174E+02 -.900E+02   0.758E+00 0.360E+00 0.180E+01   0.653E-05 -.455E-05 -.213E-05
   0.151E+02 -.490E+01 0.164E+03   -.138E+02 0.432E+01 -.165E+03   0.143E+01 -.521E+00 0.500E+00   -.121E-05 0.446E-05 0.127E-05
   0.658E+01 0.173E+02 0.348E+02   -.761E+01 -.185E+02 -.344E+02   -.941E+00 -.392E+00 -.586E+00   0.116E-04 0.103E-05 -.265E-05
   0.127E+02 0.235E+02 0.179E+03   -.125E+02 -.245E+02 -.180E+03   0.437E+00 -.785E-01 0.207E+00   0.295E-05 0.132E-04 0.273E-05
   0.401E+01 -.269E+01 0.771E+02   -.338E+01 0.228E+01 -.772E+02   0.313E+00 0.102E+00 -.645E+00   0.829E-05 0.388E-05 -.546E-06
   0.204E+02 -.148E+02 0.224E+03   -.204E+02 0.154E+02 -.225E+03   -.132E+00 0.112E+00 0.127E+01   0.848E-05 0.151E-05 0.294E-05
   0.527E+01 0.219E+02 0.995E+02   -.520E+01 -.230E+02 -.994E+02   -.163E+00 0.374E+00 0.830E-01   0.715E-05 0.170E-05 0.161E-05
   0.564E+01 0.250E+02 0.182E+03   -.606E+01 -.269E+02 -.182E+03   -.491E+00 -.130E+01 0.112E+00   0.361E-05 0.174E-04 0.420E-05
   0.110E+02 -.932E+01 0.111E+03   -.116E+02 0.104E+02 -.110E+03   -.772E+00 0.640E-01 -.798E+00   0.162E-05 -.824E-07 0.656E-06
   -.266E+00 -.624E+01 0.166E+03   -.342E+00 0.589E+01 -.167E+03   0.869E-01 0.186E+00 0.253E+00   -.185E-05 0.593E-05 0.183E-05
   -.178E+02 0.156E+02 0.130E+03   0.187E+02 -.168E+02 -.130E+03   -.145E+00 -.882E+00 0.166E+00   -.188E-04 0.793E-06 0.550E-06
   -.122E+02 0.148E+02 0.130E+03   0.119E+02 -.152E+02 -.130E+03   0.134E+00 0.967E+00 -.911E+00   -.936E-05 -.278E-06 -.177E-05
   -.253E+02 -.215E+02 0.132E+03   0.265E+02 0.229E+02 -.132E+03   0.765E-01 0.110E+01 0.193E+01   -.145E-04 -.617E-05 -.280E-05
   -.221E+02 -.986E+01 0.146E+03   0.217E+02 0.917E+01 -.147E+03   -.110E+01 -.101E+01 0.151E+01   -.119E-04 0.407E-05 -.300E-05
   0.284E+02 0.121E+02 0.323E+01   -.305E+02 -.129E+02 -.353E+01   -.502E+00 -.257E-01 -.147E+01   -.725E-05 -.363E-06 -.286E-05
   -.129E+02 0.795E+01 0.443E+02   0.139E+02 -.796E+01 -.435E+02   0.794E+00 0.598E+00 -.524E+00   -.884E-05 0.253E-06 -.375E-05
   -.155E+01 -.234E+01 -.369E+02   0.317E+01 0.273E+01 0.375E+02   0.182E+00 0.364E+00 0.326E+00   -.625E-05 -.360E-05 -.275E-05
   -.191E+02 -.106E+02 0.686E+02   0.193E+02 0.103E+02 -.690E+02   -.435E+00 -.710E+00 0.612E+00   -.329E-05 0.526E-05 -.132E-05
   0.435E+02 0.119E+02 -.924E+02   -.454E+02 -.126E+02 0.919E+02   -.655E+00 -.107E+01 -.156E+00   -.427E-05 -.623E-05 0.843E-07
   0.111E+02 0.138E+02 -.653E+02   -.108E+02 -.139E+02 0.660E+02   0.591E+00 0.436E+00 -.146E+01   0.216E-05 0.325E-06 0.205E-05
   0.183E+02 0.722E+01 -.120E+03   -.169E+02 -.784E+01 0.121E+03   0.141E+01 -.463E+00 0.162E+00   0.487E-05 -.249E-05 0.293E-05
   0.333E+01 -.117E+02 -.987E+00   -.384E+01 0.118E+02 0.217E+00   -.790E+00 -.427E+00 0.593E+00   0.430E-05 0.300E-05 0.167E-05
   0.275E+02 0.221E+02 -.114E+03   -.289E+02 -.236E+02 0.114E+03   -.344E+00 -.155E+00 0.134E+00   0.503E-05 -.331E-05 0.244E-05
   0.207E+01 0.352E+01 -.507E+02   -.176E+01 -.375E+01 0.513E+02   0.298E-02 -.187E+00 -.747E+00   0.168E-05 0.237E-05 0.113E-05
   0.121E+02 -.275E+01 -.114E+03   -.114E+02 0.266E+01 0.114E+03   0.314E+00 -.557E+00 0.980E+00   -.266E-05 -.393E-05 -.449E-06
   -.115E+02 -.208E+02 -.937E+01   0.115E+02 0.225E+02 0.890E+01   0.147E+00 0.124E+01 0.158E+01   -.314E-06 -.485E-05 -.108E-05
   0.249E+02 0.115E+02 -.202E+03   -.245E+02 -.110E+02 0.202E+03   0.742E+00 0.101E+01 -.791E+00   -.464E-05 -.283E-05 -.781E-06
   0.138E+02 0.159E+02 -.122E+03   -.137E+02 -.165E+02 0.123E+03   0.144E+01 0.403E+00 -.153E+01   0.532E-05 -.682E-05 -.131E-05
   0.109E+02 -.140E+02 -.180E+03   -.118E+02 0.142E+02 0.179E+03   -.784E+00 -.339E-01 0.153E+00   0.496E-05 -.128E-05 -.140E-06
   -.164E+02 -.259E+01 -.421E+02   0.150E+02 0.247E+01 0.403E+02   -.666E+00 -.499E+00 0.248E+01   0.781E-05 -.914E-05 -.943E-06
   0.125E+01 -.150E+01 -.182E+03   -.187E+01 0.231E+01 0.182E+03   0.198E+00 0.395E+00 0.738E+00   -.135E-05 0.341E-05 -.195E-05
   -.215E+02 0.613E+02 -.147E+03   0.203E+02 -.626E+02 0.148E+03   0.245E+01 0.544E+00 -.141E+01   0.516E-05 -.120E-04 -.443E-05
   -.415E+02 -.676E+02 -.240E+03   0.411E+02 0.692E+02 0.241E+03   0.677E+00 -.204E+01 -.197E+01   0.107E-05 -.732E-05 -.341E-05
 -----------------------------------------------------------------------------------------------
   0.316E+00 -.473E+00 0.232E+01   0.497E-13 0.568E-13 -.568E-13   -.351E+00 0.238E+00 -.230E+01   0.318E-05 0.679E-05 -.431E-04
 
 
 POSITION                                       TOTAL-FORCE (eV/Angst)
 -----------------------------------------------------------------------------------
      0.29060      0.96249     18.41530         2.387478     -2.355393     -0.430307
      0.22184      2.29245     18.17890         2.373310      0.366546     -0.824264
      1.52073      0.25416     18.16170        -1.251552      0.968921      0.487490
      1.36145      2.95421     17.71390         0.502308     -0.984759      0.068554
      2.67438      0.88808     17.62850        -0.520914      0.885441     -0.689062
      2.55510      2.23437     17.34190         0.196577      0.996571      1.034767
      3.89578      0.26662     17.27310        -1.065743     -2.373359      1.502077
      3.77275      2.90548     17.00310        -0.850629      0.952629     -1.465857
      5.03498      0.87387     16.74760        -1.760502      1.885230      0.034362
      4.91995      2.24294     16.51210         1.187039      0.516739      0.825335
      6.20871      0.23596     16.45910         1.968905      0.069717     -1.131856
      6.12536      2.93908     16.12130        -2.027998     -2.673959      0.425351
      7.37087      0.88198     15.97180         0.574188     -2.713681      1.304731
      7.30091      2.19602     15.89200         2.158998      4.114054     -1.369347
      8.64898      0.20761     15.84230        -0.888164      1.846553     -0.180993
      8.52721      2.89801     15.56340         0.496131     -0.514623      0.059366
      9.84613      0.90127     15.59850         0.884837     -2.887766     -0.333601
      9.81931      2.23844     15.47950         0.358911      2.049905     -1.267595
     11.07340      0.14063     15.33250        -0.029907      2.262319      1.157996
     11.10110      2.85328     15.10370        -1.179518     -0.127316      0.915300
     12.33950      0.78530     15.29810        -0.901642     -0.376844     -0.305300
     12.35140      2.13467     15.19730        -0.548490      2.223679     -0.603157
     13.56380      0.12917     15.30350         2.326747      1.422269      0.981088
     13.60610      2.78138     15.13400         0.433184      0.357812     -0.319904
     14.85960      0.77939     15.49630        -0.670111     -1.875443     -0.559121
     14.88320      2.09353     15.25910        -0.555804      3.450203      1.005154
     16.07920      0.13763     15.87060        -1.657274      0.098463     -0.494424
     16.08460      2.81791     15.55110         1.222060     -0.888406     -1.379944
     17.29180      0.82017     16.02890         0.454574     -2.789285      1.842837
     17.34510      2.12992     15.80000        -1.580257      2.831505     -0.557883
     18.40280      0.17836     16.70080        -1.437267     -0.074142     -2.131106
     18.53210      2.80193     16.10100         0.216900      0.954976      1.015018
     19.63480      0.79210     16.83440        -0.153901     -1.501443      1.304456
     19.65250      2.10870     16.61480         1.530589      3.075245     -0.583909
     20.73910      0.11563     17.41260         0.779503      1.675316     -0.450242
     20.84860      2.80329     16.99950        -0.300926      0.377535     -0.635702
     21.97860      0.75274     17.62330         0.846177      1.712724      0.674589
     22.04010      2.13261     17.33170        -0.183457     -1.015548      0.417842
     23.14260      0.16762     18.23570        -1.416931     -1.160614     -1.346233
     23.23440      2.81371     17.62090        -0.182503     -0.861905      0.121094
     24.38190      0.83789     18.34120         0.172665      0.488995     -0.406077
     24.41540      2.18378     18.04050         0.367260      0.159701      0.381556
     25.62880      0.20262     18.53640         0.023731     -0.073367      0.649784
     25.62880      2.90551     18.21730         1.464793     -0.746700     -1.636883
     26.83230      0.89601     18.53510        -0.381783     -0.640892     -0.329954
     26.85240      2.23612     18.26400        -3.747608      0.859711      1.017899
      0.23249      4.99643     18.28050         2.553945     -3.180548     -0.546917
      0.35521      6.28941     18.51010        -1.249831      2.613780      0.503495
      1.43207      4.31052     17.87980        -2.175172     -0.219559     -0.635072
      1.52965      6.99176     18.23950         0.290757     -1.150173     -0.118166
      2.62975      4.93545     17.56690         0.239942      1.186485      0.274174
      2.69570      6.29634     17.76710        -0.006751      0.926089      0.864946
      3.76989      4.31127     17.05410         2.193031     -1.014828      0.322551
      3.91179      6.96190     17.48060         0.480914      1.794082     -0.958961
      5.05320      4.98547     16.82400        -1.858389     -1.592153     -0.853231
      5.09568      6.35509     17.01010         0.471912     -1.548777     -0.539391
      6.12408      4.27966     16.18940         0.906727      2.524776      0.673344
      6.26578      6.99026     16.49240        -1.145516     -1.481078      0.686463
      7.35255      4.95675     15.85060        -1.836298     -0.961757     -0.147439
      7.37385      6.30150     15.94660         1.493844      1.674494      1.044430
      8.48628      4.28100     15.44210         2.689205     -1.097005     -0.358732
      8.66195      6.95981     15.77950        -1.972026     -1.592566     -0.162192
      9.76786      4.91365     15.19010         0.658763     -1.115877      0.068922
      9.82641      6.25973     15.45000         0.934655     -0.309974     -0.689333
     11.06590      4.22667     14.93850        -0.113759      0.721266      1.019692
     11.09040      6.89364     15.30350        -0.094278     -0.751612      0.184482
     12.36690      4.90617     15.00260        -0.909208     -3.225013     -0.102372
     12.36340      6.23373     15.18860        -1.280642      1.114983     -0.543563
     13.61130      4.17027     15.08860        -0.521444     -0.160529     -0.194935
     13.58970      6.89454     15.24430         0.768859     -2.140087      0.404973
     14.84690      4.81671     15.33030        -0.170699      0.555935     -0.505755
     14.81980      6.17502     15.39070         1.237319      2.517448      1.789712
     16.10150      4.20251     15.54820        -1.448862     -1.696032      0.331852
     16.03110      6.86660     15.96020        -2.665140     -0.777019     -1.768037
     17.21320      4.83518     16.07340         1.834303      0.585321      0.255060
     17.15960      6.18987     16.32580         1.806119      0.753107      0.967361
     18.45640      4.19149     16.33100        -0.318574     -0.982571      0.155894
     18.33770      6.92132     16.83550        -2.545933     -1.800872     -0.702484
     19.52710      4.83406     16.98410         0.836745      0.292961     -0.688046
     19.45180      6.21840     17.19060         2.870825     -1.074911      0.687740
     20.80740      4.18861     17.15410        -1.293771     -0.291427     -0.177430
     20.70540      6.87780     17.53180        -1.752160     -1.662822      0.242572
     21.96410      4.85218     17.58340         0.313793     -0.408064     -0.163160
     21.90430      6.21834     17.81620         0.996907     -0.638081      0.972521
     23.19510      4.16131     17.71590         0.171280      2.913190      1.112583
     23.08500      6.85590     18.28400         1.149759      1.499160     -0.280996
     24.35380      4.87093     18.19730         1.509714     -0.239596     -1.082088
     24.37430      6.22160     18.42770        -1.678525      0.100178     -0.037605
     25.66660      4.28564     18.16730        -2.126550     -0.620819      0.611581
     25.61520      6.91528     18.58700        -0.426945      1.203909      0.801712
     26.80340      4.98031     18.43900         1.298242     -0.730400     -0.126350
     26.83720      6.32090     18.68850         0.248925     -0.480329     -0.387729
 -----------------------------------------------------------------------------------
    total drift:                               -0.034607     -0.235808      0.025105


--------------------------------------------------------------------------------------------------------



  FREE ENERGIE OF THE ION-ELECTRON SYSTEM (eV)
  ---------------------------------------------------
  free  energy   TOTEN  =      -828.98157831 eV

  energy  without entropy=     -828.92282915  energy(sigma->0) =     -828.95220373
 


--------------------------------------------------------------------------------------------------------


    POTLOK:  cpu time      0.4521: real time      0.4521


--------------------------------------------------------------------------------------------------------


     LOOP+:  cpu time    333.0167: real time    333.2265
    4ORBIT:  cpu time      0.0000: real time      0.0000

 total amount of memory used by VASP MPI-rank0  2294516. kBytes
=======================================================================

   base                                    :      30000. kBytes
   nonlr-proj                              :      15082. kBytes
   fftplans                                :     436558. kBytes
   grid                                    :     732614. kBytes
   one-center                              :        282. kBytes
   wavefun                                 :    1079980. kBytes
 
  
  
 General timing and accounting informations for this job:
 ========================================================
  
                  Total CPU time used (sec):      366.433
                            User time (sec):      358.021
                          System time (sec):        8.412
                         Elapsed time (sec):      366.713
  
                   Maximum memory used (kb):     3730664.
                   Average memory used (kb):          N/A
  
                          Minor page faults:      3178762
                          Major page faults:         5066
                 Voluntary context switches:        10020
