  92  92   0   0
  0.8273226E+02  0.2805000E-08  0.8100000E-09  0.3350000E-08  0.5000000E-15
   1.0000000000000000E-004
  CAR 
 unknown system                          
      3.77165339    -25.20377162  301     -3.19612060      1.00000000
    -25.204  0.0000E+00  0.0000E+00
    -25.107  0.0000E+00  0.0000E+00
    -25.011  0.0000E+00  0.0000E+00
    -24.914  0.0000E+00  0.0000E+00
    -24.817  0.0000E+00  0.0000E+00
    -24.721  0.0000E+00  0.0000E+00
    -24.624  0.0000E+00  0.0000E+00
    -24.528  0.0000E+00  0.0000E+00
    -24.431  0.0000E+00  0.0000E+00
    -24.335  0.3448E-14  0.3331E-15
    -24.238  0.6894E-12  0.6692E-13
    -24.141  0.8922E-10  0.8684E-11
    -24.045  0.7332E-08  0.7168E-09
    -23.948  0.3839E-06  0.3779E-07
    -23.852  0.1286E-04  0.1280E-05
    -23.755  0.2772E-03  0.2806E-04
    -23.658  0.3872E-02  0.4020E-03
    -23.562  0.3537E-01  0.3818E-02
    -23.465  0.2139E+00  0.2448E-01
    -23.369  0.8724E+00  0.1087E+00
    -23.272  0.2470E+01  0.3473E+00
    -23.175  0.5103E+01  0.8403E+00
    -23.079  0.8255E+01  0.1638E+01
    -22.982  0.1115E+02  0.2715E+01
    -22.886  0.1294E+02  0.3964E+01
    -22.789  0.1342E+02  0.5260E+01
    -22.693  0.1412E+02  0.6624E+01
    -22.596  0.1599E+02  0.8168E+01
    -22.499  0.1687E+02  0.9798E+01
    -22.403  0.1487E+02  0.1123E+02
    -22.306  0.1201E+02  0.1239E+02
    -22.210  0.1142E+02  0.1350E+02
    -22.113  0.1315E+02  0.1477E+02
    -22.016  0.1478E+02  0.1619E+02
    -21.920  0.1476E+02  0.1762E+02
    -21.823  0.1375E+02  0.1895E+02
    -21.727  0.1286E+02  0.2019E+02
    -21.630  0.1231E+02  0.2138E+02
    -21.534  0.1188E+02  0.2253E+02
    -21.437  0.1154E+02  0.2364E+02
    -21.340  0.1164E+02  0.2477E+02
    -21.244  0.1270E+02  0.2599E+02
    -21.147  0.1468E+02  0.2741E+02
    -21.051  0.1639E+02  0.2899E+02
    -20.954  0.1625E+02  0.3056E+02
    -20.857  0.1430E+02  0.3194E+02
    -20.761  0.1232E+02  0.3313E+02
    -20.664  0.1178E+02  0.3427E+02
    -20.568  0.1267E+02  0.3549E+02
    -20.471  0.1366E+02  0.3681E+02
    -20.375  0.1371E+02  0.3814E+02
    -20.278  0.1363E+02  0.3945E+02
    -20.181  0.1442E+02  0.4085E+02
    -20.085  0.1549E+02  0.4234E+02
    -19.988  0.1580E+02  0.4387E+02
    -19.892  0.1505E+02  0.4532E+02
    -19.795  0.1350E+02  0.4663E+02
    -19.698  0.1242E+02  0.4783E+02
    -19.602  0.1357E+02  0.4914E+02
    -19.505  0.1632E+02  0.5071E+02
    -19.409  0.1747E+02  0.5240E+02
    -19.312  0.1566E+02  0.5391E+02
    -19.216  0.1325E+02  0.5519E+02
    -19.119  0.1269E+02  0.5642E+02
    -19.022  0.1347E+02  0.5772E+02
    -18.926  0.1393E+02  0.5907E+02
    -18.829  0.1395E+02  0.6041E+02
    -18.733  0.1466E+02  0.6183E+02
    -18.636  0.1628E+02  0.6340E+02
    -18.539  0.1720E+02  0.6506E+02
    -18.443  0.1632E+02  0.6664E+02
    -18.346  0.1525E+02  0.6811E+02
    -18.250  0.1597E+02  0.6966E+02
    -18.153  0.1769E+02  0.7136E+02
    -18.057  0.1794E+02  0.7310E+02
    -17.960  0.1592E+02  0.7463E+02
    -17.863  0.1348E+02  0.7594E+02
    -17.767  0.1241E+02  0.7714E+02
    -17.670  0.1220E+02  0.7831E+02
    -17.574  0.1179E+02  0.7945E+02
    -17.477  0.1152E+02  0.8056E+02
    -17.380  0.1176E+02  0.8170E+02
    -17.284  0.1201E+02  0.8286E+02
    -17.187  0.1215E+02  0.8403E+02
    -17.091  0.1232E+02  0.8522E+02
    -16.994  0.1189E+02  0.8637E+02
    -16.897  0.1060E+02  0.8740E+02
    -16.801  0.9712E+01  0.8833E+02
    -16.704  0.1047E+02  0.8934E+02
    -16.608  0.1244E+02  0.9055E+02
    -16.511  0.1429E+02  0.9193E+02
    -16.415  0.1528E+02  0.9340E+02
    -16.318  0.1556E+02  0.9491E+02
    -16.221  0.1564E+02  0.9642E+02
    -16.125  0.1606E+02  0.9797E+02
    -16.028  0.1693E+02  0.9960E+02
    -15.932  0.1745E+02  0.1013E+03
    -15.835  0.1632E+02  0.1029E+03
    -15.738  0.1357E+02  0.1042E+03
    -15.642  0.1114E+02  0.1053E+03
    -15.545  0.1093E+02  0.1063E+03
    -15.449  0.1311E+02  0.1076E+03
    -15.352  0.1662E+02  0.1092E+03
    -15.256  0.1999E+02  0.1111E+03
    -15.159  0.2213E+02  0.1132E+03
    -15.062  0.2278E+02  0.1154E+03
    -14.966  0.2177E+02  0.1175E+03
    -14.869  0.1901E+02  0.1194E+03
    -14.773  0.1528E+02  0.1209E+03
    -14.676  0.1177E+02  0.1220E+03
    -14.579  0.9424E+01  0.1229E+03
    -14.483  0.8813E+01  0.1238E+03
    -14.386  0.9691E+01  0.1247E+03
    -14.290  0.1120E+02  0.1258E+03
    -14.193  0.1264E+02  0.1270E+03
    -14.097  0.1371E+02  0.1283E+03
    -14.000  0.1449E+02  0.1297E+03
    -13.903  0.1544E+02  0.1312E+03
    -13.807  0.1674E+02  0.1328E+03
    -13.710  0.1779E+02  0.1345E+03
    -13.614  0.1787E+02  0.1363E+03
    -13.517  0.1734E+02  0.1379E+03
    -13.420  0.1749E+02  0.1396E+03
    -13.324  0.1877E+02  0.1415E+03
    -13.227  0.1955E+02  0.1433E+03
    -13.131  0.1798E+02  0.1451E+03
    -13.034  0.1517E+02  0.1465E+03
    -12.938  0.1407E+02  0.1479E+03
    -12.841  0.1505E+02  0.1494E+03
    -12.744  0.1569E+02  0.1509E+03
    -12.648  0.1469E+02  0.1523E+03
    -12.551  0.1339E+02  0.1536E+03
    -12.455  0.1365E+02  0.1549E+03
    -12.358  0.1578E+02  0.1564E+03
    -12.261  0.1890E+02  0.1582E+03
    -12.165  0.2212E+02  0.1604E+03
    -12.068  0.2426E+02  0.1627E+03
    -11.972  0.2444E+02  0.1651E+03
    -11.875  0.2322E+02  0.1673E+03
    -11.778  0.2131E+02  0.1694E+03
    -11.682  0.1858E+02  0.1712E+03
    -11.585  0.1576E+02  0.1727E+03
    -11.489  0.1462E+02  0.1741E+03
    -11.392  0.1589E+02  0.1757E+03
    -11.296  0.1850E+02  0.1774E+03
    -11.199  0.2154E+02  0.1795E+03
    -11.102  0.2522E+02  0.1820E+03
    -11.006  0.2937E+02  0.1848E+03
    -10.909  0.3285E+02  0.1880E+03
    -10.813  0.3456E+02  0.1913E+03
    -10.716  0.3438E+02  0.1946E+03
    -10.619  0.3393E+02  0.1979E+03
    -10.523  0.3521E+02  0.2013E+03
    -10.426  0.3789E+02  0.2050E+03
    -10.330  0.3953E+02  0.2088E+03
    -10.233  0.3856E+02  0.2125E+03
    -10.137  0.3603E+02  0.2160E+03
    -10.040  0.3392E+02  0.2193E+03
     -9.943  0.3296E+02  0.2224E+03
     -9.847  0.3302E+02  0.2256E+03
     -9.750  0.3438E+02  0.2290E+03
     -9.654  0.3714E+02  0.2325E+03
     -9.557  0.4017E+02  0.2364E+03
     -9.460  0.4193E+02  0.2405E+03
     -9.364  0.4149E+02  0.2445E+03
     -9.267  0.3865E+02  0.2482E+03
     -9.171  0.3433E+02  0.2515E+03
     -9.074  0.3090E+02  0.2545E+03
     -8.978  0.3028E+02  0.2574E+03
     -8.881  0.3189E+02  0.2605E+03
     -8.784  0.3414E+02  0.2638E+03
     -8.688  0.3629E+02  0.2673E+03
     -8.591  0.3769E+02  0.2710E+03
     -8.495  0.3679E+02  0.2745E+03
     -8.398  0.3318E+02  0.2777E+03
     -8.301  0.2911E+02  0.2805E+03
     -8.205  0.2663E+02  0.2831E+03
     -8.108  0.2572E+02  0.2856E+03
     -8.012  0.2572E+02  0.2881E+03
     -7.915  0.2626E+02  0.2906E+03
     -7.819  0.2731E+02  0.2932E+03
     -7.722  0.2895E+02  0.2960E+03
     -7.625  0.3044E+02  0.2990E+03
     -7.529  0.3125E+02  0.3020E+03
     -7.432  0.3112E+02  0.3050E+03
     -7.336  0.2946E+02  0.3078E+03
     -7.239  0.2652E+02  0.3104E+03
     -7.142  0.2363E+02  0.3127E+03
     -7.046  0.2179E+02  0.3148E+03
     -6.949  0.2162E+02  0.3169E+03
     -6.853  0.2350E+02  0.3192E+03
     -6.756  0.2654E+02  0.3217E+03
     -6.659  0.2834E+02  0.3245E+03
     -6.563  0.2710E+02  0.3271E+03
     -6.466  0.2372E+02  0.3294E+03
     -6.370  0.2113E+02  0.3314E+03
     -6.273  0.2086E+02  0.3334E+03
     -6.177  0.2204E+02  0.3355E+03
     -6.080  0.2374E+02  0.3378E+03
     -5.983  0.2510E+02  0.3403E+03
     -5.887  0.2471E+02  0.3427E+03
     -5.790  0.2241E+02  0.3448E+03
     -5.694  0.1967E+02  0.3467E+03
     -5.597  0.1736E+02  0.3484E+03
     -5.500  0.1507E+02  0.3498E+03
     -5.404  0.1249E+02  0.3511E+03
     -5.307  0.1073E+02  0.3521E+03
     -5.211  0.1088E+02  0.3531E+03
     -5.114  0.1158E+02  0.3543E+03
     -5.018  0.1085E+02  0.3553E+03
     -4.921  0.9317E+01  0.3562E+03
     -4.824  0.9107E+01  0.3571E+03
     -4.728  0.1093E+02  0.3581E+03
     -4.631  0.1376E+02  0.3595E+03
     -4.535  0.1593E+02  0.3610E+03
     -4.438  0.1570E+02  0.3625E+03
     -4.341  0.1252E+02  0.3637E+03
     -4.245  0.7885E+01  0.3645E+03
     -4.148  0.4115E+01  0.3649E+03
     -4.052  0.2330E+01  0.3651E+03
     -3.955  0.2055E+01  0.3653E+03
     -3.859  0.2447E+01  0.3656E+03
     -3.762  0.3317E+01  0.3659E+03
     -3.665  0.4502E+01  0.3663E+03
     -3.569  0.5068E+01  0.3668E+03
     -3.472  0.4313E+01  0.3672E+03
     -3.376  0.3065E+01  0.3675E+03
     -3.279  0.2591E+01  0.3678E+03
     -3.182  0.2879E+01  0.3680E+03
     -3.086  0.3269E+01  0.3684E+03
     -2.989  0.3812E+01  0.3687E+03
     -2.893  0.4773E+01  0.3692E+03
     -2.796  0.5833E+01  0.3698E+03
     -2.700  0.6873E+01  0.3704E+03
     -2.603  0.8087E+01  0.3712E+03
     -2.506  0.8649E+01  0.3720E+03
     -2.410  0.7685E+01  0.3728E+03
     -2.313  0.6373E+01  0.3734E+03
     -2.217  0.6394E+01  0.3740E+03
     -2.120  0.7256E+01  0.3747E+03
     -2.023  0.7238E+01  0.3754E+03
     -1.927  0.6294E+01  0.3760E+03
     -1.830  0.6429E+01  0.3766E+03
     -1.734  0.9311E+01  0.3775E+03
     -1.637  0.1431E+02  0.3789E+03
     -1.541  0.1906E+02  0.3808E+03
     -1.444  0.2183E+02  0.3829E+03
     -1.347  0.2258E+02  0.3850E+03
     -1.251  0.2237E+02  0.3872E+03
     -1.154  0.2176E+02  0.3893E+03
     -1.058  0.2012E+02  0.3913E+03
     -0.961  0.1718E+02  0.3929E+03
     -0.864  0.1408E+02  0.3943E+03
     -0.768  0.1217E+02  0.3954E+03
     -0.671  0.1185E+02  0.3966E+03
     -0.575  0.1239E+02  0.3978E+03
     -0.478  0.1255E+02  0.3990E+03
     -0.381  0.1251E+02  0.4002E+03
     -0.285  0.1343E+02  0.4015E+03
     -0.188  0.1507E+02  0.4030E+03
     -0.092  0.1663E+02  0.4046E+03
      0.005  0.1836E+02  0.4063E+03
      0.101  0.2044E+02  0.4083E+03
      0.198  0.2195E+02  0.4104E+03
      0.295  0.2183E+02  0.4125E+03
      0.391  0.2030E+02  0.4145E+03
      0.488  0.1901E+02  0.4163E+03
      0.584  0.1975E+02  0.4182E+03
      0.681  0.2298E+02  0.4205E+03
      0.778  0.2719E+02  0.4231E+03
      0.874  0.3040E+02  0.4260E+03
      0.971  0.3255E+02  0.4292E+03
      1.067  0.3497E+02  0.4326E+03
      1.164  0.3875E+02  0.4363E+03
      1.260  0.4397E+02  0.4405E+03
      1.357  0.4876E+02  0.4453E+03
      1.454  0.5034E+02  0.4501E+03
      1.550  0.4740E+02  0.4547E+03
      1.647  0.3996E+02  0.4585E+03
      1.743  0.2891E+02  0.4613E+03
      1.840  0.1693E+02  0.4630E+03
      1.937  0.7541E+01  0.4637E+03
      2.033  0.2425E+01  0.4639E+03
      2.130  0.5409E+00  0.4640E+03
      2.226  0.8147E-01  0.4640E+03
      2.323  0.8143E-02  0.4640E+03
      2.419  0.5339E-03  0.4640E+03
      2.516  0.2279E-04  0.4640E+03
      2.613  0.6295E-06  0.4640E+03
      2.709  0.1120E-07  0.4640E+03
      2.806  0.1280E-09  0.4640E+03
      2.902  0.9363E-12  0.4640E+03
      2.999  0.3448E-14  0.4640E+03
      3.096  0.0000E+00  0.4640E+03
      3.192  0.0000E+00  0.4640E+03
      3.289  0.0000E+00  0.4640E+03
      3.385  0.0000E+00  0.4640E+03
      3.482  0.0000E+00  0.4640E+03
      3.578  0.0000E+00  0.4640E+03
      3.675  0.0000E+00  0.4640E+03
      3.772  0.0000E+00  0.4640E+03
