       N       E                     dE             d eps       ncg     rms          rms(c)
DAV:   1     0.368758210195E+04    0.36876E+04   -0.11889E+05  1712   0.105E+03
DAV:   2     0.178404964324E+03   -0.35092E+04   -0.32502E+04  2136   0.238E+02
DAV:   3    -0.833476662071E+03   -0.10119E+04   -0.99071E+03  1800   0.135E+02
DAV:   4    -0.894889450007E+03   -0.61413E+02   -0.60399E+02  1704   0.428E+01
DAV:   5    -0.896435307368E+03   -0.15459E+01   -0.15233E+01  1760   0.664E+00    0.452E+01
DAV:   6    -0.847621852396E+03    0.48813E+02   -0.46330E+01  1576   0.125E+01    0.265E+01
DAV:   7    -0.829452346181E+03    0.18170E+02   -0.64903E+01  1576   0.144E+01    0.727E+00
DAV:   8    -0.829176838840E+03    0.27551E+00   -0.25711E+00  1600   0.345E+00    0.100E+00
DAV:   9    -0.829069336605E+03    0.10750E+00   -0.29845E-01  1632   0.107E+00    0.571E-01
DAV:  10    -0.829032713328E+03    0.36623E-01   -0.52824E-02  1784   0.460E-01    0.352E-01
DAV:  11    -0.829006212288E+03    0.26501E-01   -0.21685E-02  1584   0.243E-01    0.246E-01
DAV:  12    -0.829003948450E+03    0.22638E-02   -0.22005E-02  1552   0.225E-01    0.152E-01
DAV:  13    -0.829015717840E+03   -0.11769E-01   -0.90447E-03  1560   0.151E-01    0.894E-02
DAV:  14    -0.829032776138E+03   -0.17058E-01   -0.13646E-03  1584   0.722E-02    0.563E-02
DAV:  15    -0.829052482368E+03   -0.19706E-01   -0.17463E-03  1576   0.662E-02    0.316E-02
DAV:  16    -0.829060657954E+03   -0.81756E-02   -0.46523E-04  1624   0.370E-02    0.215E-02
DAV:  17    -0.829065323735E+03   -0.46658E-02   -0.26882E-04  1584   0.225E-02    0.112E-02
DAV:  18    -0.829067664116E+03   -0.23404E-02   -0.11357E-04  1648   0.146E-02    0.560E-03
DAV:  19    -0.829068644443E+03   -0.98033E-03   -0.32856E-05  1448   0.805E-03    0.406E-03
DAV:  20    -0.829068936928E+03   -0.29248E-03   -0.42254E-06  1376   0.336E-03    0.237E-03
DAV:  21    -0.829069169894E+03   -0.23297E-03   -0.36337E-06  1256   0.276E-03    0.109E-03
DAV:  22    -0.829069216781E+03   -0.46887E-04   -0.21720E-07  1064   0.113E-03    0.719E-04
DAV:  23    -0.829069260783E+03   -0.44002E-04   -0.40345E-07   944   0.106E-03    0.491E-04
DAV:  24    -0.829069271882E+03   -0.11099E-04   -0.85484E-08   984   0.595E-04    0.234E-04
DAV:  25    -0.829069278593E+03   -0.67111E-05   -0.57586E-08   936   0.456E-04    0.184E-04
DAV:  26    -0.829069282101E+03   -0.35083E-05   -0.24631E-08   904   0.277E-04    0.966E-05
DAV:  27    -0.829069283880E+03   -0.17787E-05   -0.10267E-08   944   0.187E-04    0.786E-05
DAV:  28    -0.829069285614E+03   -0.17342E-05   -0.66312E-09   944   0.139E-04    0.390E-05
DAV:  29    -0.829069286018E+03   -0.40390E-06   -0.24470E-09   944   0.819E-05
   1 F= -.82906929E+03 E0= -.82903900E+03  d E =-.605697E-01
