 vasp.6.5.0 16Dec24 (build Feb 19 2025 19:45:31) complex                         
 executed on              LinuxNV date 2025.10.25  19:03:39
 running    2 mpi-ranks, on    1 nodes
 distrk:  each k-point on    2 cores,    1 groups
 distr:  one band on NCORE=   1 cores,    2 groups
 Offloading initialized ...    2 GPUs detected


--------------------------------------------------------------------------------------------------------


 INCAR:
   ISTART = 0            (Not Read existing wavefunction
   ISPIN = 1            (Non-Spin polarised DFT, Default\=1)
   ICHARG = 2            (The initial guess charge density is generated by superposition of atomic charge density)
   LREAL = Auto         (Projection operators: automatic)
   ENCUT = 500          (Cut-off energy for plane wave basis set, in eV)
   LWAVE = .FALSE.       (Write WAVECAR or not)
   LCHARG = .FALSE.       (Write CHGCAR or not)
   PREC = Accurate   (Precision level)
   KGAMMA = .TRUE.
   ALGO = Normal
   NSW = 0           (Default: NSW \= 0)
   IBRION = -1           (Ions are not moved)
   ISMEAR = 0
   EDIFF = 1E-06        (SCF energy convergence
   NELM = 150          (Max electronic SCF steps)

 POTCAR:    PAW_PBE C 08Apr2002                   
 POTCAR:    PAW_PBE C 08Apr2002                   
   SHA256 =  253f7b50bb8d59471dbedb8285d89021f4a42ed1a2c5d38a03a736e69125dd95 C/POTCAR              
   COPYR  = (c) Copyright 08Apr2002 Georg Kresse                                                    
   COPYR  = This file is part of the software VASP. Any use, copying, and all other rights are regul
   COPYR  = If you do not have a valid VASP license, you may not use, copy or distribute this file. 
   VRHFIN =C: s2p2                                                                                  
   LEXCH  = PE                                                                                      
   EATOM  =   147.1560 eV,   10.8157 Ry                                                             
                                                                                                    
   TITEL  = PAW_PBE C 08Apr2002                                                                     
   LULTRA =        F    use ultrasoft PP ?                                                          
   IUNSCR =        1    unscreen: 0-lin 1-nonlin 2-no                                               
   RPACOR =    1.200    partial core radius                                                         
   POMASS =   12.011; ZVAL   =    4.000    mass and valenz                                          
   RCORE  =    1.500    outmost cutoff radius                                                       
   RWIGS  =    1.630; RWIGS  =    0.863    wigner-seitz radius (au A)                               
   ENMAX  =  400.000; ENMIN  =  300.000 eV                                                          
   ICORE  =        2    local potential                                                             
   LCOR   =        T    correct aug charges                                                         
   LPAW   =        T    paw PP                                                                      
   EAUG   =  644.873                                                                                
   DEXC   =    0.000                                                                                
   RMAX   =    1.529    core radius for proj-oper                                                   
   RAUG   =    1.300    factor for augmentation sphere                                              
   RDEP   =    1.501    radius for radial grids                                                     
   RDEPT  =    1.300    core radius for aug-charge                                                  
                                                                                                    
   Atomic configuration                                                                             
    4 entries                                                                                       
     n  l   j            E        occ.                                                              
     1  0  0.50      -273.3789   2.0000                                                             
     2  0  0.50       -13.7508   2.0000                                                             
     2  1  0.50        -5.2854   2.0000                                                             
     3  2  1.50        -5.4423   0.0000                                                             
   Description                                                                                      
     l       E           TYP  RCUT    TYP  RCUT                                                     
     0    -13.7508458     23  1.200                                                                 
     0     -8.2022199     23  1.200                                                                 
     1     -5.2854383     23  1.500                                                                 
     1     34.0145650     23  1.500                                                                 
     2     -5.4423304      7  1.500                                                                 
  local pseudopotential read in
  partial core-charges read in
  partial kinetic energy density read in
  atomic valenz-charges read in
  non local Contribution for L=            0  read in
    real space projection operators read in
  non local Contribution for L=            0  read in
    real space projection operators read in
  non local Contribution for L=            1  read in
    real space projection operators read in
  non local Contribution for L=            1  read in
    real space projection operators read in
    PAW grid and wavefunctions read in
 
   number of l-projection  operators is LMAX  =            4
   number of lm-projection operators is LMMAX =            8
 
 Optimization of the real space projectors (new method)

 maximal supplied QI-value         = 25.13
 optimisation between [QCUT,QGAM] = [ 11.31, 22.87] = [ 35.82,146.48] Ry 
 Optimized for a Real-space Cutoff    1.03 Angstroem

   l    n(q)    QCUT    max X(q) W(low)/X(q) W(high)/X(q)  e(spline) 
   0      7    11.310   115.676    0.20E-03    0.90E-03    0.20E-06
   0      7    11.310    87.132    0.20E-03    0.89E-03    0.19E-06
   1      6    11.310     4.429    0.16E-03    0.28E-03    0.12E-06
   1      6    11.310     2.733    0.12E-03    0.21E-03    0.99E-07
  PAW_PBE C 08Apr2002                   :
 energy of atom  1       EATOM= -147.1560
 kinetic energy error for atom=    0.0076 (will be added to EATOM!!)
 
 
 POSCAR:  C
  positions in cartesian coordinates
  No initial velocities read in


 exchange-correlation table for PE
   RHO(1)=    0.500       N(1)  =     2000
   RHO(2)=  100.500       N(2)  =     4000
 


--------------------------------------------------------------------------------------------------------


 ion  position               nearest neighbor table
   1  0.385  0.605  0.893-   2 1.36   3 1.41  45 1.48  46 2.01
   2  0.386  0.770  0.899-   1 1.36   4 1.39  46 1.50  45 2.05
   3  0.423  0.527  0.874-   5 1.37   1 1.41  50 1.44
   4  0.428  0.853  0.891-  49 1.38   2 1.39   6 1.40
   5  0.466  0.606  0.868-   3 1.37   6 1.39   7 1.42
   6  0.469  0.771  0.879-   5 1.39   4 1.40   8 1.44
   7  0.508  0.530  0.854-  54 1.37   9 1.42   5 1.42
   8  0.511  0.859  0.866-  53 1.35  10 1.43   6 1.44
   9  0.549  0.613  0.839-  10 1.37  11 1.39   7 1.42
  10  0.552  0.774  0.851-   9 1.37   8 1.43  12 1.44
  11  0.590  0.535  0.826-  58 1.36   9 1.39  13 1.43
  12  0.595  0.864  0.844-  57 1.37  10 1.44  14 1.44
  13  0.635  0.618  0.819-  14 1.37  11 1.43  15 1.44
  14  0.637  0.784  0.828-  16 1.37  13 1.37  12 1.44
  15  0.679  0.534  0.811-  62 1.40  17 1.44  13 1.44
  16  0.680  0.865  0.827-  14 1.37  61 1.39  18 1.47
  17  0.724  0.615  0.806-  18 1.39  19 1.41  15 1.44
  18  0.725  0.782  0.815-  17 1.39  20 1.41  16 1.47
  19  0.769  0.535  0.803-  66 1.39  17 1.41  21 1.43
  20  0.769  0.864  0.812-  65 1.39  18 1.41  22 1.48
  21  0.814  0.613  0.801-  22 1.36  19 1.43  23 1.46
  22  0.814  0.781  0.801-  21 1.36  24 1.45  20 1.48
  23  0.860  0.523  0.801-  70 1.31  21 1.46  25 1.51
  24  0.859  0.868  0.805-  69 1.36  26 1.43  22 1.45
  25  0.906  0.615  0.806-  26 1.35  27 1.42  23 1.51
  26  0.904  0.781  0.809-  25 1.35  24 1.43  28 1.44
  27  0.949  0.530  0.813-  74 1.38  29 1.42  25 1.42
  28  0.947  0.866  0.818-  73 1.41  30 1.42  26 1.44
  29  0.992  0.612  0.824-  30 1.38  31 1.40  27 1.42
  30  0.990  0.781  0.829-  29 1.38  28 1.42  32 1.47
  31  0.033  0.523  0.834-  78 1.36  29 1.40  33 1.43
  32  0.030  0.861  0.849-  77 1.37  34 1.42  30 1.47
  33  0.075  0.604  0.850-  34 1.40  31 1.43  35 1.44
  34  0.072  0.772  0.859-  33 1.40  32 1.42  36 1.47
  35  0.119  0.521  0.857-  82 1.37  37 1.41  33 1.44
  36  0.116  0.854  0.874-  81 1.38  38 1.41  34 1.47
  37  0.161  0.608  0.867-  38 1.39  39 1.40  35 1.41
  38  0.159  0.770  0.880-  37 1.39  36 1.41  40 1.43
  39  0.203  0.518  0.875-  86 1.33  37 1.40  41 1.42
  40  0.201  0.853  0.893-  85 1.39  42 1.43  38 1.43
  41  0.245  0.602  0.886-  42 1.38  43 1.41  39 1.42
  42  0.245  0.766  0.897-  41 1.38  40 1.43  44 1.44
  43  0.290  0.522  0.887-  45 1.38  90 1.39  41 1.41
  44  0.289  0.851  0.907-  89 1.38  46 1.40  42 1.44
  45  0.332  0.600  0.896-  43 1.38  46 1.39   1 1.48   2 2.05
  46  0.332  0.769  0.904-  45 1.39  44 1.40   2 1.50   1 2.01
  47  0.385  0.099  0.892-  49 1.35  48 1.39  91 1.49  92 1.97
  48  0.382  0.268  0.885-  47 1.39  50 1.39  92 1.40  91 2.05
  49  0.428  0.022  0.894-  47 1.35   4 1.38  51 1.47
  50  0.423  0.349  0.873-  52 1.37  48 1.39   3 1.44
  51  0.469  0.109  0.877-  53 1.37  52 1.37  49 1.47
  52  0.466  0.270  0.865-  51 1.37  50 1.37  54 1.42
  53  0.510  0.026  0.867-   8 1.35  51 1.37  55 1.45
  54  0.506  0.361  0.851-   7 1.37  52 1.42  56 1.45
  55  0.553  0.117  0.857-  56 1.39  57 1.43  53 1.45
  56  0.552  0.282  0.846-  55 1.39  58 1.44  54 1.45
  57  0.596  0.033  0.846-  12 1.37  59 1.41  55 1.43
  58  0.593  0.369  0.832-  11 1.36  56 1.44  60 1.47
  59  0.640  0.115  0.838-  60 1.37  61 1.40  57 1.41
  60  0.639  0.281  0.831-  59 1.37  62 1.40  58 1.47
  61  0.683  0.035  0.830-  16 1.39  63 1.39  59 1.40
  62  0.680  0.364  0.819-  15 1.40  60 1.40  64 1.47
  63  0.726  0.117  0.824-  64 1.36  61 1.39  65 1.43
  64  0.727  0.284  0.819-  63 1.36  66 1.43  62 1.47
  65  0.770  0.034  0.818-  20 1.39  67 1.41  63 1.43
  66  0.771  0.365  0.809-  19 1.39  68 1.40  64 1.43
  67  0.815  0.112  0.814-  69 1.39  65 1.41  68 1.41
  68  0.815  0.284  0.807-  66 1.40  70 1.41  67 1.41
  69  0.859  0.035  0.809-  24 1.36  67 1.39  71 1.43
  70  0.859  0.361  0.801-  23 1.31  68 1.41  72 1.45
  71  0.903  0.117  0.815-  72 1.34  73 1.36  69 1.43
  72  0.905  0.280  0.808-  71 1.34  74 1.36  70 1.45
  73  0.945  0.039  0.823-  71 1.36  75 1.39  28 1.41
  74  0.947  0.360  0.812-  72 1.36  27 1.38  76 1.52
  75  0.988  0.111  0.835-  76 1.34  73 1.39  77 1.45
  76  0.991  0.275  0.829-  75 1.34  78 1.36  74 1.52
  77  0.030  0.030  0.850-  32 1.37  79 1.39  75 1.45
  78  0.032  0.356  0.839-  76 1.36  31 1.36  80 1.44
  79  0.072  0.105  0.864-  80 1.37  77 1.39  81 1.42
  80  0.072  0.270  0.855-  79 1.37  82 1.42  78 1.44
  81  0.115  0.024  0.876-  36 1.38  83 1.42  79 1.42
  82  0.116  0.353  0.860-  35 1.37  84 1.42  80 1.42
  83  0.158  0.105  0.886-  85 1.40  84 1.41  81 1.42
  84  0.158  0.274  0.875-  86 1.39  83 1.41  82 1.42
  85  0.200  0.023  0.898-  40 1.39  83 1.40  87 1.41
  86  0.202  0.354  0.875-  39 1.33  84 1.39  88 1.49
  87  0.244  0.106  0.899-  88 1.36  85 1.41  89 1.49
  88  0.246  0.267  0.888-  87 1.36  90 1.44  86 1.49
  89  0.290  0.021  0.909-  91 1.38  44 1.38  87 1.49
  90  0.291  0.350  0.889-  92 1.39  43 1.39  88 1.44
  91  0.334  0.093  0.903-  89 1.38  92 1.43  47 1.49  48 2.05
  92  0.334  0.266  0.895-  90 1.39  48 1.40  91 1.43  47 1.97
 
  LATTYP: Found a simple orthorhombic cell.
 ALAT       =     8.1000000000
 B/A-ratio  =     3.4629629630
 C/A-ratio  =     4.1358024691
  
  Lattice vectors:
  
 A1 = (   0.0000000000,  -8.1000000000,   0.0000000000)
 A2 = (  28.0500000000,   0.0000000000,   0.0000000000)
 A3 = (   0.0000000000,   0.0000000000,  33.5000000000)


Analysis of symmetry for initial positions (statically):
=====================================================================
 Subroutine PRICEL returns:
 Original cell was already a primitive cell.
 

 Routine SETGRP: Setting up the symmetry group for a 
 simple orthorhombic supercell.


 Subroutine GETGRP returns: Found  1 space group operations
 (whereof  1 operations were pure point group operations)
 out of a pool of  8 trial point group operations.


The static configuration has the point symmetry C_1 .


Analysis of symmetry for dynamics (positions and initial velocities):
=====================================================================
 Subroutine PRICEL returns:
 Original cell was already a primitive cell.
 

 Routine SETGRP: Setting up the symmetry group for a 
 simple orthorhombic supercell.


 Subroutine GETGRP returns: Found  1 space group operations
 (whereof  1 operations were pure point group operations)
 out of a pool of  8 trial point group operations.


The dynamic configuration has the point symmetry C_1 .


 Subroutine INISYM returns: Found  1 space group operations
 (whereof  1 operations are pure point group operations),
 and found     1 'primitive' translations


----------------------------------------------------------------------------------------

                                     Primitive cell                                     

  volume of cell :    7611.3675

  direct lattice vectors                    reciprocal lattice vectors
    28.050000000  0.000000000  0.000000000     0.035650624  0.000000000  0.000000000
     0.000000000  8.100000000  0.000000000     0.000000000  0.123456790  0.000000000
     0.000000000  0.000000000 33.500000000     0.000000000  0.000000000  0.029850746

  length of vectors
    28.050000000  8.100000000 33.500000000     0.035650624  0.123456790  0.029850746

  position of ions in fractional coordinates (direct lattice)
     0.384581105  0.604596296  0.893353731
     0.385793226  0.770455556  0.899318507
     0.423201426  0.527481481  0.873636418
     0.427811052  0.852718519  0.890581791
     0.465875223  0.605941975  0.868395522
     0.469326203  0.771465432  0.878611940
     0.508253119  0.530000000  0.853885075
     0.511354724  0.859192593  0.866222388
     0.548866310  0.613012346  0.838653134
     0.552153298  0.773906173  0.850738507
     0.590395722  0.535254321  0.826000896
     0.595454545  0.864350617  0.843595224
     0.634869875  0.618139506  0.819282090
     0.637276292  0.783850617  0.827630149
     0.679244207  0.533762963  0.811456418
     0.680221034  0.864917284  0.827286866
     0.724320856  0.615274074  0.805838806
     0.724577540  0.781595062  0.815472836
     0.768698752  0.535125926  0.803291642
     0.768891266  0.863720988  0.811953731
     0.814452763  0.613234568  0.800536418
     0.814324421  0.781088889  0.801478806
     0.859636364  0.523295062  0.800736418
     0.859183601  0.867785185  0.805254030
     0.905921569  0.614775309  0.806324179
     0.903515152  0.781023457  0.808720299
     0.949429590  0.529676543  0.813210448
     0.947030303  0.866079012  0.818154925
     0.991885918  0.612080247  0.824380000
     0.989632799  0.781260494  0.828734627
     0.033057968  0.523404938  0.834120597
     0.030246988  0.860849383  0.848920299
     0.074551872  0.604134568  0.849727164
     0.072165419  0.771651852  0.859298209
     0.119179323  0.521318519  0.857490149
     0.115547594  0.854404938  0.874033433
     0.161421034  0.607893827  0.867054627
     0.158942602  0.769787654  0.880202090
     0.202940820  0.518397531  0.874887164
     0.201456684  0.853169136  0.892738806
     0.245433155  0.602297531  0.885906269
     0.245396791  0.765813580  0.897209552
     0.289924064  0.521698765  0.886617015
     0.288781105  0.850611111  0.907463284
     0.332000357  0.600445679  0.896282687
     0.332478431  0.768664198  0.903860597
     0.385108734  0.099443457  0.892056119
     0.382160428  0.267939506  0.885018209
     0.427686275  0.022006173  0.893711940
     0.423386809  0.349332099  0.872862687
     0.469222816  0.108665185  0.877318806
     0.465729055  0.270083951  0.865264776
     0.510185383  0.026320741  0.867195821
     0.505657754  0.361217284  0.850950448
     0.553319073  0.116726049  0.857111343
     0.551686275  0.282224691  0.846393134
     0.596153298  0.032957407  0.845668060
     0.592809269  0.368571605  0.831582985
     0.639778966  0.115194321  0.838392836
     0.638713012  0.281495062  0.830514328
     0.682884135  0.035342716  0.830110448
     0.680221034  0.364104938  0.818944478
     0.725711230  0.117487901  0.823604776
     0.727147950  0.284119753  0.818557910
     0.769918004  0.034054691  0.817748657
     0.770894831  0.365483951  0.809443881
     0.814609626  0.112045432  0.814032836
     0.814848485  0.284141975  0.807231343
     0.858666667  0.035010617  0.809460896
     0.859311943  0.361132099  0.801269851
     0.903197861  0.116580617  0.815095522
     0.904570410  0.279892593  0.808254627
     0.945326203  0.038863951  0.822823582
     0.947016043  0.359624691  0.812456418
     0.987900178  0.111255062  0.834961493
     0.991065954  0.274659259  0.829388955
     0.030088307  0.030110494  0.850418209
     0.031777790  0.356051852  0.838782090
     0.072033155  0.104567160  0.863678806
     0.072188948  0.270075309  0.855062388
     0.114749376  0.024191728  0.876009254
     0.116425668  0.353149383  0.860355821
     0.158103743  0.105365309  0.886050149
     0.157898396  0.273782716  0.875267761
     0.199969697  0.022989877  0.897563881
     0.201721925  0.354022222  0.874649254
     0.244132977  0.105585802  0.898653134
     0.245809269  0.267402469  0.887610149
     0.289698039  0.021430741  0.908615821
     0.291464528  0.349849383  0.888811045
     0.333840642  0.092565185  0.903009851
     0.333916934  0.265627160  0.895248358

  ion indices of the primitive-cell ions
   primitive index   ion index
                 1           1
                 2           2
                 3           3
                 4           4
                 5           5
                 6           6
                 7           7
                 8           8
                 9           9
                10          10
                11          11
                12          12
                13          13
                14          14
                15          15
                16          16
                17          17
                18          18
                19          19
                20          20
                21          21
                22          22
                23          23
                24          24
                25          25
                26          26
                27          27
                28          28
                29          29
                30          30
                31          31
                32          32
                33          33
                34          34
                35          35
                36          36
                37          37
                38          38
                39          39
                40          40
                41          41
                42          42
                43          43
                44          44
                45          45
                46          46
                47          47
                48          48
                49          49
                50          50
                51          51
                52          52
                53          53
                54          54
                55          55
                56          56
                57          57
                58          58
                59          59
                60          60
                61          61
                62          62
                63          63
                64          64
                65          65
                66          66
                67          67
                68          68
                69          69
                70          70
                71          71
                72          72
                73          73
                74          74
                75          75
                76          76
                77          77
                78          78
                79          79
                80          80
                81          81
                82          82
                83          83
                84          84
                85          85
                86          86
                87          87
                88          88
                89          89
                90          90
                91          91
                92          92

----------------------------------------------------------------------------------------

 
 
 KPOINTS: K-Spacing Value to Generate K-Mesh: 0.03

Automatic generation of k-mesh.
 Grid dimensions read from file:
 generate k-points for:    1    4    1

 Generating k-lattice:

  Cartesian coordinates                     Fractional coordinates (reciprocal lattice)
     0.035650624  0.000000000  0.000000000     1.000000000  0.000000000  0.000000000
     0.000000000  0.030864198  0.000000000     0.000000000  0.250000000  0.000000000
     0.000000000  0.000000000  0.029850746     0.000000000  0.000000000  1.000000000

  Length of vectors
     0.035650624  0.030864198  0.029850746

  Shift w.r.t. Gamma in fractional coordinates (k-lattice)
     0.000000000  0.000000000  0.000000000

 
 Subroutine IBZKPT returns following result:
 ===========================================
 
 Found      3 irreducible k-points:
 
 Following reciprocal coordinates:
            Coordinates               Weight
  0.000000  0.000000  0.000000      1.000000
  0.000000  0.250000  0.000000      2.000000
  0.000000  0.500000  0.000000      1.000000
 
 Following cartesian coordinates:
            Coordinates               Weight
  0.000000  0.000000  0.000000      1.000000
  0.000000  0.030864  0.000000      2.000000
  0.000000  0.061728  0.000000      1.000000
 


--------------------------------------------------------------------------------------------------------




 Dimension of arrays:
   k-points           NKPTS =      3   k-points in BZ     NKDIM =      3   number of bands    NBANDS=    232
   number of dos      NEDOS =    301   number of ions     NIONS =     92
   non local maximal  LDIM  =      4   non local SUM 2l+1 LMDIM =      8
   total plane-waves  NPLWV = ******
   max r-space proj   IRMAX =   1967   max aug-charges    IRDMAX=   5083
   dimension x,y,z NGX =   210 NGY =   60 NGZ =  250
   dimension x,y,z NGXF=   420 NGYF=  120 NGZF=  500
   support grid    NGXF=   420 NGYF=  120 NGZF=  500
   ions per type =              92
   NGX,Y,Z   is equivalent  to a cutoff of  12.45, 12.31, 12.41 a.u.
   NGXF,Y,Z  is equivalent  to a cutoff of  24.89, 24.63, 24.81 a.u.

 SYSTEM =  unknown system                          
 POSCAR =   C                                      

 Startparameter for this run:
   NWRITE =      2    write-flag & timer
   PREC   = accura    normal or accurate (medium, high low for compatibility)
   ISTART =      0    job   : 0-new  1-cont  2-samecut
   ICHARG =      2    charge: 1-file 2-atom 10-const
   ISPIN  =      1    spin polarized calculation?
   LNONCOLLINEAR =      F non collinear calculations
   LSORBIT =      F    spin-orbit coupling
   INIWAV =      1    electr: 0-lowe 1-rand  2-diag
   LASPH  =      F    aspherical Exc in radial PAW
 Electronic Relaxation 1
   ENCUT  =  500.0 eV  36.75 Ry    6.06 a.u.  51.14 14.77 61.08*2*pi/ulx,y,z
   ENINI  =  500.0     initial cutoff
   ENAUG  =  644.9 eV  augmentation charge cutoff
   NELM   =    150;   NELMIN=  2; NELMDL= -5     # of ELM steps 
   EDIFF  = 0.1E-05   stopping-criterion for ELM
   LREAL  =      T    real-space projection
   NLSPLINE    = F    spline interpolate recip. space projectors
   LCOMPAT=      F    compatible to vasp.4.4
   GGA_COMPAT  = T    GGA compatible to vasp.4.4-vasp.4.6
   LMAXPAW     = -100 max onsite density
   LMAXMIX     =    2 max onsite mixed and CHGCAR
   VOSKOWN=      0    Vosko Wilk Nusair interpolation
   ROPT   =   -0.00025
 Ionic relaxation
   EDIFFG = 0.1E-04   stopping-criterion for IOM
   NSW    =      0    number of steps for IOM
   NBLOCK =      1;   KBLOCK =      1    inner block; outer block 
   IBRION =     -1    ionic relax: 0-MD 1-quasi-New 2-CG
   NFREE  =      0    steps in history (QN), initial steepest desc. (CG)
   ISIF   =      2    stress and relaxation
   IWAVPR =     10    prediction:  0-non 1-charg 2-wave 3-comb
   ISYM   =      2    0-nonsym 1-usesym 2-fastsym
   LCORR  =      T    Harris-Foulkes like correction to forces

   POTIM  = 0.5000    time-step for ionic-motion
   TEIN   =    0.0    initial temperature
   TEBEG  =    0.0;   TEEND  =   0.0 temperature during run
   SMASS  =  -3.00    Nose mass-parameter (am)
   estimated Nose-frequenzy (Omega)   =  0.10E-29 period in steps = 0.13E+47 mass=  -0.180E-25a.u.
   SCALEE = 1.0000    scale energy and forces
   NPACO  =    256;   APACO  = 10.0  distance and # of slots for P.C.
   PSTRESS=    0.0 pullay stress

  Mass of Ions in am
   POMASS =  12.01
  Ionic Valenz
   ZVAL   =   4.00
  Atomic Wigner-Seitz radii
   RWIGS  =  -1.00
  virtual crystal weights 
   VCA    =   1.00
   NELECT =     368.0000    total number of electrons
   NUPDOWN=      -1.0000    fix difference up-down

 DOS related values:
   EMIN   =  10.00;   EMAX   =-10.00  energy-range for DOS
   EFERMI =   0.00;   METHOD = LEGACY      
   ISMEAR =     0;   SIGMA  =   0.20  broadening in eV -4-tet -1-fermi 0-gaus
   EFERMI_NEDOS =   21; number of points for ismear=-14 and -15

 Electronic relaxation 2 (details)
   IALGO  =     38    algorithm
   LDIAG  =      T    sub-space diagonalisation (order eigenvalues)
   LSUBROT=      F    optimize rotation matrix (better conditioning)
   TURBO    =      0    0=normal 1=particle mesh
   IRESTART =      0    0=no restart 2=restart with 2 vectors
   NREBOOT  =      0    no. of reboots
   NMIN     =      0    reboot dimension
   EREF     =   0.00    reference energy to select bands
   IMIX   =      4    mixing-type and parameters
     AMIX     =   0.40;   BMIX     =  1.00
     AMIX_MAG =   1.60;   BMIX_MAG =  1.00
     AMIN     =   0.10
     WC   =   100.;   INIMIX=   1;  MIXPRE=   1;  MAXMIX= -45

 Intra band minimization:
   WEIMIN = 0.0000     energy-eigenvalue tresh-hold
   EBREAK =  0.11E-08  absolut break condition
   DEPER  =   0.30     relativ break condition  

   TIME   =   0.40     timestep for ELM

  volume/ion in A,a.u.               =      82.73       558.30
  Fermi-wavevector in a.u.,A,eV,Ry     =   0.596398  1.127030  4.839472  0.355691
  Thomas-Fermi vector in A             =   1.646729
 
 Write flags
   LWAVE        =      F    write WAVECAR
   LDOWNSAMPLE  =      F    k-point downsampling of WAVECAR
   LCHARG       =      F    write CHGCAR
   LVTOT        =      F    write LOCPOT, total local potential
   LVHAR        =      F    write LOCPOT, Hartree potential only
   WRT_POTENTIAL= false  ! write potential to hdf5 file
   LELF         =      F    write electronic localiz. function (ELF)
   LORBIT       =      0    0 simple, 1 ext, 2 COOP (PROOUT), +10 PAW based schemes


 Python interface
   PLUGINS active      =      F    recompile with -DPLUGINS to activate
 
 Dipole corrections
   LMONO      =      F    monopole corrections only (constant potential shift)
   LDIPOL     =      F    correct potential (dipole corrections)
   IDIPOL     =      0    1-x, 2-y, 3-z, 4-all directions 
   EPSILON    =  1.0000000 bulk dielectric constant
   LVACPOTAV  =      F  vacuum potentials using an averaging scheme for the charge density
   VACPOTFLAT =  0.1000000 required flatness to determine vacuum potential
 
Coulomb truncation method
  LTRUNCATE          =      F  Coulomb kernel truncation to be used
  IDIMENSIONALITY    =      3  Dimensionality of cutoff (0 molecules / 2 surfaces)
  ISURFACE           =     -1  Direction of surface normal
  LCOARSEN           =      F  Coarsen the charge grid before padding, preferred

 
 Exchange correlation treatment:
   GGA     = PE    functional components
   XC_C    = 1    coefficients multiplying the functional components
   LIBXC   =     F    Libxc                    
   VOSKOWN =     0    Vosko Wilk Nusair interpolation
   LHFCALC =     F    Hartree Fock is set to
   LHFONE  =     F    Hartree Fock one center treatment
   AEXX    =    0.0000 exact exchange contribution

 Parameters of functionals:
   PE:
     No parameter
 
 Van der Waals corrections
   IVDW    =     0    specifies the selected vdW correction

 Linear response parameters
   LEPSILON=     F    determine dielectric tensor
   LRPA    =     F    only Hartree local field effects (RPA)
   LNABLA  =     F    use nabla operator in PAW spheres
   LVEL    =     F    velocity operator in full k-point grid
   CSHIFT  =0.1000    complex shift for real part using Kramers Kronig
   OMEGAMAX=  -1.0    maximum frequency
   DEG_THRESHOLD= 0.2000000E-02 threshold for treating states as degnerate
   RTIME   =   -0.100 relaxation time in fs
  (WPLASMAI=    0.000 imaginary part of plasma frequency in eV, 0.658/RTIME)
   DFIELD  = 0.0000000 0.0000000 0.0000000 field for delta impulse in time
 
  Optional k-point grid parameters
   LKPOINTS_OPT  =     F    use optional k-point grid
   KPOINTS_OPT_MODE=     1    mode for optional k-point grid
 
 Orbital magnetization related:
   ORBITALMAG=     F  switch on orbital magnetization
   LCHIMAG   =     F  perturbation theory with respect to B field
   DQ        =  0.001000  dq finite difference perturbation B field
   LLRAUG    =     F  two centre corrections for induced B field
   LBONE     =     F  B-component reconstruction in AE one-centre
   LVGVCALC  =     T  calculate vGv susceptibility
   LVGVAPPL  =     F  apply vGv susceptibility instead of pGv for G=0

 Random number generation:
   RANDOM_GENERATOR = DEFAULT
   PCG_SEED         = not used


--------------------------------------------------------------------------------------------------------


 Static calculation
 charge density and potential will be updated during run
 non-spin polarized calculation
 Variant of blocked Davidson
 Davidson routine will perform the subspace rotation
 perform sub-space diagonalisation
    after iterative eigenvector-optimisation
 modified Broyden-mixing scheme, WC =      100.0
 initial mixing is a Kerker type mixing with AMIX =  0.4000 and BMIX =      1.0000
 Hartree-type preconditioning will be used
 using additional bands            48
 real space projection scheme for non local part
 use partial core corrections
 calculate Harris-corrections to forces 
   (improved forces if not selfconsistent)
 use gradient corrections 
 use of overlap-Matrix (Vanderbilt PP)
 Gauss-broadening in eV      SIGMA  =   0.20


--------------------------------------------------------------------------------------------------------


  energy-cutoff  :      500.00
  volume of cell :     7611.37
      direct lattice vectors                 reciprocal lattice vectors
    28.050000000  0.000000000  0.000000000     0.035650624  0.000000000  0.000000000
     0.000000000  8.100000000  0.000000000     0.000000000  0.123456790  0.000000000
     0.000000000  0.000000000 33.500000000     0.000000000  0.000000000  0.029850746

  length of vectors
    28.050000000  8.100000000 33.500000000     0.035650624  0.123456790  0.029850746


 
 k-points in units of 2pi/SCALE and weight: K-Spacing Value to Generate K-Mesh: 0.03
   0.00000000  0.00000000  0.00000000       0.250
   0.00000000  0.03086420  0.00000000       0.500
   0.00000000  0.06172840  0.00000000       0.250
 
 k-points in reciprocal lattice and weights: K-Spacing Value to Generate K-Mesh: 0.03
   0.00000000  0.00000000  0.00000000       0.250
   0.00000000  0.25000000  0.00000000       0.500
   0.00000000  0.50000000  0.00000000       0.250
 
 position of ions in fractional coordinates (direct lattice) 
   0.38458111  0.60459630  0.89335373
   0.38579323  0.77045556  0.89931851
   0.42320143  0.52748148  0.87363642
   0.42781105  0.85271852  0.89058179
   0.46587522  0.60594198  0.86839552
   0.46932620  0.77146543  0.87861194
   0.50825312  0.53000000  0.85388507
   0.51135472  0.85919259  0.86622239
   0.54886631  0.61301235  0.83865313
   0.55215330  0.77390617  0.85073851
   0.59039572  0.53525432  0.82600090
   0.59545455  0.86435062  0.84359522
   0.63486988  0.61813951  0.81928209
   0.63727629  0.78385062  0.82763015
   0.67924421  0.53376296  0.81145642
   0.68022103  0.86491728  0.82728687
   0.72432086  0.61527407  0.80583881
   0.72457754  0.78159506  0.81547284
   0.76869875  0.53512593  0.80329164
   0.76889127  0.86372099  0.81195373
   0.81445276  0.61323457  0.80053642
   0.81432442  0.78108889  0.80147881
   0.85963636  0.52329506  0.80073642
   0.85918360  0.86778519  0.80525403
   0.90592157  0.61477531  0.80632418
   0.90351515  0.78102346  0.80872030
   0.94942959  0.52967654  0.81321045
   0.94703030  0.86607901  0.81815493
   0.99188592  0.61208025  0.82438000
   0.98963280  0.78126049  0.82873463
   0.03305797  0.52340494  0.83412060
   0.03024699  0.86084938  0.84892030
   0.07455187  0.60413457  0.84972716
   0.07216542  0.77165185  0.85929821
   0.11917932  0.52131852  0.85749015
   0.11554759  0.85440494  0.87403343
   0.16142103  0.60789383  0.86705463
   0.15894260  0.76978765  0.88020209
   0.20294082  0.51839753  0.87488716
   0.20145668  0.85316914  0.89273881
   0.24543316  0.60229753  0.88590627
   0.24539679  0.76581358  0.89720955
   0.28992406  0.52169877  0.88661701
   0.28878111  0.85061111  0.90746328
   0.33200036  0.60044568  0.89628269
   0.33247843  0.76866420  0.90386060
   0.38510873  0.09944346  0.89205612
   0.38216043  0.26793951  0.88501821
   0.42768627  0.02200617  0.89371194
   0.42338681  0.34933210  0.87286269
   0.46922282  0.10866519  0.87731881
   0.46572906  0.27008395  0.86526478
   0.51018538  0.02632074  0.86719582
   0.50565775  0.36121728  0.85095045
   0.55331907  0.11672605  0.85711134
   0.55168627  0.28222469  0.84639313
   0.59615330  0.03295741  0.84566806
   0.59280927  0.36857160  0.83158299
   0.63977897  0.11519432  0.83839284
   0.63871301  0.28149506  0.83051433
   0.68288414  0.03534272  0.83011045
   0.68022103  0.36410494  0.81894448
   0.72571123  0.11748790  0.82360478
   0.72714795  0.28411975  0.81855791
   0.76991800  0.03405469  0.81774866
   0.77089483  0.36548395  0.80944388
   0.81460963  0.11204543  0.81403284
   0.81484848  0.28414198  0.80723134
   0.85866667  0.03501062  0.80946090
   0.85931194  0.36113210  0.80126985
   0.90319786  0.11658062  0.81509552
   0.90457041  0.27989259  0.80825463
   0.94532620  0.03886395  0.82282358
   0.94701604  0.35962469  0.81245642
   0.98790018  0.11125506  0.83496149
   0.99106595  0.27465926  0.82938896
   0.03008831  0.03011049  0.85041821
   0.03177779  0.35605185  0.83878209
   0.07203316  0.10456716  0.86367881
   0.07218895  0.27007531  0.85506239
   0.11474938  0.02419173  0.87600925
   0.11642567  0.35314938  0.86035582
   0.15810374  0.10536531  0.88605015
   0.15789840  0.27378272  0.87526776
   0.19996970  0.02298988  0.89756388
   0.20172193  0.35402222  0.87464925
   0.24413298  0.10558580  0.89865313
   0.24580927  0.26740247  0.88761015
   0.28969804  0.02143074  0.90861582
   0.29146453  0.34984938  0.88881104
   0.33384064  0.09256519  0.90300985
   0.33391693  0.26562716  0.89524836
 
 position of ions in cartesian coordinates  (Angst):
  10.78750000  4.89723000 29.92735000
  10.82150000  6.24069000 30.12717000
  11.87080000  4.27260000 29.26682000
  12.00010000  6.90702000 29.83449000
  13.06780000  4.90813000 29.09125000
  13.16460000  6.24887000 29.43350000
  14.25650000  4.29300000 28.60515000
  14.34350000  6.95946000 29.01845000
  15.39570000  4.96540000 28.09488000
  15.48790000  6.26864000 28.49974000
  16.56060000  4.33556000 27.67103000
  16.70250000  7.00124000 28.26044000
  17.80810000  5.00693000 27.44595000
  17.87560000  6.34919000 27.72561000
  19.05280000  4.32348000 27.18379000
  19.08020000  7.00583000 27.71411000
  20.31720000  4.98372000 26.99560000
  20.32440000  6.33092000 27.31834000
  21.56200000  4.33452000 26.91027000
  21.56740000  6.99614000 27.20045000
  22.84540000  4.96720000 26.81797000
  22.84180000  6.32682000 26.84954000
  24.11280000  4.23869000 26.82467000
  24.10010000  7.02906000 26.97601000
  25.41110000  4.97968000 27.01186000
  25.34360000  6.32629000 27.09213000
  26.63150000  4.29038000 27.24255000
  26.56420000  7.01524000 27.40819000
  27.82240000  4.95785000 27.61673000
  27.75920000  6.32821000 27.76261000
   0.92727600  4.23958000 27.94304000
   0.84842800  6.97288000 28.43883000
   2.09118000  4.89349000 28.46586000
   2.02424000  6.25038000 28.78649000
   3.34298000  4.22268000 28.72592000
   3.24111000  6.92068000 29.28012000
   4.52786000  4.92394000 29.04633000
   4.45834000  6.23528000 29.48677000
   5.69249000  4.19902000 29.30872000
   5.65086000  6.91067000 29.90675000
   6.88440000  4.87861000 29.67786000
   6.88338000  6.20309000 30.05652000
   8.13237000  4.22576000 29.70167000
   8.10031000  6.88995000 30.40002000
   9.31261000  4.86361000 30.02547000
   9.32602000  6.22618000 30.27933000
  10.80230000  0.80549200 29.88388000
  10.71960000  2.17031000 29.64811000
  11.99660000  0.17825000 29.93935000
  11.87600000  2.82959000 29.24090000
  13.16170000  0.88018800 29.39018000
  13.06370000  2.18768000 28.98637000
  14.31070000  0.21319800 29.05106000
  14.18370000  2.92586000 28.50684000
  15.52060000  0.94548100 28.71323000
  15.47480000  2.28602000 28.35417000
  16.72210000  0.26695500 28.32988000
  16.62830000  2.98543000 27.85803000
  17.94580000  0.93307400 28.08616000
  17.91590000  2.28011000 27.82223000
  19.15490000  0.28627600 27.80870000
  19.08020000  2.94925000 27.43464000
  20.35620000  0.95165200 27.59076000
  20.39650000  2.30137000 27.42169000
  21.59620000  0.27584300 27.39458000
  21.62360000  2.96042000 27.11637000
  22.84980000  0.90756800 27.27010000
  22.85650000  2.30155000 27.04225000
  24.08560000  0.28358600 27.11694000
  24.10370000  2.92517000 26.84254000
  25.33470000  0.94430300 27.30570000
  25.37320000  2.26713000 27.07653000
  26.51640000  0.31479800 27.56459000
  26.56380000  2.91296000 27.21729000
  27.71060000  0.90116600 27.97121000
  27.79940000  2.22474000 27.78453000
   0.84397700  0.24389500 28.48901000
   0.89136700  2.88402000 28.09920000
   2.02053000  0.84699400 28.93324000
   2.02490000  2.18761000 28.64459000
   3.21872000  0.19595300 29.34631000
   3.26574000  2.86051000 28.82192000
   4.43481000  0.85345900 29.68268000
   4.42905000  2.21764000 29.32147000
   5.60915000  0.18621800 30.06839000
   5.65830000  2.86758000 29.30075000
   6.84793000  0.85524500 30.10488000
   6.89495000  2.16596000 29.73494000
   8.12603000  0.17358900 30.43863000
   8.17558000  2.83378000 29.77517000
   9.36423000  0.74977800 30.25083000
   9.36637000  2.15158000 29.99082000
 


--------------------------------------------------------------------------------------------------------


 k-point     1 :   0.0000 0.0000 0.0000  plane waves:  193173
 k-point     2 :   0.0000 0.2500 0.0000  plane waves:  193166
 k-point     3 :   0.0000 0.5000 0.0000  plane waves:  193226

 maximum and minimum number of plane-waves per node :    193226   193166

 maximum number of plane-waves:    193226
 maximum index in each direction: 
   IXMAX=   51   IYMAX=   14   IZMAX=   61
   IXMIN=  -51   IYMIN=  -15   IZMIN=  -61


 serial   3D FFT for wavefunctions
 parallel 3D FFT for charge:
    minimum data exchange during FFTs selected (reduces bandwidth)


 total amount of memory used by VASP MPI-rank0  2294516. kBytes
=======================================================================

   base                                    :      30000. kBytes
   nonlr-proj                              :      15082. kBytes
   fftplans                                :     436558. kBytes
   grid                                    :     732614. kBytes
   one-center                              :        282. kBytes
   wavefun                                 :    1079980. kBytes
 
     INWAV:  cpu time      0.0000: real time      0.0000
 Broyden mixing: mesh for mixing (old mesh)
   NGX =103   NGY = 29   NGZ =123
  (NGX  =420   NGY  =120   NGZ  =500)
  gives a total of 367401 points

 initial charge density was supplied:
 charge density of overlapping atoms calculated
 number of electron     368.0000000 magnetization 
 keeping initial charge density in first step


--------------------------------------------------------------------------------------------------------


 Maximum index for non-local projection operator          1871
 Maximum index for augmentation-charges          2386 (set IRDMAX)


--------------------------------------------------------------------------------------------------------


 First call to EWALD:  gamma=   0.090
 Maximum number of real-space cells   2x   6x   2
 Maximum number of reciprocal cells   4x   1x   4

    FEWALD:  cpu time      0.1641: real time      0.1641


--------------------------------------- Ionic step        1  -------------------------------------------




--------------------------------------- Iteration      1(   1)  ---------------------------------------


    POTLOK:  cpu time      0.4223: real time      0.4376
    SETDIJ:  cpu time      0.0420: real time      0.0421
     EDDAV:  cpu time     11.0640: real time     11.0684
       DOS:  cpu time      0.0008: real time      0.0008
    --------------------------------------------
      LOOP:  cpu time     11.5292: real time     11.5489

 eigenvalue-minimisations  :  1712
 total energy-change (2. order) : 0.3687582E+04  (-0.1188878E+05)
 number of electron     368.0000000 magnetization 
 augmentation part      368.0000000 magnetization 

 Free energy of the ion-electron system (eV)
  ---------------------------------------------------
  alpha Z        PSCENC =        91.34886789
  Ewald energy   TEWEN  =    119590.73980698
  -Hartree energ DENC   =   -128935.15557803
  -exchange      EXHF   =         0.00000000
  -V(xc)+E(xc)   XCENC  =      1220.21476907
  PAW double counting   =      9984.02826696   -10036.41360137
  entropy T*S    EENTRO =        -0.86304582
  eigenvalues    EBANDS =     -1763.97217765
  atomic energy  EATOM  =     13537.65479391
  Solvation  Ediel_sol  =         0.00000000
  ---------------------------------------------------
  free energy    TOTEN  =      3687.58210195 eV

  energy without entropy =     3688.44514777  energy(sigma->0) =     3688.01362486


--------------------------------------------------------------------------------------------------------




--------------------------------------- Iteration      1(   2)  ---------------------------------------


     EDDAV:  cpu time     13.0919: real time     13.1004
       DOS:  cpu time      0.0007: real time      0.0007
    --------------------------------------------
      LOOP:  cpu time     13.0926: real time     13.1010

 eigenvalue-minimisations  :  2136
 total energy-change (2. order) :-0.3509177E+04  (-0.3250190E+04)
 number of electron     368.0000000 magnetization 
 augmentation part      368.0000000 magnetization 

 Free energy of the ion-electron system (eV)
  ---------------------------------------------------
  alpha Z        PSCENC =        91.34886789
  Ewald energy   TEWEN  =    119590.73980698
  -Hartree energ DENC   =   -128935.15557803
  -exchange      EXHF   =         0.00000000
  -V(xc)+E(xc)   XCENC  =      1220.21476907
  PAW double counting   =      9984.02826696   -10036.41360137
  entropy T*S    EENTRO =        -0.20667775
  eigenvalues    EBANDS =     -5273.80568335
  atomic energy  EATOM  =     13537.65479391
  Solvation  Ediel_sol  =         0.00000000
  ---------------------------------------------------
  free energy    TOTEN  =       178.40496432 eV

  energy without entropy =      178.61164207  energy(sigma->0) =      178.50830320


--------------------------------------------------------------------------------------------------------




--------------------------------------- Iteration      1(   3)  ---------------------------------------


     EDDAV:  cpu time     11.3308: real time     11.3349
       DOS:  cpu time      0.0007: real time      0.0007
    --------------------------------------------
      LOOP:  cpu time     11.3314: real time     11.3356

 eigenvalue-minimisations  :  1800
 total energy-change (2. order) :-0.1011882E+04  (-0.9907140E+03)
 number of electron     368.0000000 magnetization 
 augmentation part      368.0000000 magnetization 

 Free energy of the ion-electron system (eV)
  ---------------------------------------------------
  alpha Z        PSCENC =        91.34886789
  Ewald energy   TEWEN  =    119590.73980698
  -Hartree energ DENC   =   -128935.15557803
  -exchange      EXHF   =         0.00000000
  -V(xc)+E(xc)   XCENC  =      1220.21476907
  PAW double counting   =      9984.02826696   -10036.41360137
  entropy T*S    EENTRO =        -0.04107729
  eigenvalues    EBANDS =     -6285.85291020
  atomic energy  EATOM  =     13537.65479391
  Solvation  Ediel_sol  =         0.00000000
  ---------------------------------------------------
  free energy    TOTEN  =      -833.47666207 eV

  energy without entropy =     -833.43558478  energy(sigma->0) =     -833.45612343


--------------------------------------------------------------------------------------------------------




--------------------------------------- Iteration      1(   4)  ---------------------------------------


     EDDAV:  cpu time     10.8886: real time     10.8927
       DOS:  cpu time      0.0007: real time      0.0007
    --------------------------------------------
      LOOP:  cpu time     10.8892: real time     10.8934

 eigenvalue-minimisations  :  1704
 total energy-change (2. order) :-0.6141279E+02  (-0.6039859E+02)
 number of electron     368.0000000 magnetization 
 augmentation part      368.0000000 magnetization 

 Free energy of the ion-electron system (eV)
  ---------------------------------------------------
  alpha Z        PSCENC =        91.34886789
  Ewald energy   TEWEN  =    119590.73980698
  -Hartree energ DENC   =   -128935.15557803
  -exchange      EXHF   =         0.00000000
  -V(xc)+E(xc)   XCENC  =      1220.21476907
  PAW double counting   =      9984.02826696   -10036.41360137
  entropy T*S    EENTRO =        -0.05622331
  eigenvalues    EBANDS =     -6347.25055211
  atomic energy  EATOM  =     13537.65479391
  Solvation  Ediel_sol  =         0.00000000
  ---------------------------------------------------
  free energy    TOTEN  =      -894.88945001 eV

  energy without entropy =     -894.83322669  energy(sigma->0) =     -894.86133835


--------------------------------------------------------------------------------------------------------




--------------------------------------- Iteration      1(   5)  ---------------------------------------


     EDDAV:  cpu time     11.1715: real time     11.1756
       DOS:  cpu time      0.0007: real time      0.0007
    CHARGE:  cpu time      1.2140: real time      1.2143
    MIXING:  cpu time      0.2754: real time      0.2753
    --------------------------------------------
      LOOP:  cpu time     12.6617: real time     12.6659

 eigenvalue-minimisations  :  1760
 total energy-change (2. order) :-0.1545857E+01  (-0.1523277E+01)
 number of electron     368.0000000 magnetization 
 augmentation part       10.0975193 magnetization 

 Broyden mixing:
  rms(total) = 0.45196E+01    rms(broyden)= 0.45190E+01
  rms(prec ) = 0.46360E+01
  weight for this iteration     100.00

 Free energy of the ion-electron system (eV)
  ---------------------------------------------------
  alpha Z        PSCENC =        91.34886789
  Ewald energy   TEWEN  =    119590.73980698
  -Hartree energ DENC   =   -128935.15557803
  -exchange      EXHF   =         0.00000000
  -V(xc)+E(xc)   XCENC  =      1220.21476907
  PAW double counting   =      9984.02826696   -10036.41360137
  entropy T*S    EENTRO =        -0.05694215
  eigenvalues    EBANDS =     -6348.79569064
  atomic energy  EATOM  =     13537.65479391
  Solvation  Ediel_sol  =         0.00000000
  ---------------------------------------------------
  free energy    TOTEN  =      -896.43530737 eV

  energy without entropy =     -896.37836522  energy(sigma->0) =     -896.40683630


--------------------------------------------------------------------------------------------------------




--------------------------------------- Iteration      1(   6)  ---------------------------------------


    POTLOK:  cpu time      0.3192: real time      0.3193
    SETDIJ:  cpu time      0.0405: real time      0.0405
     EDDAV:  cpu time     10.2523: real time     10.2590
       DOS:  cpu time      0.0007: real time      0.0007
    CHARGE:  cpu time      1.1618: real time      1.1641
    MIXING:  cpu time      0.2778: real time      0.2780
    --------------------------------------------
      LOOP:  cpu time     12.0524: real time     12.0616

 eigenvalue-minimisations  :  1576
 total energy-change (2. order) : 0.4881345E+02  (-0.4633023E+01)
 number of electron     368.0000000 magnetization 
 augmentation part        9.6820278 magnetization 

 Broyden mixing:
  rms(total) = 0.26548E+01    rms(broyden)= 0.26547E+01
  rms(prec ) = 0.27125E+01
  weight for this iteration     100.00

 eigenvalues of (default mixing * dielectric matrix)
  average eigenvalue GAMMA=   2.1889
  2.1889

 Free energy of the ion-electron system (eV)
  ---------------------------------------------------
  alpha Z        PSCENC =        91.34886789
  Ewald energy   TEWEN  =    119590.73980698
  -Hartree energ DENC   =   -129501.01138201
  -exchange      EXHF   =         0.00000000
  -V(xc)+E(xc)   XCENC  =      1243.38856502
  PAW double counting   =     18860.88104192   -18920.79820977
  entropy T*S    EENTRO =        -0.05770073
  eigenvalues    EBANDS =     -5749.76763561
  atomic energy  EATOM  =     13537.65479391
  Solvation  Ediel_sol  =         0.00000000
  ---------------------------------------------------
  free energy    TOTEN  =      -847.62185240 eV

  energy without entropy =     -847.56415167  energy(sigma->0) =     -847.59300203


--------------------------------------------------------------------------------------------------------




--------------------------------------- Iteration      1(   7)  ---------------------------------------


    POTLOK:  cpu time      0.3191: real time      0.3191
    SETDIJ:  cpu time      0.0404: real time      0.0404
     EDDAV:  cpu time     10.2511: real time     10.2572
       DOS:  cpu time      0.0007: real time      0.0007
    CHARGE:  cpu time      1.1576: real time      1.1594
    MIXING:  cpu time      0.2775: real time      0.2797
    --------------------------------------------
      LOOP:  cpu time     12.0464: real time     12.0565

 eigenvalue-minimisations  :  1576
 total energy-change (2. order) : 0.1816951E+02  (-0.6490267E+01)
 number of electron     368.0000000 magnetization 
 augmentation part        9.1289054 magnetization 

 Broyden mixing:
  rms(total) = 0.72671E+00    rms(broyden)= 0.72644E+00
  rms(prec ) = 0.73648E+00
  weight for this iteration     100.00

 eigenvalues of (default mixing * dielectric matrix)
  average eigenvalue GAMMA=   2.2183
  2.2183  2.2183

 Free energy of the ion-electron system (eV)
  ---------------------------------------------------
  alpha Z        PSCENC =        91.34886789
  Ewald energy   TEWEN  =    119590.73980698
  -Hartree energ DENC   =   -130261.44938683
  -exchange      EXHF   =         0.00000000
  -V(xc)+E(xc)   XCENC  =      1274.36950155
  PAW double counting   =     36334.79722829   -36401.57712905
  entropy T*S    EENTRO =        -0.06184113
  eigenvalues    EBANDS =     -4995.27418778
  atomic energy  EATOM  =     13537.65479391
  Solvation  Ediel_sol  =         0.00000000
  ---------------------------------------------------
  free energy    TOTEN  =      -829.45234618 eV

  energy without entropy =     -829.39050505  energy(sigma->0) =     -829.42142562


--------------------------------------------------------------------------------------------------------




--------------------------------------- Iteration      1(   8)  ---------------------------------------


    POTLOK:  cpu time      0.3186: real time      0.3186
    SETDIJ:  cpu time      0.0406: real time      0.0406
     EDDAV:  cpu time     10.3767: real time     10.3803
       DOS:  cpu time      0.0008: real time      0.0008
    CHARGE:  cpu time      1.1594: real time      1.1610
    MIXING:  cpu time      0.2806: real time      0.2817
    --------------------------------------------
      LOOP:  cpu time     12.1766: real time     12.1830

 eigenvalue-minimisations  :  1600
 total energy-change (2. order) : 0.2755073E+00  (-0.2571143E+00)
 number of electron     368.0000000 magnetization 
 augmentation part        9.1169786 magnetization 

 Broyden mixing:
  rms(total) = 0.99954E-01    rms(broyden)= 0.99925E-01
  rms(prec ) = 0.12203E+00
  weight for this iteration     100.00

 eigenvalues of (default mixing * dielectric matrix)
  average eigenvalue GAMMA=   1.8638
  1.2584  2.4459  1.8872

 Free energy of the ion-electron system (eV)
  ---------------------------------------------------
  alpha Z        PSCENC =        91.34886789
  Ewald energy   TEWEN  =    119590.73980698
  -Hartree energ DENC   =   -130350.51919450
  -exchange      EXHF   =         0.00000000
  -V(xc)+E(xc)   XCENC  =      1273.93398196
  PAW double counting   =     40502.97429425   -40567.00244076
  entropy T*S    EENTRO =        -0.06078957
  eigenvalues    EBANDS =     -4908.24615898
  atomic energy  EATOM  =     13537.65479391
  Solvation  Ediel_sol  =         0.00000000
  ---------------------------------------------------
  free energy    TOTEN  =      -829.17683884 eV

  energy without entropy =     -829.11604927  energy(sigma->0) =     -829.14644405


--------------------------------------------------------------------------------------------------------




--------------------------------------- Iteration      1(   9)  ---------------------------------------


    POTLOK:  cpu time      0.3188: real time      0.3188
    SETDIJ:  cpu time      0.0401: real time      0.0401
     EDDAV:  cpu time     10.5405: real time     10.5448
       DOS:  cpu time      0.0007: real time      0.0007
    CHARGE:  cpu time      1.1578: real time      1.1584
    MIXING:  cpu time      0.2839: real time      0.2847
    --------------------------------------------
      LOOP:  cpu time     12.3420: real time     12.3476

 eigenvalue-minimisations  :  1632
 total energy-change (2. order) : 0.1075022E+00  (-0.2984459E-01)
 number of electron     368.0000000 magnetization 
 augmentation part        9.0916788 magnetization 

 Broyden mixing:
  rms(total) = 0.57117E-01    rms(broyden)= 0.57108E-01
  rms(prec ) = 0.78129E-01
  weight for this iteration     100.00

 eigenvalues of (default mixing * dielectric matrix)
  average eigenvalue GAMMA=   1.7115
  2.2185  2.2185  1.2046  1.2046

 Free energy of the ion-electron system (eV)
  ---------------------------------------------------
  alpha Z        PSCENC =        91.34886789
  Ewald energy   TEWEN  =    119590.73980698
  -Hartree energ DENC   =   -130420.85531524
  -exchange      EXHF   =         0.00000000
  -V(xc)+E(xc)   XCENC  =      1275.47029233
  PAW double counting   =     41008.83671115   -41073.02422433
  entropy T*S    EENTRO =        -0.06049940
  eigenvalues    EBANDS =     -4839.17976988
  atomic energy  EATOM  =     13537.65479391
  Solvation  Ediel_sol  =         0.00000000
  ---------------------------------------------------
  free energy    TOTEN  =      -829.06933660 eV

  energy without entropy =     -829.00883721  energy(sigma->0) =     -829.03908691


--------------------------------------------------------------------------------------------------------




--------------------------------------- Iteration      1(  10)  ---------------------------------------


    POTLOK:  cpu time      0.3188: real time      0.3188
    SETDIJ:  cpu time      0.0400: real time      0.0401
     EDDAV:  cpu time     11.2964: real time     11.3014
       DOS:  cpu time      0.0007: real time      0.0007
    CHARGE:  cpu time      1.1591: real time      1.1592
    MIXING:  cpu time      0.2924: real time      0.2925
    --------------------------------------------
      LOOP:  cpu time     13.1074: real time     13.1127

 eigenvalue-minimisations  :  1784
 total energy-change (2. order) : 0.3662328E-01  (-0.5282400E-02)
 number of electron     368.0000000 magnetization 
 augmentation part        9.0819855 magnetization 

 Broyden mixing:
  rms(total) = 0.35160E-01    rms(broyden)= 0.35157E-01
  rms(prec ) = 0.54210E-01
  weight for this iteration     100.00

 eigenvalues of (default mixing * dielectric matrix)
  average eigenvalue GAMMA=   1.7375
  2.4903  2.4903  1.6013  1.2730  0.8326

 Free energy of the ion-electron system (eV)
  ---------------------------------------------------
  alpha Z        PSCENC =        91.34886789
  Ewald energy   TEWEN  =    119590.73980698
  -Hartree energ DENC   =   -130471.09139727
  -exchange      EXHF   =         0.00000000
  -V(xc)+E(xc)   XCENC  =      1275.76514702
  PAW double counting   =     40758.88572281   -40822.91241669
  entropy T*S    EENTRO =        -0.06041106
  eigenvalues    EBANDS =     -4789.36282692
  atomic energy  EATOM  =     13537.65479391
  Solvation  Ediel_sol  =         0.00000000
  ---------------------------------------------------
  free energy    TOTEN  =      -829.03271333 eV

  energy without entropy =     -828.97230227  energy(sigma->0) =     -829.00250780


--------------------------------------------------------------------------------------------------------




--------------------------------------- Iteration      1(  11)  ---------------------------------------


    POTLOK:  cpu time      0.3190: real time      0.3189
    SETDIJ:  cpu time      0.0403: real time      0.0403
     EDDAV:  cpu time     10.2877: real time     10.2913
       DOS:  cpu time      0.0008: real time      0.0008
    CHARGE:  cpu time      1.1687: real time      1.1701
    MIXING:  cpu time      0.2973: real time      0.2996
    --------------------------------------------
      LOOP:  cpu time     12.1138: real time     12.1210

 eigenvalue-minimisations  :  1584
 total energy-change (2. order) : 0.2650104E-01  (-0.2168537E-02)
 number of electron     368.0000000 magnetization 
 augmentation part        9.0768998 magnetization 

 Broyden mixing:
  rms(total) = 0.24631E-01    rms(broyden)= 0.24629E-01
  rms(prec ) = 0.37774E-01
  weight for this iteration     100.00

 eigenvalues of (default mixing * dielectric matrix)
  average eigenvalue GAMMA=   1.7777
  2.9178  2.5554  1.9203  0.9405  1.1662  1.1662

 Free energy of the ion-electron system (eV)
  ---------------------------------------------------
  alpha Z        PSCENC =        91.34886789
  Ewald energy   TEWEN  =    119590.73980698
  -Hartree energ DENC   =   -130532.84500923
  -exchange      EXHF   =         0.00000000
  -V(xc)+E(xc)   XCENC  =      1276.32977491
  PAW double counting   =     40702.65439969   -40766.58684309
  entropy T*S    EENTRO =        -0.06053176
  eigenvalues    EBANDS =     -4728.24147159
  atomic energy  EATOM  =     13537.65479391
  Solvation  Ediel_sol  =         0.00000000
  ---------------------------------------------------
  free energy    TOTEN  =      -829.00621229 eV

  energy without entropy =     -828.94568053  energy(sigma->0) =     -828.97594641


--------------------------------------------------------------------------------------------------------




--------------------------------------- Iteration      1(  12)  ---------------------------------------


    POTLOK:  cpu time      0.3209: real time      0.3210
    SETDIJ:  cpu time      0.0405: real time      0.0405
     EDDAV:  cpu time     10.1163: real time     10.1202
       DOS:  cpu time      0.0007: real time      0.0007
    CHARGE:  cpu time      1.1584: real time      1.1589
    MIXING:  cpu time      0.3079: real time      0.3079
    --------------------------------------------
      LOOP:  cpu time     11.9448: real time     11.9492

 eigenvalue-minimisations  :  1552
 total energy-change (2. order) : 0.2263837E-02  (-0.2200510E-02)
 number of electron     368.0000000 magnetization 
 augmentation part        9.0697393 magnetization 

 Broyden mixing:
  rms(total) = 0.15161E-01    rms(broyden)= 0.15157E-01
  rms(prec ) = 0.23237E-01
  weight for this iteration     100.00

 eigenvalues of (default mixing * dielectric matrix)
  average eigenvalue GAMMA=   2.0629
  4.8321  2.4221  2.0090  2.0090  0.9672  1.1004  1.1004

 Free energy of the ion-electron system (eV)
  ---------------------------------------------------
  alpha Z        PSCENC =        91.34886789
  Ewald energy   TEWEN  =    119590.73980698
  -Hartree energ DENC   =   -130593.47020937
  -exchange      EXHF   =         0.00000000
  -V(xc)+E(xc)   XCENC  =      1276.92312892
  PAW double counting   =     40764.05555245   -40827.98083481
  entropy T*S    EENTRO =        -0.06058142
  eigenvalues    EBANDS =     -4668.21447299
  atomic energy  EATOM  =     13537.65479391
  Solvation  Ediel_sol  =         0.00000000
  ---------------------------------------------------
  free energy    TOTEN  =      -829.00394845 eV

  energy without entropy =     -828.94336703  energy(sigma->0) =     -828.97365774


--------------------------------------------------------------------------------------------------------




--------------------------------------- Iteration      1(  13)  ---------------------------------------


    POTLOK:  cpu time      0.3194: real time      0.3193
    SETDIJ:  cpu time      0.0402: real time      0.0401
     EDDAV:  cpu time     10.1541: real time     10.1579
       DOS:  cpu time      0.0008: real time      0.0008
    CHARGE:  cpu time      1.1589: real time      1.1591
    MIXING:  cpu time      0.3130: real time      0.3142
    --------------------------------------------
      LOOP:  cpu time     11.9863: real time     11.9914

 eigenvalue-minimisations  :  1560
 total energy-change (2. order) :-0.1176939E-01  (-0.9044676E-03)
 number of electron     368.0000000 magnetization 
 augmentation part        9.0671657 magnetization 

 Broyden mixing:
  rms(total) = 0.89389E-02    rms(broyden)= 0.89369E-02
  rms(prec ) = 0.12362E-01
  weight for this iteration     100.00

 eigenvalues of (default mixing * dielectric matrix)
  average eigenvalue GAMMA=   2.0891
  5.3866  2.4880  2.4880  1.8459  1.2510  1.2510  0.8836  1.1187

 Free energy of the ion-electron system (eV)
  ---------------------------------------------------
  alpha Z        PSCENC =        91.34886789
  Ewald energy   TEWEN  =    119590.73980698
  -Hartree energ DENC   =   -130644.96608570
  -exchange      EXHF   =         0.00000000
  -V(xc)+E(xc)   XCENC  =      1277.13160105
  PAW double counting   =     40716.00884761   -40779.92322407
  entropy T*S    EENTRO =        -0.06059312
  eigenvalues    EBANDS =     -4616.94973238
  atomic energy  EATOM  =     13537.65479391
  Solvation  Ediel_sol  =         0.00000000
  ---------------------------------------------------
  free energy    TOTEN  =      -829.01571784 eV

  energy without entropy =     -828.95512472  energy(sigma->0) =     -828.98542128


--------------------------------------------------------------------------------------------------------




--------------------------------------- Iteration      1(  14)  ---------------------------------------


    POTLOK:  cpu time      0.3197: real time      0.3197
    SETDIJ:  cpu time      0.0402: real time      0.0401
     EDDAV:  cpu time     10.2739: real time     10.2776
       DOS:  cpu time      0.0008: real time      0.0008
    CHARGE:  cpu time      1.1581: real time      1.1591
    MIXING:  cpu time      0.3225: real time      0.3225
    --------------------------------------------
      LOOP:  cpu time     12.1152: real time     12.1199

 eigenvalue-minimisations  :  1584
 total energy-change (2. order) :-0.1705830E-01  (-0.1364640E-03)
 number of electron     368.0000000 magnetization 
 augmentation part        9.0660930 magnetization 

 Broyden mixing:
  rms(total) = 0.56345E-02    rms(broyden)= 0.56339E-02
  rms(prec ) = 0.77799E-02
  weight for this iteration     100.00

 eigenvalues of (default mixing * dielectric matrix)
  average eigenvalue GAMMA=   2.2113
  6.4546  2.8804  2.5828  1.9122  1.6400  1.3053  1.1937  0.9663  0.9663

 Free energy of the ion-electron system (eV)
  ---------------------------------------------------
  alpha Z        PSCENC =        91.34886789
  Ewald energy   TEWEN  =    119590.73980698
  -Hartree energ DENC   =   -130660.62661263
  -exchange      EXHF   =         0.00000000
  -V(xc)+E(xc)   XCENC  =      1277.16104519
  PAW double counting   =     40722.77936273   -40786.70765451
  entropy T*S    EENTRO =        -0.06056235
  eigenvalues    EBANDS =     -4601.32182334
  atomic energy  EATOM  =     13537.65479391
  Solvation  Ediel_sol  =         0.00000000
  ---------------------------------------------------
  free energy    TOTEN  =      -829.03277614 eV

  energy without entropy =     -828.97221379  energy(sigma->0) =     -829.00249496


--------------------------------------------------------------------------------------------------------




--------------------------------------- Iteration      1(  15)  ---------------------------------------


    POTLOK:  cpu time      0.3205: real time      0.3205
    SETDIJ:  cpu time      0.0402: real time      0.0402
     EDDAV:  cpu time     10.2441: real time     10.2480
       DOS:  cpu time      0.0007: real time      0.0007
    CHARGE:  cpu time      1.1576: real time      1.1592
    MIXING:  cpu time      0.3323: real time      0.3322
    --------------------------------------------
      LOOP:  cpu time     12.0955: real time     12.1008

 eigenvalue-minimisations  :  1576
 total energy-change (2. order) :-0.1970623E-01  (-0.1746320E-03)
 number of electron     368.0000000 magnetization 
 augmentation part        9.0659238 magnetization 

 Broyden mixing:
  rms(total) = 0.31560E-02    rms(broyden)= 0.31556E-02
  rms(prec ) = 0.41982E-02
  weight for this iteration     100.00

 eigenvalues of (default mixing * dielectric matrix)
  average eigenvalue GAMMA=   2.2445
  6.9967  3.4772  2.2679  2.2679  1.6342  1.3777  1.3777  1.1416  0.9521  0.9521

 Free energy of the ion-electron system (eV)
  ---------------------------------------------------
  alpha Z        PSCENC =        91.34886789
  Ewald energy   TEWEN  =    119590.73980698
  -Hartree energ DENC   =   -130670.73877298
  -exchange      EXHF   =         0.00000000
  -V(xc)+E(xc)   XCENC  =      1277.12919453
  PAW double counting   =     40720.43980397   -40784.36769398
  entropy T*S    EENTRO =        -0.06054938
  eigenvalues    EBANDS =     -4591.19793331
  atomic energy  EATOM  =     13537.65479391
  Solvation  Ediel_sol  =         0.00000000
  ---------------------------------------------------
  free energy    TOTEN  =      -829.05248237 eV

  energy without entropy =     -828.99193299  energy(sigma->0) =     -829.02220768


--------------------------------------------------------------------------------------------------------




--------------------------------------- Iteration      1(  16)  ---------------------------------------


    POTLOK:  cpu time      0.3194: real time      0.3194
    SETDIJ:  cpu time      0.0401: real time      0.0401
     EDDAV:  cpu time     10.4469: real time     10.4505
       DOS:  cpu time      0.0008: real time      0.0008
    CHARGE:  cpu time      1.1641: real time      1.1695
    MIXING:  cpu time      0.3377: real time      0.3389
    --------------------------------------------
      LOOP:  cpu time     12.3090: real time     12.3192

 eigenvalue-minimisations  :  1624
 total energy-change (2. order) :-0.8175586E-02  (-0.4652261E-04)
 number of electron     368.0000000 magnetization 
 augmentation part        9.0658247 magnetization 

 Broyden mixing:
  rms(total) = 0.21484E-02    rms(broyden)= 0.21483E-02
  rms(prec ) = 0.26944E-02
  weight for this iteration     100.00

 eigenvalues of (default mixing * dielectric matrix)
  average eigenvalue GAMMA=   2.3303
  7.8844  3.9651  2.3678  2.3678  1.8953  1.5321  1.5321  0.9433  0.9662  1.0896
  1.0896

 Free energy of the ion-electron system (eV)
  ---------------------------------------------------
  alpha Z        PSCENC =        91.34886789
  Ewald energy   TEWEN  =    119590.73980698
  -Hartree energ DENC   =   -130674.32933283
  -exchange      EXHF   =         0.00000000
  -V(xc)+E(xc)   XCENC  =      1277.11363771
  PAW double counting   =     40716.63086089   -40780.55689444
  entropy T*S    EENTRO =        -0.06056336
  eigenvalues    EBANDS =     -4587.60183469
  atomic energy  EATOM  =     13537.65479391
  Solvation  Ediel_sol  =         0.00000000
  ---------------------------------------------------
  free energy    TOTEN  =      -829.06065795 eV

  energy without entropy =     -829.00009460  energy(sigma->0) =     -829.03037628


--------------------------------------------------------------------------------------------------------




--------------------------------------- Iteration      1(  17)  ---------------------------------------


    POTLOK:  cpu time      0.3195: real time      0.3195
    SETDIJ:  cpu time      0.0402: real time      0.0403
     EDDAV:  cpu time     10.2814: real time     10.2851
       DOS:  cpu time      0.0007: real time      0.0007
    CHARGE:  cpu time      1.1546: real time      1.1580
    MIXING:  cpu time      0.3492: real time      0.3492
    --------------------------------------------
      LOOP:  cpu time     12.1456: real time     12.1528

 eigenvalue-minimisations  :  1584
 total energy-change (2. order) :-0.4665781E-02  (-0.2688232E-04)
 number of electron     368.0000000 magnetization 
 augmentation part        9.0656934 magnetization 

 Broyden mixing:
  rms(total) = 0.11188E-02    rms(broyden)= 0.11187E-02
  rms(prec ) = 0.14407E-02
  weight for this iteration     100.00

 eigenvalues of (default mixing * dielectric matrix)
  average eigenvalue GAMMA=   2.3878
  8.3485  4.6699  2.4869  2.4869  2.0070  1.4562  1.4562  1.3729  1.3729  0.9829
  0.9829  1.0297

 Free energy of the ion-electron system (eV)
  ---------------------------------------------------
  alpha Z        PSCENC =        91.34886789
  Ewald energy   TEWEN  =    119590.73980698
  -Hartree energ DENC   =   -130676.61195082
  -exchange      EXHF   =         0.00000000
  -V(xc)+E(xc)   XCENC  =      1277.11501949
  PAW double counting   =     40720.84375135   -40784.76839605
  entropy T*S    EENTRO =        -0.06056919
  eigenvalues    EBANDS =     -4585.32664729
  atomic energy  EATOM  =     13537.65479391
  Solvation  Ediel_sol  =         0.00000000
  ---------------------------------------------------
  free energy    TOTEN  =      -829.06532373 eV

  energy without entropy =     -829.00475454  energy(sigma->0) =     -829.03503914


--------------------------------------------------------------------------------------------------------




--------------------------------------- Iteration      1(  18)  ---------------------------------------


    POTLOK:  cpu time      0.3192: real time      0.3193
    SETDIJ:  cpu time      0.0402: real time      0.0402
     EDDAV:  cpu time     10.6042: real time     10.6080
       DOS:  cpu time      0.0008: real time      0.0008
    CHARGE:  cpu time      1.1563: real time      1.1584
    MIXING:  cpu time      0.3576: real time      0.3597
    --------------------------------------------
      LOOP:  cpu time     12.4782: real time     12.4864

 eigenvalue-minimisations  :  1648
 total energy-change (2. order) :-0.2340381E-02  (-0.1135672E-04)
 number of electron     368.0000000 magnetization 
 augmentation part        9.0656538 magnetization 

 Broyden mixing:
  rms(total) = 0.55989E-03    rms(broyden)= 0.55982E-03
  rms(prec ) = 0.73783E-03
  weight for this iteration     100.00

 eigenvalues of (default mixing * dielectric matrix)
  average eigenvalue GAMMA=   2.4236
  8.8450  5.0444  2.8312  2.6096  1.9092  1.9092  1.5354  1.5354  1.1779  1.1779
  0.9468  0.9468  1.0387

 Free energy of the ion-electron system (eV)
  ---------------------------------------------------
  alpha Z        PSCENC =        91.34886789
  Ewald energy   TEWEN  =    119590.73980698
  -Hartree energ DENC   =   -130677.43148707
  -exchange      EXHF   =         0.00000000
  -V(xc)+E(xc)   XCENC  =      1277.11294830
  PAW double counting   =     40720.66442936   -40784.58804670
  entropy T*S    EENTRO =        -0.06057223
  eigenvalues    EBANDS =     -4584.50840456
  atomic energy  EATOM  =     13537.65479391
  Solvation  Ediel_sol  =         0.00000000
  ---------------------------------------------------
  free energy    TOTEN  =      -829.06766412 eV

  energy without entropy =     -829.00709189  energy(sigma->0) =     -829.03737800


--------------------------------------------------------------------------------------------------------




--------------------------------------- Iteration      1(  19)  ---------------------------------------


    POTLOK:  cpu time      0.3194: real time      0.3193
    SETDIJ:  cpu time      0.0402: real time      0.0402
     EDDAV:  cpu time      9.6165: real time      9.6231
       DOS:  cpu time      0.0008: real time      0.0008
    CHARGE:  cpu time      1.1585: real time      1.1592
    MIXING:  cpu time      0.3714: real time      0.3729
    --------------------------------------------
      LOOP:  cpu time     11.5068: real time     11.5154

 eigenvalue-minimisations  :  1448
 total energy-change (2. order) :-0.9803268E-03  (-0.3285550E-05)
 number of electron     368.0000000 magnetization 
 augmentation part        9.0656653 magnetization 

 Broyden mixing:
  rms(total) = 0.40576E-03    rms(broyden)= 0.40573E-03
  rms(prec ) = 0.47780E-03
  weight for this iteration     100.00

 eigenvalues of (default mixing * dielectric matrix)
  average eigenvalue GAMMA=   2.4011
  8.9231  5.4362  3.0404  2.3658  2.3658  1.8400  1.4504  1.4504  1.3675  1.3675
  0.9410  1.0006  1.0006  1.0655

 Free energy of the ion-electron system (eV)
  ---------------------------------------------------
  alpha Z        PSCENC =        91.34886789
  Ewald energy   TEWEN  =    119590.73980698
  -Hartree energ DENC   =   -130677.77635559
  -exchange      EXHF   =         0.00000000
  -V(xc)+E(xc)   XCENC  =      1277.11112946
  PAW double counting   =     40719.02959614   -40782.95208205
  entropy T*S    EENTRO =        -0.06056990
  eigenvalues    EBANDS =     -4584.16383127
  atomic energy  EATOM  =     13537.65479391
  Solvation  Ediel_sol  =         0.00000000
  ---------------------------------------------------
  free energy    TOTEN  =      -829.06864444 eV

  energy without entropy =     -829.00807454  energy(sigma->0) =     -829.03835949


--------------------------------------------------------------------------------------------------------




--------------------------------------- Iteration      1(  20)  ---------------------------------------


    POTLOK:  cpu time      0.3195: real time      0.3196
    SETDIJ:  cpu time      0.0401: real time      0.0401
     EDDAV:  cpu time      9.2663: real time      9.2697
       DOS:  cpu time      0.0007: real time      0.0007
    CHARGE:  cpu time      1.1574: real time      1.1603
    MIXING:  cpu time      0.3842: real time      0.3857
    --------------------------------------------
      LOOP:  cpu time     11.1682: real time     11.1760

 eigenvalue-minimisations  :  1376
 total energy-change (2. order) :-0.2924849E-03  (-0.4225355E-06)
 number of electron     368.0000000 magnetization 
 augmentation part        9.0656456 magnetization 

 Broyden mixing:
  rms(total) = 0.23705E-03    rms(broyden)= 0.23704E-03
  rms(prec ) = 0.28687E-03
  weight for this iteration     100.00

 eigenvalues of (default mixing * dielectric matrix)
  average eigenvalue GAMMA=   2.4519
  9.1706  5.8663  3.6202  2.5848  2.4090  1.9644  1.6057  1.6057  1.4298  1.4298
  1.1033  1.1033  0.9574  0.9640  0.9640

 Free energy of the ion-electron system (eV)
  ---------------------------------------------------
  alpha Z        PSCENC =        91.34886789
  Ewald energy   TEWEN  =    119590.73980698
  -Hartree energ DENC   =   -130677.89164461
  -exchange      EXHF   =         0.00000000
  -V(xc)+E(xc)   XCENC  =      1277.11125634
  PAW double counting   =     40719.97227169   -40783.89515259
  entropy T*S    EENTRO =        -0.06056897
  eigenvalues    EBANDS =     -4584.04856757
  atomic energy  EATOM  =     13537.65479391
  Solvation  Ediel_sol  =         0.00000000
  ---------------------------------------------------
  free energy    TOTEN  =      -829.06893693 eV

  energy without entropy =     -829.00836795  energy(sigma->0) =     -829.03865244


--------------------------------------------------------------------------------------------------------




--------------------------------------- Iteration      1(  21)  ---------------------------------------


    POTLOK:  cpu time      0.3192: real time      0.3192
    SETDIJ:  cpu time      0.0405: real time      0.0405
     EDDAV:  cpu time      8.6472: real time      8.6504
       DOS:  cpu time      0.0007: real time      0.0007
    CHARGE:  cpu time      1.1663: real time      1.1696
    MIXING:  cpu time      0.3977: real time      0.3977
    --------------------------------------------
      LOOP:  cpu time     10.5717: real time     10.5782

 eigenvalue-minimisations  :  1256
 total energy-change (2. order) :-0.2329664E-03  (-0.3633749E-06)
 number of electron     368.0000000 magnetization 
 augmentation part        9.0656504 magnetization 

 Broyden mixing:
  rms(total) = 0.10891E-03    rms(broyden)= 0.10890E-03
  rms(prec ) = 0.13402E-03
  weight for this iteration     100.00

 eigenvalues of (default mixing * dielectric matrix)
  average eigenvalue GAMMA=   2.4040
  9.1808  6.1336  3.7781  2.5344  2.5344  1.9972  1.5153  1.5153  1.5715  1.2946
  1.2946  1.2076  1.0172  1.0172  0.9363  0.9363

 Free energy of the ion-electron system (eV)
  ---------------------------------------------------
  alpha Z        PSCENC =        91.34886789
  Ewald energy   TEWEN  =    119590.73980698
  -Hartree energ DENC   =   -130677.97624820
  -exchange      EXHF   =         0.00000000
  -V(xc)+E(xc)   XCENC  =      1277.11021333
  PAW double counting   =     40718.88742381   -40782.81056435
  entropy T*S    EENTRO =        -0.06056966
  eigenvalues    EBANDS =     -4583.96289360
  atomic energy  EATOM  =     13537.65479391
  Solvation  Ediel_sol  =         0.00000000
  ---------------------------------------------------
  free energy    TOTEN  =      -829.06916989 eV

  energy without entropy =     -829.00860024  energy(sigma->0) =     -829.03888507


[...]
   0.120E+02 -.113E+02 0.634E+02   -.129E+02 0.119E+02 -.633E+02   0.352E+00 0.172E+00 -.668E+00   -.257E-06 -.602E-05 -.126E-05
   0.116E+02 -.967E+01 0.164E+03   -.108E+02 0.950E+01 -.165E+03   0.489E+00 -.617E+00 0.208E-02   -.167E-05 0.572E-07 0.242E-05
   -.350E+01 0.137E+02 0.785E+02   0.432E+01 -.140E+02 -.783E+02   0.380E+00 0.157E+00 -.546E+00   -.196E-05 -.579E-06 0.987E-06
   -.410E+01 0.122E+02 0.169E+03   0.456E+01 -.132E+02 -.169E+03   -.382E+00 -.873E-01 -.525E+00   -.103E-04 0.554E-06 0.305E-05
   0.891E+01 -.221E+02 0.184E+03   -.920E+01 0.236E+02 -.185E+03   -.192E+00 0.640E+00 0.188E+01   -.385E-05 -.491E-05 0.258E-05
   -.123E+02 -.353E+02 0.176E+03   0.132E+02 0.385E+02 -.176E+03   -.148E+00 0.203E+01 -.161E+00   -.101E-04 -.217E-05 0.243E-05
   -.245E+01 0.187E+02 0.145E+03   0.201E+01 -.197E+02 -.145E+03   -.344E-01 -.839E+00 -.322E+00   -.790E-05 0.164E-05 0.133E-05
   -.466E+01 0.144E+02 0.154E+03   0.363E+01 -.162E+02 -.155E+03   -.110E+01 -.743E+00 -.196E+00   -.584E-05 0.112E-05 0.127E-05
   -.834E+01 -.129E+02 0.131E+03   0.838E+01 0.142E+02 -.131E+03   0.586E+00 0.609E+00 -.136E+00   -.981E-05 -.303E-06 -.260E-06
   -.239E+02 -.120E+02 0.141E+03   0.239E+02 0.123E+02 -.141E+03   -.812E+00 0.142E+00 -.611E+00   -.524E-06 0.751E-05 0.125E-05
   -.200E+02 0.886E+01 0.110E+03   0.196E+02 -.855E+01 -.110E+03   -.288E-01 -.313E+00 0.767E+00   -.500E-05 -.281E-05 -.161E-05
   -.244E+02 -.542E+00 0.110E+03   0.241E+02 0.668E+00 -.110E+03   -.449E+00 -.494E+00 -.468E+00   0.330E-05 -.282E-05 0.857E-06
   -.221E+02 -.163E+02 0.693E+02   0.229E+02 0.174E+02 -.690E+02   0.161E+00 -.218E+00 0.683E+00   0.450E-05 -.359E-05 0.143E-05
   -.330E+02 -.153E+02 0.111E+03   0.341E+02 0.163E+02 -.111E+03   0.590E+00 0.494E+00 0.158E+01   0.845E-06 -.149E-05 -.135E-06
   0.226E+02 0.221E+02 -.533E+02   -.235E+02 -.228E+02 0.534E+02   -.113E+00 -.757E+00 -.129E+01   0.341E-05 0.176E-05 0.228E-05
   -.927E+01 0.157E+01 0.329E+02   0.943E+01 -.164E+01 -.330E+02   0.348E+00 0.639E+00 -.416E-01   0.252E-05 -.211E-05 0.477E-06
   0.139E+02 -.428E+01 -.751E+02   -.132E+02 0.439E+01 0.752E+02   0.271E+00 0.319E+00 -.357E+00   0.517E-05 0.249E-05 0.286E-05
   -.921E+01 -.171E+02 0.549E+02   0.868E+01 0.181E+02 -.553E+02   -.102E+01 0.356E+00 -.421E+00   0.985E-05 -.781E-06 0.238E-05
   0.340E+02 0.199E+02 -.113E+03   -.349E+02 -.206E+02 0.113E+03   -.762E+00 -.345E+00 -.332E+00   0.744E-05 0.381E-05 0.221E-05
   -.973E+01 -.122E+02 0.560E+02   0.974E+01 0.124E+02 -.566E+02   -.722E+00 -.882E+00 0.177E+01   0.765E-05 -.112E-05 0.326E-05
   0.174E+02 -.295E+01 -.111E+03   -.170E+02 0.339E+01 0.111E+03   0.599E-01 0.469E+00 -.131E+01   -.958E-07 -.363E-05 -.217E-05
   -.163E+02 -.156E+02 0.115E+02   0.164E+02 0.176E+02 -.114E+02   0.796E+00 0.106E+01 -.748E+00   -.466E-05 -.233E-05 -.163E-05
   0.174E+02 0.125E+02 -.151E+03   -.173E+02 -.132E+02 0.151E+03   -.685E+00 -.422E+00 0.847E+00   -.527E-05 0.294E-05 -.247E-05
   0.628E+00 0.407E+01 -.463E+02   -.729E+00 -.417E+01 0.462E+02   0.915E+00 0.134E-01 0.546E-01   0.583E-06 -.631E-05 -.302E-05
   0.840E+01 -.660E+01 -.164E+03   -.836E+01 0.714E+01 0.165E+03   -.412E+00 0.552E+00 -.285E+00   0.163E-05 -.302E-05 -.295E-05
   -.137E+02 -.262E+00 -.652E+01   0.134E+02 -.660E-01 0.528E+01   0.105E+01 -.477E+00 0.185E+01   0.880E-08 0.102E-05 -.797E-06
   0.312E+01 0.788E+01 -.244E+03   -.343E+01 -.824E+01 0.245E+03   0.592E+00 -.850E+00 -.127E+01   0.294E-05 -.183E-05 -.434E-05
   -.145E+02 0.637E+02 -.135E+03   0.122E+02 -.648E+02 0.137E+03   0.151E+01 0.227E+01 -.139E+01   -.927E-05 0.364E-05 -.305E-05
   -.195E+02 -.579E+02 -.207E+03   0.167E+02 0.589E+02 0.207E+03   0.139E+01 -.131E+01 0.172E+00   -.622E-05 -.657E-05 -.465E-05
   0.732E+01 0.572E+02 -.109E+03   -.510E+01 -.581E+02 0.107E+03   -.208E+01 0.134E+01 0.261E+01   -.926E-05 0.689E-05 -.448E-06
   0.999E+00 -.623E+02 -.404E+02   0.274E+01 0.643E+02 0.395E+02   -.105E+00 -.248E+01 0.190E+00   -.117E-04 -.120E-05 0.246E-05
   -.397E+02 -.885E+01 -.228E+03   0.416E+02 0.944E+01 0.230E+03   -.105E+00 0.467E+00 -.404E+01   0.563E-05 -.521E-07 -.982E-06
   0.286E+02 -.118E+02 0.177E+02   -.295E+02 0.136E+02 -.177E+02   -.158E+01 0.855E+00 -.170E-01   0.152E-05 -.443E-05 0.148E-06
   -.120E+02 0.200E+01 -.122E+03   0.105E+02 -.241E+01 0.123E+03   -.327E+00 -.163E+00 -.672E+00   0.349E-05 0.481E-08 -.822E-06
   0.260E+01 -.572E+00 0.324E+02   -.178E+01 0.505E+00 -.327E+02   -.130E+00 0.577E+00 0.539E+00   -.430E-06 -.164E-05 0.134E-05
   -.277E+02 -.106E+02 -.689E+02   0.292E+02 0.115E+02 0.685E+02   0.149E+01 0.422E+00 0.606E+00   -.248E-06 -.488E-06 0.250E-06
   0.259E+02 0.186E+02 0.100E+03   -.253E+02 -.192E+02 -.101E+03   0.136E+01 -.775E+00 0.187E+01   -.308E-06 0.219E-06 0.681E-06
   -.188E+02 0.220E+01 -.925E+02   0.188E+02 -.252E+01 0.932E+02   0.214E+00 -.410E+00 -.229E+01   0.402E-05 -.451E-05 -.131E-06
   0.242E+01 -.584E+01 0.343E+02   -.282E+01 0.645E+01 -.343E+02   -.658E+00 -.220E+00 -.134E+00   0.722E-05 0.303E-05 -.219E-05
   -.173E+01 -.128E+02 -.253E+02   0.791E+00 0.134E+02 0.253E+02   0.614E+00 -.366E+00 0.165E+01   0.112E-04 0.106E-05 -.232E-05
   0.143E+02 0.233E+02 0.108E+03   -.136E+02 -.250E+02 -.109E+03   -.549E-01 -.115E+01 0.101E+01   0.786E-05 0.650E-05 -.252E-05
   -.578E+01 0.230E+01 -.538E+02   0.563E+01 -.248E+01 0.545E+02   -.277E+00 0.618E+00 -.137E+01   0.608E-05 0.177E-05 -.300E-05
   0.129E+02 -.153E+02 0.313E+02   -.141E+02 0.162E+02 -.309E+02   -.518E+00 0.849E+00 -.600E+00   0.350E-05 -.586E-05 0.425E-06
   -.938E+01 -.273E+01 -.125E+02   0.896E+01 0.230E+01 0.125E+02   -.341E+00 -.627E+00 0.955E+00   -.461E-06 0.358E-05 -.476E-07
   0.441E+01 0.766E+01 0.952E+02   -.330E+01 -.762E+01 -.958E+02   0.908E+00 0.324E+00 0.297E+00   -.207E-05 -.467E-05 0.184E-05
   -.599E+01 0.100E+02 -.499E+01   0.684E+01 -.102E+02 0.513E+01   0.923E+00 -.370E+00 -.205E+00   -.292E-05 -.258E-06 0.101E-06
   0.450E+01 -.240E+02 0.371E+02   -.517E+01 0.253E+02 -.368E+02   -.991E+00 -.778E-01 -.528E+00   0.189E-05 -.565E-05 0.359E-06
   0.160E+01 -.294E+01 0.150E+02   -.191E+01 0.245E+01 -.148E+02   0.470E+00 -.619E+00 -.530E-01   -.440E-05 0.312E-05 0.117E-05
   0.115E+02 0.664E+01 0.928E+02   -.119E+02 -.634E+01 -.930E+02   -.743E+00 -.973E-01 -.921E-01   -.132E-05 0.534E-05 0.717E-06
   0.646E+01 0.612E+01 0.231E+02   -.709E+01 -.499E+01 -.226E+02   -.891E-01 0.101E+01 -.152E+01   -.381E-05 -.102E-05 0.104E-05
   0.583E+01 -.378E+01 0.112E+03   -.597E+01 0.268E+01 -.112E+03   -.898E-01 -.522E+00 0.406E+00   -.598E-05 0.158E-05 0.252E-05
   -.325E+01 -.687E+01 0.106E+03   0.369E+01 0.684E+01 -.106E+03   0.225E+00 -.712E+00 0.129E+01   -.867E-05 -.691E-06 0.145E-05
   -.933E+01 0.227E+02 0.194E+03   0.100E+02 -.249E+02 -.195E+03   0.108E+00 -.989E-01 0.144E+01   -.853E-05 -.687E-07 0.244E-05
   0.718E+01 0.162E+02 0.569E+02   -.861E+01 -.167E+02 -.565E+02   -.463E-01 -.186E+00 -.125E+01   -.110E-04 -.168E-05 0.122E-06
   -.439E+01 -.162E+02 0.150E+03   0.285E+01 0.173E+02 -.150E+03   -.579E+00 0.199E+00 -.182E+00   -.143E-04 -.165E-05 0.752E-07
   -.103E+02 0.644E+01 0.465E+02   0.108E+02 -.840E+01 -.463E+02   0.683E+00 -.185E+01 0.167E+00   -.690E-05 0.249E-05 -.644E-06
   -.471E+02 0.969E+01 0.163E+03   0.499E+02 -.990E+01 -.163E+03   0.103E+01 0.317E+00 0.179E+01   -.320E-05 0.997E-06 -.452E-06
   -.466E+01 0.237E+02 -.597E+01   0.550E+01 -.245E+02 0.668E+01   0.628E+00 0.283E+00 -.955E-01   0.368E-05 -.288E-05 0.269E-05
   0.488E+01 -.202E+02 0.697E+02   -.739E+01 0.213E+02 -.706E+02   -.133E+01 0.543E+00 -.887E+00   0.564E-05 0.324E-05 0.234E-05
   0.246E+02 -.769E+01 -.567E+02   -.253E+02 0.737E+01 0.566E+02   -.614E+00 -.103E+01 0.199E+00   0.748E-05 -.101E-05 0.369E-05
   -.239E+02 0.480E+01 0.444E+02   0.253E+02 -.519E+01 -.440E+02   0.511E+00 -.240E+00 -.931E-02   0.611E-05 0.507E-05 0.154E-05
   0.191E+02 0.107E+02 -.116E+03   -.188E+02 -.107E+02 0.117E+03   -.545E+00 0.101E+01 -.136E+01   0.625E-05 -.324E-05 0.272E-05
   0.801E+01 -.131E+02 -.230E+02   -.807E+01 0.140E+02 0.233E+02   0.102E+01 0.103E+01 -.341E+00   0.375E-05 -.714E-06 0.168E-05
   0.298E+02 -.107E+02 -.129E+03   -.292E+02 0.107E+02 0.129E+03   -.766E+00 -.336E+00 0.318E+00   0.567E-05 -.906E-06 0.158E-05
   -.344E+01 0.163E+02 0.240E+02   0.302E+01 -.174E+02 -.246E+02   0.687E+00 0.188E+00 0.123E+01   0.823E-05 0.189E-06 0.238E-05
   0.283E+02 -.279E+01 -.166E+03   -.286E+02 0.336E+01 0.166E+03   -.118E+01 0.527E+00 -.607E+00   -.988E-08 -.107E-05 -.784E-06
   0.153E+02 0.154E+01 -.658E+02   -.159E+02 -.213E+01 0.665E+02   0.880E+00 -.702E+00 -.117E+01   0.387E-05 0.640E-06 0.386E-06
   0.289E+02 -.887E+01 -.227E+03   -.290E+02 0.874E+01 0.228E+03   0.152E+00 -.522E-02 -.183E+01   -.276E-05 0.140E-05 -.275E-05
   -.272E+02 0.295E+02 0.357E+02   0.285E+02 -.322E+02 -.364E+02   0.950E+00 -.473E+00 0.245E+01   -.492E-05 0.872E-05 -.866E-06
   -.564E+00 0.903E+01 -.173E+03   0.168E+01 -.939E+01 0.173E+03   0.585E+00 0.326E-01 0.117E+01   -.336E-05 -.291E-05 -.182E-05
   0.269E+01 -.134E+02 -.561E+02   -.296E+01 0.145E+02 0.560E+02   0.116E+00 0.182E+00 -.334E+00   0.243E-06 0.265E-05 -.191E-05
   0.878E+01 -.158E+02 -.263E+03   -.103E+02 0.162E+02 0.264E+03   0.434E+00 -.275E+00 -.179E+01   0.226E-05 0.168E-05 -.498E-05
   -.863E+01 0.418E+01 -.486E+02   0.834E+01 -.462E+01 0.476E+02   -.759E+00 -.162E+00 0.550E+00   0.509E-05 0.218E-05 -.111E-05
   -.229E+02 0.553E+02 -.208E+03   0.209E+02 -.557E+02 0.208E+03   0.565E+00 0.329E+01 -.316E+00   -.483E-05 0.890E-05 -.352E-05
   0.657E+00 -.569E+02 -.141E+03   -.501E+01 0.577E+02 0.143E+03   0.355E+00 -.118E+01 -.173E+01   -.286E-05 -.349E-05 -.177E-05
 -----------------------------------------------------------------------------------------------
   -.363E+00 0.851E+00 0.260E+01   -.357E-12 -.135E-12 0.111E-11   0.347E+00 -.874E+00 -.263E+01   -.432E-05 0.510E-05 -.118E-04
 
 
 POSITION                                       TOTAL-FORCE (eV/Angst)
 -----------------------------------------------------------------------------------
     10.78750      4.89723     29.92735         1.469003     -1.477655     -1.901251
     10.82150      6.24069     30.12717         0.426063      0.009588      0.362052
     11.87080      4.27260     29.26682        -1.681292     -2.579276      1.586303
     12.00010      6.90702     29.83449        -0.219311     -0.138646      1.689790
     13.06780      4.90813     29.09125         1.791355      1.549428     -0.020553
     13.16460      6.24887     29.43350         0.386712      0.260312     -1.267091
     14.25650      4.29300     28.60515        -1.474040     -0.515907     -1.720180
     14.34350      6.95946     29.01845         0.028671     -2.316667      0.676497
     15.39570      4.96540     28.09488        -0.722134      0.154101      1.794208
     15.48790      6.26864     28.49974         0.256048      2.765515     -0.431230
     16.56060      4.33556     27.67103         1.542695     -0.128300     -0.367665
     16.70250      7.00124     28.26044        -0.201251     -1.646877     -0.947268
     17.80810      5.00693     27.44595         0.559660     -0.769049     -0.457024
     17.87560      6.34919     27.72561        -1.829555      0.343617      1.174152
     19.05280      4.32348     27.18379        -0.414821     -0.382018      0.241413
     19.08020      7.00583     27.71411         3.424453     -0.326162     -1.421057
     20.31720      4.98372     26.99560        -1.181980      0.258596      0.981474
     20.32440      6.33092     27.31834        -0.547819      0.756248     -0.510062
     21.56200      4.33452     26.91027         1.224268     -0.791430     -0.266854
     21.56740      6.99614     27.20045         1.199031     -0.162043     -0.317438
     22.84540      4.96720     26.81797         0.073272     -1.090812     -0.380343
     22.84180      6.32682     26.84954        -0.481501      2.140147      1.488098
     24.11280      4.23869     26.82467         0.767402      5.268192     -0.086500
     24.10010      7.02906     26.97601        -0.483222     -1.826874     -0.137864
     25.41110      4.97968     27.01186        -2.135821     -2.468117     -0.567425
     25.34360      6.32629     27.09213         0.625063      1.891146     -0.183487
     26.63150      4.29038     27.24255        -0.805194      0.452446     -0.672284
     26.56420      7.01524     27.40819        -0.444627     -0.008551      0.844652
     27.82240      4.95785     27.61673        -0.747361     -0.368292     -0.466245
     27.75920      6.32821     27.76261         0.965077      0.827977      0.960302
      0.92728      4.23958     27.94304         1.622816      1.523821      1.236877
      0.84843      6.97288     28.43883        -1.003079     -1.463912     -1.213752
      2.09118      4.89349     28.46586         0.506788      0.563763     -0.118409
      2.02424      6.25038     28.78649         0.989037      0.429607     -0.271162
      3.34298      4.22268     28.72592        -1.545856      1.423097     -0.744920
      3.24111      6.92068     29.28012        -1.687462     -1.005754     -0.381545
      4.52786      4.92394     29.04633        -0.714473     -0.729617      1.150369
      4.45834      6.23528     29.48677         0.420635      0.912931     -0.649094
      5.69249      4.19902     29.30872         0.829638      3.027675     -0.662966
      5.65086      6.91067     29.90675        -0.660923     -1.120123      0.685653
      6.88440      4.87861     29.67786         0.814912     -0.080565     -0.057145
      6.88338      6.20309     30.05652        -0.372132      1.085964     -0.092028
      8.13237      4.22576     29.70167         0.801808     -0.804933      0.600374
      8.10031      6.88995     30.40002         0.290740     -1.211782     -0.436501
      9.31261      4.86361     30.02547        -0.800466      1.223607     -0.321211
      9.32602      6.22618     30.27933        -1.418150     -0.290143      0.576421
     10.80230      0.80549     29.88388         0.144287      0.467501      1.276390
     10.71960      2.17031     29.64811         3.635514     -0.450314     -0.758444
     11.99660      0.17825     29.93935         1.763098      1.055981     -2.216884
     11.87600      2.82959     29.24090        -2.517194      2.631676     -0.076959
     13.16170      0.88019     29.39018        -1.797560     -0.573712      0.409046
     13.06370      2.18768     28.98637         0.695098      0.510023      0.246317
     14.31070      0.21320     29.05106         2.997143      1.319483      0.245943
     14.18370      2.92586     28.50684         2.000303     -1.405920      0.536891
     15.52060      0.94548     28.71323         0.225450     -0.726366     -1.574556
     15.47480      2.28602     28.35417        -1.060154      0.390261     -0.129030
     16.72210      0.26696     28.32988        -0.321624      0.306254      1.665581
     16.62830      2.98543     27.85803         0.595224     -2.802713      0.750123
     17.94580      0.93307     28.08616        -0.424392      0.446387     -0.642864
     17.91590      2.28011     27.82223        -1.746490      1.742618     -0.232712
     19.15490      0.28628     27.80870        -0.765888     -1.056405      0.899508
     19.08020      2.94925     27.43464         2.023899      0.364473     -0.275175
     20.35620      0.95165     27.59076         1.771799     -0.551793     -0.065533
     20.39650      2.30137     27.42169        -1.658358      1.296795     -0.245699
     21.59620      0.27584     27.39458         0.161065     -1.109866      0.067913
     21.62360      2.96042     27.11637        -1.089155      0.200485     -0.285916
     22.84980      0.90757     27.27010        -0.717142      2.135803     -1.036101
     22.85650      2.30155     27.04225        -0.228475     -1.613381      0.648403
     24.08560      0.28359     27.11694         0.663820     -0.741368      0.927104
     24.10370      2.92517     26.84254         0.781458     -2.320181      0.763035
     25.33470      0.94430     27.30570        -1.474174     -0.656421     -0.792000
     25.37320      2.26713     27.07653        -2.123967      1.212896     -0.344055
     26.51640      0.31480     27.56459         1.194436     -3.805474      0.359494
     26.56380      2.91296     27.21729         3.787014      0.103212      1.842726
     27.71060      0.90117     27.97121         1.468863     -0.537759      0.609145
     27.79940      2.22474     27.78453        -3.834103      1.720450     -1.777007
      0.84398      0.24389     28.48901        -1.382339     -1.346523      0.093838
      0.89137      2.88402     28.09920         1.875517     -0.635257      0.372479
      2.02053      0.84699     28.93324        -0.237511      0.993575     -0.625305
      2.02490      2.18761     28.64459         0.960599      1.887743     -0.025930
      3.21872      0.19595     29.34631        -0.167564     -0.358477      0.733962
      3.26574      2.86051     28.82192         0.270146     -0.898399      0.644905
      4.43481      0.85346     29.68268        -1.473010      1.100516     -0.809807
      4.42905      2.21764     29.32147         0.218102     -1.289813     -0.495579
      5.60915      0.18622     30.06839         0.056794     -0.138771     -0.757677
      5.65830      2.86758     29.30075         2.223381     -3.094171      1.755024
      6.84793      0.85525     30.10488         1.705105     -0.330085      1.227494
      6.89495      2.16596     29.73494        -0.147491      1.325298     -0.478783
      8.12603      0.17359     30.43863        -1.038384      0.195096     -0.945619
      8.17558      2.83378     29.77517        -1.043528     -0.604117     -0.473579
      9.36423      0.74978     30.25083        -1.418966      2.897986     -0.022360
      9.36637      2.15158     29.99082        -3.993324     -0.421497      0.034170
 -----------------------------------------------------------------------------------
    total drift:                               -0.015787     -0.022422     -0.034884


--------------------------------------------------------------------------------------------------------



  FREE ENERGIE OF THE ION-ELECTRON SYSTEM (eV)
  ---------------------------------------------------
  free  energy   TOTEN  =      -829.06928602 eV

  energy  without entropy=     -829.00871635  energy(sigma->0) =     -829.03900118
 


--------------------------------------------------------------------------------------------------------


    POTLOK:  cpu time      0.4536: real time      0.4536


--------------------------------------------------------------------------------------------------------


     LOOP+:  cpu time    334.9033: real time    335.0977
    4ORBIT:  cpu time      0.0000: real time      0.0000

 total amount of memory used by VASP MPI-rank0  2294516. kBytes
=======================================================================

   base                                    :      30000. kBytes
   nonlr-proj                              :      15082. kBytes
   fftplans                                :     436558. kBytes
   grid                                    :     732614. kBytes
   one-center                              :        282. kBytes
   wavefun                                 :    1079980. kBytes
 
  
  
 General timing and accounting informations for this job:
 ========================================================
  
                  Total CPU time used (sec):      368.172
                            User time (sec):      359.887
                          System time (sec):        8.285
                         Elapsed time (sec):      368.435
  
                   Maximum memory used (kb):     3734556.
                   Average memory used (kb):          N/A
  
                          Minor page faults:      3179297
                          Major page faults:         6695
                 Voluntary context switches:         9732
