  92  92   0   0
  0.8273226E+02  0.2805000E-08  0.8100000E-09  0.3350000E-08  0.5000000E-15
   1.0000000000000000E-004
  CAR 
 unknown system                          
      3.83171360    -25.13730887  301     -3.19720449      1.00000000
    -25.137  0.0000E+00  0.0000E+00
    -25.041  0.0000E+00  0.0000E+00
    -24.944  0.0000E+00  0.0000E+00
    -24.848  0.0000E+00  0.0000E+00
    -24.751  0.0000E+00  0.0000E+00
    -24.654  0.0000E+00  0.0000E+00
    -24.558  0.0000E+00  0.0000E+00
    -24.461  0.0000E+00  0.0000E+00
    -24.365  0.0000E+00  0.0000E+00
    -24.268  0.3162E-14  0.3053E-15
    -24.172  0.6818E-12  0.6614E-13
    -24.075  0.8827E-10  0.8590E-11
    -23.979  0.7269E-08  0.7105E-09
    -23.882  0.3822E-06  0.3761E-07
    -23.785  0.1290E-04  0.1283E-05
    -23.689  0.2816E-03  0.2847E-04
    -23.592  0.4015E-02  0.4162E-03
    -23.496  0.3786E-01  0.4072E-02
    -23.399  0.2397E+00  0.2722E-01
    -23.303  0.1037E+01  0.1274E+00
    -23.206  0.3122E+01  0.4289E+00
    -23.109  0.6690E+01  0.1075E+01
    -23.013  0.1051E+02  0.2090E+01
    -22.916  0.1273E+02  0.3319E+01
    -22.820  0.1310E+02  0.4584E+01
    -22.723  0.1335E+02  0.5873E+01
    -22.627  0.1459E+02  0.7282E+01
    -22.530  0.1569E+02  0.8797E+01
    -22.434  0.1525E+02  0.1027E+02
    -22.337  0.1398E+02  0.1162E+02
    -22.240  0.1350E+02  0.1292E+02
    -22.144  0.1401E+02  0.1428E+02
    -22.047  0.1457E+02  0.1568E+02
    -21.951  0.1452E+02  0.1708E+02
    -21.854  0.1393E+02  0.1843E+02
    -21.758  0.1327E+02  0.1971E+02
    -21.661  0.1294E+02  0.2096E+02
    -21.564  0.1270E+02  0.2219E+02
    -21.468  0.1203E+02  0.2335E+02
    -21.371  0.1150E+02  0.2446E+02
    -21.275  0.1234E+02  0.2565E+02
    -21.178  0.1447E+02  0.2705E+02
    -21.082  0.1637E+02  0.2863E+02
    -20.985  0.1662E+02  0.3023E+02
    -20.889  0.1493E+02  0.3167E+02
    -20.792  0.1264E+02  0.3289E+02
    -20.695  0.1173E+02  0.3403E+02
    -20.599  0.1254E+02  0.3524E+02
    -20.502  0.1353E+02  0.3654E+02
    -20.406  0.1358E+02  0.3786E+02
    -20.309  0.1341E+02  0.3915E+02
    -20.213  0.1407E+02  0.4051E+02
    -20.116  0.1537E+02  0.4199E+02
    -20.019  0.1630E+02  0.4357E+02
    -19.923  0.1605E+02  0.4512E+02
    -19.826  0.1431E+02  0.4650E+02
    -19.730  0.1227E+02  0.4768E+02
    -19.633  0.1233E+02  0.4887E+02
    -19.537  0.1469E+02  0.5029E+02
    -19.440  0.1614E+02  0.5185E+02
    -19.344  0.1480E+02  0.5328E+02
    -19.247  0.1299E+02  0.5454E+02
    -19.150  0.1327E+02  0.5582E+02
    -19.054  0.1494E+02  0.5726E+02
    -18.957  0.1565E+02  0.5877E+02
    -18.861  0.1462E+02  0.6018E+02
    -18.764  0.1371E+02  0.6151E+02
    -18.668  0.1483E+02  0.6294E+02
    -18.571  0.1671E+02  0.6455E+02
    -18.474  0.1690E+02  0.6618E+02
    -18.378  0.1571E+02  0.6770E+02
    -18.281  0.1541E+02  0.6919E+02
    -18.185  0.1671E+02  0.7080E+02
    -18.088  0.1767E+02  0.7251E+02
    -17.992  0.1624E+02  0.7408E+02
    -17.895  0.1355E+02  0.7538E+02
    -17.798  0.1263E+02  0.7660E+02
    -17.702  0.1331E+02  0.7789E+02
    -17.605  0.1285E+02  0.7913E+02
    -17.509  0.1139E+02  0.8023E+02
    -17.412  0.1118E+02  0.8131E+02
    -17.316  0.1202E+02  0.8247E+02
    -17.219  0.1195E+02  0.8362E+02
    -17.123  0.1073E+02  0.8466E+02
    -17.026  0.9638E+01  0.8559E+02
    -16.929  0.9312E+01  0.8649E+02
    -16.833  0.9553E+01  0.8741E+02
    -16.736  0.1037E+02  0.8841E+02
    -16.640  0.1192E+02  0.8956E+02
    -16.543  0.1370E+02  0.9089E+02
    -16.447  0.1501E+02  0.9234E+02
    -16.350  0.1594E+02  0.9388E+02
    -16.253  0.1695E+02  0.9551E+02
    -16.157  0.1785E+02  0.9724E+02
    -16.060  0.1765E+02  0.9894E+02
    -15.964  0.1617E+02  0.1005E+03
    -15.867  0.1470E+02  0.1019E+03
    -15.771  0.1411E+02  0.1033E+03
    -15.674  0.1386E+02  0.1046E+03
    -15.578  0.1323E+02  0.1059E+03
    -15.481  0.1257E+02  0.1071E+03
    -15.384  0.1332E+02  0.1084E+03
    -15.288  0.1603E+02  0.1099E+03
    -15.191  0.1949E+02  0.1118E+03
    -15.095  0.2249E+02  0.1140E+03
    -14.998  0.2430E+02  0.1163E+03
    -14.902  0.2368E+02  0.1186E+03
    -14.805  0.2014E+02  0.1206E+03
    -14.708  0.1518E+02  0.1220E+03
    -14.612  0.1075E+02  0.1231E+03
    -14.515  0.8073E+01  0.1239E+03
    -14.419  0.7852E+01  0.1246E+03
    -14.322  0.9561E+01  0.1255E+03
    -14.226  0.1134E+02  0.1266E+03
    -14.129  0.1220E+02  0.1278E+03
    -14.033  0.1299E+02  0.1291E+03
    -13.936  0.1443E+02  0.1305E+03
    -13.839  0.1585E+02  0.1320E+03
    -13.743  0.1680E+02  0.1336E+03
    -13.646  0.1779E+02  0.1353E+03
    -13.550  0.1897E+02  0.1372E+03
    -13.453  0.1955E+02  0.1391E+03
    -13.357  0.1908E+02  0.1409E+03
    -13.260  0.1817E+02  0.1427E+03
    -13.163  0.1747E+02  0.1443E+03
    -13.067  0.1701E+02  0.1460E+03
    -12.970  0.1677E+02  0.1476E+03
    -12.874  0.1673E+02  0.1492E+03
    -12.777  0.1625E+02  0.1508E+03
    -12.681  0.1471E+02  0.1522E+03
    -12.584  0.1270E+02  0.1534E+03
    -12.488  0.1161E+02  0.1546E+03
    -12.391  0.1239E+02  0.1558E+03
    -12.294  0.1500E+02  0.1572E+03
    -12.198  0.1876E+02  0.1590E+03
    -12.101  0.2270E+02  0.1612E+03
    -12.005  0.2504E+02  0.1636E+03
    -11.908  0.2438E+02  0.1660E+03
    -11.812  0.2195E+02  0.1681E+03
    -11.715  0.2037E+02  0.1701E+03
    -11.618  0.1986E+02  0.1720E+03
    -11.522  0.1847E+02  0.1738E+03
    -11.425  0.1648E+02  0.1754E+03
    -11.329  0.1644E+02  0.1769E+03
    -11.232  0.1889E+02  0.1788E+03
    -11.136  0.2257E+02  0.1809E+03
    -11.039  0.2676E+02  0.1835E+03
    -10.942  0.3065E+02  0.1865E+03
    -10.846  0.3311E+02  0.1897E+03
    -10.749  0.3437E+02  0.1930E+03
    -10.653  0.3557E+02  0.1964E+03
    -10.556  0.3720E+02  0.2000E+03
    -10.460  0.3831E+02  0.2037E+03
    -10.363  0.3771E+02  0.2074E+03
    -10.267  0.3579E+02  0.2108E+03
    -10.170  0.3421E+02  0.2141E+03
    -10.073  0.3375E+02  0.2174E+03
     -9.977  0.3331E+02  0.2206E+03
     -9.880  0.3237E+02  0.2237E+03
     -9.784  0.3265E+02  0.2269E+03
     -9.687  0.3506E+02  0.2303E+03
     -9.591  0.3782E+02  0.2339E+03
     -9.494  0.3938E+02  0.2377E+03
     -9.397  0.4010E+02  0.2416E+03
     -9.301  0.3984E+02  0.2454E+03
     -9.204  0.3735E+02  0.2491E+03
     -9.108  0.3327E+02  0.2523E+03
     -9.011  0.3091E+02  0.2552E+03
     -8.915  0.3251E+02  0.2584E+03
     -8.818  0.3598E+02  0.2619E+03
     -8.722  0.3751E+02  0.2655E+03
     -8.625  0.3615E+02  0.2690E+03
     -8.528  0.3376E+02  0.2722E+03
     -8.432  0.3201E+02  0.2753E+03
     -8.335  0.3108E+02  0.2783E+03
     -8.239  0.3016E+02  0.2812E+03
     -8.142  0.2917E+02  0.2841E+03
     -8.046  0.2884E+02  0.2868E+03
     -7.949  0.2872E+02  0.2896E+03
     -7.852  0.2773E+02  0.2923E+03
     -7.756  0.2671E+02  0.2949E+03
     -7.659  0.2743E+02  0.2975E+03
     -7.563  0.2948E+02  0.3004E+03
     -7.466  0.3054E+02  0.3033E+03
     -7.370  0.2955E+02  0.3062E+03
     -7.273  0.2775E+02  0.3088E+03
     -7.177  0.2670E+02  0.3114E+03
     -7.080  0.2647E+02  0.3140E+03
     -6.983  0.2643E+02  0.3165E+03
     -6.887  0.2635E+02  0.3191E+03
     -6.790  0.2635E+02  0.3216E+03
     -6.694  0.2652E+02  0.3242E+03
     -6.597  0.2589E+02  0.3267E+03
     -6.501  0.2321E+02  0.3289E+03
     -6.404  0.1990E+02  0.3308E+03
     -6.307  0.1890E+02  0.3327E+03
     -6.211  0.2047E+02  0.3347E+03
     -6.114  0.2294E+02  0.3369E+03
     -6.018  0.2540E+02  0.3393E+03
     -5.921  0.2675E+02  0.3419E+03
     -5.825  0.2549E+02  0.3444E+03
     -5.728  0.2192E+02  0.3465E+03
     -5.632  0.1794E+02  0.3482E+03
     -5.535  0.1461E+02  0.3496E+03
     -5.438  0.1186E+02  0.3508E+03
     -5.342  0.1012E+02  0.3517E+03
     -5.245  0.1026E+02  0.3527E+03
     -5.149  0.1147E+02  0.3538E+03
     -5.052  0.1153E+02  0.3550E+03
     -4.956  0.1001E+02  0.3559E+03
     -4.859  0.9061E+01  0.3568E+03
     -4.762  0.1002E+02  0.3578E+03
     -4.666  0.1208E+02  0.3589E+03
     -4.569  0.1417E+02  0.3603E+03
     -4.473  0.1526E+02  0.3618E+03
     -4.376  0.1378E+02  0.3631E+03
     -4.280  0.9872E+01  0.3641E+03
     -4.183  0.6035E+01  0.3646E+03
     -4.086  0.3856E+01  0.3650E+03
     -3.990  0.2712E+01  0.3653E+03
     -3.893  0.1961E+01  0.3655E+03
     -3.797  0.2018E+01  0.3657E+03
     -3.700  0.3189E+01  0.3660E+03
     -3.604  0.4641E+01  0.3664E+03
     -3.507  0.5046E+01  0.3669E+03
     -3.411  0.4190E+01  0.3673E+03
     -3.314  0.3286E+01  0.3676E+03
     -3.217  0.3175E+01  0.3679E+03
     -3.121  0.3376E+01  0.3683E+03
     -3.024  0.3552E+01  0.3686E+03
     -2.928  0.4222E+01  0.3690E+03
     -2.831  0.5796E+01  0.3696E+03
     -2.735  0.8054E+01  0.3703E+03
     -2.638  0.9662E+01  0.3713E+03
     -2.541  0.8902E+01  0.3721E+03
     -2.445  0.6319E+01  0.3727E+03
     -2.348  0.4447E+01  0.3732E+03
     -2.252  0.4741E+01  0.3736E+03
     -2.155  0.6402E+01  0.3743E+03
     -2.059  0.7343E+01  0.3750E+03
     -1.962  0.6356E+01  0.3756E+03
     -1.866  0.4996E+01  0.3761E+03
     -1.769  0.6174E+01  0.3767E+03
     -1.672  0.1097E+02  0.3777E+03
     -1.576  0.1748E+02  0.3794E+03
     -1.479  0.2249E+02  0.3816E+03
     -1.383  0.2423E+02  0.3839E+03
     -1.286  0.2306E+02  0.3861E+03
     -1.190  0.2065E+02  0.3881E+03
     -1.093  0.1866E+02  0.3899E+03
     -0.996  0.1718E+02  0.3916E+03
     -0.900  0.1569E+02  0.3931E+03
     -0.803  0.1457E+02  0.3945E+03
     -0.707  0.1439E+02  0.3959E+03
     -0.610  0.1447E+02  0.3973E+03
     -0.514  0.1338E+02  0.3986E+03
     -0.417  0.1122E+02  0.3997E+03
     -0.321  0.1007E+02  0.4007E+03
     -0.224  0.1144E+02  0.4018E+03
     -0.127  0.1464E+02  0.4032E+03
     -0.031  0.1785E+02  0.4049E+03
      0.066  0.1968E+02  0.4068E+03
      0.162  0.2046E+02  0.4088E+03
      0.259  0.2125E+02  0.4108E+03
      0.355  0.2156E+02  0.4129E+03
      0.452  0.2060E+02  0.4149E+03
      0.549  0.1983E+02  0.4168E+03
      0.645  0.2146E+02  0.4189E+03
      0.742  0.2538E+02  0.4213E+03
      0.838  0.2948E+02  0.4242E+03
      0.935  0.3274E+02  0.4273E+03
      1.031  0.3598E+02  0.4308E+03
      1.128  0.3966E+02  0.4346E+03
      1.225  0.4364E+02  0.4389E+03
      1.321  0.4727E+02  0.4434E+03
      1.418  0.4878E+02  0.4481E+03
      1.514  0.4692E+02  0.4527E+03
      1.611  0.4173E+02  0.4567E+03
      1.707  0.3344E+02  0.4599E+03
      1.804  0.2285E+02  0.4621E+03
      1.900  0.1243E+02  0.4633E+03
      1.997  0.5082E+01  0.4638E+03
      2.094  0.1501E+01  0.4640E+03
      2.190  0.3130E+00  0.4640E+03
      2.287  0.4542E-01  0.4640E+03
      2.383  0.4516E-02  0.4640E+03
      2.480  0.3028E-03  0.4640E+03
      2.576  0.1347E-04  0.4640E+03
      2.673  0.3918E-06  0.4640E+03
      2.770  0.7372E-08  0.4640E+03
      2.866  0.8897E-10  0.4640E+03
      2.963  0.6858E-12  0.4640E+03
      3.059  0.3449E-14  0.4640E+03
      3.156  0.0000E+00  0.4640E+03
      3.252  0.0000E+00  0.4640E+03
      3.349  0.0000E+00  0.4640E+03
      3.445  0.0000E+00  0.4640E+03
      3.542  0.0000E+00  0.4640E+03
      3.639  0.0000E+00  0.4640E+03
      3.735  0.0000E+00  0.4640E+03
      3.832  0.0000E+00  0.4640E+03
