       N       E                     dE             d eps       ncg     rms          rms(c)
DAV:   1     0.373450480347E+04    0.37345E+04   -0.11847E+05  1696   0.105E+03
DAV:   2     0.190484198823E+03   -0.35440E+04   -0.32863E+04  2144   0.239E+02
DAV:   3    -0.833307338304E+03   -0.10238E+04   -0.10009E+04  1784   0.136E+02
DAV:   4    -0.895262632391E+03   -0.61955E+02   -0.60987E+02  1720   0.432E+01
DAV:   5    -0.896781675730E+03   -0.15190E+01   -0.14974E+01  1800   0.657E+00    0.453E+01
DAV:   6    -0.847662008842E+03    0.49120E+02   -0.47134E+01  1584   0.126E+01    0.266E+01
DAV:   7    -0.829376896718E+03    0.18285E+02   -0.64669E+01  1568   0.143E+01    0.727E+00
DAV:   8    -0.829090709153E+03    0.28619E+00   -0.23641E+00  1592   0.328E+00    0.105E+00
DAV:   9    -0.828985003033E+03    0.10571E+00   -0.24238E-01  1664   0.933E-01    0.573E-01
DAV:  10    -0.828946792119E+03    0.38211E-01   -0.39075E-02  1744   0.396E-01    0.378E-01
DAV:  11    -0.828914194618E+03    0.32598E-01   -0.22589E-02  1536   0.245E-01    0.238E-01
DAV:  12    -0.828908629125E+03    0.55655E-02   -0.23355E-02  1568   0.223E-01    0.153E-01
DAV:  13    -0.828920638964E+03   -0.12010E-01   -0.93497E-03  1544   0.148E-01    0.811E-02
DAV:  14    -0.828936257510E+03   -0.15619E-01   -0.10229E-03  1608   0.631E-02    0.589E-02
DAV:  15    -0.828958361679E+03   -0.22104E-01   -0.20179E-03  1544   0.696E-02    0.297E-02
DAV:  16    -0.828966893597E+03   -0.85319E-02   -0.46864E-04  1608   0.376E-02    0.236E-02
DAV:  17    -0.828972442625E+03   -0.55490E-02   -0.38469E-04  1592   0.268E-02    0.109E-02
DAV:  18    -0.828974119120E+03   -0.16765E-02   -0.63215E-05  1680   0.122E-02    0.746E-03
DAV:  19    -0.828975161142E+03   -0.10420E-02   -0.31498E-05  1400   0.907E-03    0.393E-03
DAV:  20    -0.828975677539E+03   -0.51640E-03   -0.13035E-05  1320   0.520E-03    0.291E-03
DAV:  21    -0.828975884993E+03   -0.20745E-03   -0.25949E-06  1328   0.340E-03    0.152E-03
DAV:  22    -0.828975979905E+03   -0.94912E-04   -0.70399E-07   984   0.172E-03    0.123E-03
DAV:  23    -0.828976020432E+03   -0.40527E-04   -0.43771E-07  1000   0.141E-03    0.531E-04
DAV:  24    -0.828976040730E+03   -0.20298E-04   -0.20263E-07   960   0.968E-04    0.766E-04
DAV:  25    -0.828976045963E+03   -0.52323E-05   -0.56441E-08   952   0.837E-04    0.191E-04
DAV:  26    -0.828976051595E+03   -0.56324E-05   -0.60760E-08   888   0.463E-04    0.360E-04
DAV:  27    -0.828976053145E+03   -0.15494E-05   -0.11392E-08   936   0.320E-04    0.119E-04
DAV:  28    -0.828976055302E+03   -0.21574E-05   -0.97807E-09   936   0.200E-04    0.732E-05
DAV:  29    -0.828976056437E+03   -0.11351E-05   -0.40692E-09   968   0.110E-04    0.653E-05
DAV:  30    -0.828976057148E+03   -0.71109E-06   -0.20606E-09   936   0.735E-05
   1 F= -.82897606E+03 E0= -.82894272E+03  d E =-.666713E-01
