unknown system                          
            1
    28.050000    0.000000    0.000000
     0.000000    8.100000    0.000000
     0.000000    0.000000   33.500000
   C 
    92
Direct configuration=     1
   0.01145169  0.10101111  0.44207463
   0.01004927  0.27642222  0.44468955
   0.05535009  0.02035012  0.44770746
   0.05275330  0.35292099  0.45829552
   0.09690766  0.10491543  0.46319104
   0.09642282  0.27009259  0.46950149
   0.14081497  0.01431790  0.47520896
   0.13926738  0.34390000  0.48002687
   0.18170374  0.09645111  0.48943284
   0.18079073  0.26431728  0.49381194
   0.22178859  0.01866765  0.50560896
   0.22030267  0.34375679  0.51186269
   0.26231159  0.09838247  0.52194627
   0.26405241  0.26587407  0.52213134
   0.30497219  0.01698988  0.53215522
   0.30582567  0.35226667  0.53361493
   0.35031087  0.10157309  0.53858806
   0.34962317  0.26559630  0.54169254
   0.39387879  0.02022395  0.54025672
   0.39332620  0.34722222  0.54563881
   0.43798930  0.09799222  0.54533731
   0.43810339  0.26550370  0.54395522
   0.48286988  0.02037864  0.54424776
   0.48296613  0.35258519  0.54882090
   0.52469875  0.09836469  0.54303284
   0.52626025  0.27314444  0.54736119
   0.56913369  0.02279580  0.53321791
   0.57209982  0.35249630  0.54319403
   0.61459537  0.11125012  0.52640000
   0.61706595  0.27892593  0.53327164
   0.65449554  0.02936074  0.51152836
   0.66252050  0.35646173  0.52741493
   0.69767558  0.11200037  0.50186866
   0.70300178  0.27550247  0.50946567
   0.73853476  0.02514012  0.48645970
   0.74516221  0.35478519  0.49849851
   0.78161854  0.11014741  0.47728657
   0.78612834  0.27629630  0.48147164
   0.82387879  0.03608160  0.46309552
   0.82864528  0.36387284  0.46986269
   0.86869875  0.11426074  0.45392239
   0.87081283  0.28287037  0.45687761
   0.91340820  0.02909420  0.44370448
   0.91550089  0.36298395  0.44979104
   0.95930481  0.10997568  0.44026567
   0.95779323  0.27439630  0.44323881
   0.00853586  0.60636914  0.45296119
   0.00914777  0.77982963  0.45159701
   0.05169091  0.51992346  0.46292239
   0.05369340  0.85323827  0.45397313
   0.09385169  0.60003580  0.47196716
   0.09503601  0.76763086  0.46743582
   0.13790695  0.51855556  0.48245672
   0.14132727  0.84651605  0.47219104
   0.18096221  0.59750000  0.49397612
   0.18053048  0.76841358  0.49142687
   0.22109340  0.51431481  0.51160597
   0.22195900  0.84739506  0.50361791
   0.26296435  0.60170000  0.52192836
   0.26354831  0.76672469  0.51595224
   0.30661355  0.52417284  0.53282985
   0.30545062  0.85047654  0.52953731
   0.34999287  0.60358519  0.53852836
   0.34948200  0.77197901  0.53769552
   0.39349733  0.51557037  0.54421194
   0.39385740  0.85396173  0.54508358
   0.43865954  0.60276173  0.54601194
   0.43984670  0.77409383  0.54797910
   0.48375045  0.52178889  0.54794925
   0.48565775  0.84972469  0.54609552
   0.52903387  0.59973457  0.54645373
   0.52874153  0.76669383  0.54088060
   0.57398930  0.51864074  0.54167463
   0.57057398  0.85240370  0.53270746
   0.61558289  0.60668765  0.53141791
   0.61480927  0.77381605  0.52648060
   0.66140820  0.52873951  0.52563881
   0.65461319  0.85990000  0.51122388
   0.70216399  0.61377778  0.50992836
   0.69547237  0.77306173  0.49832537
   0.74409626  0.52759753  0.49577313
   0.73765062  0.85792222  0.48425075
   0.78100535  0.60252222  0.47518806
   0.78103387  0.77455062  0.47392537
   0.82657041  0.53214198  0.46745373
   0.82411052  0.86758642  0.46108358
   0.86869519  0.61270247  0.45328955
   0.86725490  0.78276173  0.45118507
   0.91322995  0.52874198  0.44949552
   0.91272371  0.86422840  0.44553731
   0.95705169  0.60685679  0.44411642
   0.95653119  0.78219012  0.44380000
