unknown system                          
            1
    28.050000    0.000000    0.000000
     0.000000    8.100000    0.000000
     0.000000    0.000000   33.500000
   C 
    92
Direct configuration=     1
   0.22472513  0.07962778  0.69495522
   0.22589269  0.24921852  0.69764179
   0.26430766  0.00070763  0.67814925
   0.26559501  0.33041358  0.68244776
   0.30955152  0.07973173  0.67167164
   0.30964528  0.25411111  0.67185075
   0.35026381  0.99478519  0.65949254
   0.35006560  0.33457654  0.65791045
   0.39462745  0.07468642  0.65364179
   0.39141176  0.24239012  0.64841791
   0.43624955  0.99462963  0.64164179
   0.43262745  0.32321235  0.63352239
   0.48069519  0.07764309  0.63465672
   0.47731907  0.24221111  0.62850746
   0.52547237  0.00443436  0.62626866
   0.52025668  0.33023704  0.62298507
   0.56772193  0.08673704  0.62191045
   0.56575045  0.25609877  0.62173134
   0.61095544  0.00489780  0.61635821
   0.60921212  0.33764198  0.62295522
   0.65508378  0.08163519  0.62579104
   0.65424955  0.25374938  0.62650746
   0.69920856  0.99737654  0.63047761
   0.69792513  0.33823210  0.63426866
   0.74000713  0.08366568  0.64367164
   0.73828520  0.25357778  0.64916418
   0.78425312  0.00796270  0.65220896
   0.78041711  0.34365185  0.65934328
   0.82432086  0.09348259  0.66516418
   0.82301248  0.26257901  0.66841791
   0.86733333  0.01080037  0.67161194
   0.86652406  0.34344074  0.67680597
   0.90981105  0.09505222  0.68483582
   0.90850980  0.26215309  0.68898507
   0.95390018  0.01292506  0.68892537
   0.95034938  0.34433951  0.69970149
   0.99527986  0.08943914  0.70537313
   0.99277005  0.25956296  0.70982090
   0.04207166  0.00959174  0.70576119
   0.04065062  0.34122593  0.71244776
   0.08634439  0.08661136  0.71002985
   0.08601176  0.25724815  0.71205970
   0.13038859  0.00143288  0.70128358
   0.13067772  0.33905802  0.71158209
   0.17336114  0.08571494  0.70056716
   0.17418681  0.25471358  0.70713433
   0.22215758  0.57794568  0.68489552
   0.22179572  0.75367160  0.68131343
   0.26137683  0.49602469  0.67256716
   0.26303886  0.83533580  0.66970149
   0.30343779  0.58356296  0.65740299
   0.30479643  0.75415185  0.65692537
   0.34520642  0.49666914  0.64832836
   0.35006881  0.82621605  0.65110448
   0.38761497  0.57703704  0.63283582
   0.39031016  0.74278272  0.63844776
   0.43170410  0.49083704  0.62546269
   0.43202496  0.82960494  0.63256716
   0.47530481  0.58051852  0.61588060
   0.47572549  0.75594198  0.61740299
   0.51891979  0.49844444  0.61444776
   0.52131551  0.82894444  0.61808955
   0.56449554  0.58277160  0.61095522
   0.56583601  0.75028025  0.61256716
   0.61094474  0.50018519  0.61313433
   0.60999287  0.83514815  0.61743284
   0.65648841  0.58306914  0.61692537
   0.65475579  0.75325556  0.61743284
   0.69801783  0.50356790  0.62611940
   0.69994296  0.83299630  0.62492537
   0.74253832  0.58409136  0.63432836
   0.74293761  0.75161605  0.63307463
   0.78295900  0.50841111  0.65113433
   0.78447772  0.84017654  0.64373134
   0.82868806  0.58745679  0.65164179
   0.82768627  0.75962840  0.65092537
   0.86894118  0.50888889  0.66794030
   0.86984670  0.84533951  0.66307463
   0.91324064  0.59398025  0.67519403
   0.91396435  0.76112346  0.66997015
   0.95386453  0.51778272  0.69355224
   0.95706595  0.84548025  0.67919403
   0.99847059  0.59252222  0.69761194
   0.99954011  0.75866173  0.68805970
   0.04190481  0.50738395  0.70761194
   0.04224456  0.84027037  0.69728358
   0.08514046  0.58475802  0.70379104
   0.08587094  0.75596543  0.69719403
   0.13079893  0.50370123  0.70564179
   0.13158431  0.84045926  0.69629851
   0.17225276  0.57695926  0.69310448
   0.17356364  0.75010370  0.69262687
