       N       E                     dE             d eps       ncg     rms          rms(c)
DAV:   1     0.374061145929E+04    0.37406E+04   -0.11847E+05  1696   0.105E+03
DAV:   2     0.190438614248E+03   -0.35502E+04   -0.32930E+04  2144   0.239E+02
DAV:   3    -0.832628091318E+03   -0.10231E+04   -0.99982E+03  1784   0.136E+02
DAV:   4    -0.895187619431E+03   -0.62560E+02   -0.61495E+02  1704   0.433E+01
DAV:   5    -0.896786353008E+03   -0.15987E+01   -0.15716E+01  1752   0.672E+00    0.454E+01
DAV:   6    -0.847384749873E+03    0.49402E+02   -0.47349E+01  1576   0.127E+01    0.267E+01
DAV:   7    -0.829021799356E+03    0.18363E+02   -0.64548E+01  1560   0.143E+01    0.732E+00
DAV:   8    -0.828750924461E+03    0.27087E+00   -0.22725E+00  1592   0.318E+00    0.128E+00
DAV:   9    -0.828636346770E+03    0.11458E+00   -0.20259E-01  1688   0.845E-01    0.580E-01
DAV:  10    -0.828596317853E+03    0.40029E-01   -0.33744E-02  1720   0.360E-01    0.387E-01
DAV:  11    -0.828561567411E+03    0.34750E-01   -0.21702E-02  1560   0.237E-01    0.241E-01
DAV:  12    -0.828554159084E+03    0.74083E-02   -0.27088E-02  1576   0.234E-01    0.151E-01
DAV:  13    -0.828565004187E+03   -0.10845E-01   -0.86300E-03  1552   0.134E-01    0.831E-02
DAV:  14    -0.828582915376E+03   -0.17911E-01   -0.11706E-03  1584   0.594E-02    0.538E-02
DAV:  15    -0.828603558734E+03   -0.20643E-01   -0.17388E-03  1600   0.598E-02    0.307E-02
DAV:  16    -0.828612657562E+03   -0.90988E-02   -0.50681E-04  1608   0.344E-02    0.199E-02
DAV:  17    -0.828618462491E+03   -0.58049E-02   -0.43031E-04  1560   0.253E-02    0.942E-03
DAV:  18    -0.828620127341E+03   -0.16648E-02   -0.57545E-05  1480   0.102E-02    0.574E-03
DAV:  19    -0.828621190017E+03   -0.10627E-02   -0.37125E-05  1312   0.747E-03    0.314E-03
DAV:  20    -0.828621501604E+03   -0.31159E-03   -0.48205E-06  1384   0.313E-03    0.170E-03
DAV:  21    -0.828621690043E+03   -0.18844E-03   -0.22112E-06  1224   0.202E-03    0.911E-04
DAV:  22    -0.828621735560E+03   -0.45517E-04   -0.19586E-07  1048   0.800E-04    0.497E-04
DAV:  23    -0.828621759655E+03   -0.24095E-04   -0.18507E-07   960   0.623E-04    0.270E-04
DAV:  24    -0.828621771876E+03   -0.12221E-04   -0.85943E-08   912   0.434E-04    0.164E-04
DAV:  25    -0.828621775158E+03   -0.32823E-05   -0.18618E-08   984   0.254E-04    0.120E-04
DAV:  26    -0.828621778875E+03   -0.37165E-05   -0.20676E-08   936   0.214E-04    0.734E-05
DAV:  27    -0.828621780031E+03   -0.11564E-05   -0.51479E-09   976   0.129E-04    0.433E-05
DAV:  28    -0.828621781621E+03   -0.15899E-05   -0.57383E-09   952   0.113E-04    0.277E-05
DAV:  29    -0.828621782002E+03   -0.38100E-06   -0.20030E-09   944   0.709E-05
   1 F= -.82862178E+03 E0= -.82858937E+03  d E =-.648295E-01
