 vasp.6.5.0 16Dec24 (build Feb 19 2025 19:45:31) complex                         
 executed on              LinuxNV date 2025.10.25  15:21:17
 running    2 mpi-ranks, on    1 nodes
 distrk:  each k-point on    2 cores,    1 groups
 distr:  one band on NCORE=   1 cores,    2 groups
 Offloading initialized ...    2 GPUs detected


--------------------------------------------------------------------------------------------------------


 INCAR:
   ISTART = 0            (Not Read existing wavefunction
   ISPIN = 1            (Non-Spin polarised DFT, Default\=1)
   ICHARG = 2            (The initial guess charge density is generated by superposition of atomic charge density)
   LREAL = Auto         (Projection operators: automatic)
   ENCUT = 500          (Cut-off energy for plane wave basis set, in eV)
   LWAVE = .FALSE.       (Write WAVECAR or not)
   LCHARG = .FALSE.       (Write CHGCAR or not)
   PREC = Accurate   (Precision level)
   KGAMMA = .TRUE.
   ALGO = Normal
   NSW = 0           (Default: NSW \= 0)
   IBRION = -1           (Ions are not moved)
   ISMEAR = 0
   EDIFF = 1E-06        (SCF energy convergence
   NELM = 150          (Max electronic SCF steps)

 POTCAR:    PAW_PBE C 08Apr2002                   
 POTCAR:    PAW_PBE C 08Apr2002                   
   SHA256 =  253f7b50bb8d59471dbedb8285d89021f4a42ed1a2c5d38a03a736e69125dd95 C/POTCAR              
   COPYR  = (c) Copyright 08Apr2002 Georg Kresse                                                    
   COPYR  = This file is part of the software VASP. Any use, copying, and all other rights are regul
   COPYR  = If you do not have a valid VASP license, you may not use, copy or distribute this file. 
   VRHFIN =C: s2p2                                                                                  
   LEXCH  = PE                                                                                      
   EATOM  =   147.1560 eV,   10.8157 Ry                                                             
                                                                                                    
   TITEL  = PAW_PBE C 08Apr2002                                                                     
   LULTRA =        F    use ultrasoft PP ?                                                          
   IUNSCR =        1    unscreen: 0-lin 1-nonlin 2-no                                               
   RPACOR =    1.200    partial core radius                                                         
   POMASS =   12.011; ZVAL   =    4.000    mass and valenz                                          
   RCORE  =    1.500    outmost cutoff radius                                                       
   RWIGS  =    1.630; RWIGS  =    0.863    wigner-seitz radius (au A)                               
   ENMAX  =  400.000; ENMIN  =  300.000 eV                                                          
   ICORE  =        2    local potential                                                             
   LCOR   =        T    correct aug charges                                                         
   LPAW   =        T    paw PP                                                                      
   EAUG   =  644.873                                                                                
   DEXC   =    0.000                                                                                
   RMAX   =    1.529    core radius for proj-oper                                                   
   RAUG   =    1.300    factor for augmentation sphere                                              
   RDEP   =    1.501    radius for radial grids                                                     
   RDEPT  =    1.300    core radius for aug-charge                                                  
                                                                                                    
   Atomic configuration                                                                             
    4 entries                                                                                       
     n  l   j            E        occ.                                                              
     1  0  0.50      -273.3789   2.0000                                                             
     2  0  0.50       -13.7508   2.0000                                                             
     2  1  0.50        -5.2854   2.0000                                                             
     3  2  1.50        -5.4423   0.0000                                                             
   Description                                                                                      
     l       E           TYP  RCUT    TYP  RCUT                                                     
     0    -13.7508458     23  1.200                                                                 
     0     -8.2022199     23  1.200                                                                 
     1     -5.2854383     23  1.500                                                                 
     1     34.0145650     23  1.500                                                                 
     2     -5.4423304      7  1.500                                                                 
  local pseudopotential read in
  partial core-charges read in
  partial kinetic energy density read in
  atomic valenz-charges read in
  non local Contribution for L=            0  read in
    real space projection operators read in
  non local Contribution for L=            0  read in
    real space projection operators read in
  non local Contribution for L=            1  read in
    real space projection operators read in
  non local Contribution for L=            1  read in
    real space projection operators read in
    PAW grid and wavefunctions read in
 
   number of l-projection  operators is LMAX  =            4
   number of lm-projection operators is LMMAX =            8
 
 Optimization of the real space projectors (new method)

 maximal supplied QI-value         = 25.13
 optimisation between [QCUT,QGAM] = [ 11.31, 22.87] = [ 35.82,146.48] Ry 
 Optimized for a Real-space Cutoff    1.03 Angstroem

   l    n(q)    QCUT    max X(q) W(low)/X(q) W(high)/X(q)  e(spline) 
   0      7    11.310   115.676    0.20E-03    0.90E-03    0.20E-06
   0      7    11.310    87.132    0.20E-03    0.89E-03    0.19E-06
   1      6    11.310     4.429    0.16E-03    0.28E-03    0.12E-06
   1      6    11.310     2.733    0.12E-03    0.21E-03    0.99E-07
  PAW_PBE C 08Apr2002                   :
 energy of atom  1       EATOM= -147.1560
 kinetic energy error for atom=    0.0076 (will be added to EATOM!!)
 
 
 POSCAR:  C
  positions in cartesian coordinates
  No initial velocities read in


 exchange-correlation table for PE
   RHO(1)=    0.500       N(1)  =     2000
   RHO(2)=  100.500       N(2)  =     4000
 


--------------------------------------------------------------------------------------------------------


 ion  position               nearest neighbor table
   1  0.008  0.108  0.448-   2 1.39   3 1.40  45 1.50  46 2.01
   2  0.007  0.279  0.450-   1 1.39   4 1.41  46 1.49
   3  0.051  0.025  0.455-   1 1.40   5 1.41  50 1.41
   4  0.050  0.355  0.461-  49 1.36   6 1.40   2 1.41
   5  0.094  0.109  0.464-   6 1.36   3 1.41   7 1.42
   6  0.094  0.276  0.467-   5 1.36   4 1.40   8 1.42
   7  0.138  0.027  0.470-  54 1.34   5 1.42   9 1.44
   8  0.136  0.359  0.479-  53 1.37   6 1.42  10 1.43
   9  0.181  0.108  0.481-  11 1.38  10 1.40   7 1.44
  10  0.181  0.280  0.486-  12 1.39   9 1.40   8 1.43
  11  0.223  0.029  0.491-  58 1.35   9 1.38  13 1.40
  12  0.221  0.357  0.502-  10 1.39  57 1.39  14 1.45
  13  0.266  0.103  0.503-  14 1.35  11 1.40  15 1.46
  14  0.265  0.268  0.509-  13 1.35  16 1.43  12 1.45
  15  0.311  0.020  0.511-  62 1.37  17 1.42  13 1.46
  16  0.307  0.352  0.523-  61 1.37  18 1.40  14 1.43
  17  0.352  0.098  0.526-  19 1.34  18 1.40  15 1.42
  18  0.349  0.269  0.533-  16 1.40  17 1.40  20 1.43
  19  0.395  0.026  0.531-  17 1.34  66 1.38  21 1.40
  20  0.392  0.356  0.541-  65 1.39  22 1.42  18 1.43
  21  0.438  0.111  0.537-  22 1.36  19 1.40  23 1.49
  22  0.437  0.277  0.543-  21 1.36  20 1.42  24 1.44
  23  0.483  0.021  0.546-  70 1.35  25 1.42  21 1.49
  24  0.484  0.349  0.550-  26 1.38  69 1.41  22 1.44
  25  0.528  0.103  0.545-  26 1.40  27 1.41  23 1.42
  26  0.528  0.275  0.547-  24 1.38  25 1.40  28 1.43
  27  0.572  0.023  0.544-  74 1.39  25 1.41  29 1.45
  28  0.573  0.355  0.547-  73 1.40  30 1.42  26 1.43
  29  0.617  0.104  0.535-  31 1.39  30 1.41  27 1.45
  30  0.617  0.276  0.540-  29 1.41  28 1.42  32 1.43
  31  0.660  0.023  0.527-  78 1.35  29 1.39  33 1.42
  32  0.662  0.355  0.531-  77 1.37  34 1.38  30 1.43
  33  0.703  0.105  0.518-  34 1.36  31 1.42  35 1.45
  34  0.702  0.272  0.519-  33 1.36  32 1.38  36 1.44
  35  0.741  0.017  0.498-  82 1.38  37 1.42  33 1.45
  36  0.745  0.352  0.504-  81 1.32  38 1.42  34 1.44
  37  0.783  0.097  0.484-  38 1.36  35 1.42  39 1.44
  38  0.783  0.264  0.485-  37 1.36  36 1.42  40 1.47
  39  0.825  0.017  0.469-  86 1.33  37 1.44  41 1.44
  40  0.824  0.351  0.470-  85 1.36  42 1.42  38 1.47
  41  0.869  0.098  0.459-  42 1.34  43 1.37  39 1.44
  42  0.867  0.263  0.461-  41 1.34  40 1.42  44 1.43
  43  0.909  0.016  0.447-  90 1.35  41 1.37  45 1.44
  44  0.911  0.349  0.456-  89 1.34  46 1.39  42 1.43
  45  0.955  0.096  0.446-  46 1.42  43 1.44   1 1.50
  46  0.954  0.272  0.447-  44 1.39  45 1.42   2 1.49   1 2.01
  47  0.008  0.602  0.452-  49 1.39  48 1.41  91 1.46  92 2.05
  48  0.009  0.772  0.443-  47 1.41  50 1.43  92 1.52  91 2.05
  49  0.050  0.523  0.464-   4 1.36  47 1.39  51 1.44
  50  0.053  0.851  0.452-  52 1.35   3 1.41  48 1.43
  51  0.094  0.610  0.467-  52 1.37  53 1.41  49 1.44
  52  0.095  0.776  0.460-  50 1.35  51 1.37  54 1.42
  53  0.136  0.528  0.481-   8 1.37  51 1.41  55 1.44
  54  0.138  0.862  0.469-   7 1.34  52 1.42  56 1.44
  55  0.179  0.612  0.490-  57 1.39  56 1.40  53 1.44
  56  0.181  0.780  0.481-  55 1.40  58 1.42  54 1.44
  57  0.219  0.528  0.504-  12 1.39  55 1.39  59 1.41
  58  0.222  0.864  0.495-  11 1.35  56 1.42  60 1.47
  59  0.260  0.611  0.518-  60 1.35  57 1.41  61 1.51
  60  0.263  0.777  0.513-  59 1.35  62 1.44  58 1.47
  61  0.305  0.519  0.529-  16 1.37  63 1.46  59 1.51
  62  0.309  0.852  0.516-  15 1.37  64 1.42  60 1.44
  63  0.351  0.603  0.535-  64 1.34  65 1.40  61 1.46
  64  0.351  0.766  0.527-  63 1.34  62 1.42  66 1.45
  65  0.394  0.527  0.543-  20 1.39  63 1.40  67 1.40
  66  0.395  0.856  0.534-  19 1.38  68 1.42  64 1.45
  67  0.439  0.603  0.546-  68 1.39  69 1.40  65 1.40
  68  0.438  0.774  0.542-  67 1.39  66 1.42  70 1.45
  69  0.483  0.523  0.553-  67 1.40  24 1.41  71 1.47
  70  0.484  0.854  0.547-  23 1.35  72 1.42  68 1.45
  71  0.529  0.607  0.553-  72 1.36  73 1.40  69 1.47
  72  0.529  0.774  0.549-  71 1.36  74 1.40  70 1.42
  73  0.573  0.528  0.548-  28 1.40  71 1.40  75 1.46
  74  0.574  0.851  0.546-  27 1.39  72 1.40  76 1.42
  75  0.618  0.611  0.538-  76 1.32  77 1.44  73 1.46
  76  0.618  0.774  0.536-  75 1.32  78 1.41  74 1.42
  77  0.661  0.523  0.527-  32 1.37  79 1.41  75 1.44
  78  0.660  0.856  0.524-  31 1.35  80 1.40  76 1.41
  79  0.701  0.607  0.513-  80 1.40  81 1.40  77 1.41
  80  0.698  0.777  0.505-  82 1.39  79 1.40  78 1.40
  81  0.741  0.515  0.501-  36 1.32  79 1.40  83 1.45
  82  0.738  0.851  0.489-  35 1.38  80 1.39  84 1.43
  83  0.783  0.597  0.486-  84 1.38  85 1.44  81 1.45
  84  0.781  0.764  0.478-  83 1.38  82 1.43  86 1.44
  85  0.827  0.517  0.475-  40 1.36  87 1.39  83 1.44
  86  0.823  0.853  0.467-  39 1.33  88 1.43  84 1.44
  87  0.868  0.599  0.462-  88 1.35  85 1.39  89 1.43
  88  0.866  0.765  0.458-  87 1.35  86 1.43  90 1.45
  89  0.912  0.514  0.457-  44 1.34  87 1.43  91 1.43
  90  0.910  0.850  0.447-  43 1.35  92 1.42  88 1.45
  91  0.956  0.600  0.449-  92 1.39  89 1.43  47 1.46  48 2.05
  92  0.954  0.769  0.442-  91 1.39  90 1.42  48 1.52  47 2.05
 
  LATTYP: Found a simple orthorhombic cell.
 ALAT       =     8.1000000000
 B/A-ratio  =     3.4629629630
 C/A-ratio  =     4.1358024691
  
  Lattice vectors:
  
 A1 = (   0.0000000000,  -8.1000000000,   0.0000000000)
 A2 = (  28.0500000000,   0.0000000000,   0.0000000000)
 A3 = (   0.0000000000,   0.0000000000,  33.5000000000)


Analysis of symmetry for initial positions (statically):
=====================================================================
 Subroutine PRICEL returns:
 Original cell was already a primitive cell.
 

 Routine SETGRP: Setting up the symmetry group for a 
 simple orthorhombic supercell.


 Subroutine GETGRP returns: Found  1 space group operations
 (whereof  1 operations were pure point group operations)
 out of a pool of  8 trial point group operations.


The static configuration has the point symmetry C_1 .


Analysis of symmetry for dynamics (positions and initial velocities):
=====================================================================
 Subroutine PRICEL returns:
 Original cell was already a primitive cell.
 

 Routine SETGRP: Setting up the symmetry group for a 
 simple orthorhombic supercell.


 Subroutine GETGRP returns: Found  1 space group operations
 (whereof  1 operations were pure point group operations)
 out of a pool of  8 trial point group operations.


The dynamic configuration has the point symmetry C_1 .


 Subroutine INISYM returns: Found  1 space group operations
 (whereof  1 operations are pure point group operations),
 and found     1 'primitive' translations


----------------------------------------------------------------------------------------

                                     Primitive cell                                     

  volume of cell :    7611.3675

  direct lattice vectors                    reciprocal lattice vectors
    28.050000000  0.000000000  0.000000000     0.035650624  0.000000000  0.000000000
     0.000000000  8.100000000  0.000000000     0.000000000  0.123456790  0.000000000
     0.000000000  0.000000000 33.500000000     0.000000000  0.000000000  0.029850746

  length of vectors
    28.050000000  8.100000000 33.500000000     0.035650624  0.123456790  0.029850746

  position of ions in fractional coordinates (direct lattice)
     0.008107237  0.107554074  0.447662687
     0.007149982  0.279237037  0.449767164
     0.051017112  0.024815926  0.454841791
     0.050001070  0.355465432  0.461361194
     0.093579323  0.108921975  0.464047761
     0.093886275  0.276408642  0.466901493
     0.137584670  0.027348025  0.470453731
     0.136191444  0.358750617  0.478662687
     0.181427094  0.108295062  0.480674627
     0.181213904  0.280287654  0.485970149
     0.223264171  0.029366049  0.491071642
     0.221012478  0.357102469  0.501910448
     0.265981105  0.103204691  0.502829851
     0.265037433  0.268241975  0.509319403
     0.311077362  0.019671481  0.510516418
     0.306905882  0.352251852  0.523185075
     0.352366845  0.098171975  0.526086567
     0.349222816  0.268860494  0.532591045
     0.395040998  0.025907037  0.530647761
     0.392206774  0.355517284  0.541492537
     0.437604278  0.110513704  0.537447761
     0.437383244  0.277224691  0.542543284
     0.482973262  0.021106296  0.546107463
     0.483554367  0.349409877  0.550200000
     0.527582888  0.102990247  0.545325373
     0.527732620  0.275381481  0.547432836
     0.572156863  0.023262593  0.544146269
     0.573058824  0.355269136  0.547107463
     0.617197861  0.103605309  0.535355224
     0.617137255  0.276244444  0.539501493
     0.659878788  0.022929136  0.527343284
     0.661579323  0.355001235  0.530528358
     0.703076649  0.104837901  0.518155224
     0.702456328  0.272334568  0.518805970
     0.741087344  0.016790988  0.497916418
     0.744570410  0.352230864  0.503677612
     0.783108734  0.096601111  0.484405970
     0.782549020  0.263897531  0.485241791
     0.824673797  0.016511975  0.468537313
     0.824327986  0.351324691  0.469594030
     0.868655971  0.097950000  0.458788060
     0.867151515  0.263456790  0.461426866
     0.909098039  0.015788642  0.446889552
     0.911475936  0.349181481  0.456441791
     0.954894831  0.096295062  0.445829851
     0.954299465  0.271981481  0.446552239
     0.007880000  0.601582716  0.452226866
     0.008756292  0.771760494  0.442922388
     0.049681996  0.523439506  0.464388060
     0.052844563  0.851145679  0.452176119
     0.094416756  0.610149383  0.467220896
     0.094919430  0.776183951  0.460155224
     0.135518004  0.528180247  0.480976119
     0.137675223  0.861629630  0.469202985
     0.179209626  0.611743210  0.490423881
     0.180907665  0.779760494  0.481313433
     0.219327986  0.527738272  0.504256716
     0.222068806  0.863500000  0.495080597
     0.260496257  0.611346914  0.517531343
     0.262740820  0.776891358  0.512889552
     0.305429947  0.519218519  0.528844776
     0.309054189  0.852195062  0.515665672
     0.350642068  0.603123457  0.535307463
     0.350970410  0.765732099  0.527373134
     0.394424242  0.526809877  0.543008955
     0.394855615  0.855844444  0.533910448
     0.439180036  0.603225926  0.545629851
     0.438406417  0.773660494  0.542268657
     0.482695187  0.523446914  0.552886567
     0.484188948  0.854201235  0.547394030
     0.529286988  0.606943210  0.553316418
     0.529147950  0.774122222  0.548731343
     0.573208556  0.527834568  0.547743284
     0.573828877  0.851416049  0.546495522
     0.617721925  0.611060494  0.537626866
     0.617579323  0.774141975  0.536232836
     0.660698752  0.523367901  0.527185075
     0.659739750  0.856288889  0.524292537
     0.701276292  0.607285185  0.512552239
     0.697896613  0.776853086  0.505388060
     0.741294118  0.514596296  0.501307463
     0.738402852  0.850638272  0.489492537
     0.783222816  0.597025926  0.485728358
     0.780655971  0.763675309  0.477752239
     0.827130125  0.516749383  0.475164179
     0.823030303  0.852645679  0.466620896
     0.867875223  0.599176543  0.462110448
     0.866024955  0.764574074  0.457567164
     0.912128342  0.513965432  0.457158209
     0.909843137  0.849724691  0.447307463
     0.955828877  0.600138272  0.449304478
     0.954417112  0.769290123  0.441871642

  ion indices of the primitive-cell ions
   primitive index   ion index
                 1           1
                 2           2
                 3           3
                 4           4
                 5           5
                 6           6
                 7           7
                 8           8
                 9           9
                10          10
                11          11
                12          12
                13          13
                14          14
                15          15
                16          16
                17          17
                18          18
                19          19
                20          20
                21          21
                22          22
                23          23
                24          24
                25          25
                26          26
                27          27
                28          28
                29          29
                30          30
                31          31
                32          32
                33          33
                34          34
                35          35
                36          36
                37          37
                38          38
                39          39
                40          40
                41          41
                42          42
                43          43
                44          44
                45          45
                46          46
                47          47
                48          48
                49          49
                50          50
                51          51
                52          52
                53          53
                54          54
                55          55
                56          56
                57          57
                58          58
                59          59
                60          60
                61          61
                62          62
                63          63
                64          64
                65          65
                66          66
                67          67
                68          68
                69          69
                70          70
                71          71
                72          72
                73          73
                74          74
                75          75
                76          76
                77          77
                78          78
                79          79
                80          80
                81          81
                82          82
                83          83
                84          84
                85          85
                86          86
                87          87
                88          88
                89          89
                90          90
                91          91
                92          92

----------------------------------------------------------------------------------------

 
 
 KPOINTS: K-Spacing Value to Generate K-Mesh: 0.03

Automatic generation of k-mesh.
 Grid dimensions read from file:
 generate k-points for:    1    4    1

 Generating k-lattice:

  Cartesian coordinates                     Fractional coordinates (reciprocal lattice)
     0.035650624  0.000000000  0.000000000     1.000000000  0.000000000  0.000000000
     0.000000000  0.030864198  0.000000000     0.000000000  0.250000000  0.000000000
     0.000000000  0.000000000  0.029850746     0.000000000  0.000000000  1.000000000

  Length of vectors
     0.035650624  0.030864198  0.029850746

  Shift w.r.t. Gamma in fractional coordinates (k-lattice)
     0.000000000  0.000000000  0.000000000

 
 Subroutine IBZKPT returns following result:
 ===========================================
 
 Found      3 irreducible k-points:
 
 Following reciprocal coordinates:
            Coordinates               Weight
  0.000000  0.000000  0.000000      1.000000
  0.000000  0.250000  0.000000      2.000000
  0.000000  0.500000  0.000000      1.000000
 
 Following cartesian coordinates:
            Coordinates               Weight
  0.000000  0.000000  0.000000      1.000000
  0.000000  0.030864  0.000000      2.000000
  0.000000  0.061728  0.000000      1.000000
 


--------------------------------------------------------------------------------------------------------




 Dimension of arrays:
   k-points           NKPTS =      3   k-points in BZ     NKDIM =      3   number of bands    NBANDS=    232
   number of dos      NEDOS =    301   number of ions     NIONS =     92
   non local maximal  LDIM  =      4   non local SUM 2l+1 LMDIM =      8
   total plane-waves  NPLWV = ******
   max r-space proj   IRMAX =   1967   max aug-charges    IRDMAX=   5083
   dimension x,y,z NGX =   210 NGY =   60 NGZ =  250
   dimension x,y,z NGXF=   420 NGYF=  120 NGZF=  500
   support grid    NGXF=   420 NGYF=  120 NGZF=  500
   ions per type =              92
   NGX,Y,Z   is equivalent  to a cutoff of  12.45, 12.31, 12.41 a.u.
   NGXF,Y,Z  is equivalent  to a cutoff of  24.89, 24.63, 24.81 a.u.

 SYSTEM =  unknown system                          
 POSCAR =   C                                      

 Startparameter for this run:
   NWRITE =      2    write-flag & timer
   PREC   = accura    normal or accurate (medium, high low for compatibility)
   ISTART =      0    job   : 0-new  1-cont  2-samecut
   ICHARG =      2    charge: 1-file 2-atom 10-const
   ISPIN  =      1    spin polarized calculation?
   LNONCOLLINEAR =      F non collinear calculations
   LSORBIT =      F    spin-orbit coupling
   INIWAV =      1    electr: 0-lowe 1-rand  2-diag
   LASPH  =      F    aspherical Exc in radial PAW
 Electronic Relaxation 1
   ENCUT  =  500.0 eV  36.75 Ry    6.06 a.u.  51.14 14.77 61.08*2*pi/ulx,y,z
   ENINI  =  500.0     initial cutoff
   ENAUG  =  644.9 eV  augmentation charge cutoff
   NELM   =    150;   NELMIN=  2; NELMDL= -5     # of ELM steps 
   EDIFF  = 0.1E-05   stopping-criterion for ELM
   LREAL  =      T    real-space projection
   NLSPLINE    = F    spline interpolate recip. space projectors
   LCOMPAT=      F    compatible to vasp.4.4
   GGA_COMPAT  = T    GGA compatible to vasp.4.4-vasp.4.6
   LMAXPAW     = -100 max onsite density
   LMAXMIX     =    2 max onsite mixed and CHGCAR
   VOSKOWN=      0    Vosko Wilk Nusair interpolation
   ROPT   =   -0.00025
 Ionic relaxation
   EDIFFG = 0.1E-04   stopping-criterion for IOM
   NSW    =      0    number of steps for IOM
   NBLOCK =      1;   KBLOCK =      1    inner block; outer block 
   IBRION =     -1    ionic relax: 0-MD 1-quasi-New 2-CG
   NFREE  =      0    steps in history (QN), initial steepest desc. (CG)
   ISIF   =      2    stress and relaxation
   IWAVPR =     10    prediction:  0-non 1-charg 2-wave 3-comb
   ISYM   =      2    0-nonsym 1-usesym 2-fastsym
   LCORR  =      T    Harris-Foulkes like correction to forces

   POTIM  = 0.5000    time-step for ionic-motion
   TEIN   =    0.0    initial temperature
   TEBEG  =    0.0;   TEEND  =   0.0 temperature during run
   SMASS  =  -3.00    Nose mass-parameter (am)
   estimated Nose-frequenzy (Omega)   =  0.10E-29 period in steps = 0.13E+47 mass=  -0.180E-25a.u.
   SCALEE = 1.0000    scale energy and forces
   NPACO  =    256;   APACO  = 10.0  distance and # of slots for P.C.
   PSTRESS=    0.0 pullay stress

  Mass of Ions in am
   POMASS =  12.01
  Ionic Valenz
   ZVAL   =   4.00
  Atomic Wigner-Seitz radii
   RWIGS  =  -1.00
  virtual crystal weights 
   VCA    =   1.00
   NELECT =     368.0000    total number of electrons
   NUPDOWN=      -1.0000    fix difference up-down

 DOS related values:
   EMIN   =  10.00;   EMAX   =-10.00  energy-range for DOS
   EFERMI =   0.00;   METHOD = LEGACY      
   ISMEAR =     0;   SIGMA  =   0.20  broadening in eV -4-tet -1-fermi 0-gaus
   EFERMI_NEDOS =   21; number of points for ismear=-14 and -15

 Electronic relaxation 2 (details)
   IALGO  =     38    algorithm
   LDIAG  =      T    sub-space diagonalisation (order eigenvalues)
   LSUBROT=      F    optimize rotation matrix (better conditioning)
   TURBO    =      0    0=normal 1=particle mesh
   IRESTART =      0    0=no restart 2=restart with 2 vectors
   NREBOOT  =      0    no. of reboots
   NMIN     =      0    reboot dimension
   EREF     =   0.00    reference energy to select bands
   IMIX   =      4    mixing-type and parameters
     AMIX     =   0.40;   BMIX     =  1.00
     AMIX_MAG =   1.60;   BMIX_MAG =  1.00
     AMIN     =   0.10
     WC   =   100.;   INIMIX=   1;  MIXPRE=   1;  MAXMIX= -45

 Intra band minimization:
   WEIMIN = 0.0000     energy-eigenvalue tresh-hold
   EBREAK =  0.11E-08  absolut break condition
   DEPER  =   0.30     relativ break condition  

   TIME   =   0.40     timestep for ELM

  volume/ion in A,a.u.               =      82.73       558.30
  Fermi-wavevector in a.u.,A,eV,Ry     =   0.596398  1.127030  4.839472  0.355691
  Thomas-Fermi vector in A             =   1.646729
 
 Write flags
   LWAVE        =      F    write WAVECAR
   LDOWNSAMPLE  =      F    k-point downsampling of WAVECAR
   LCHARG       =      F    write CHGCAR
   LVTOT        =      F    write LOCPOT, total local potential
   LVHAR        =      F    write LOCPOT, Hartree potential only
   WRT_POTENTIAL= false  ! write potential to hdf5 file
   LELF         =      F    write electronic localiz. function (ELF)
   LORBIT       =      0    0 simple, 1 ext, 2 COOP (PROOUT), +10 PAW based schemes


 Python interface
   PLUGINS active      =      F    recompile with -DPLUGINS to activate
 
 Dipole corrections
   LMONO      =      F    monopole corrections only (constant potential shift)
   LDIPOL     =      F    correct potential (dipole corrections)
   IDIPOL     =      0    1-x, 2-y, 3-z, 4-all directions 
   EPSILON    =  1.0000000 bulk dielectric constant
   LVACPOTAV  =      F  vacuum potentials using an averaging scheme for the charge density
   VACPOTFLAT =  0.1000000 required flatness to determine vacuum potential
 
Coulomb truncation method
  LTRUNCATE          =      F  Coulomb kernel truncation to be used
  IDIMENSIONALITY    =      3  Dimensionality of cutoff (0 molecules / 2 surfaces)
  ISURFACE           =     -1  Direction of surface normal
  LCOARSEN           =      F  Coarsen the charge grid before padding, preferred

 
 Exchange correlation treatment:
   GGA     = PE    functional components
   XC_C    = 1    coefficients multiplying the functional components
   LIBXC   =     F    Libxc                    
   VOSKOWN =     0    Vosko Wilk Nusair interpolation
   LHFCALC =     F    Hartree Fock is set to
   LHFONE  =     F    Hartree Fock one center treatment
   AEXX    =    0.0000 exact exchange contribution

 Parameters of functionals:
   PE:
     No parameter
 
 Van der Waals corrections
   IVDW    =     0    specifies the selected vdW correction

 Linear response parameters
   LEPSILON=     F    determine dielectric tensor
   LRPA    =     F    only Hartree local field effects (RPA)
   LNABLA  =     F    use nabla operator in PAW spheres
   LVEL    =     F    velocity operator in full k-point grid
   CSHIFT  =0.1000    complex shift for real part using Kramers Kronig
   OMEGAMAX=  -1.0    maximum frequency
   DEG_THRESHOLD= 0.2000000E-02 threshold for treating states as degnerate
   RTIME   =   -0.100 relaxation time in fs
  (WPLASMAI=    0.000 imaginary part of plasma frequency in eV, 0.658/RTIME)
   DFIELD  = 0.0000000 0.0000000 0.0000000 field for delta impulse in time
 
  Optional k-point grid parameters
   LKPOINTS_OPT  =     F    use optional k-point grid
   KPOINTS_OPT_MODE=     1    mode for optional k-point grid
 
 Orbital magnetization related:
   ORBITALMAG=     F  switch on orbital magnetization
   LCHIMAG   =     F  perturbation theory with respect to B field
   DQ        =  0.001000  dq finite difference perturbation B field
   LLRAUG    =     F  two centre corrections for induced B field
   LBONE     =     F  B-component reconstruction in AE one-centre
   LVGVCALC  =     T  calculate vGv susceptibility
   LVGVAPPL  =     F  apply vGv susceptibility instead of pGv for G=0

 Random number generation:
   RANDOM_GENERATOR = DEFAULT
   PCG_SEED         = not used


--------------------------------------------------------------------------------------------------------


 Static calculation
 charge density and potential will be updated during run
 non-spin polarized calculation
 Variant of blocked Davidson
 Davidson routine will perform the subspace rotation
 perform sub-space diagonalisation
    after iterative eigenvector-optimisation
 modified Broyden-mixing scheme, WC =      100.0
 initial mixing is a Kerker type mixing with AMIX =  0.4000 and BMIX =      1.0000
 Hartree-type preconditioning will be used
 using additional bands            48
 real space projection scheme for non local part
 use partial core corrections
 calculate Harris-corrections to forces 
   (improved forces if not selfconsistent)
 use gradient corrections 
 use of overlap-Matrix (Vanderbilt PP)
 Gauss-broadening in eV      SIGMA  =   0.20


--------------------------------------------------------------------------------------------------------


  energy-cutoff  :      500.00
  volume of cell :     7611.37
      direct lattice vectors                 reciprocal lattice vectors
    28.050000000  0.000000000  0.000000000     0.035650624  0.000000000  0.000000000
     0.000000000  8.100000000  0.000000000     0.000000000  0.123456790  0.000000000
     0.000000000  0.000000000 33.500000000     0.000000000  0.000000000  0.029850746

  length of vectors
    28.050000000  8.100000000 33.500000000     0.035650624  0.123456790  0.029850746


 
 k-points in units of 2pi/SCALE and weight: K-Spacing Value to Generate K-Mesh: 0.03
   0.00000000  0.00000000  0.00000000       0.250
   0.00000000  0.03086420  0.00000000       0.500
   0.00000000  0.06172840  0.00000000       0.250
 
 k-points in reciprocal lattice and weights: K-Spacing Value to Generate K-Mesh: 0.03
   0.00000000  0.00000000  0.00000000       0.250
   0.00000000  0.25000000  0.00000000       0.500
   0.00000000  0.50000000  0.00000000       0.250
 
 position of ions in fractional coordinates (direct lattice) 
   0.00810724  0.10755407  0.44766269
   0.00714998  0.27923704  0.44976716
   0.05101711  0.02481593  0.45484179
   0.05000107  0.35546543  0.46136119
   0.09357932  0.10892198  0.46404776
   0.09388627  0.27640864  0.46690149
   0.13758467  0.02734802  0.47045373
   0.13619144  0.35875062  0.47866269
   0.18142709  0.10829506  0.48067463
   0.18121390  0.28028765  0.48597015
   0.22326417  0.02936605  0.49107164
   0.22101248  0.35710247  0.50191045
   0.26598111  0.10320469  0.50282985
   0.26503743  0.26824198  0.50931940
   0.31107736  0.01967148  0.51051642
   0.30690588  0.35225185  0.52318507
   0.35236684  0.09817198  0.52608657
   0.34922282  0.26886049  0.53259104
   0.39504100  0.02590704  0.53064776
   0.39220677  0.35551728  0.54149254
   0.43760428  0.11051370  0.53744776
   0.43738324  0.27722469  0.54254328
   0.48297326  0.02110630  0.54610746
   0.48355437  0.34940988  0.55020000
   0.52758289  0.10299025  0.54532537
   0.52773262  0.27538148  0.54743284
   0.57215686  0.02326259  0.54414627
   0.57305882  0.35526914  0.54710746
   0.61719786  0.10360531  0.53535522
   0.61713725  0.27624444  0.53950149
   0.65987879  0.02292914  0.52734328
   0.66157932  0.35500123  0.53052836
   0.70307665  0.10483790  0.51815522
   0.70245633  0.27233457  0.51880597
   0.74108734  0.01679099  0.49791642
   0.74457041  0.35223086  0.50367761
   0.78310873  0.09660111  0.48440597
   0.78254902  0.26389753  0.48524179
   0.82467380  0.01651198  0.46853731
   0.82432799  0.35132469  0.46959403
   0.86865597  0.09795000  0.45878806
   0.86715152  0.26345679  0.46142687
   0.90909804  0.01578864  0.44688955
   0.91147594  0.34918148  0.45644179
   0.95489483  0.09629506  0.44582985
   0.95429947  0.27198148  0.44655224
   0.00788000  0.60158272  0.45222687
   0.00875629  0.77176049  0.44292239
   0.04968200  0.52343951  0.46438806
   0.05284456  0.85114568  0.45217612
   0.09441676  0.61014938  0.46722090
   0.09491943  0.77618395  0.46015522
   0.13551800  0.52818025  0.48097612
   0.13767522  0.86162963  0.46920299
   0.17920963  0.61174321  0.49042388
   0.18090766  0.77976049  0.48131343
   0.21932799  0.52773827  0.50425672
   0.22206881  0.86350000  0.49508060
   0.26049626  0.61134691  0.51753134
   0.26274082  0.77689136  0.51288955
   0.30542995  0.51921852  0.52884478
   0.30905419  0.85219506  0.51566567
   0.35064207  0.60312346  0.53530746
   0.35097041  0.76573210  0.52737313
   0.39442424  0.52680988  0.54300896
   0.39485561  0.85584444  0.53391045
   0.43918004  0.60322593  0.54562985
   0.43840642  0.77366049  0.54226866
   0.48269519  0.52344691  0.55288657
   0.48418895  0.85420123  0.54739403
   0.52928699  0.60694321  0.55331642
   0.52914795  0.77412222  0.54873134
   0.57320856  0.52783457  0.54774328
   0.57382888  0.85141605  0.54649552
   0.61772193  0.61106049  0.53762687
   0.61757932  0.77414198  0.53623284
   0.66069875  0.52336790  0.52718507
   0.65973975  0.85628889  0.52429254
   0.70127629  0.60728519  0.51255224
   0.69789661  0.77685309  0.50538806
   0.74129412  0.51459630  0.50130746
   0.73840285  0.85063827  0.48949254
   0.78322282  0.59702593  0.48572836
   0.78065597  0.76367531  0.47775224
   0.82713012  0.51674938  0.47516418
   0.82303030  0.85264568  0.46662090
   0.86787522  0.59917654  0.46211045
   0.86602496  0.76457407  0.45756716
   0.91212834  0.51396543  0.45715821
   0.90984314  0.84972469  0.44730746
   0.95582888  0.60013827  0.44930448
   0.95441711  0.76929012  0.44187164
 
 position of ions in cartesian coordinates  (Angst):
   0.22740800  0.87118800 14.99670000
   0.20055700  2.26182000 15.06720000
   1.43103000  0.20100900 15.23720000
   1.40253000  2.87927000 15.45560000
   2.62490000  0.88226800 15.54560000
   2.63351000  2.23891000 15.64120000
   3.85925000  0.22151900 15.76020000
   3.82017000  2.90588000 16.03520000
   5.08903000  0.87719000 16.10260000
   5.08305000  2.27033000 16.28000000
   6.26256000  0.23786500 16.45090000
   6.19940000  2.89253000 16.81400000
   7.46077000  0.83595800 16.84480000
   7.43430000  2.17276000 17.06220000
   8.72572000  0.15933900 17.10230000
   8.60871000  2.85324000 17.52670000
   9.88389000  0.79519300 17.62390000
   9.79570000  2.17777000 17.84180000
  11.08090000  0.20984700 17.77670000
  11.00140000  2.87969000 18.14000000
  12.27480000  0.89516100 18.00450000
  12.26860000  2.24552000 18.17520000
  13.54740000  0.17096100 18.29460000
  13.56370000  2.83022000 18.43170000
  14.79870000  0.83422100 18.26840000
  14.80290000  2.23059000 18.33900000
  16.04900000  0.18842700 18.22890000
  16.07430000  2.87768000 18.32810000
  17.31240000  0.83920300 17.93440000
  17.31070000  2.23758000 18.07330000
  18.50960000  0.18572600 17.66600000
  18.55730000  2.87551000 17.77270000
  19.72130000  0.84918700 17.35820000
  19.70390000  2.20591000 17.38000000
  20.78750000  0.13600700 16.68020000
  20.88520000  2.85307000 16.87320000
  21.96620000  0.78246900 16.22760000
  21.95050000  2.13757000 16.25560000
  23.13210000  0.13374700 15.69600000
  23.12240000  2.84573000 15.73140000
  24.36580000  0.79339500 15.36940000
  24.32360000  2.13400000 15.45780000
  25.50020000  0.12788800 14.97080000
  25.56690000  2.82837000 15.29080000
  26.78480000  0.77999000 14.93530000
  26.76810000  2.20305000 14.95950000
   0.22103400  4.87282000 15.14960000
   0.24561400  6.25126000 14.83790000
   1.39358000  4.23986000 15.55700000
   1.48229000  6.89428000 15.14790000
   2.64839000  4.94221000 15.65190000
   2.66249000  6.28709000 15.41520000
   3.80128000  4.27826000 16.11270000
   3.86179000  6.97920000 15.71830000
   5.02683000  4.95512000 16.42920000
   5.07446000  6.31606000 16.12400000
   6.15215000  4.27468000 16.89260000
   6.22903000  6.99435000 16.58520000
   7.30692000  4.95191000 17.33730000
   7.36988000  6.29282000 17.18180000
   8.56731000  4.20567000 17.71630000
   8.66897000  6.90278000 17.27480000
   9.83551000  4.88530000 17.93280000
   9.84472000  6.20243000 17.66700000
  11.06360000  4.26716000 18.19080000
  11.07570000  6.93234000 17.88600000
  12.31900000  4.88613000 18.27860000
  12.29730000  6.26665000 18.16600000
  13.53960000  4.23992000 18.52170000
  13.58150000  6.91903000 18.33770000
  14.84650000  4.91624000 18.53610000
  14.84260000  6.27039000 18.38250000
  16.07850000  4.27546000 18.34940000
  16.09590000  6.89647000 18.30760000
  17.32710000  4.94959000 18.01050000
  17.32310000  6.27055000 17.96380000
  18.53260000  4.23928000 17.66070000
  18.50570000  6.93594000 17.56380000
  19.67080000  4.91901000 17.17050000
  19.57600000  6.29251000 16.93050000
  20.79330000  4.16823000 16.79380000
  20.71220000  6.89017000 16.39800000
  21.96940000  4.83591000 16.27190000
  21.89740000  6.18577000 16.00470000
  23.20100000  4.18567000 15.91800000
  23.08600000  6.90643000 15.63180000
  24.34390000  4.85333000 15.48070000
  24.29200000  6.19305000 15.32850000
  25.58520000  4.16312000 15.31480000
  25.52110000  6.88277000 14.98480000
  26.81100000  4.86112000 15.05170000
  26.77140000  6.23125000 14.80270000
 


--------------------------------------------------------------------------------------------------------


 k-point     1 :   0.0000 0.0000 0.0000  plane waves:  193173
 k-point     2 :   0.0000 0.2500 0.0000  plane waves:  193166
 k-point     3 :   0.0000 0.5000 0.0000  plane waves:  193226

 maximum and minimum number of plane-waves per node :    193226   193166

 maximum number of plane-waves:    193226
 maximum index in each direction: 
   IXMAX=   51   IYMAX=   14   IZMAX=   61
   IXMIN=  -51   IYMIN=  -15   IZMIN=  -61


 serial   3D FFT for wavefunctions
 parallel 3D FFT for charge:
    minimum data exchange during FFTs selected (reduces bandwidth)


 total amount of memory used by VASP MPI-rank0  2294501. kBytes
=======================================================================

   base                                    :      30000. kBytes
   nonlr-proj                              :      15067. kBytes
   fftplans                                :     436558. kBytes
   grid                                    :     732614. kBytes
   one-center                              :        282. kBytes
   wavefun                                 :    1079980. kBytes
 
     INWAV:  cpu time      0.0000: real time      0.0000
 Broyden mixing: mesh for mixing (old mesh)
   NGX =103   NGY = 29   NGZ =123
  (NGX  =420   NGY  =120   NGZ  =500)
  gives a total of 367401 points

 initial charge density was supplied:
 charge density of overlapping atoms calculated
 number of electron     368.0000000 magnetization 
 keeping initial charge density in first step


--------------------------------------------------------------------------------------------------------


 Maximum index for non-local projection operator          1871
 Maximum index for augmentation-charges          2382 (set IRDMAX)


--------------------------------------------------------------------------------------------------------


 First call to EWALD:  gamma=   0.090
 Maximum number of real-space cells   2x   6x   2
 Maximum number of reciprocal cells   4x   1x   4

    FEWALD:  cpu time      0.1600: real time      0.1601


--------------------------------------- Ionic step        1  -------------------------------------------




--------------------------------------- Iteration      1(   1)  ---------------------------------------


    POTLOK:  cpu time      0.4244: real time      0.4398
    SETDIJ:  cpu time      0.0399: real time      0.0399
     EDDAV:  cpu time     10.9840: real time     10.9879
       DOS:  cpu time      0.0008: real time      0.0008
    --------------------------------------------
      LOOP:  cpu time     11.4491: real time     11.4684

 eigenvalue-minimisations  :  1696
 total energy-change (2. order) : 0.3740611E+04  (-0.1184738E+05)
 number of electron     368.0000000 magnetization 
 augmentation part      368.0000000 magnetization 

 Free energy of the ion-electron system (eV)
  ---------------------------------------------------
  alpha Z        PSCENC =        91.34886789
  Ewald energy   TEWEN  =    119132.69944499
  -Hartree energ DENC   =   -128468.55415617
  -exchange      EXHF   =         0.00000000
  -V(xc)+E(xc)   XCENC  =      1220.80823532
  PAW double counting   =      9984.02826696   -10036.41360137
  entropy T*S    EENTRO =        -0.82980778
  eigenvalues    EBANDS =     -1720.13058446
  atomic energy  EATOM  =     13537.65479391
  Solvation  Ediel_sol  =         0.00000000
  ---------------------------------------------------
  free energy    TOTEN  =      3740.61145929 eV

  energy without entropy =     3741.44126707  energy(sigma->0) =     3741.02636318


--------------------------------------------------------------------------------------------------------




--------------------------------------- Iteration      1(   2)  ---------------------------------------


     EDDAV:  cpu time     13.1363: real time     13.1410
       DOS:  cpu time      0.0007: real time      0.0007
    --------------------------------------------
      LOOP:  cpu time     13.1369: real time     13.1417

 eigenvalue-minimisations  :  2144
 total energy-change (2. order) :-0.3550173E+04  (-0.3293024E+04)
 number of electron     368.0000000 magnetization 
 augmentation part      368.0000000 magnetization 

 Free energy of the ion-electron system (eV)
  ---------------------------------------------------
  alpha Z        PSCENC =        91.34886789
  Ewald energy   TEWEN  =    119132.69944499
  -Hartree energ DENC   =   -128468.55415617
  -exchange      EXHF   =         0.00000000
  -V(xc)+E(xc)   XCENC  =      1220.80823532
  PAW double counting   =      9984.02826696   -10036.41360137
  entropy T*S    EENTRO =        -0.18332511
  eigenvalues    EBANDS =     -5270.94991217
  atomic energy  EATOM  =     13537.65479391
  Solvation  Ediel_sol  =         0.00000000
  ---------------------------------------------------
  free energy    TOTEN  =       190.43861425 eV

  energy without entropy =      190.62193936  energy(sigma->0) =      190.53027680


--------------------------------------------------------------------------------------------------------




--------------------------------------- Iteration      1(   3)  ---------------------------------------


     EDDAV:  cpu time     11.2736: real time     11.2800
       DOS:  cpu time      0.0007: real time      0.0007
    --------------------------------------------
      LOOP:  cpu time     11.2743: real time     11.2807

 eigenvalue-minimisations  :  1784
 total energy-change (2. order) :-0.1023067E+04  (-0.9998238E+03)
 number of electron     368.0000000 magnetization 
 augmentation part      368.0000000 magnetization 

 Free energy of the ion-electron system (eV)
  ---------------------------------------------------
  alpha Z        PSCENC =        91.34886789
  Ewald energy   TEWEN  =    119132.69944499
  -Hartree energ DENC   =   -128468.55415617
  -exchange      EXHF   =         0.00000000
  -V(xc)+E(xc)   XCENC  =      1220.80823532
  PAW double counting   =      9984.02826696   -10036.41360137
  entropy T*S    EENTRO =        -0.06582560
  eigenvalues    EBANDS =     -6294.13411725
  atomic energy  EATOM  =     13537.65479391
  Solvation  Ediel_sol  =         0.00000000
  ---------------------------------------------------
  free energy    TOTEN  =      -832.62809132 eV

  energy without entropy =     -832.56226572  energy(sigma->0) =     -832.59517852


--------------------------------------------------------------------------------------------------------




--------------------------------------- Iteration      1(   4)  ---------------------------------------


     EDDAV:  cpu time     10.8736: real time     10.8780
       DOS:  cpu time      0.0007: real time      0.0007
    --------------------------------------------
      LOOP:  cpu time     10.8743: real time     10.8786

 eigenvalue-minimisations  :  1704
 total energy-change (2. order) :-0.6255953E+02  (-0.6149488E+02)
 number of electron     368.0000000 magnetization 
 augmentation part      368.0000000 magnetization 

 Free energy of the ion-electron system (eV)
  ---------------------------------------------------
  alpha Z        PSCENC =        91.34886789
  Ewald energy   TEWEN  =    119132.69944499
  -Hartree energ DENC   =   -128468.55415617
  -exchange      EXHF   =         0.00000000
  -V(xc)+E(xc)   XCENC  =      1220.80823532
  PAW double counting   =      9984.02826696   -10036.41360137
  entropy T*S    EENTRO =        -0.07747897
  eigenvalues    EBANDS =     -6356.68199199
  atomic energy  EATOM  =     13537.65479391
  Solvation  Ediel_sol  =         0.00000000
  ---------------------------------------------------
  free energy    TOTEN  =      -895.18761943 eV

  energy without entropy =     -895.11014046  energy(sigma->0) =     -895.14887995


--------------------------------------------------------------------------------------------------------




--------------------------------------- Iteration      1(   5)  ---------------------------------------


     EDDAV:  cpu time     11.0922: real time     11.0991
       DOS:  cpu time      0.0007: real time      0.0007
    CHARGE:  cpu time      1.2045: real time      1.2048
    MIXING:  cpu time      0.2745: real time      0.2770
    --------------------------------------------
      LOOP:  cpu time     12.5718: real time     12.5815

 eigenvalue-minimisations  :  1752
 total energy-change (2. order) :-0.1598734E+01  (-0.1571586E+01)
 number of electron     368.0000001 magnetization 
 augmentation part       10.1247163 magnetization 

 Broyden mixing:
  rms(total) = 0.45409E+01    rms(broyden)= 0.45403E+01
  rms(prec ) = 0.46582E+01
  weight for this iteration     100.00

 Free energy of the ion-electron system (eV)
  ---------------------------------------------------
  alpha Z        PSCENC =        91.34886789
  Ewald energy   TEWEN  =    119132.69944499
  -Hartree energ DENC   =   -128468.55415617
  -exchange      EXHF   =         0.00000000
  -V(xc)+E(xc)   XCENC  =      1220.80823532
  PAW double counting   =      9984.02826696   -10036.41360137
  entropy T*S    EENTRO =        -0.07724336
  eigenvalues    EBANDS =     -6358.28096118
  atomic energy  EATOM  =     13537.65479391
  Solvation  Ediel_sol  =         0.00000000
  ---------------------------------------------------
  free energy    TOTEN  =      -896.78635301 eV

  energy without entropy =     -896.70910965  energy(sigma->0) =     -896.74773133


--------------------------------------------------------------------------------------------------------




--------------------------------------- Iteration      1(   6)  ---------------------------------------


    POTLOK:  cpu time      0.3201: real time      0.3201
    SETDIJ:  cpu time      0.0405: real time      0.0406
     EDDAV:  cpu time     10.2273: real time     10.2310
       DOS:  cpu time      0.0007: real time      0.0007
    CHARGE:  cpu time      1.1546: real time      1.1568
    MIXING:  cpu time      0.2765: real time      0.2779
    --------------------------------------------
      LOOP:  cpu time     12.0197: real time     12.0271

 eigenvalue-minimisations  :  1576
 total energy-change (2. order) : 0.4940160E+02  (-0.4734895E+01)
 number of electron     368.0000001 magnetization 
 augmentation part        9.7058249 magnetization 

 Broyden mixing:
  rms(total) = 0.26672E+01    rms(broyden)= 0.26672E+01
  rms(prec ) = 0.27252E+01
  weight for this iteration     100.00

 eigenvalues of (default mixing * dielectric matrix)
  average eigenvalue GAMMA=   2.1762
  2.1762

 Free energy of the ion-electron system (eV)
  ---------------------------------------------------
  alpha Z        PSCENC =        91.34886789
  Ewald energy   TEWEN  =    119132.69944499
  -Hartree energ DENC   =   -129037.01433164
  -exchange      EXHF   =         0.00000000
  -V(xc)+E(xc)   XCENC  =      1244.05560710
  PAW double counting   =     18897.65047641   -18957.60940248
  entropy T*S    EENTRO =        -0.06588109
  eigenvalues    EBANDS =     -5756.10432496
  atomic energy  EATOM  =     13537.65479391
  Solvation  Ediel_sol  =         0.00000000
  ---------------------------------------------------
  free energy    TOTEN  =      -847.38474987 eV

  energy without entropy =     -847.31886878  energy(sigma->0) =     -847.35180933


--------------------------------------------------------------------------------------------------------




--------------------------------------- Iteration      1(   7)  ---------------------------------------


    POTLOK:  cpu time      0.3222: real time      0.3220
    SETDIJ:  cpu time      0.0402: real time      0.0403
     EDDAV:  cpu time     10.1426: real time     10.1464
       DOS:  cpu time      0.0007: real time      0.0007
    CHARGE:  cpu time      1.1523: real time      1.1540
    MIXING:  cpu time      0.2786: real time      0.2787
    --------------------------------------------
      LOOP:  cpu time     11.9366: real time     11.9422

 eigenvalue-minimisations  :  1560
 total energy-change (2. order) : 0.1836295E+02  (-0.6454841E+01)
 number of electron     368.0000002 magnetization 
 augmentation part        9.1579739 magnetization 

 Broyden mixing:
  rms(total) = 0.73220E+00    rms(broyden)= 0.73193E+00
  rms(prec ) = 0.74189E+00
  weight for this iteration     100.00

 eigenvalues of (default mixing * dielectric matrix)
  average eigenvalue GAMMA=   2.1082
  2.1082  2.1082

 Free energy of the ion-electron system (eV)
  ---------------------------------------------------
  alpha Z        PSCENC =        91.34886789
  Ewald energy   TEWEN  =    119132.69944499
  -Hartree energ DENC   =   -129794.69526579
  -exchange      EXHF   =         0.00000000
  -V(xc)+E(xc)   XCENC  =      1274.91117027
  PAW double counting   =     36347.79453571   -36414.59938499
  entropy T*S    EENTRO =        -0.06511460
  eigenvalues    EBANDS =     -5004.07084676
  atomic energy  EATOM  =     13537.65479391
  Solvation  Ediel_sol  =         0.00000000
  ---------------------------------------------------
  free energy    TOTEN  =      -829.02179936 eV

  energy without entropy =     -828.95668476  energy(sigma->0) =     -828.98924206


--------------------------------------------------------------------------------------------------------




--------------------------------------- Iteration      1(   8)  ---------------------------------------


    POTLOK:  cpu time      0.3212: real time      0.3213
    SETDIJ:  cpu time      0.0402: real time      0.0402
     EDDAV:  cpu time     10.3082: real time     10.3125
       DOS:  cpu time      0.0007: real time      0.0007
    CHARGE:  cpu time      1.1560: real time      1.1574
    MIXING:  cpu time      0.2802: real time      0.2821
    --------------------------------------------
      LOOP:  cpu time     12.1065: real time     12.1143

 eigenvalue-minimisations  :  1592
 total energy-change (2. order) : 0.2708749E+00  (-0.2272513E+00)
 number of electron     368.0000001 magnetization 
 augmentation part        9.1334794 magnetization 

 Broyden mixing:
  rms(total) = 0.12798E+00    rms(broyden)= 0.12795E+00
  rms(prec ) = 0.14677E+00
  weight for this iteration     100.00

 eigenvalues of (default mixing * dielectric matrix)
  average eigenvalue GAMMA=   1.8169
  1.0604  2.0016  2.3887

 Free energy of the ion-electron system (eV)
  ---------------------------------------------------
  alpha Z        PSCENC =        91.34886789
  Ewald energy   TEWEN  =    119132.69944499
  -Hartree energ DENC   =   -129886.18210678
  -exchange      EXHF   =         0.00000000
  -V(xc)+E(xc)   XCENC  =      1274.97503746
  PAW double counting   =     40330.72308599   -40395.18546324
  entropy T*S    EENTRO =        -0.06481146
  eigenvalues    EBANDS =     -4914.71977321
  atomic energy  EATOM  =     13537.65479391
  Solvation  Ediel_sol  =         0.00000000
  ---------------------------------------------------
  free energy    TOTEN  =      -828.75092446 eV

  energy without entropy =     -828.68611300  energy(sigma->0) =     -828.71851873


--------------------------------------------------------------------------------------------------------




--------------------------------------- Iteration      1(   9)  ---------------------------------------


    POTLOK:  cpu time      0.3213: real time      0.3214
    SETDIJ:  cpu time      0.0403: real time      0.0403
     EDDAV:  cpu time     10.7954: real time     10.7991
       DOS:  cpu time      0.0007: real time      0.0007
    CHARGE:  cpu time      1.1563: real time      1.1566
    MIXING:  cpu time      0.2858: real time      0.2864
    --------------------------------------------
      LOOP:  cpu time     12.5999: real time     12.6045

 eigenvalue-minimisations  :  1688
 total energy-change (2. order) : 0.1145777E+00  (-0.2025889E-01)
 number of electron     368.0000002 magnetization 
 augmentation part        9.1155124 magnetization 

 Broyden mixing:
  rms(total) = 0.57978E-01    rms(broyden)= 0.57972E-01
  rms(prec ) = 0.80071E-01
  weight for this iteration     100.00

 eigenvalues of (default mixing * dielectric matrix)
  average eigenvalue GAMMA=   1.6587
  2.2000  2.2000  0.9902  1.2444

 Free energy of the ion-electron system (eV)
  ---------------------------------------------------
  alpha Z        PSCENC =        91.34886789
  Ewald energy   TEWEN  =    119132.69944499
  -Hartree energ DENC   =   -129954.72265789
  -exchange      EXHF   =         0.00000000
  -V(xc)+E(xc)   XCENC  =      1276.11637402
  PAW double counting   =     41145.37426396   -41209.60711619
  entropy T*S    EENTRO =        -0.06480262
  eigenvalues    EBANDS =     -4847.43551485
  atomic energy  EATOM  =     13537.65479391
  Solvation  Ediel_sol  =         0.00000000
  ---------------------------------------------------
  free energy    TOTEN  =      -828.63634677 eV

  energy without entropy =     -828.57154415  energy(sigma->0) =     -828.60394546


--------------------------------------------------------------------------------------------------------




--------------------------------------- Iteration      1(  10)  ---------------------------------------


    POTLOK:  cpu time      0.3217: real time      0.3217
    SETDIJ:  cpu time      0.0405: real time      0.0405
     EDDAV:  cpu time     10.9362: real time     10.9399
       DOS:  cpu time      0.0007: real time      0.0007
    CHARGE:  cpu time      1.1550: real time      1.1559
    MIXING:  cpu time      0.2907: real time      0.2922
    --------------------------------------------
      LOOP:  cpu time     12.7448: real time     12.7510

 eigenvalue-minimisations  :  1720
 total energy-change (2. order) : 0.4002892E-01  (-0.3374360E-02)
 number of electron     368.0000002 magnetization 
 augmentation part        9.1071704 magnetization 

 Broyden mixing:
  rms(total) = 0.38682E-01    rms(broyden)= 0.38680E-01
  rms(prec ) = 0.59069E-01
  weight for this iteration     100.00

 eigenvalues of (default mixing * dielectric matrix)
  average eigenvalue GAMMA=   1.6631
  2.3571  2.3571  1.5748  1.1194  0.9069

 Free energy of the ion-electron system (eV)
  ---------------------------------------------------
  alpha Z        PSCENC =        91.34886789
  Ewald energy   TEWEN  =    119132.69944499
  -Hartree energ DENC   =   -130000.07645448
  -exchange      EXHF   =         0.00000000
  -V(xc)+E(xc)   XCENC  =      1276.50176826
  PAW double counting   =     40993.12189393   -41057.26249581
  entropy T*S    EENTRO =        -0.06476215
  eigenvalues    EBANDS =     -4802.51937438
  atomic energy  EATOM  =     13537.65479391
  Solvation  Ediel_sol  =         0.00000000
  ---------------------------------------------------
  free energy    TOTEN  =      -828.59631785 eV

  energy without entropy =     -828.53155570  energy(sigma->0) =     -828.56393678


--------------------------------------------------------------------------------------------------------




--------------------------------------- Iteration      1(  11)  ---------------------------------------


    POTLOK:  cpu time      0.3217: real time      0.3217
    SETDIJ:  cpu time      0.0404: real time      0.0403
     EDDAV:  cpu time     10.1417: real time     10.1454
       DOS:  cpu time      0.0007: real time      0.0007
    CHARGE:  cpu time      1.1627: real time      1.1630
    MIXING:  cpu time      0.2993: real time      0.3006
    --------------------------------------------
      LOOP:  cpu time     11.9665: real time     11.9718

 eigenvalue-minimisations  :  1560
 total energy-change (2. order) : 0.3475044E-01  (-0.2170158E-02)
 number of electron     368.0000002 magnetization 
 augmentation part        9.1022235 magnetization 

 Broyden mixing:
  rms(total) = 0.24114E-01    rms(broyden)= 0.24112E-01
  rms(prec ) = 0.39552E-01
  weight for this iteration     100.00

 eigenvalues of (default mixing * dielectric matrix)
  average eigenvalue GAMMA=   1.7730
  3.0283  2.5243  1.9171  0.9483  1.1099  1.1099

 Free energy of the ion-electron system (eV)
  ---------------------------------------------------
  alpha Z        PSCENC =        91.34886789
  Ewald energy   TEWEN  =    119132.69944499
  -Hartree energ DENC   =   -130063.81177020
  -exchange      EXHF   =         0.00000000
  -V(xc)+E(xc)   XCENC  =      1277.07652457
  PAW double counting   =     40933.30641225   -40997.34313590
  entropy T*S    EENTRO =        -0.06478983
  eigenvalues    EBANDS =     -4739.42791510
  atomic energy  EATOM  =     13537.65479391
  Solvation  Ediel_sol  =         0.00000000
  ---------------------------------------------------
  free energy    TOTEN  =      -828.56156741 eV

  energy without entropy =     -828.49677758  energy(sigma->0) =     -828.52917250


--------------------------------------------------------------------------------------------------------




--------------------------------------- Iteration      1(  12)  ---------------------------------------


    POTLOK:  cpu time      0.3214: real time      0.3213
    SETDIJ:  cpu time      0.0408: real time      0.0409
     EDDAV:  cpu time     10.2228: real time     10.2266
       DOS:  cpu time      0.0007: real time      0.0007
    CHARGE:  cpu time      1.1524: real time      1.1542
    MIXING:  cpu time      0.3070: real time      0.3075
    --------------------------------------------
      LOOP:  cpu time     12.0451: real time     12.0512

 eigenvalue-minimisations  :  1576
 total energy-change (2. order) : 0.7408327E-02  (-0.2708755E-02)
 number of electron     368.0000002 magnetization 
 augmentation part        9.0951051 magnetization 

 Broyden mixing:
  rms(total) = 0.15085E-01    rms(broyden)= 0.15081E-01
  rms(prec ) = 0.23313E-01
  weight for this iteration     100.00

 eigenvalues of (default mixing * dielectric matrix)
  average eigenvalue GAMMA=   2.0222
  4.7015  2.2504  2.2504  1.8919  0.9794  1.0409  1.0409

 Free energy of the ion-electron system (eV)
  ---------------------------------------------------
  alpha Z        PSCENC =        91.34886789
  Ewald energy   TEWEN  =    119132.69944499
  -Hartree energ DENC   =   -130137.55715677
  -exchange      EXHF   =         0.00000000
  -V(xc)+E(xc)   XCENC  =      1277.74928864
  PAW double counting   =     40935.39993056   -40999.39523817
  entropy T*S    EENTRO =        -0.06483408
  eigenvalues    EBANDS =     -4666.38925604
  atomic energy  EATOM  =     13537.65479391
  Solvation  Ediel_sol  =         0.00000000
  ---------------------------------------------------
  free energy    TOTEN  =      -828.55415908 eV

  energy without entropy =     -828.48932500  energy(sigma->0) =     -828.52174204


--------------------------------------------------------------------------------------------------------




--------------------------------------- Iteration      1(  13)  ---------------------------------------


    POTLOK:  cpu time      0.3220: real time      0.3219
    SETDIJ:  cpu time      0.0403: real time      0.0403
     EDDAV:  cpu time     10.0835: real time     10.0874
       DOS:  cpu time      0.0007: real time      0.0007
    CHARGE:  cpu time      1.1527: real time      1.1546
    MIXING:  cpu time      0.3143: real time      0.3144
    --------------------------------------------
      LOOP:  cpu time     11.9135: real time     11.9195

 eigenvalue-minimisations  :  1552
 total energy-change (2. order) :-0.1084510E-01  (-0.8630011E-03)
 number of electron     368.0000002 magnetization 
 augmentation part        9.0918899 magnetization 

 Broyden mixing:
  rms(total) = 0.83058E-02    rms(broyden)= 0.83035E-02
  rms(prec ) = 0.12198E-01
  weight for this iteration     100.00

 eigenvalues of (default mixing * dielectric matrix)
  average eigenvalue GAMMA=   2.0679
  5.5162  2.5248  2.2538  2.0494  1.1524  1.1524  0.9471  0.9471

 Free energy of the ion-electron system (eV)
  ---------------------------------------------------
  alpha Z        PSCENC =        91.34886789
  Ewald energy   TEWEN  =    119132.69944499
  -Hartree energ DENC   =   -130188.32138569
  -exchange      EXHF   =         0.00000000
  -V(xc)+E(xc)   XCENC  =      1277.98775713
  PAW double counting   =     40910.50040510   -40974.49646308
  entropy T*S    EENTRO =        -0.06482055
  eigenvalues    EBANDS =     -4615.87360387
  atomic energy  EATOM  =     13537.65479391
  Solvation  Ediel_sol  =         0.00000000
  ---------------------------------------------------
  free energy    TOTEN  =      -828.56500419 eV

  energy without entropy =     -828.50018363  energy(sigma->0) =     -828.53259391


--------------------------------------------------------------------------------------------------------




--------------------------------------- Iteration      1(  14)  ---------------------------------------


    POTLOK:  cpu time      0.3220: real time      0.3220
    SETDIJ:  cpu time      0.0404: real time      0.0404
     EDDAV:  cpu time     10.2568: real time     10.2606
       DOS:  cpu time      0.0008: real time      0.0008
    CHARGE:  cpu time      1.1528: real time      1.1564
    MIXING:  cpu time      0.3211: real time      0.3227
    --------------------------------------------
      LOOP:  cpu time     12.0939: real time     12.1030

 eigenvalue-minimisations  :  1584
 total energy-change (2. order) :-0.1791119E-01  (-0.1170597E-03)
 number of electron     368.0000002 magnetization 
 augmentation part        9.0912553 magnetization 

 Broyden mixing:
  rms(total) = 0.53776E-02    rms(broyden)= 0.53772E-02
  rms(prec ) = 0.77342E-02
  weight for this iteration     100.00

 eigenvalues of (default mixing * dielectric matrix)
  average eigenvalue GAMMA=   2.1756
  6.3274  2.7421  2.5996  1.8857  1.8857  1.1110  1.1110  0.9588  0.9588

 Free energy of the ion-electron system (eV)
  ---------------------------------------------------
  alpha Z        PSCENC =        91.34886789
  Ewald energy   TEWEN  =    119132.69944499
  -Hartree energ DENC   =   -130204.34827244
  -exchange      EXHF   =         0.00000000
  -V(xc)+E(xc)   XCENC  =      1277.97850181
  PAW double counting   =     40885.85202959   -40949.85603985
  entropy T*S    EENTRO =        -0.06481021
  eigenvalues    EBANDS =     -4599.84743106
  atomic energy  EATOM  =     13537.65479391
  Solvation  Ediel_sol  =         0.00000000
  ---------------------------------------------------
  free energy    TOTEN  =      -828.58291538 eV

  energy without entropy =     -828.51810517  energy(sigma->0) =     -828.55051027


--------------------------------------------------------------------------------------------------------




--------------------------------------- Iteration      1(  15)  ---------------------------------------


    POTLOK:  cpu time      0.3222: real time      0.3222
    SETDIJ:  cpu time      0.0401: real time      0.0401
     EDDAV:  cpu time     10.3348: real time     10.3385
       DOS:  cpu time      0.0007: real time      0.0007
    CHARGE:  cpu time      1.1526: real time      1.1554
    MIXING:  cpu time      0.3319: real time      0.3319
    --------------------------------------------
      LOOP:  cpu time     12.1823: real time     12.1888

 eigenvalue-minimisations  :  1600
 total energy-change (2. order) :-0.2064336E-01  (-0.1738769E-03)
 number of electron     368.0000002 magnetization 
 augmentation part        9.0907300 magnetization 

 Broyden mixing:
  rms(total) = 0.30715E-02    rms(broyden)= 0.30712E-02
  rms(prec ) = 0.42608E-02
  weight for this iteration     100.00

 eigenvalues of (default mixing * dielectric matrix)
  average eigenvalue GAMMA=   2.2501
  7.2118  3.5467  2.2184  2.2184  1.7047  1.2908  1.2908  0.9770  0.9770  1.0653

 Free energy of the ion-electron system (eV)
  ---------------------------------------------------
  alpha Z        PSCENC =        91.34886789
  Ewald energy   TEWEN  =    119132.69944499
  -Hartree energ DENC   =   -130215.01815720
  -exchange      EXHF   =         0.00000000
  -V(xc)+E(xc)   XCENC  =      1277.97173737
  PAW double counting   =     40903.43104889   -40967.43642974
  entropy T*S    EENTRO =        -0.06482739
  eigenvalues    EBANDS =     -4589.19003745
  atomic energy  EATOM  =     13537.65479391
  Solvation  Ediel_sol  =         0.00000000
  ---------------------------------------------------
  free energy    TOTEN  =      -828.60355873 eV

  energy without entropy =     -828.53873135  energy(sigma->0) =     -828.57114504


--------------------------------------------------------------------------------------------------------




--------------------------------------- Iteration      1(  16)  ---------------------------------------


    POTLOK:  cpu time      0.3221: real time      0.3221
    SETDIJ:  cpu time      0.0404: real time      0.0404
     EDDAV:  cpu time     10.3744: real time     10.3779
       DOS:  cpu time      0.0007: real time      0.0007
    CHARGE:  cpu time      1.1621: real time      1.1634
    MIXING:  cpu time      0.3398: real time      0.3404
    --------------------------------------------
      LOOP:  cpu time     12.2394: real time     12.2450

 eigenvalue-minimisations  :  1608
 total energy-change (2. order) :-0.9098828E-02  (-0.5068080E-04)
 number of electron     368.0000002 magnetization 
 augmentation part        9.0906626 magnetization 

 Broyden mixing:
  rms(total) = 0.19950E-02    rms(broyden)= 0.19949E-02
  rms(prec ) = 0.25888E-02
  weight for this iteration     100.00

 eigenvalues of (default mixing * dielectric matrix)
  average eigenvalue GAMMA=   2.3610
  8.0414  4.1827  2.4488  2.4488  1.9426  1.4438  1.4438  0.9682  0.9682  1.0413
  1.0413

 Free energy of the ion-electron system (eV)
  ---------------------------------------------------
  alpha Z        PSCENC =        91.34886789
  Ewald energy   TEWEN  =    119132.69944499
  -Hartree energ DENC   =   -130219.49941968
  -exchange      EXHF   =         0.00000000
  -V(xc)+E(xc)   XCENC  =      1277.95112186
  PAW double counting   =     40892.55738478   -40956.56168341
  entropy T*S    EENTRO =        -0.06482560
  eigenvalues    EBANDS =     -4584.69834230
  atomic energy  EATOM  =     13537.65479391
  Solvation  Ediel_sol  =         0.00000000
  ---------------------------------------------------
  free energy    TOTEN  =      -828.61265756 eV

  energy without entropy =     -828.54783196  energy(sigma->0) =     -828.58024476


--------------------------------------------------------------------------------------------------------




--------------------------------------- Iteration      1(  17)  ---------------------------------------


    POTLOK:  cpu time      0.3222: real time      0.3222
    SETDIJ:  cpu time      0.0403: real time      0.0403
     EDDAV:  cpu time     10.1283: real time     10.1320
       DOS:  cpu time      0.0008: real time      0.0008
    CHARGE:  cpu time      1.1530: real time      1.1547
    MIXING:  cpu time      0.3494: real time      0.3499
    --------------------------------------------
      LOOP:  cpu time     11.9940: real time     11.9999

 eigenvalue-minimisations  :  1560
 total energy-change (2. order) :-0.5804930E-02  (-0.4303067E-04)
 number of electron     368.0000002 magnetization 
 augmentation part        9.0905733 magnetization 

 Broyden mixing:
  rms(total) = 0.94228E-03    rms(broyden)= 0.94221E-03
  rms(prec ) = 0.12425E-02
  weight for this iteration     100.00

 eigenvalues of (default mixing * dielectric matrix)
  average eigenvalue GAMMA=   2.3663
  8.4535  4.6262  2.5729  2.3287  2.1228  1.4356  1.4356  1.4107  0.9982  0.9982
  1.0068  1.0068

 Free energy of the ion-electron system (eV)
  ---------------------------------------------------
  alpha Z        PSCENC =        91.34886789
  Ewald energy   TEWEN  =    119132.69944499
  -Hartree energ DENC   =   -130221.63447614
  -exchange      EXHF   =         0.00000000
  -V(xc)+E(xc)   XCENC  =      1277.94975540
  PAW double counting   =     40900.93339681   -40964.93315476
  entropy T*S    EENTRO =        -0.06482852
  eigenvalues    EBANDS =     -4582.57226207
  atomic energy  EATOM  =     13537.65479391
  Solvation  Ediel_sol  =         0.00000000
  ---------------------------------------------------
  free energy    TOTEN  =      -828.61846249 eV

  energy without entropy =     -828.55363397  energy(sigma->0) =     -828.58604823


--------------------------------------------------------------------------------------------------------




--------------------------------------- Iteration      1(  18)  ---------------------------------------


    POTLOK:  cpu time      0.3218: real time      0.3218
    SETDIJ:  cpu time      0.0404: real time      0.0405
     EDDAV:  cpu time      9.7519: real time      9.7558
       DOS:  cpu time      0.0007: real time      0.0007
    CHARGE:  cpu time      1.1520: real time      1.1544
    MIXING:  cpu time      0.3597: real time      0.3597
    --------------------------------------------
      LOOP:  cpu time     11.6265: real time     11.6330

 eigenvalue-minimisations  :  1480
 total energy-change (2. order) :-0.1664850E-02  (-0.5754479E-05)
 number of electron     368.0000002 magnetization 
 augmentation part        9.0904739 magnetization 

 Broyden mixing:
  rms(total) = 0.57352E-03    rms(broyden)= 0.57347E-03
  rms(prec ) = 0.75429E-03
  weight for this iteration     100.00

 eigenvalues of (default mixing * dielectric matrix)
  average eigenvalue GAMMA=   2.4347
  8.9594  5.1418  2.9875  2.5122  2.0435  2.0435  1.4245  1.4245  1.0823  1.0823
  0.9826  0.9826  0.9845

 Free energy of the ion-electron system (eV)
  ---------------------------------------------------
  alpha Z        PSCENC =        91.34886789
  Ewald energy   TEWEN  =    119132.69944499
  -Hartree energ DENC   =   -130222.43288843
  -exchange      EXHF   =         0.00000000
  -V(xc)+E(xc)   XCENC  =      1277.95115564
  PAW double counting   =     40899.51333504   -40963.51364719
  entropy T*S    EENTRO =        -0.06483112
  eigenvalues    EBANDS =     -4581.77635806
  atomic energy  EATOM  =     13537.65479391
  Solvation  Ediel_sol  =         0.00000000
  ---------------------------------------------------
  free energy    TOTEN  =      -828.62012734 eV

  energy without entropy =     -828.55529622  energy(sigma->0) =     -828.58771178


--------------------------------------------------------------------------------------------------------




--------------------------------------- Iteration      1(  19)  ---------------------------------------


    POTLOK:  cpu time      0.3222: real time      0.3220
    SETDIJ:  cpu time      0.0402: real time      0.0403
     EDDAV:  cpu time      8.9045: real time      8.9083
       DOS:  cpu time      0.0008: real time      0.0008
    CHARGE:  cpu time      1.1522: real time      1.1539
    MIXING:  cpu time      0.3715: real time      0.3716
    --------------------------------------------
      LOOP:  cpu time     10.7913: real time     10.7969

 eigenvalue-minimisations  :  1312
 total energy-change (2. order) :-0.1062676E-02  (-0.3712502E-05)
 number of electron     368.0000002 magnetization 
 augmentation part        9.0905221 magnetization 

 Broyden mixing:
  rms(total) = 0.31385E-03    rms(broyden)= 0.31384E-03
  rms(prec ) = 0.39620E-03
  weight for this iteration     100.00

 eigenvalues of (default mixing * dielectric matrix)
  average eigenvalue GAMMA=   2.4252
  8.9025  5.6871  3.2525  2.4363  2.4363  1.9155  1.4319  1.4319  1.2367  1.2367
  1.0024  1.0024  0.9903  0.9903

 Free energy of the ion-electron system (eV)
  ---------------------------------------------------
  alpha Z        PSCENC =        91.34886789
  Ewald energy   TEWEN  =    119132.69944499
  -Hartree energ DENC   =   -130222.66102328
  -exchange      EXHF   =         0.00000000
  -V(xc)+E(xc)   XCENC  =      1277.94613895
  PAW double counting   =     40896.97520429   -40960.97469062
  entropy T*S    EENTRO =        -0.06482872
  eigenvalues    EBANDS =     -4581.54509742
  atomic energy  EATOM  =     13537.65479391
  Solvation  Ediel_sol  =         0.00000000
  ---------------------------------------------------
  free energy    TOTEN  =      -828.62119002 eV

  energy without entropy =     -828.55636130  energy(sigma->0) =     -828.58877566


--------------------------------------------------------------------------------------------------------




--------------------------------------- Iteration      1(  20)  ---------------------------------------


    POTLOK:  cpu time      0.3219: real time      0.3220
    SETDIJ:  cpu time      0.0404: real time      0.0404
     EDDAV:  cpu time      9.2850: real time      9.2913
       DOS:  cpu time      0.0007: real time      0.0007
    CHARGE:  cpu time      1.1523: real time      1.1537
    MIXING:  cpu time      0.3898: real time      0.3900
    --------------------------------------------
      LOOP:  cpu time     11.1902: real time     11.1982

 eigenvalue-minimisations  :  1384
 total energy-change (2. order) :-0.3115862E-03  (-0.4820454E-06)
 number of electron     368.0000002 magnetization 
 augmentation part        9.0904871 magnetization 

 Broyden mixing:
  rms(total) = 0.16959E-03    rms(broyden)= 0.16958E-03
  rms(prec ) = 0.22027E-03
  weight for this iteration     100.00

 eigenvalues of (default mixing * dielectric matrix)
  average eigenvalue GAMMA=   2.4719
  9.2268  6.0225  3.8819  2.6981  2.3214  2.0036  1.7931  1.4386  1.4386  1.2309
  1.0302  1.0302  0.9579  1.0025  1.0025

 Free energy of the ion-electron system (eV)
  ---------------------------------------------------
  alpha Z        PSCENC =        91.34886789
  Ewald energy   TEWEN  =    119132.69944499
  -Hartree energ DENC   =   -130222.87729300
  -exchange      EXHF   =         0.00000000
  -V(xc)+E(xc)   XCENC  =      1277.94780867
  PAW double counting   =     40897.65543301   -40961.65558298
  entropy T*S    EENTRO =        -0.06482904
  eigenvalues    EBANDS =     -4581.33014505
  atomic energy  EATOM  =     13537.65479391
  Solvation  Ediel_sol  =         0.00000000
  ---------------------------------------------------
  free energy    TOTEN  =      -828.62150160 eV

  energy without entropy =     -828.55667257  energy(sigma->0) =     -828.58908709


--------------------------------------------------------------------------------------------------------




--------------------------------------- Iteration      1(  21)  ---------------------------------------


    POTLOK:  cpu time      0.3242: real time      0.3240
    SETDIJ:  cpu time      0.0393: real time      0.0393
     EDDAV:  cpu time      8.4780: real time      8.4810
       DOS:  cpu time      0.0007: real time      0.0007
    CHARGE:  cpu time      1.1620: real time      1.1630
    MIXING:  cpu time      0.3969: real time      0.3970
    --------------------------------------------
      LOOP:  cpu time     10.4012: real time     10.4050

 eigenvalue-minimisations  :  1224
 total energy-change (2. order) :-0.1884396E-03  (-0.2211202E-06)
 number of electron     368.0000002 magnetization 
 augmentation part        9.0904890 magnetization 

 Broyden mixing:
  rms(total) = 0.91142E-04    rms(broyden)= 0.91137E-04
  rms(prec ) = 0.11340E-03
  weight for this iteration     100.00

 eigenvalues of (default mixing * dielectric matrix)
  average eigenvalue GAMMA=   2.4535
  9.2300  6.3070  4.0619  2.7405  2.3594  2.3594  1.8640  1.4305  1.4305  1.2757
  1.2757  1.0128  1.0128  0.9618  0.9618  0.9716

 Free energy of the ion-electron system (eV)
  ---------------------------------------------------
  alpha Z        PSCENC =        91.34886789
  Ewald energy   TEWEN  =    119132.69944499
  -Hartree energ DENC   =   -130222.96359093
  -exchange      EXHF   =         0.00000000
  -V(xc)+E(xc)   XCENC  =      1277.94684366
  PAW double counting   =     40896.80630342   -40960.80668564
  entropy T*S    EENTRO =        -0.06482977
  eigenvalues    EBANDS =     -4581.24283756
  atomic energy  EATOM  =     13537.65479391
  Solvation  Ediel_sol  =         0.00000000
  ---------------------------------------------------
  free energy    TOTEN  =      -828.62169004 eV

  energy without entropy =     -828.55686027  energy(sigma->0) =     -828.58927516


[...]
   0.229E+02 -.383E+01 -.120E+03   -.226E+02 0.330E+01 0.120E+03   0.926E+00 0.473E+00 -.581E+00   0.981E-06 -.667E-06 0.102E-06
   -.128E+02 -.283E+00 -.138E+02   0.147E+02 -.626E+00 0.136E+02   0.376E-01 -.105E+01 0.916E+00   -.207E-05 -.429E-06 -.392E-06
   0.233E+02 0.103E+02 -.139E+03   -.238E+02 -.100E+02 0.139E+03   0.128E+01 -.271E+00 -.246E+00   -.200E-05 -.843E-06 -.147E-05
   -.151E+02 0.149E+02 -.326E+02   0.166E+02 -.155E+02 0.326E+02   0.659E+00 -.126E+01 0.121E+01   -.404E-05 -.207E-05 -.189E-05
   0.114E+01 -.192E+02 -.912E+02   -.976E+00 0.198E+02 0.912E+02   0.714E+00 -.124E+01 0.552E+00   -.374E-05 -.177E-07 -.179E-05
   0.192E+02 -.198E+02 -.126E+03   -.204E+02 0.211E+02 0.126E+03   0.430E+00 0.754E+00 -.148E+01   -.157E-05 -.709E-06 -.124E-05
   0.121E+02 0.101E+02 -.160E+03   -.132E+02 -.875E+01 0.160E+03   -.802E+00 0.171E+01 -.856E+00   -.128E-05 -.111E-05 -.171E-05
   -.667E+00 0.520E+01 -.965E+02   0.380E+00 -.478E+01 0.962E+02   0.451E+00 0.397E+00 0.813E+00   -.338E-06 -.151E-05 -.160E-05
   -.974E+01 -.902E+01 -.117E+03   0.108E+02 0.816E+01 0.116E+03   0.759E-01 -.828E+00 0.642E+00   0.617E-06 0.255E-06 -.155E-05
   -.141E+02 -.156E+02 -.128E+03   0.148E+02 0.152E+02 0.128E+03   0.568E+00 -.276E+00 -.711E+00   0.159E-05 -.643E-06 -.129E-05
   -.130E+02 0.112E+02 -.157E+03   0.129E+02 -.105E+02 0.157E+03   0.459E-02 0.356E+00 -.665E+00   0.196E-05 0.182E-06 -.107E-05
   0.134E+01 0.413E+01 -.765E+02   -.271E+01 -.326E+01 0.766E+02   -.518E+00 0.530E+00 0.167E+01   0.633E-05 -.153E-05 -.220E-05
   -.169E+02 -.996E+01 -.135E+03   0.171E+02 0.917E+01 0.135E+03   0.205E+00 -.670E+00 -.531E+00   0.681E-05 0.147E-05 -.186E-05
   -.207E+02 -.135E+02 -.982E+02   0.213E+02 0.142E+02 0.981E+02   -.440E-01 0.375E-01 -.166E+00   0.604E-05 -.520E-06 -.180E-05
   -.185E+02 0.924E+01 -.132E+03   0.176E+02 -.926E+01 0.133E+03   -.633E+00 0.322E+00 -.393E+00   0.765E-05 0.124E-05 -.289E-05
   -.452E+02 0.171E+02 -.111E+03   0.456E+02 -.181E+02 0.111E+03   -.520E+00 -.929E+00 -.163E+01   0.648E-06 0.120E-05 -.617E-06
   -.326E+02 -.104E+02 -.964E+02   0.338E+02 0.109E+02 0.957E+02   0.774E+00 -.493E+00 0.519E+00   0.137E-05 0.198E-05 -.143E-05
   0.715E+00 -.129E+02 -.184E+01   -.918E+00 0.134E+02 0.207E+01   0.616E+00 0.514E+00 -.357E+00   -.232E-05 0.196E-06 0.127E-05
   -.304E+02 0.214E+02 -.600E+02   0.304E+02 -.240E+02 0.607E+02   -.141E+01 -.588E+00 -.577E+00   -.380E-05 0.167E-05 0.107E-05
   -.204E+01 0.149E+02 0.345E+02   0.224E+01 -.158E+02 -.342E+02   -.174E-01 0.718E+00 -.586E+00   -.340E-05 -.493E-07 0.135E-05
   0.426E+01 -.151E+02 0.472E+02   -.352E+01 0.162E+02 -.476E+02   0.641E+00 0.134E+01 0.386E+00   -.504E-05 0.136E-05 0.185E-05
   0.150E+02 -.225E+02 0.100E+03   -.151E+02 0.245E+02 -.100E+03   -.445E+00 -.320E-01 0.418E+00   -.530E-05 0.168E-05 0.240E-05
   0.316E+02 0.153E+02 0.127E+03   -.326E+02 -.168E+02 -.128E+03   0.793E+00 -.113E+01 0.240E+01   -.561E-05 -.548E-06 0.159E-05
   0.116E+02 0.128E+02 0.111E+03   -.127E+02 -.133E+02 -.111E+03   -.156E+01 -.686E-01 -.638E+00   -.453E-05 0.851E-06 0.231E-05
   0.824E+01 -.152E+02 0.981E+02   -.822E+01 0.165E+02 -.978E+02   0.877E+00 0.939E+00 -.613E+00   -.358E-05 0.167E-06 0.208E-05
   -.918E+01 -.101E+02 0.206E+03   0.105E+02 0.107E+02 -.207E+03   0.217E+01 0.740E+00 0.186E+01   -.464E-05 0.361E-05 0.195E-05
   -.889E+01 0.124E+02 0.821E+02   0.846E+01 -.143E+02 -.814E+02   0.716E+00 -.106E+00 -.122E+01   -.654E-05 -.280E-05 0.314E-05
   -.128E+02 0.671E+02 0.170E+03   0.101E+02 -.671E+02 -.170E+03   0.856E+00 0.253E+01 -.981E+00   0.517E-05 0.117E-05 0.283E-05
   -.887E+01 -.548E+02 0.191E+03   0.586E+01 0.542E+02 -.192E+03   0.154E+01 -.162E+01 0.247E+01   0.578E-05 -.224E-05 0.202E-05
   0.517E+01 0.531E+02 0.113E+03   -.227E+01 -.533E+02 -.114E+03   -.146E+01 0.200E+01 0.217E+00   0.648E-05 0.818E-06 0.198E-05
   0.103E+01 -.632E+02 0.241E+03   0.190E+01 0.633E+02 -.242E+03   -.113E+01 -.142E+01 0.238E+01   0.607E-05 -.947E-06 0.298E-05
   0.167E+02 -.103E+02 -.197E+00   -.161E+02 0.113E+02 0.150E+01   -.504E+00 0.858E+00 -.227E+01   0.387E-05 -.161E-05 0.308E-06
   0.151E+02 -.369E+01 0.154E+03   -.174E+02 0.501E+01 -.154E+03   -.168E+01 0.117E+01 -.122E+01   0.424E-05 0.602E-06 0.226E-05
   -.159E+01 0.125E+02 0.672E+02   0.116E+01 -.132E+02 -.675E+02   -.740E+00 -.494E+00 0.914E+00   -.629E-06 -.779E-06 -.512E-06
   -.253E+02 -.414E+01 0.143E+03   0.269E+02 0.354E+01 -.143E+03   0.139E+00 -.449E+00 0.910E+00   -.170E-06 0.132E-05 0.689E-06
   0.776E+01 -.124E+02 -.187E+02   -.713E+01 0.129E+02 0.192E+02   0.291E+00 -.173E-01 -.998E+00   -.337E-07 -.896E-06 -.394E-06
   -.225E+02 0.203E+02 0.114E+03   0.230E+02 -.215E+02 -.114E+03   0.673E+00 -.743E+00 -.131E+00   -.504E-06 0.185E-05 0.432E-06
   0.114E+02 0.231E+01 -.175E+02   -.124E+02 -.194E+01 0.172E+02   -.614E+00 -.355E+00 -.778E+00   0.733E-06 -.161E-05 0.460E-06
   -.198E+02 -.466E+00 0.102E+03   0.198E+02 0.490E+00 -.102E+03   -.512E+00 -.386E+00 0.200E+01   0.359E-06 0.205E-05 0.794E-07
   0.142E+02 -.453E+01 -.672E+02   -.136E+02 0.449E+01 0.675E+02   0.266E+00 -.463E-01 0.560E+00   -.213E-06 0.518E-06 -.540E-06
   -.108E+02 0.221E+02 0.134E+02   0.111E+02 -.236E+02 -.132E+02   0.274E+00 -.109E+01 -.260E+00   0.340E-06 0.108E-05 0.504E-06
   0.168E+02 0.179E+02 -.128E+03   -.156E+02 -.195E+02 0.129E+03   0.935E+00 -.811E+00 0.126E+00   -.227E-05 0.162E-05 -.113E-05
   0.242E+02 -.206E+02 -.842E+02   -.244E+02 0.222E+02 0.843E+02   0.402E+00 0.307E-01 -.159E+01   -.637E-06 0.884E-06 -.932E-07
   0.433E+02 -.202E+02 -.146E+03   -.442E+02 0.215E+02 0.146E+03   0.151E+00 0.767E+00 -.108E+01   0.522E-06 0.153E-05 0.189E-07
   0.240E+01 0.202E+02 0.249E+01   -.266E+01 -.211E+02 -.261E+01   -.475E+00 -.805E-01 0.263E+00   0.655E-06 -.635E-06 0.769E-06
   0.342E+02 0.147E+02 -.132E+03   -.353E+02 -.159E+02 0.132E+03   -.649E+00 0.264E+00 -.519E+00   0.238E-05 0.128E-05 -.114E-06
   0.722E+01 -.112E+02 -.355E+02   -.693E+01 0.127E+02 0.353E+02   0.300E+00 0.166E+01 0.511E+00   0.649E-06 0.193E-05 -.425E-07
   0.164E+02 -.888E+01 -.149E+03   -.164E+02 0.818E+01 0.149E+03   -.874E+00 -.119E+01 -.596E+00   -.188E-05 0.165E-05 -.156E-05
   0.749E+01 0.129E+02 -.592E+02   -.791E+01 -.136E+02 0.591E+02   0.714E+00 -.710E+00 -.587E+00   -.300E-05 0.670E-06 -.246E-06
   0.470E+01 0.828E+01 -.114E+03   -.439E+01 -.776E+01 0.113E+03   -.752E+00 0.490E+00 0.101E+01   -.399E-05 0.371E-06 -.223E-05
   0.465E+01 -.138E+02 -.896E+02   -.430E+01 0.141E+02 0.896E+02   0.791E+00 -.194E+00 0.358E+00   -.293E-05 0.112E-05 -.150E-05
   -.791E+00 -.891E+01 -.190E+03   0.211E+01 0.798E+01 0.191E+03   0.607E+00 -.185E-01 -.725E+00   -.935E-06 0.184E-05 -.200E-05
   0.109E+02 0.173E+02 -.131E+03   -.117E+02 -.181E+02 0.131E+03   -.528E+00 0.327E+00 -.445E+00   -.496E-06 -.778E-06 -.181E-05
   0.554E+01 0.196E+02 -.201E+03   -.672E+01 -.204E+02 0.201E+03   -.544E+00 -.296E+00 -.118E+01   0.128E-05 0.136E-05 -.182E-05
   0.413E+01 -.136E+02 -.130E+03   -.430E+01 0.136E+02 0.129E+03   -.204E+00 -.727E-01 0.144E+01   0.208E-06 0.452E-06 -.251E-05
   -.226E+02 -.481E+01 -.158E+03   0.235E+02 0.442E+01 0.157E+03   0.173E+00 -.524E+00 0.225E+00   0.287E-05 0.234E-05 -.170E-05
   -.192E+02 0.543E+01 -.167E+03   0.194E+02 -.440E+01 0.167E+03   -.495E+00 0.104E+01 -.143E+01   0.196E-05 -.211E-05 -.159E-05
   -.140E+02 0.294E+02 -.113E+03   0.140E+02 -.321E+02 0.113E+03   -.539E+00 -.138E+01 0.142E+00   0.591E-05 0.362E-06 -.202E-05
   -.132E+02 -.205E+02 -.994E+02   0.133E+02 0.222E+02 0.989E+02   -.318E+00 0.167E+00 0.903E+00   0.553E-05 -.702E-06 -.202E-05
   -.102E+02 -.101E+02 -.868E+02   0.988E+01 0.110E+02 0.868E+02   -.377E+00 0.542E+00 0.571E+00   0.642E-05 0.232E-07 -.205E-05
   -.146E+02 0.131E+02 -.698E+02   0.146E+02 -.135E+02 0.700E+02   -.868E+00 -.109E+00 -.945E+00   0.530E-05 -.102E-05 -.150E-05
   -.155E+02 0.436E+00 -.451E+02   0.149E+02 0.846E-01 0.456E+02   -.756E+00 -.127E+01 -.899E+00   0.165E-05 -.146E-05 0.214E-06
   0.243E+02 -.197E+01 0.624E+02   -.246E+02 0.130E+01 -.630E+02   0.651E+00 -.159E+01 0.174E+01   0.146E-05 -.103E-05 0.104E-05
   -.128E+02 -.201E+02 -.191E+02   0.133E+02 0.225E+02 0.183E+02   0.193E+01 0.168E+01 -.235E+00   -.389E-05 -.143E-05 0.157E-05
   0.259E+02 0.785E+01 0.126E+03   -.252E+02 -.794E+01 -.127E+03   -.297E+00 0.551E+00 0.155E+01   -.289E-05 -.111E-05 0.214E-05
   -.234E+01 0.105E+02 0.140E+02   0.196E+01 -.111E+02 -.137E+02   0.370E+00 0.782E+00 -.963E+00   -.531E-05 -.211E-05 0.232E-05
   0.268E+02 -.577E+01 0.125E+03   -.266E+02 0.583E+01 -.125E+03   -.300E+00 0.106E+01 0.868E+00   -.507E-05 0.675E-06 0.214E-05
   -.325E+01 -.139E+02 0.112E+02   0.265E+01 0.145E+02 -.990E+01   -.149E+01 -.510E-01 -.178E+01   -.688E-05 -.108E-05 0.278E-05
   0.229E+02 0.195E+02 0.126E+03   -.231E+02 -.215E+02 -.126E+03   0.335E+00 -.161E+01 -.128E+00   -.631E-05 0.862E-06 0.249E-05
   -.255E+01 0.961E+01 0.940E+02   0.344E+01 -.101E+02 -.945E+02   0.247E+00 -.188E+00 0.811E+00   -.605E-05 -.304E-05 0.222E-05
   0.104E+02 -.143E+02 0.141E+03   -.102E+02 0.156E+02 -.141E+03   0.810E+00 0.628E+00 -.279E+00   -.589E-05 0.238E-05 0.178E-05
   -.189E+02 -.171E+02 0.749E+02   0.193E+02 0.191E+02 -.745E+02   0.471E+00 0.144E+01 -.685E+00   -.432E-05 -.189E-05 0.230E-05
   -.169E+01 0.170E+02 0.183E+03   0.130E+01 -.187E+02 -.183E+03   0.727E+00 -.803E+00 -.540E+00   -.520E-05 0.131E-05 0.218E-05
   -.239E+01 0.597E+02 0.136E+03   -.105E+01 -.608E+02 -.136E+03   0.717E+00 0.125E+01 0.656E+00   0.598E-05 -.126E-05 0.214E-05
   -.905E+01 -.619E+02 0.234E+03   0.623E+01 0.623E+02 -.234E+03   0.133E+01 -.129E+01 0.153E+01   0.612E-05 0.289E-06 0.162E-05
 -----------------------------------------------------------------------------------------------
   0.225E+00 -.140E+01 -.358E+01   0.343E-12 -.185E-12 -.256E-12   -.351E+00 0.138E+01 0.356E+01   0.459E-06 -.859E-06 0.166E-04
 
 
 POSITION                                       TOTAL-FORCE (eV/Angst)
 -----------------------------------------------------------------------------------
      0.22741      0.87119     14.99670         1.299268     -0.189553      0.275602
      0.20056      2.26182     15.06720         1.629011     -1.632671      0.471911
      1.43103      0.20101     15.23720        -0.542450     -0.570152     -0.631806
      1.40253      2.87927     15.45560        -1.357316     -0.054674     -0.063702
      2.62490      0.88227     15.54560         0.586903     -0.520389     -0.308397
      2.63351      2.23891     15.64120        -0.049967     -0.097616      0.424078
      3.85925      0.22152     15.76020         0.794372      1.430462     -0.027891
      3.82017      2.90588     16.03520         0.677279     -0.015246      0.291670
      5.08903      0.87719     16.10260        -1.162546      1.621679     -0.121170
      5.08305      2.27033     16.28000        -2.069781     -1.507073     -0.297652
      6.26256      0.23787     16.45090         0.741581     -0.603366     -0.040252
      6.19940      2.89253     16.81400         1.131058     -0.223567     -0.153122
      7.46077      0.83596     16.84480         1.902409      0.266626      0.158986
      7.43430      2.17276     17.06220        -0.533921      2.345294      0.251165
      8.72572      0.15934     17.10230        -1.254271      0.480526      0.937813
      8.60871      2.85324     17.52670        -1.154660     -0.589985      0.591397
      9.88389      0.79519     17.62390        -2.909381      3.180575     -1.544861
      9.79570      2.17777     17.84180         1.235336     -0.061794     -0.575572
     11.08090      0.20985     17.77670         1.922228     -1.960258      0.730080
     11.00140      2.87969     18.14000         0.827109      0.048092      0.103989
     12.27480      0.89516     18.00450         2.184845     -1.911809      1.224892
     12.26860      2.24552     18.17520         0.879329     -0.616336      0.460366
     13.54740      0.17096     18.29460        -0.773878      2.054108     -1.429775
     13.56370      2.83022     18.43170        -1.897505      3.089361     -0.329267
     14.79870      0.83422     18.26840         0.165348      0.815636      0.515433
     14.80290      2.23059     18.33900         1.116635     -1.679971      0.179231
     16.04900      0.18843     18.22890         1.294500     -0.650396     -0.770456
     16.07430      2.87768     18.32810        -0.057469      1.018080     -0.347865
     17.31240      0.83920     17.93440        -1.887689      1.404666      1.726021
     17.31070      2.23758     18.07330         0.431899     -1.452345     -0.492709
     18.50960      0.18573     17.66600         0.561190      0.769051     -0.317195
     18.55730      2.87551     17.77270        -1.555346      0.308146      0.408697
     19.72130      0.84919     17.35820        -0.034711     -1.901278     -1.397836
     19.70390      2.20591     17.38000         2.015599     -0.004706     -0.188611
     20.78750      0.13601     16.68020         0.413877      0.969775     -0.125532
     20.88520      2.85307     16.87320        -1.386722     -3.228533      0.096449
     21.96620      0.78247     16.22760         0.188626     -0.186884     -0.256293
     21.95050      2.13757     16.25560         1.385754      2.473148      0.006139
     23.13210      0.13375     15.69600        -0.478978      1.916471      0.081099
     23.12240      2.84573     15.73140        -0.284682     -2.572653      2.162187
     24.36580      0.79339     15.36940        -2.665993     -0.550021      0.011559
     24.32360      2.13400     15.45780         0.904169      2.238770     -0.337145
     25.50020      0.12789     14.97080         3.487066      1.353808      0.475325
     25.56690      2.82837     15.29080         0.282923     -1.948058     -0.500780
     26.78480      0.77999     14.93530        -1.803127      2.505631     -0.955126
     26.76810      2.20305     14.95950        -1.466033     -2.268308      1.150682
      0.22103      4.87282     15.14960         1.439151      1.825909     -0.428833
      0.24561      6.25126     14.83790         1.798552     -1.318953      1.457301
      1.39358      4.23986     15.55700         0.086792      1.762663     -0.960641
      1.48229      6.89428     15.14790        -3.932342      2.488449     -1.463535
      2.64839      4.94221     15.65190        -1.169844     -1.205767      0.556534
      2.66249      6.28709     15.41520         1.776196     -1.048283      0.963391
      3.80128      4.27826     16.11270         0.925086      0.431122     -0.401758
      3.86179      6.97920     15.71830         1.192158     -1.922814     -0.056470
      5.02683      4.95512     16.42920        -1.566149      0.007660     -1.065566
      5.07446      6.31606     16.12400        -0.439177     -0.361130      1.555235
      6.15215      4.27468     16.89260         0.798860     -0.089585      0.874149
      6.22903      6.99435     16.58520         0.570158     -2.556897     -0.047993
      7.30692      4.95191     17.33730         2.160905     -2.386433      0.530453
      7.36988      6.29282     17.18180         0.188549      1.610521     -1.521063
      8.56731      4.20567     17.71630        -0.784560      2.070397     -0.780565
      8.66897      6.90278     17.27480        -0.736318     -0.942016      0.141356
      9.83551      4.88530     17.93280        -1.730540     -0.994620     -0.055433
      9.84472      6.20243     17.66700         0.587201      3.206177      0.370801
     11.06360      4.26716     18.19080        -0.855669     -1.886921     -0.134398
     11.07570      6.93234     17.88600         0.296424     -1.462665     -0.683037
     12.31900      4.88613     18.27860        -0.449759      1.011780      0.643767
     12.29730      6.26665     18.16600         1.140817      0.117798      0.349902
     13.53960      4.23992     18.52170         1.927128     -0.951254     -0.287158
     13.58150      6.91903     18.33770        -1.361089     -0.449876     -0.536001
     14.84650      4.91624     18.53610        -1.728871     -1.132591     -0.750800
     14.84260      6.27039     18.38250        -0.373196     -0.018334      0.972487
     16.07850      4.27546     18.34940         1.146823     -0.914359      0.022466
     16.09590      6.89647     18.30760        -0.254856      2.062038     -1.040014
     17.32710      4.94959     18.01050        -0.579427     -4.047367      0.134642
     17.32310      6.27055     17.96380        -0.267755      1.832521      0.479941
     18.53260      4.23928     17.66070        -0.697694      1.450870      0.536771
     18.50570      6.93594     17.56380        -0.859158     -0.556064     -0.665720
     19.67080      4.91901     17.17050        -1.291623     -0.745254     -0.411720
     19.57600      6.29251     16.93050         0.409936     -2.259941      1.169863
     20.79330      4.16823     16.79380         2.464699      4.006895     -1.034600
     20.71220      6.89017     16.39800         0.349370      0.452381      0.789099
     21.96940      4.83591     16.27190        -0.006354      0.204647     -0.637504
     21.89740      6.18577     16.00470        -0.072533      1.124191      0.512344
     23.20100      4.18567     15.91800        -2.086087      0.542668     -0.450446
     23.08600      6.90643     15.63180         0.064329     -3.606511     -0.274381
     24.34390      4.85333     15.48070         1.136563     -0.672490      0.312998
     24.29200      6.19305     15.32850         1.018705      1.884837     -0.352921
     25.58520      4.16312     15.31480         0.903410      3.427598     -0.271928
     25.52110      6.88277     14.98480         0.337861     -2.476796     -0.384467
     26.81100      4.86112     15.05170        -2.720696      0.160745      0.118787
     26.77140      6.23125     14.80270        -1.487864     -0.967205      0.682911
 -----------------------------------------------------------------------------------
    total drift:                               -0.125510     -0.023995     -0.017710


--------------------------------------------------------------------------------------------------------



  FREE ENERGIE OF THE ION-ELECTRON SYSTEM (eV)
  ---------------------------------------------------
  free  energy   TOTEN  =      -828.62178200 eV

  energy  without entropy=     -828.55695252  energy(sigma->0) =     -828.58936726
 


--------------------------------------------------------------------------------------------------------


    POTLOK:  cpu time      0.4542: real time      0.4542


--------------------------------------------------------------------------------------------------------


     LOOP+:  cpu time    332.5106: real time    332.6917
    4ORBIT:  cpu time      0.0000: real time      0.0000

 total amount of memory used by VASP MPI-rank0  2294501. kBytes
=======================================================================

   base                                    :      30000. kBytes
   nonlr-proj                              :      15067. kBytes
   fftplans                                :     436558. kBytes
   grid                                    :     732614. kBytes
   one-center                              :        282. kBytes
   wavefun                                 :    1079980. kBytes
 
  
  
 General timing and accounting informations for this job:
 ========================================================
  
                  Total CPU time used (sec):      365.882
                            User time (sec):      357.349
                          System time (sec):        8.533
                         Elapsed time (sec):      366.159
  
                   Maximum memory used (kb):     3731412.
                   Average memory used (kb):          N/A
  
                          Minor page faults:      3178891
                          Major page faults:         5185
                 Voluntary context switches:         9903
