<?xml version="1.0" encoding="ISO-8859-1"?>
<modeling>
 <generator>
  <i name="program" type="string">vasp </i>
  <i name="version" type="string">6.5.0  </i>
  <i name="subversion" type="string">16Dec24 (build Feb 19 2025 19:45:31) complex                          parallel </i>
  <i name="platform" type="string">LinuxNV </i>
  <i name="date" type="string">2025 10 25 </i>
  <i name="time" type="string">15:21:17 </i>
 </generator>
 <incar>
  <i type="int" name="ISTART">     0</i>
  <i type="string" name="PREC">Accurate   (Precision level)</i>
  <i type="string" name="ALGO">Normal</i>
  <i type="int" name="ISPIN">     1</i>
  <i type="int" name="ICHARG">     2</i>
  <i type="int" name="NELM">   150</i>
  <i type="int" name="IBRION">    -1</i>
  <i name="EDIFF">      0.00000100</i>
  <i type="int" name="NSW">     0</i>
  <i name="ENCUT">    500.00000000</i>
  <i type="string" name="LREAL">Auto         (Projection operators: automatic)</i>
  <i type="int" name="ISMEAR">     0</i>
  <i type="logical" name="KGAMMA"> T  </i>
  <i type="logical" name="LWAVE"> F  </i>
  <i type="logical" name="LCHARG"> F  </i>
 </incar>
 <primitive_cell>
  <structure name="primitive_cell" >
   <crystal>
    <varray name="basis" >
     <v>      28.05000000       0.00000000       0.00000000 </v>
     <v>       0.00000000       8.10000000       0.00000000 </v>
     <v>       0.00000000       0.00000000      33.50000000 </v>
    </varray>
    <i name="volume">   7611.36750000 </i>
    <varray name="rec_basis" >
     <v>       0.03565062       0.00000000       0.00000000 </v>
     <v>       0.00000000       0.12345679       0.00000000 </v>
     <v>       0.00000000       0.00000000       0.02985075 </v>
    </varray>
   </crystal>
   <varray name="positions" >
    <v>       0.00810724       0.10755407       0.44766269 </v>
    <v>       0.00714998       0.27923704       0.44976716 </v>
    <v>       0.05101711       0.02481593       0.45484179 </v>
    <v>       0.05000107       0.35546543       0.46136119 </v>
    <v>       0.09357932       0.10892198       0.46404776 </v>
    <v>       0.09388627       0.27640864       0.46690149 </v>
    <v>       0.13758467       0.02734802       0.47045373 </v>
    <v>       0.13619144       0.35875062       0.47866269 </v>
    <v>       0.18142709       0.10829506       0.48067463 </v>
    <v>       0.18121390       0.28028765       0.48597015 </v>
    <v>       0.22326417       0.02936605       0.49107164 </v>
    <v>       0.22101248       0.35710247       0.50191045 </v>
    <v>       0.26598111       0.10320469       0.50282985 </v>
    <v>       0.26503743       0.26824198       0.50931940 </v>
    <v>       0.31107736       0.01967148       0.51051642 </v>
    <v>       0.30690588       0.35225185       0.52318507 </v>
    <v>       0.35236684       0.09817198       0.52608657 </v>
    <v>       0.34922282       0.26886049       0.53259104 </v>
    <v>       0.39504100       0.02590704       0.53064776 </v>
    <v>       0.39220677       0.35551728       0.54149254 </v>
    <v>       0.43760428       0.11051370       0.53744776 </v>
    <v>       0.43738324       0.27722469       0.54254328 </v>
    <v>       0.48297326       0.02110630       0.54610746 </v>
    <v>       0.48355437       0.34940988       0.55020000 </v>
    <v>       0.52758289       0.10299025       0.54532537 </v>
    <v>       0.52773262       0.27538148       0.54743284 </v>
    <v>       0.57215686       0.02326259       0.54414627 </v>
    <v>       0.57305882       0.35526914       0.54710746 </v>
    <v>       0.61719786       0.10360531       0.53535522 </v>
    <v>       0.61713725       0.27624444       0.53950149 </v>
    <v>       0.65987879       0.02292914       0.52734328 </v>
    <v>       0.66157932       0.35500123       0.53052836 </v>
    <v>       0.70307665       0.10483790       0.51815522 </v>
    <v>       0.70245633       0.27233457       0.51880597 </v>
    <v>       0.74108734       0.01679099       0.49791642 </v>
    <v>       0.74457041       0.35223086       0.50367761 </v>
    <v>       0.78310873       0.09660111       0.48440597 </v>
    <v>       0.78254902       0.26389753       0.48524179 </v>
    <v>       0.82467380       0.01651198       0.46853731 </v>
    <v>       0.82432799       0.35132469       0.46959403 </v>
    <v>       0.86865597       0.09795000       0.45878806 </v>
    <v>       0.86715152       0.26345679       0.46142687 </v>
    <v>       0.90909804       0.01578864       0.44688955 </v>
    <v>       0.91147594       0.34918148       0.45644179 </v>
    <v>       0.95489483       0.09629506       0.44582985 </v>
    <v>       0.95429947       0.27198148       0.44655224 </v>
    <v>       0.00788000       0.60158272       0.45222687 </v>
    <v>       0.00875629       0.77176049       0.44292239 </v>
    <v>       0.04968200       0.52343951       0.46438806 </v>
    <v>       0.05284456       0.85114568       0.45217612 </v>
    <v>       0.09441676       0.61014938       0.46722090 </v>
    <v>       0.09491943       0.77618395       0.46015522 </v>
    <v>       0.13551800       0.52818025       0.48097612 </v>
    <v>       0.13767522       0.86162963       0.46920299 </v>
    <v>       0.17920963       0.61174321       0.49042388 </v>
    <v>       0.18090766       0.77976049       0.48131343 </v>
    <v>       0.21932799       0.52773827       0.50425672 </v>
    <v>       0.22206881       0.86350000       0.49508060 </v>
    <v>       0.26049626       0.61134691       0.51753134 </v>
    <v>       0.26274082       0.77689136       0.51288955 </v>
    <v>       0.30542995       0.51921852       0.52884478 </v>
    <v>       0.30905419       0.85219506       0.51566567 </v>
    <v>       0.35064207       0.60312346       0.53530746 </v>
    <v>       0.35097041       0.76573210       0.52737313 </v>
    <v>       0.39442424       0.52680988       0.54300896 </v>
    <v>       0.39485561       0.85584444       0.53391045 </v>
    <v>       0.43918004       0.60322593       0.54562985 </v>
    <v>       0.43840642       0.77366049       0.54226866 </v>
    <v>       0.48269519       0.52344691       0.55288657 </v>
    <v>       0.48418895       0.85420123       0.54739403 </v>
    <v>       0.52928699       0.60694321       0.55331642 </v>
    <v>       0.52914795       0.77412222       0.54873134 </v>
    <v>       0.57320856       0.52783457       0.54774328 </v>
    <v>       0.57382888       0.85141605       0.54649552 </v>
    <v>       0.61772193       0.61106049       0.53762687 </v>
    <v>       0.61757932       0.77414198       0.53623284 </v>
    <v>       0.66069875       0.52336790       0.52718507 </v>
    <v>       0.65973975       0.85628889       0.52429254 </v>
    <v>       0.70127629       0.60728519       0.51255224 </v>
    <v>       0.69789661       0.77685309       0.50538806 </v>
    <v>       0.74129412       0.51459630       0.50130746 </v>
    <v>       0.73840285       0.85063827       0.48949254 </v>
    <v>       0.78322282       0.59702593       0.48572836 </v>
    <v>       0.78065597       0.76367531       0.47775224 </v>
    <v>       0.82713012       0.51674938       0.47516418 </v>
    <v>       0.82303030       0.85264568       0.46662090 </v>
    <v>       0.86787522       0.59917654       0.46211045 </v>
    <v>       0.86602496       0.76457407       0.45756716 </v>
    <v>       0.91212834       0.51396543       0.45715821 </v>
    <v>       0.90984314       0.84972469       0.44730746 </v>
    <v>       0.95582888       0.60013827       0.44930448 </v>
    <v>       0.95441711       0.76929012       0.44187164 </v>
   </varray>
  </structure>
  <varray name="primitive_index" >
   <v type="int" >        1 </v>
   <v type="int" >        2 </v>
   <v type="int" >        3 </v>
   <v type="int" >        4 </v>
   <v type="int" >        5 </v>
   <v type="int" >        6 </v>
   <v type="int" >        7 </v>
   <v type="int" >        8 </v>
   <v type="int" >        9 </v>
   <v type="int" >       10 </v>
   <v type="int" >       11 </v>
   <v type="int" >       12 </v>
   <v type="int" >       13 </v>
   <v type="int" >       14 </v>
   <v type="int" >       15 </v>
   <v type="int" >       16 </v>
   <v type="int" >       17 </v>
   <v type="int" >       18 </v>
   <v type="int" >       19 </v>
   <v type="int" >       20 </v>
   <v type="int" >       21 </v>
   <v type="int" >       22 </v>
   <v type="int" >       23 </v>
   <v type="int" >       24 </v>
   <v type="int" >       25 </v>
   <v type="int" >       26 </v>
   <v type="int" >       27 </v>
   <v type="int" >       28 </v>
   <v type="int" >       29 </v>
   <v type="int" >       30 </v>
   <v type="int" >       31 </v>
   <v type="int" >       32 </v>
   <v type="int" >       33 </v>
   <v type="int" >       34 </v>
   <v type="int" >       35 </v>
   <v type="int" >       36 </v>
   <v type="int" >       37 </v>
   <v type="int" >       38 </v>
   <v type="int" >       39 </v>
   <v type="int" >       40 </v>
   <v type="int" >       41 </v>
   <v type="int" >       42 </v>
   <v type="int" >       43 </v>
   <v type="int" >       44 </v>
   <v type="int" >       45 </v>
   <v type="int" >       46 </v>
   <v type="int" >       47 </v>
   <v type="int" >       48 </v>
   <v type="int" >       49 </v>
   <v type="int" >       50 </v>
   <v type="int" >       51 </v>
   <v type="int" >       52 </v>
   <v type="int" >       53 </v>
   <v type="int" >       54 </v>
   <v type="int" >       55 </v>
   <v type="int" >       56 </v>
   <v type="int" >       57 </v>
   <v type="int" >       58 </v>
   <v type="int" >       59 </v>
   <v type="int" >       60 </v>
   <v type="int" >       61 </v>
   <v type="int" >       62 </v>
   <v type="int" >       63 </v>
   <v type="int" >       64 </v>
   <v type="int" >       65 </v>
   <v type="int" >       66 </v>
   <v type="int" >       67 </v>
   <v type="int" >       68 </v>
   <v type="int" >       69 </v>
   <v type="int" >       70 </v>
   <v type="int" >       71 </v>
   <v type="int" >       72 </v>
   <v type="int" >       73 </v>
   <v type="int" >       74 </v>
   <v type="int" >       75 </v>
   <v type="int" >       76 </v>
   <v type="int" >       77 </v>
   <v type="int" >       78 </v>
   <v type="int" >       79 </v>
   <v type="int" >       80 </v>
   <v type="int" >       81 </v>
   <v type="int" >       82 </v>
   <v type="int" >       83 </v>
   <v type="int" >       84 </v>
   <v type="int" >       85 </v>
   <v type="int" >       86 </v>
   <v type="int" >       87 </v>
   <v type="int" >       88 </v>
   <v type="int" >       89 </v>
   <v type="int" >       90 </v>
   <v type="int" >       91 </v>
   <v type="int" >       92 </v>
  </varray>
 </primitive_cell>
 <kpoints>
  <generation param="Gamma">
   <v type="int" name="divisions">       1        4        1 </v>
   <v name="usershift">      0.00000000       0.00000000       0.00000000 </v>
   <v name="genvec1">      1.00000000       0.00000000       0.00000000 </v>
   <v name="genvec2">      0.00000000       0.25000000       0.00000000 </v>
   <v name="genvec3">      0.00000000       0.00000000       1.00000000 </v>
   <v name="shift">      0.00000000       0.00000000       0.00000000 </v>
  </generation>
  <varray name="kpointlist" >
   <v>       0.00000000       0.00000000       0.00000000 </v>
   <v>       0.00000000       0.25000000       0.00000000 </v>
   <v>       0.00000000       0.50000000       0.00000000 </v>
  </varray>
  <varray name="weights" >
   <v>       0.25000000 </v>
   <v>       0.50000000 </v>
   <v>       0.25000000 </v>
  </varray>
 </kpoints>
 <parameters>
  <separator name="general" >
   <i type="string" name="SYSTEM">unknown system</i>
   <i type="logical" name="LCOMPAT"> F  </i>
  </separator>
  <separator name="electronic" >
   <i type="string" name="PREC">accura</i>
   <i name="ENMAX">    500.00000000</i>
   <i name="ENAUG">    644.87300000</i>
   <i name="EDIFF">      0.00000100</i>
   <i type="int" name="IALGO">    38</i>
   <i type="int" name="IWAVPR">    10</i>
   <i type="int" name="NBANDS">   232</i>
   <i type="int" name="NBANDSLOW">    -1</i>
   <i type="int" name="NBANDSHIGH">    -1</i>
   <i name="NELECT">    368.00000000</i>
   <i type="int" name="TURBO">     0</i>
   <i type="int" name="IRESTART">     0</i>
   <i type="int" name="NREBOOT">     0</i>
   <i type="int" name="NMIN">     0</i>
   <i name="EREF">      0.00000000</i>
   <separator name="electronic smearing" >
    <i type="int" name="ISMEAR">     0</i>
    <i name="SIGMA">      0.20000000</i>
    <i name="KSPACING">      0.50000000</i>
    <i type="logical" name="KGAMMA"> T  </i>
    <i type="logical" name="KBLOWUP"> T  </i>
   </separator>
   <separator name="electronic projectors" >
    <i type="logical" name="LREAL"> T  </i>
    <v name="ROPT">     -0.00025000</v>
    <i type="int" name="LMAXPAW">  -100</i>
    <i type="int" name="LMAXMIX">     2</i>
    <i type="logical" name="NLSPLINE"> F  </i>
   </separator>
   <separator name="electronic startup" >
    <i type="int" name="ISTART">     0</i>
    <i type="int" name="ICHARG">     2</i>
    <i type="int" name="INIWAV">     1</i>
   </separator>
   <separator name="electronic spin" >
    <i type="int" name="ISPIN">     1</i>
    <i type="logical" name="LNONCOLLINEAR"> F  </i>
    <v name="MAGMOM">      1.00000000      1.00000000      1.00000000      1.00000000      1.00000000      1.00000000      1.00000000      1.00000000      1.00000000      1.00000000      1.00000000      1.00000000      1.00000000      1.00000000      1.00000000      1.00000000      1.00000000      1.00000000      1.00000000      1.00000000
      1.00000000      1.00000000      1.00000000      1.00000000      1.00000000      1.00000000      1.00000000      1.00000000      1.00000000      1.00000000      1.00000000      1.00000000      1.00000000      1.00000000      1.00000000      1.00000000      1.00000000      1.00000000      1.00000000      1.00000000
      1.00000000      1.00000000      1.00000000      1.00000000      1.00000000      1.00000000      1.00000000      1.00000000      1.00000000      1.00000000      1.00000000      1.00000000      1.00000000      1.00000000      1.00000000      1.00000000      1.00000000      1.00000000      1.00000000      1.00000000
      1.00000000      1.00000000      1.00000000      1.00000000      1.00000000      1.00000000      1.00000000      1.00000000      1.00000000      1.00000000      1.00000000      1.00000000      1.00000000      1.00000000      1.00000000      1.00000000      1.00000000      1.00000000      1.00000000      1.00000000
      1.00000000      1.00000000      1.00000000      1.00000000      1.00000000      1.00000000      1.00000000      1.00000000      1.00000000      1.00000000      1.00000000      1.00000000</v>
    <i name="NUPDOWN">     -1.00000000</i>
    <i type="logical" name="LSORBIT"> F  </i>
    <v name="SAXIS">      0.00000000      0.00000000      1.00000000</v>
    <i type="logical" name="LSPIRAL"> F  </i>
    <v name="QSPIRAL">      0.00000000      0.00000000      0.00000000</v>
    <i type="logical" name="LZEROZ"> F  </i>
   </separator>
   <separator name="electronic exchange-correlation" >
    <i type="logical" name="LASPH"> F  </i>
   </separator>
   <separator name="electronic convergence" >
    <i type="int" name="NELM">   150</i>
    <i type="int" name="NELMDL">    -5</i>
    <i type="int" name="NELMIN">     2</i>
    <i name="ENINI">    500.00000000</i>
    <separator name="electronic convergence detail" >
     <i type="logical" name="LDIAG"> T  </i>
     <i type="logical" name="LSUBROT"> F  </i>
     <i name="WEIMIN">      0.00000000</i>
     <i name="EBREAK">      0.00000000</i>
     <i name="DEPER">      0.30000000</i>
     <i type="int" name="NRMM">     4</i>
     <i name="TIME">      0.40000000</i>
    </separator>
   </separator>
   <separator name="electronic mixer" >
    <i name="AMIX">      0.40000000</i>
    <i name="BMIX">      1.00000000</i>
    <i name="AMIN">      0.10000000</i>
    <i name="AMIX_MAG">      1.60000000</i>
    <i name="BMIX_MAG">      1.00000000</i>
    <separator name="electronic mixer details" >
     <i type="int" name="IMIX">     4</i>
     <i type="logical" name="MIXFIRST"> F  </i>
     <i type="int" name="MAXMIX">   -45</i>
     <i name="WC">    100.00000000</i>
     <i type="int" name="INIMIX">     1</i>
     <i type="int" name="MIXPRE">     1</i>
     <i type="int" name="MREMOVE">     5</i>
    </separator>
   </separator>
   <separator name="electronic dipolcorrection" >
    <i type="logical" name="LDIPOL"> F  </i>
    <i type="logical" name="LMONO"> F  </i>
    <i type="int" name="IDIPOL">     0</i>
    <i name="EPSILON">      1.00000000</i>
    <v name="DIPOL">   -100.00000000   -100.00000000   -100.00000000</v>
    <i name="EFIELD">      0.00000000</i>
    <i type="logical" name="LVACPOTAV"> F  </i>
   </separator>
  </separator>
  <separator name="grids" >
   <i type="int" name="NGX">   210</i>
   <i type="int" name="NGY">    60</i>
   <i type="int" name="NGZ">   250</i>
   <i type="int" name="NGXF">   420</i>
   <i type="int" name="NGYF">   120</i>
   <i type="int" name="NGZF">   500</i>
   <i type="logical" name="ADDGRID"> F  </i>
  </separator>
  <separator name="ionic" >
   <i type="int" name="NSW">     0</i>
   <i type="int" name="IBRION">    -1</i>
   <i type="int" name="MDALGO">     0</i>
   <i type="int" name="ISIF">     2</i>
   <i name="PSTRESS">      0.00000000</i>
   <i name="EDIFFG">      0.00001000</i>
   <i type="int" name="NFREE">     0</i>
   <i name="POTIM">      0.50000000</i>
   <i name="SMASS">     -3.00000000</i>
   <i name="SCALEE">      1.00000000</i>
  </separator>
  <separator name="ionic md" >
   <i name="TEBEG">      0.00010000</i>
   <i name="TEEND">      0.00010000</i>
   <i type="int" name="NBLOCK">     1</i>
   <i type="int" name="KBLOCK">     1</i>
   <i type="int" name="NPACO">   256</i>
   <i name="APACO">     10.00000000</i>
  </separator>
  <separator name="symmetry" >
   <i type="int" name="ISYM">     2</i>
   <i name="SYMPREC">      0.00001000</i>
  </separator>
  <separator name="dos" >
   <i type="int" name="LORBIT">     0</i>
   <v name="RWIGS">     -1.00000000</v>
   <i type="int" name="NEDOS">   301</i>
   <i name="EMIN">     10.00000000</i>
   <i name="EMAX">    -10.00000000</i>
   <i name="EFERMI">      0.00000000</i>
  </separator>
  <separator name="writing" >
   <i type="int" name="NWRITE">     2</i>
   <i type="logical" name="LWAVE"> F  </i>
   <i type="logical" name="LDOWNSAMPLE"> F  </i>
   <i type="logical" name="LCHARG"> F  </i>
   <i type="logical" name="LPARD"> F  </i>
   <i type="logical" name="LVTOT"> F  </i>
   <i type="logical" name="LVHAR"> F  </i>
   <i type="logical" name="LELF"> F  </i>
   <i type="logical" name="LOPTICS"> F  </i>
   <v name="STM">      0.00000000      0.00000000      0.00000000      0.00000000      0.00000000      0.00000000      0.00000000</v>
  </separator>
  <separator name="performance" >
   <i type="int" name="NPAR">     2</i>
   <i type="int" name="NSIM">     4</i>
   <i type="int" name="NBLK">    -1</i>
   <i type="logical" name="LPLANE"> T  </i>
   <i type="logical" name="LSCALAPACK"> T  </i>
   <i type="logical" name="LSCAAWARE"> F  </i>
   <i type="logical" name="LSCALU"> F  </i>
   <i type="logical" name="LASYNC"> F  </i>
   <i type="logical" name="LORBITALREAL"> F  </i>
  </separator>
  <separator name="miscellaneous" >
   <i type="int" name="IDIOT">     3</i>
   <i type="int" name="PHON_NSTRUCT">    -1</i>
   <i type="logical" name="LMUSIC"> F  </i>
   <v name="POMASS">     12.01100000</v>
   <v name="DARWINR">      0.00000000</v>
   <v name="DARWINV">      1.00000000</v>
   <i type="logical" name="LCORR"> T  </i>
  </separator>
  <i type="logical" name="GGA_COMPAT"> T  </i>
  <i type="logical" name="LBERRY"> F  </i>
  <i type="int" name="ICORELEVEL">     0</i>
  <i type="logical" name="LDAU"> F  </i>
  <i type="int" name="I_CONSTRAINED_M">     0</i>
  <separator name="electronic exchange-correlation" >
   <i type="string" name="GGA    ">PE</i>
   <i type="string" name="XC_C">1</i>
   <i type="int" name="VOSKOWN">     0</i>
   <i type="logical" name="LHFCALC"> F  </i>
   <i type="string" name="PRECFOCK"></i>
   <i type="logical" name="LSYMGRAD"> F  </i>
   <i type="logical" name="LHFONE"> F  </i>
   <i type="logical" name="LRHFCALC"> F  </i>
   <i type="logical" name="LTHOMAS"> F  </i>
   <i type="logical" name="LMODELHF"> F  </i>
   <i type="logical" name="LFOCKACE"> F  </i>
   <i name="ENCUT4O">     -1.00000000</i>
   <i type="int" name="EXXOEP">     0</i>
   <i type="int" name="FOURORBIT">     0</i>
   <i name="AEXX">      0.00000000</i>
   <i name="HFALPHA">      0.00000000</i>
   <i name="MCALPHA">      0.00000000</i>
   <i name="ALDAX">      1.00000000</i>
   <i name="AGGAX">      1.00000000</i>
   <i name="AMGGAX">      1.00000000</i>
   <i name="ALDAC">      1.00000000</i>
   <i name="AGGAC">      1.00000000</i>
   <i name="AMGGAC">      1.00000000</i>
   <i type="int" name="NKREDX">     1</i>
   <i type="int" name="NKREDY">     1</i>
   <i type="int" name="NKREDZ">     1</i>
   <i type="logical" name="SHIFTRED"> F  </i>
   <i type="logical" name="ODDONLY"> F  </i>
   <i type="logical" name="EVENONLY"> F  </i>
   <i type="int" name="LMAXFOCK">     0</i>
   <i type="int" name="NMAXFOCKAE">     0</i>
   <i type="logical" name="LFOCKAEDFT"> F  </i>
   <i name="HFSCREEN">      0.00000000</i>
   <i name="HFSCREENC">      0.00000000</i>
   <i type="int" name="NBANDSGWLOW">     0</i>
  </separator>
  <separator name="vdW DFT" >
   <i type="logical" name="LUSE_VDW"> F  </i>
   <i type="int" name="IVDW_NL">    -1</i>
   <i type="logical" name="LSPIN_VDW"> F  </i>
   <i name="ZAB_VDW">     -0.84910000</i>
   <i name="GAMMA_VDW">      1.39626340</i>
   <i name="ALPHA_VDW">      0.00000000</i>
   <i name="PARAM1">      0.12340000</i>
   <i name="PARAM2">      1.00000000</i>
   <i name="BPARAM">      6.30000000</i>
   <i name="CPARAM">      0.00930000</i>
  </separator>
  <separator name="model GW" >
   <i type="int" name="MODEL_GW">     0</i>
   <i name="MODEL_EPS0">     49.63935326</i>
   <i name="MODEL_ALPHA">      1.00000000</i>
  </separator>
  <separator name="linear response parameters" >
   <i type="logical" name="LEPSILON"> F  </i>
   <i type="logical" name="LRPA"> F  </i>
   <i type="logical" name="LNABLA"> F  </i>
   <i type="logical" name="LVEL"> F  </i>
   <i name="CSHIFT">      0.10000000</i>
   <i name="OMEGAMAX">     -1.00000000</i>
   <i name="DEG_THRESHOLD">      0.00200000</i>
   <i name="RTIME">     -0.10000000</i>
   <i name="WPLASMAI">      0.00000000</i>
   <v name="DFIELD">      0.00000000      0.00000000      0.00000000</v>
   <v name="WPLASMA">      0.00000000      0.00000000      0.00000000      0.00000000      0.00000000      0.00000000      0.00000000      0.00000000      0.00000000</v>
  </separator>
  <separator name="orbital magnetization" >
   <i type="logical" name="NUCIND"> F  </i>
   <v name="MAGPOS">      0.00000000      0.00000000      0.00000000</v>
   <i type="logical" name="LNICSALL"> T  </i>
   <i type="logical" name="ORBITALMAG"> F  </i>
   <i type="logical" name="LMAGBLOCH"> F  </i>
   <i type="logical" name="LCHIMAG"> F  </i>
   <i type="logical" name="LGAUGE"> T  </i>
   <i type="int" name="MAGATOM">     0</i>
   <v name="MAGDIPOL">      0.00000000      0.00000000      0.00000000</v>
   <v name="AVECCONST">      0.00000000      0.00000000      0.00000000</v>
  </separator>
  <separator name="response functions" >
   <i type="logical" name="LALL_IN_ONE"> F  </i>
   <i type="int" name="IALL_IN_ONE">    -1</i>
   <i type="int" name="NBANDS_WAVE">    -1</i>
   <i type="logical" name="LFINITE_TEMPERATURE"> F  </i>
   <i type="logical" name="LADDER"> F  </i>
   <i type="logical" name="LRPAFORCE"> F  </i>
   <i type="logical" name="LFXC"> F  </i>
   <i type="logical" name="LHARTREE"> T  </i>
   <i type="int" name="IBSE">     2</i>
   <v type="int" name="KPOINT">    -1     0     0     0</v>
   <i type="logical" name="LTCTC"> F  </i>
   <i type="logical" name="LTCTE"> F  </i>
   <i type="logical" name="LTETE"> F  </i>
   <i type="logical" name="LTRIPLET"> F  </i>
   <i type="logical" name="LFXCEPS"> F  </i>
   <i type="logical" name="LFXHEG"> F  </i>
   <i type="int" name="NATURALO">     2</i>
   <i type="logical" name="LHOLEGF"> F  </i>
   <i type="logical" name="L2ORDER"> F  </i>
   <i type="logical" name="LDMP1"> F  </i>
   <i type="logical" name="LMP2LT"> F  </i>
   <i type="logical" name="LSMP2LT"> F  </i>
   <i type="logical" name="LGWLF"> F  </i>
   <i name="ENCUTGW">     -1.60000002</i>
   <i name="ENCUTGWSOFT">     -1.60000002</i>
   <i name="ENCUTLF">     -1.00000000</i>
   <i type="logical" name="ESF_SPLINES"> F  </i>
   <i name="ESF_CONV">      0.01000000</i>
   <i type="int" name="ESF_NINTER">    15</i>
   <i type="int" name="LMAXMP2">    -1</i>
   <i name="SCISSOR">      0.00000000</i>
   <i type="int" name="NOMEGA">     0</i>
   <i type="int" name="NOMEGAR">     0</i>
   <i type="int" name="NBANDSGW">    -1</i>
   <i type="int" name="NBANDSO">    -1</i>
   <i type="int" name="NBANDSV">    -1</i>
   <i type="int" name="NELMGW">     1</i>
   <i type="int" name="NELMHF">     1</i>
   <i type="int" name="DIM">     3</i>
   <i type="int" name="IESPILON">     4</i>
   <i type="int" name="ANTIRES">     0</i>
   <i name="OMEGAMAX">    -30.00000000</i>
   <i name="OMEGAMIN">    -30.00000000</i>
   <i name="OMEGATL">   -200.00000000</i>
   <i type="int" name="OMEGAGRID">     0</i>
   <i name="CSHIFT">     -0.10000000</i>
   <i type="logical" name="LSELFENERGY"> F  </i>
   <i type="logical" name="LSPECTRAL"> F  </i>
   <i type="logical" name="LSPECTRALGW"> F  </i>
   <i type="logical" name="LSINGLES"> F  </i>
   <i type="logical" name="LFERMIGW"> F  </i>
   <i type="logical" name="ODDONLYGW"> F  </i>
   <i type="logical" name="EVENONLYGW"> F  </i>
   <i type="int" name="NKREDLFX">     1</i>
   <i type="int" name="NKREDLFY">     1</i>
   <i type="int" name="NKREDLFZ">     1</i>
   <i type="int" name="MAXMEM">  2800</i>
   <i type="int" name="TELESCOPE">     0</i>
   <i type="int" name="NTAUPAR">    -1</i>
   <i type="int" name="NOMEGAPAR">    -1</i>
   <i name="DAMP_NEWTON">      0.80000001</i>
   <i name="LAMBDA">      1.00000000</i>
  </separator>
  <separator name="External order field" >
   <i name="OFIELD_KAPPA">      0.00000000</i>
   <v name="OFIELD_K">      0.00000000      0.00000000      0.00000000</v>
   <i name="OFIELD_Q6_NEAR">      0.00000000</i>
   <i name="OFIELD_Q6_FAR">      0.00000000</i>
   <i name="OFIELD_A">      0.00000000</i>
  </separator>
  <separator name="optional k-points parameters" >
   <i type="int" name="KPOINTS_OPT_MODE">     1</i>
   <i type="logical" name="LKPOINTS_OPT"> F  </i>
  </separator>
 </parameters>
 <atominfo>
  <atoms>      92 </atoms>
  <types>       1 </types>
  <array name="atoms" >
   <dimension dim="1">ion</dimension>
   <field type="string">element</field>
   <field type="int">atomtype</field>
   <set>
    <rc><c>C </c><c>   1</c></rc>
    <rc><c>C </c><c>   1</c></rc>
    <rc><c>C </c><c>   1</c></rc>
    <rc><c>C </c><c>   1</c></rc>
    <rc><c>C </c><c>   1</c></rc>
    <rc><c>C </c><c>   1</c></rc>
    <rc><c>C </c><c>   1</c></rc>
    <rc><c>C </c><c>   1</c></rc>
    <rc><c>C </c><c>   1</c></rc>
    <rc><c>C </c><c>   1</c></rc>
    <rc><c>C </c><c>   1</c></rc>
    <rc><c>C </c><c>   1</c></rc>
    <rc><c>C </c><c>   1</c></rc>
    <rc><c>C </c><c>   1</c></rc>
    <rc><c>C </c><c>   1</c></rc>
    <rc><c>C </c><c>   1</c></rc>
    <rc><c>C </c><c>   1</c></rc>
    <rc><c>C </c><c>   1</c></rc>
    <rc><c>C </c><c>   1</c></rc>
    <rc><c>C </c><c>   1</c></rc>
    <rc><c>C </c><c>   1</c></rc>
    <rc><c>C </c><c>   1</c></rc>
    <rc><c>C </c><c>   1</c></rc>
    <rc><c>C </c><c>   1</c></rc>
    <rc><c>C </c><c>   1</c></rc>
    <rc><c>C </c><c>   1</c></rc>
    <rc><c>C </c><c>   1</c></rc>
    <rc><c>C </c><c>   1</c></rc>
    <rc><c>C </c><c>   1</c></rc>
    <rc><c>C </c><c>   1</c></rc>
    <rc><c>C </c><c>   1</c></rc>
    <rc><c>C </c><c>   1</c></rc>
    <rc><c>C </c><c>   1</c></rc>
    <rc><c>C </c><c>   1</c></rc>
    <rc><c>C </c><c>   1</c></rc>
    <rc><c>C </c><c>   1</c></rc>
    <rc><c>C </c><c>   1</c></rc>
    <rc><c>C </c><c>   1</c></rc>
    <rc><c>C </c><c>   1</c></rc>
    <rc><c>C </c><c>   1</c></rc>
    <rc><c>C </c><c>   1</c></rc>
    <rc><c>C </c><c>   1</c></rc>
    <rc><c>C </c><c>   1</c></rc>
    <rc><c>C </c><c>   1</c></rc>
    <rc><c>C </c><c>   1</c></rc>
    <rc><c>C </c><c>   1</c></rc>
    <rc><c>C </c><c>   1</c></rc>
    <rc><c>C </c><c>   1</c></rc>
    <rc><c>C </c><c>   1</c></rc>
    <rc><c>C </c><c>   1</c></rc>
    <rc><c>C </c><c>   1</c></rc>
    <rc><c>C </c><c>   1</c></rc>
    <rc><c>C </c><c>   1</c></rc>
    <rc><c>C </c><c>   1</c></rc>
    <rc><c>C </c><c>   1</c></rc>
    <rc><c>C </c><c>   1</c></rc>
    <rc><c>C </c><c>   1</c></rc>
    <rc><c>C </c><c>   1</c></rc>
    <rc><c>C </c><c>   1</c></rc>
    <rc><c>C </c><c>   1</c></rc>
    <rc><c>C </c><c>   1</c></rc>
    <rc><c>C </c><c>   1</c></rc>
    <rc><c>C </c><c>   1</c></rc>
    <rc><c>C </c><c>   1</c></rc>
    <rc><c>C </c><c>   1</c></rc>
    <rc><c>C </c><c>   1</c></rc>
    <rc><c>C </c><c>   1</c></rc>
    <rc><c>C </c><c>   1</c></rc>
    <rc><c>C </c><c>   1</c></rc>
    <rc><c>C </c><c>   1</c></rc>
    <rc><c>C </c><c>   1</c></rc>
    <rc><c>C </c><c>   1</c></rc>
    <rc><c>C </c><c>   1</c></rc>
    <rc><c>C </c><c>   1</c></rc>
    <rc><c>C </c><c>   1</c></rc>
    <rc><c>C </c><c>   1</c></rc>
    <rc><c>C </c><c>   1</c></rc>
    <rc><c>C </c><c>   1</c></rc>
    <rc><c>C </c><c>   1</c></rc>
    <rc><c>C </c><c>   1</c></rc>
    <rc><c>C </c><c>   1</c></rc>
    <rc><c>C </c><c>   1</c></rc>
    <rc><c>C </c><c>   1</c></rc>
    <rc><c>C </c><c>   1</c></rc>
    <rc><c>C </c><c>   1</c></rc>
    <rc><c>C </c><c>   1</c></rc>
    <rc><c>C </c><c>   1</c></rc>
    <rc><c>C </c><c>   1</c></rc>
    <rc><c>C </c><c>   1</c></rc>
    <rc><c>C </c><c>   1</c></rc>
    <rc><c>C </c><c>   1</c></rc>
    <rc><c>C </c><c>   1</c></rc>
   </set>
  </array>
  <array name="atomtypes" >
   <dimension dim="1">type</dimension>
   <field type="int">atomspertype</field>
   <field type="string">element</field>
   <field>mass</field>
   <field>valence</field>
   <field type="string">pseudopotential</field>
   <set>
    <rc><c>  92</c><c>C </c><c>     12.01100000</c><c>      4.00000000</c><c>  PAW_PBE C 08Apr2002                   </c></rc>
   </set>
  </array>
 </atominfo>
 <structure name="initialpos" >
  <crystal>
   <varray name="basis" >
    <v>      28.05000000       0.00000000       0.00000000 </v>
    <v>       0.00000000       8.10000000       0.00000000 </v>
    <v>       0.00000000       0.00000000      33.50000000 </v>
   </varray>
   <i name="volume">   7611.36750000 </i>
   <varray name="rec_basis" >
    <v>       0.03565062       0.00000000       0.00000000 </v>
    <v>       0.00000000       0.12345679       0.00000000 </v>
    <v>       0.00000000       0.00000000       0.02985075 </v>
   </varray>
  </crystal>
  <varray name="positions" >
   <v>       0.00810724       0.10755407       0.44766269 </v>
   <v>       0.00714998       0.27923704       0.44976716 </v>
   <v>       0.05101711       0.02481593       0.45484179 </v>
   <v>       0.05000107       0.35546543       0.46136119 </v>
   <v>       0.09357932       0.10892198       0.46404776 </v>
   <v>       0.09388627       0.27640864       0.46690149 </v>
   <v>       0.13758467       0.02734802       0.47045373 </v>
   <v>       0.13619144       0.35875062       0.47866269 </v>
   <v>       0.18142709       0.10829506       0.48067463 </v>
   <v>       0.18121390       0.28028765       0.48597015 </v>
   <v>       0.22326417       0.02936605       0.49107164 </v>
   <v>       0.22101248       0.35710247       0.50191045 </v>
   <v>       0.26598111       0.10320469       0.50282985 </v>
   <v>       0.26503743       0.26824198       0.50931940 </v>
   <v>       0.31107736       0.01967148       0.51051642 </v>
   <v>       0.30690588       0.35225185       0.52318507 </v>
   <v>       0.35236684       0.09817198       0.52608657 </v>
   <v>       0.34922282       0.26886049       0.53259104 </v>
   <v>       0.39504100       0.02590704       0.53064776 </v>
   <v>       0.39220677       0.35551728       0.54149254 </v>
   <v>       0.43760428       0.11051370       0.53744776 </v>
   <v>       0.43738324       0.27722469       0.54254328 </v>
   <v>       0.48297326       0.02110630       0.54610746 </v>
   <v>       0.48355437       0.34940988       0.55020000 </v>
   <v>       0.52758289       0.10299025       0.54532537 </v>
   <v>       0.52773262       0.27538148       0.54743284 </v>
   <v>       0.57215686       0.02326259       0.54414627 </v>
   <v>       0.57305882       0.35526914       0.54710746 </v>
   <v>       0.61719786       0.10360531       0.53535522 </v>
   <v>       0.61713725       0.27624444       0.53950149 </v>
   <v>       0.65987879       0.02292914       0.52734328 </v>
   <v>       0.66157932       0.35500123       0.53052836 </v>
   <v>       0.70307665       0.10483790       0.51815522 </v>
   <v>       0.70245633       0.27233457       0.51880597 </v>
   <v>       0.74108734       0.01679099       0.49791642 </v>
   <v>       0.74457041       0.35223086       0.50367761 </v>
   <v>       0.78310873       0.09660111       0.48440597 </v>
   <v>       0.78254902       0.26389753       0.48524179 </v>
   <v>       0.82467380       0.01651198       0.46853731 </v>
   <v>       0.82432799       0.35132469       0.46959403 </v>
   <v>       0.86865597       0.09795000       0.45878806 </v>
   <v>       0.86715152       0.26345679       0.46142687 </v>
   <v>       0.90909804       0.01578864       0.44688955 </v>
   <v>       0.91147594       0.34918148       0.45644179 </v>
   <v>       0.95489483       0.09629506       0.44582985 </v>
   <v>       0.95429947       0.27198148       0.44655224 </v>
   <v>       0.00788000       0.60158272       0.45222687 </v>
   <v>       0.00875629       0.77176049       0.44292239 </v>
   <v>       0.04968200       0.52343951       0.46438806 </v>
   <v>       0.05284456       0.85114568       0.45217612 </v>
   <v>       0.09441676       0.61014938       0.46722090 </v>
   <v>       0.09491943       0.77618395       0.46015522 </v>
   <v>       0.13551800       0.52818025       0.48097612 </v>
   <v>       0.13767522       0.86162963       0.46920299 </v>
   <v>       0.17920963       0.61174321       0.49042388 </v>
   <v>       0.18090766       0.77976049       0.48131343 </v>
   <v>       0.21932799       0.52773827       0.50425672 </v>
   <v>       0.22206881       0.86350000       0.49508060 </v>
   <v>       0.26049626       0.61134691       0.51753134 </v>
   <v>       0.26274082       0.77689136       0.51288955 </v>
   <v>       0.30542995       0.51921852       0.52884478 </v>
   <v>       0.30905419       0.85219506       0.51566567 </v>
   <v>       0.35064207       0.60312346       0.53530746 </v>
   <v>       0.35097041       0.76573210       0.52737313 </v>
   <v>       0.39442424       0.52680988       0.54300896 </v>
   <v>       0.39485561       0.85584444       0.53391045 </v>
   <v>       0.43918004       0.60322593       0.54562985 </v>
   <v>       0.43840642       0.77366049       0.54226866 </v>
   <v>       0.48269519       0.52344691       0.55288657 </v>
   <v>       0.48418895       0.85420123       0.54739403 </v>
   <v>       0.52928699       0.60694321       0.55331642 </v>
   <v>       0.52914795       0.77412222       0.54873134 </v>
   <v>       0.57320856       0.52783457       0.54774328 </v>
   <v>       0.57382888       0.85141605       0.54649552 </v>
   <v>       0.61772193       0.61106049       0.53762687 </v>
   <v>       0.61757932       0.77414198       0.53623284 </v>
   <v>       0.66069875       0.52336790       0.52718507 </v>
   <v>       0.65973975       0.85628889       0.52429254 </v>
   <v>       0.70127629       0.60728519       0.51255224 </v>
   <v>       0.69789661       0.77685309       0.50538806 </v>
   <v>       0.74129412       0.51459630       0.50130746 </v>
   <v>       0.73840285       0.85063827       0.48949254 </v>
   <v>       0.78322282       0.59702593       0.48572836 </v>
   <v>       0.78065597       0.76367531       0.47775224 </v>
   <v>       0.82713012       0.51674938       0.47516418 </v>
   <v>       0.82303030       0.85264568       0.46662090 </v>
   <v>       0.86787522       0.59917654       0.46211045 </v>
   <v>       0.86602496       0.76457407       0.45756716 </v>
   <v>       0.91212834       0.51396543       0.45715821 </v>
   <v>       0.90984314       0.84972469       0.44730746 </v>
   <v>       0.95582888       0.60013827       0.44930448 </v>
   <v>       0.95441711       0.76929012       0.44187164 </v>
  </varray>
 </structure>
 <calculation>
  <scstep>
   <time name="dav">   10.98   10.99</time>
   <time name="total">   11.45   11.47</time>
   <energy>
    <i name="alphaZ">     91.34886789 </i>
    <i name="ewald"> 119132.69944499 </i>
    <i name="hartreedc">-128468.55415617 </i>
    <i name="XCdc">   1220.80823532 </i>
    <i name="pawpsdc">   9984.02826696 </i>
    <i name="pawaedc"> -10036.41360137 </i>
    <i name="eentropy">     -0.82980778 </i>
    <i name="bandstr">  -1720.13058446 </i>
    <i name="atom">  13537.65479391 </i>
    <i name="e_fr_energy">   3740.61145929 </i>
    <i name="e_wo_entrp">   3741.44126707 </i>
    <i name="e_0_energy">   3741.02636318 </i>
   </energy>
  </scstep>
  <scstep>
   <time name="dav">   13.14   13.14</time>
   <time name="total">   13.14   13.14</time>
   <energy>
    <i name="e_fr_energy">    190.43861425 </i>
    <i name="e_wo_entrp">    190.62193936 </i>
    <i name="e_0_energy">    190.53027680 </i>
   </energy>
  </scstep>
  <scstep>
   <time name="dav">   11.27   11.28</time>
   <time name="total">   11.27   11.28</time>
   <energy>
    <i name="e_fr_energy">   -832.62809132 </i>
    <i name="e_wo_entrp">   -832.56226572 </i>
    <i name="e_0_energy">   -832.59517852 </i>
   </energy>
  </scstep>
  <scstep>
   <time name="dav">   10.87   10.88</time>
   <time name="total">   10.87   10.88</time>
   <energy>
    <i name="e_fr_energy">   -895.18761943 </i>
    <i name="e_wo_entrp">   -895.11014046 </i>
    <i name="e_0_energy">   -895.14887995 </i>
   </energy>
  </scstep>
  <scstep>
   <time name="dav">   11.09   11.10</time>
   <time name="total">   12.57   12.58</time>
   <energy>
    <i name="e_fr_energy">   -896.78635301 </i>
    <i name="e_wo_entrp">   -896.70910965 </i>
    <i name="e_0_energy">   -896.74773133 </i>
   </energy>
  </scstep>
  <scstep>
   <time name="dav">   10.23   10.23</time>
   <time name="total">   12.02   12.03</time>
   <energy>
    <i name="e_fr_energy">   -847.38474987 </i>
    <i name="e_wo_entrp">   -847.31886878 </i>
    <i name="e_0_energy">   -847.35180933 </i>
   </energy>
  </scstep>
  <scstep>
   <time name="dav">   10.14   10.15</time>
   <time name="total">   11.94   11.94</time>
   <energy>
    <i name="e_fr_energy">   -829.02179936 </i>
    <i name="e_wo_entrp">   -828.95668476 </i>
    <i name="e_0_energy">   -828.98924206 </i>
   </energy>
  </scstep>
  <scstep>
   <time name="dav">   10.31   10.31</time>
   <time name="total">   12.11   12.11</time>
   <energy>
    <i name="e_fr_energy">   -828.75092446 </i>
    <i name="e_wo_entrp">   -828.68611300 </i>
    <i name="e_0_energy">   -828.71851873 </i>
   </energy>
  </scstep>
  <scstep>
   <time name="dav">   10.80   10.80</time>
   <time name="total">   12.60   12.60</time>
   <energy>
    <i name="e_fr_energy">   -828.63634677 </i>
    <i name="e_wo_entrp">   -828.57154415 </i>
    <i name="e_0_energy">   -828.60394546 </i>
   </energy>
  </scstep>
  <scstep>
   <time name="dav">   10.94   10.94</time>
   <time name="total">   12.74   12.75</time>
   <energy>
    <i name="e_fr_energy">   -828.59631785 </i>
    <i name="e_wo_entrp">   -828.53155570 </i>
    <i name="e_0_energy">   -828.56393678 </i>
   </energy>
  </scstep>
  <scstep>
   <time name="dav">   10.14   10.15</time>
   <time name="total">   11.97   11.97</time>
   <energy>
    <i name="e_fr_energy">   -828.56156741 </i>
    <i name="e_wo_entrp">   -828.49677758 </i>
    <i name="e_0_energy">   -828.52917250 </i>
   </energy>
  </scstep>
  <scstep>
   <time name="dav">   10.22   10.23</time>
   <time name="total">   12.05   12.05</time>
   <energy>
    <i name="e_fr_energy">   -828.55415908 </i>
    <i name="e_wo_entrp">   -828.48932500 </i>
    <i name="e_0_energy">   -828.52174204 </i>
   </energy>
  </scstep>
  <scstep>
   <time name="dav">   10.08   10.09</time>
   <time name="total">   11.91   11.92</time>
   <energy>
    <i name="e_fr_energy">   -828.56500419 </i>
    <i name="e_wo_entrp">   -828.50018363 </i>
    <i name="e_0_energy">   -828.53259391 </i>
   </energy>
  </scstep>
  <scstep>
   <time name="dav">   10.26   10.26</time>
   <time name="total">   12.09   12.10</time>
   <energy>
    <i name="e_fr_energy">   -828.58291538 </i>
    <i name="e_wo_entrp">   -828.51810517 </i>
    <i name="e_0_energy">   -828.55051027 </i>
   </energy>
  </scstep>
  <scstep>
   <time name="dav">   10.33   10.34</time>
   <time name="total">   12.18   12.19</time>
   <energy>
    <i name="e_fr_energy">   -828.60355873 </i>
    <i name="e_wo_entrp">   -828.53873135 </i>
    <i name="e_0_energy">   -828.57114504 </i>
   </energy>
  </scstep>
  <scstep>
   <time name="dav">   10.37   10.38</time>
   <time name="total">   12.24   12.25</time>
   <energy>
    <i name="e_fr_energy">   -828.61265756 </i>
    <i name="e_wo_entrp">   -828.54783196 </i>
    <i name="e_0_energy">   -828.58024476 </i>
   </energy>
  </scstep>
  <scstep>
   <time name="dav">   10.13   10.13</time>
   <time name="total">   11.99   12.00</time>
   <energy>
    <i name="e_fr_energy">   -828.61846249 </i>
    <i name="e_wo_entrp">   -828.55363397 </i>
    <i name="e_0_energy">   -828.58604823 </i>
   </energy>
  </scstep>
  <scstep>
   <time name="dav">    9.75    9.76</time>
   <time name="total">   11.63   11.63</time>
   <energy>
    <i name="e_fr_energy">   -828.62012734 </i>
    <i name="e_wo_entrp">   -828.55529622 </i>
    <i name="e_0_energy">   -828.58771178 </i>
   </energy>
  </scstep>
  <scstep>
   <time name="dav">    8.90    8.91</time>
   <time name="total">   10.79   10.80</time>
   <energy>
    <i name="e_fr_energy">   -828.62119002 </i>
    <i name="e_wo_entrp">   -828.55636130 </i>
    <i name="e_0_energy">   -828.58877566 </i>
   </energy>
  </scstep>
  <scstep>
   <time name="dav">    9.28    9.29</time>
   <time name="total">   11.19   11.20</time>
   <energy>
    <i name="e_fr_energy">   -828.62150160 </i>
    <i name="e_wo_entrp">   -828.55667257 </i>
    <i name="e_0_energy">   -828.58908709 </i>
   </energy>
  </scstep>
  <scstep>
   <time name="dav">    8.48    8.48</time>
   <time name="total">   10.40   10.40</time>
   <energy>
    <i name="e_fr_energy">   -828.62169004 </i>
    <i name="e_wo_entrp">   -828.55686027 </i>
    <i name="e_0_energy">   -828.58927516 </i>
   </energy>
  </scstep>
  <scstep>
   <time name="dav">    7.64    7.65</time>
   <time name="total">    9.57    9.57</time>
   <energy>
    <i name="e_fr_energy">   -828.62173556 </i>
    <i name="e_wo_entrp">   -828.55690606 </i>
    <i name="e_0_energy">   -828.58932081 </i>
   </energy>
  </scstep>
  <scstep>
   <time name="dav">    7.18    7.18</time>
   <time name="total">    9.11    9.13</time>
   <energy>
    <i name="e_fr_energy">   -828.62175965 </i>
    <i name="e_wo_entrp">   -828.55693024 </i>
    <i name="e_0_energy">   -828.58934495 </i>
   </energy>
  </scstep>
  <scstep>
   <time name="dav">    6.94    6.94</time>
   <time name="total">    8.89    8.89</time>
   <energy>
    <i name="e_fr_energy">   -828.62177188 </i>
    <i name="e_wo_entrp">   -828.55694235 </i>
    <i name="e_0_energy">   -828.58935711 </i>
   </energy>
  </scstep>
  <scstep>
   <time name="dav">    7.32    7.32</time>
   <time name="total">    9.29    9.30</time>
   <energy>
    <i name="e_fr_energy">   -828.62177516 </i>
    <i name="e_wo_entrp">   -828.55694568 </i>
    <i name="e_0_energy">   -828.58936042 </i>
   </energy>
  </scstep>
  <scstep>
   <time name="dav">    7.06    7.06</time>
   <time name="total">    9.06    9.06</time>
   <energy>
    <i name="e_fr_energy">   -828.62177887 </i>
    <i name="e_wo_entrp">   -828.55694940 </i>
    <i name="e_0_energy">   -828.58936414 </i>
   </energy>
  </scstep>
  <scstep>
   <time name="dav">    7.28    7.28</time>
   <time name="total">    9.28    9.28</time>
   <energy>
    <i name="e_fr_energy">   -828.62178003 </i>
    <i name="e_wo_entrp">   -828.55695055 </i>
    <i name="e_0_energy">   -828.58936529 </i>
   </energy>
  </scstep>
  <scstep>
   <time name="dav">    7.15    7.15</time>
   <time name="total">    9.16    9.17</time>
   <energy>
    <i name="e_fr_energy">   -828.62178162 </i>
    <i name="e_wo_entrp">   -828.55695214 </i>
    <i name="e_0_energy">   -828.58936688 </i>
   </energy>
  </scstep>
  <scstep>
   <time name="dav">    7.11    7.11</time>
   <time name="total">    7.47    7.47</time>
   <energy>
    <i name="alphaZ">     91.34886789 </i>
    <i name="ewald"> 119132.69944499 </i>
    <i name="hartreedc">-130223.05883799 </i>
    <i name="XCdc">   1277.94711318 </i>
    <i name="pawpsdc">  40897.21581085 </i>
    <i name="pawaedc"> -40961.21603093 </i>
    <i name="eentropy">     -0.06482949 </i>
    <i name="bandstr">  -4581.14811442 </i>
    <i name="atom">  13537.65479391 </i>
    <i name="e_fr_energy">   -828.62178200 </i>
    <i name="e_wo_entrp">   -828.55695252 </i>
    <i name="e_0_energy">   -828.58936726 </i>
   </energy>
  </scstep>
  <structure>
   <crystal>
    <varray name="basis" >
     <v>      28.05000000       0.00000000       0.00000000 </v>
     <v>       0.00000000       8.10000000       0.00000000 </v>
     <v>       0.00000000       0.00000000      33.50000000 </v>
    </varray>
    <i name="volume">   7611.36750000 </i>
    <varray name="rec_basis" >
     <v>       0.03565062       0.00000000       0.00000000 </v>
     <v>       0.00000000       0.12345679       0.00000000 </v>
     <v>       0.00000000       0.00000000       0.02985075 </v>
    </varray>
   </crystal>
   <varray name="positions" >
    <v>       0.00810724       0.10755407       0.44766269 </v>
    <v>       0.00714998       0.27923704       0.44976716 </v>
    <v>       0.05101711       0.02481593       0.45484179 </v>
    <v>       0.05000107       0.35546543       0.46136119 </v>
    <v>       0.09357932       0.10892198       0.46404776 </v>
    <v>       0.09388627       0.27640864       0.46690149 </v>
    <v>       0.13758467       0.02734802       0.47045373 </v>
    <v>       0.13619144       0.35875062       0.47866269 </v>
    <v>       0.18142709       0.10829506       0.48067463 </v>
    <v>       0.18121390       0.28028765       0.48597015 </v>
    <v>       0.22326417       0.02936605       0.49107164 </v>
    <v>       0.22101248       0.35710247       0.50191045 </v>
    <v>       0.26598111       0.10320469       0.50282985 </v>
    <v>       0.26503743       0.26824198       0.50931940 </v>
    <v>       0.31107736       0.01967148       0.51051642 </v>
    <v>       0.30690588       0.35225185       0.52318507 </v>
    <v>       0.35236684       0.09817198       0.52608657 </v>
    <v>       0.34922282       0.26886049       0.53259104 </v>
    <v>       0.39504100       0.02590704       0.53064776 </v>
    <v>       0.39220677       0.35551728       0.54149254 </v>
    <v>       0.43760428       0.11051370       0.53744776 </v>
    <v>       0.43738324       0.27722469       0.54254328 </v>
    <v>       0.48297326       0.02110630       0.54610746 </v>
    <v>       0.48355437       0.34940988       0.55020000 </v>
    <v>       0.52758289       0.10299025       0.54532537 </v>
    <v>       0.52773262       0.27538148       0.54743284 </v>
    <v>       0.57215686       0.02326259       0.54414627 </v>
    <v>       0.57305882       0.35526914       0.54710746 </v>
    <v>       0.61719786       0.10360531       0.53535522 </v>
    <v>       0.61713725       0.27624444       0.53950149 </v>
    <v>       0.65987879       0.02292914       0.52734328 </v>
    <v>       0.66157932       0.35500123       0.53052836 </v>
    <v>       0.70307665       0.10483790       0.51815522 </v>
    <v>       0.70245633       0.27233457       0.51880597 </v>
    <v>       0.74108734       0.01679099       0.49791642 </v>
    <v>       0.74457041       0.35223086       0.50367761 </v>
    <v>       0.78310873       0.09660111       0.48440597 </v>
    <v>       0.78254902       0.26389753       0.48524179 </v>
    <v>       0.82467380       0.01651198       0.46853731 </v>
    <v>       0.82432799       0.35132469       0.46959403 </v>
    <v>       0.86865597       0.09795000       0.45878806 </v>
    <v>       0.86715152       0.26345679       0.46142687 </v>
    <v>       0.90909804       0.01578864       0.44688955 </v>
    <v>       0.91147594       0.34918148       0.45644179 </v>
    <v>       0.95489483       0.09629506       0.44582985 </v>
    <v>       0.95429947       0.27198148       0.44655224 </v>
    <v>       0.00788000       0.60158272       0.45222687 </v>
    <v>       0.00875629       0.77176049       0.44292239 </v>
    <v>       0.04968200       0.52343951       0.46438806 </v>
    <v>       0.05284456       0.85114568       0.45217612 </v>
    <v>       0.09441676       0.61014938       0.46722090 </v>
    <v>       0.09491943       0.77618395       0.46015522 </v>
    <v>       0.13551800       0.52818025       0.48097612 </v>
    <v>       0.13767522       0.86162963       0.46920299 </v>
    <v>       0.17920963       0.61174321       0.49042388 </v>
    <v>       0.18090766       0.77976049       0.48131343 </v>
    <v>       0.21932799       0.52773827       0.50425672 </v>
    <v>       0.22206881       0.86350000       0.49508060 </v>
    <v>       0.26049626       0.61134691       0.51753134 </v>
    <v>       0.26274082       0.77689136       0.51288955 </v>
    <v>       0.30542995       0.51921852       0.52884478 </v>
    <v>       0.30905419       0.85219506       0.51566567 </v>
    <v>       0.35064207       0.60312346       0.53530746 </v>
    <v>       0.35097041       0.76573210       0.52737313 </v>
    <v>       0.39442424       0.52680988       0.54300896 </v>
    <v>       0.39485561       0.85584444       0.53391045 </v>
    <v>       0.43918004       0.60322593       0.54562985 </v>
    <v>       0.43840642       0.77366049       0.54226866 </v>
    <v>       0.48269519       0.52344691       0.55288657 </v>
    <v>       0.48418895       0.85420123       0.54739403 </v>
    <v>       0.52928699       0.60694321       0.55331642 </v>
    <v>       0.52914795       0.77412222       0.54873134 </v>
    <v>       0.57320856       0.52783457       0.54774328 </v>
    <v>       0.57382888       0.85141605       0.54649552 </v>
    <v>       0.61772193       0.61106049       0.53762687 </v>
    <v>       0.61757932       0.77414198       0.53623284 </v>
    <v>       0.66069875       0.52336790       0.52718507 </v>
    <v>       0.65973975       0.85628889       0.52429254 </v>
    <v>       0.70127629       0.60728519       0.51255224 </v>
    <v>       0.69789661       0.77685309       0.50538806 </v>
    <v>       0.74129412       0.51459630       0.50130746 </v>
    <v>       0.73840285       0.85063827       0.48949254 </v>
    <v>       0.78322282       0.59702593       0.48572836 </v>
    <v>       0.78065597       0.76367531       0.47775224 </v>
    <v>       0.82713012       0.51674938       0.47516418 </v>
    <v>       0.82303030       0.85264568       0.46662090 </v>
    <v>       0.86787522       0.59917654       0.46211045 </v>
    <v>       0.86602496       0.76457407       0.45756716 </v>
    <v>       0.91212834       0.51396543       0.45715821 </v>
    <v>       0.90984314       0.84972469       0.44730746 </v>
    <v>       0.95582888       0.60013827       0.44930448 </v>
    <v>       0.95441711       0.76929012       0.44187164 </v>
   </varray>
  </structure>
  <varray name="forces" >
   <v>       1.29926777      -0.18955337       0.27560195 </v>
   <v>       1.62901119      -1.63267067       0.47191133 </v>
   <v>      -0.54244974      -0.57015215      -0.63180646 </v>
   <v>      -1.35731614      -0.05467425      -0.06370165 </v>
   <v>       0.58690325      -0.52038902      -0.30839713 </v>
   <v>      -0.04996665      -0.09761624       0.42407758 </v>
   <v>       0.79437240       1.43046216      -0.02789075 </v>
   <v>       0.67727913      -0.01524566       0.29166969 </v>
   <v>      -1.16254550       1.62167928      -0.12116969 </v>
   <v>      -2.06978115      -1.50707320      -0.29765180 </v>
   <v>       0.74158120      -0.60336583      -0.04025247 </v>
   <v>       1.13105829      -0.22356690      -0.15312206 </v>
   <v>       1.90240857       0.26662559       0.15898638 </v>
   <v>      -0.53392080       2.34529386       0.25116521 </v>
   <v>      -1.25427102       0.48052626       0.93781339 </v>
   <v>      -1.15465958      -0.58998494       0.59139660 </v>
   <v>      -2.90938057       3.18057542      -1.54486087 </v>
   <v>       1.23533598      -0.06179436      -0.57557222 </v>
   <v>       1.92222829      -1.96025842       0.73008037 </v>
   <v>       0.82710857       0.04809241       0.10398934 </v>
   <v>       2.18484450      -1.91180940       1.22489201 </v>
   <v>       0.87932915      -0.61633576       0.46036587 </v>
   <v>      -0.77387815       2.05410837      -1.42977522 </v>
   <v>      -1.89750508       3.08936136      -0.32926653 </v>
   <v>       0.16534790       0.81563568       0.51543263 </v>
   <v>       1.11663502      -1.67997124       0.17923061 </v>
   <v>       1.29450048      -0.65039576      -0.77045556 </v>
   <v>      -0.05746868       1.01808046      -0.34786499 </v>
   <v>      -1.88768939       1.40466609       1.72602087 </v>
   <v>       0.43189859      -1.45234523      -0.49270888 </v>
   <v>       0.56118988       0.76905060      -0.31719479 </v>
   <v>      -1.55534626       0.30814609       0.40869722 </v>
   <v>      -0.03471086      -1.90127849      -1.39783602 </v>
   <v>       2.01559920      -0.00470621      -0.18861086 </v>
   <v>       0.41387660       0.96977532      -0.12553250 </v>
   <v>      -1.38672242      -3.22853287       0.09644893 </v>
   <v>       0.18862620      -0.18688434      -0.25629279 </v>
   <v>       1.38575354       2.47314763       0.00613867 </v>
   <v>      -0.47897751       1.91647149       0.08109866 </v>
   <v>      -0.28468200      -2.57265328       2.16218747 </v>
   <v>      -2.66599348      -0.55002134       0.01155946 </v>
   <v>       0.90416928       2.23877049      -0.33714513 </v>
   <v>       3.48706578       1.35380783       0.47532468 </v>
   <v>       0.28292298      -1.94805818      -0.50077963 </v>
   <v>      -1.80312686       2.50563067      -0.95512570 </v>
   <v>      -1.46603290      -2.26830837       1.15068156 </v>
   <v>       1.43915059       1.82590866      -0.42883326 </v>
   <v>       1.79855212      -1.31895256       1.45730069 </v>
   <v>       0.08679198       1.76266254      -0.96064141 </v>
   <v>      -3.93234165       2.48844908      -1.46353460 </v>
   <v>      -1.16984399      -1.20576721       0.55653381 </v>
   <v>       1.77619617      -1.04828282       0.96339072 </v>
   <v>       0.92508593       0.43112190      -0.40175786 </v>
   <v>       1.19215840      -1.92281367      -0.05647000 </v>
   <v>      -1.56614879       0.00766049      -1.06556584 </v>
   <v>      -0.43917671      -0.36113000       1.55523528 </v>
   <v>       0.79885983      -0.08958516       0.87414910 </v>
   <v>       0.57015781      -2.55689721      -0.04799319 </v>
   <v>       2.16090479      -2.38643345       0.53045256 </v>
   <v>       0.18854858       1.61052098      -1.52106308 </v>
   <v>      -0.78456013       2.07039709      -0.78056517 </v>
   <v>      -0.73631815      -0.94201573       0.14135647 </v>
   <v>      -1.73053995      -0.99462011      -0.05543296 </v>
   <v>       0.58720105       3.20617679       0.37080092 </v>
   <v>      -0.85566950      -1.88692103      -0.13439828 </v>
   <v>       0.29642424      -1.46266491      -0.68303729 </v>
   <v>      -0.44975861       1.01177998       0.64376693 </v>
   <v>       1.14081696       0.11779839       0.34990186 </v>
   <v>       1.92712797      -0.95125438      -0.28715813 </v>
   <v>      -1.36108879      -0.44987630      -0.53600059 </v>
   <v>      -1.72887134      -1.13259127      -0.75079968 </v>
   <v>      -0.37319618      -0.01833433       0.97248707 </v>
   <v>       1.14682269      -0.91435869       0.02246627 </v>
   <v>      -0.25485641       2.06203801      -1.04001431 </v>
   <v>      -0.57942684      -4.04736672       0.13464185 </v>
   <v>      -0.26775505       1.83252080       0.47994097 </v>
   <v>      -0.69769386       1.45086957       0.53677092 </v>
   <v>      -0.85915774      -0.55606429      -0.66572021 </v>
   <v>      -1.29162305      -0.74525439      -0.41172013 </v>
   <v>       0.40993630      -2.25994097       1.16986275 </v>
   <v>       2.46469866       4.00689452      -1.03460020 </v>
   <v>       0.34936982       0.45238109       0.78909881 </v>
   <v>      -0.00635393       0.20464701      -0.63750397 </v>
   <v>      -0.07253338       1.12419091       0.51234422 </v>
   <v>      -2.08608656       0.54266817      -0.45044584 </v>
   <v>       0.06432905      -3.60651112      -0.27438112 </v>
   <v>       1.13656307      -0.67248974       0.31299790 </v>
   <v>       1.01870544       1.88483747      -0.35292114 </v>
   <v>       0.90340969       3.42759758      -0.27192809 </v>
   <v>       0.33786088      -2.47679598      -0.38446731 </v>
   <v>      -2.72069599       0.16074477       0.11878658 </v>
   <v>      -1.48786442      -0.96720537       0.68291127 </v>
  </varray>
  <varray name="stress" >
   <v>      -6.97002699      -0.44707491      -0.19696382 </v>
   <v>      -0.44707491      56.11983785      -0.00024382 </v>
   <v>      -0.19696382      -0.00024383      -1.44324197 </v>
  </varray>
  <energy>
   <i name="e_fr_energy">   -828.62178200 </i>
   <i name="e_wo_entrp">   -828.55695252 </i>
   <i name="e_0_energy">   -828.58936726 </i>
  </energy>
  <time name="totalsc">  332.51  332.69</time>
  <eigenvalues>
   <array>
    <dimension dim="1">band</dimension>
    <dimension dim="2">kpoint</dimension>
    <dimension dim="3">spin</dimension>
    <field>eigene</field>
    <field>occ</field>
    <set>
     <set comment="spin 1">
      <set comment="kpoint 1">
       <r>  -23.1287    1.0000 </r>
       <r>  -23.0068    1.0000 </r>
       <r>  -22.9733    1.0000 </r>
       <r>  -22.6488    1.0000 </r>
       <r>  -22.5803    1.0000 </r>
       <r>  -22.0949    1.0000 </r>
       <r>  -22.0403    1.0000 </r>
       <r>  -21.9555    1.0000 </r>
       <r>  -21.5069    1.0000 </r>
       <r>  -21.4510    1.0000 </r>
       <r>  -21.4028    1.0000 </r>
       <r>  -21.3438    1.0000 </r>
       <r>  -21.2452    1.0000 </r>
       <r>  -21.2090    1.0000 </r>
       <r>  -21.0886    1.0000 </r>
       <r>  -21.0782    1.0000 </r>
       <r>  -21.0263    1.0000 </r>
       <r>  -20.9812    1.0000 </r>
       <r>  -20.7822    1.0000 </r>
       <r>  -20.5070    1.0000 </r>
       <r>  -20.4294    1.0000 </r>
       <r>  -20.3878    1.0000 </r>
       <r>  -20.1179    1.0000 </r>
       <r>  -20.0808    1.0000 </r>
       <r>  -19.9761    1.0000 </r>
       <r>  -19.7202    1.0000 </r>
       <r>  -19.5311    1.0000 </r>
       <r>  -19.4365    1.0000 </r>
       <r>  -19.1947    1.0000 </r>
       <r>  -18.9283    1.0000 </r>
       <r>  -18.6792    1.0000 </r>
       <r>  -18.6699    1.0000 </r>
       <r>  -18.6042    1.0000 </r>
       <r>  -18.3745    1.0000 </r>
       <r>  -18.2035    1.0000 </r>
       <r>  -17.6364    1.0000 </r>
       <r>  -17.3459    1.0000 </r>
       <r>  -17.2788    1.0000 </r>
       <r>  -16.9166    1.0000 </r>
       <r>  -16.8686    1.0000 </r>
       <r>  -16.7697    1.0000 </r>
       <r>  -16.7426    1.0000 </r>
       <r>  -16.6579    1.0000 </r>
       <r>  -16.6247    1.0000 </r>
       <r>  -16.6109    1.0000 </r>
       <r>  -16.5159    1.0000 </r>
       <r>  -16.4776    1.0000 </r>
       <r>  -16.4104    1.0000 </r>
       <r>  -16.3690    1.0000 </r>
       <r>  -16.3602    1.0000 </r>
       <r>  -16.3252    1.0000 </r>
       <r>  -16.1672    1.0000 </r>
       <r>  -16.1031    1.0000 </r>
       <r>  -16.0399    1.0000 </r>
       <r>  -15.7214    1.0000 </r>
       <r>  -15.5967    1.0000 </r>
       <r>  -15.3989    1.0000 </r>
       <r>  -15.3715    1.0000 </r>
       <r>  -15.2460    1.0000 </r>
       <r>  -15.1744    1.0000 </r>
       <r>  -15.0519    1.0000 </r>
       <r>  -14.9820    1.0000 </r>
       <r>  -14.2714    1.0000 </r>
       <r>  -14.1075    1.0000 </r>
       <r>  -14.0903    1.0000 </r>
       <r>  -13.9937    1.0000 </r>
       <r>  -13.8838    1.0000 </r>
       <r>  -13.8224    1.0000 </r>
       <r>  -13.6915    1.0000 </r>
       <r>  -13.6851    1.0000 </r>
       <r>  -13.4527    1.0000 </r>
       <r>  -13.4290    1.0000 </r>
       <r>  -13.2997    1.0000 </r>
       <r>  -13.1143    1.0000 </r>
       <r>  -12.9872    1.0000 </r>
       <r>  -12.9264    1.0000 </r>
       <r>  -12.6812    1.0000 </r>
       <r>  -12.4518    1.0000 </r>
       <r>  -12.1752    1.0000 </r>
       <r>  -12.1606    1.0000 </r>
       <r>  -12.0694    1.0000 </r>
       <r>  -12.0049    1.0000 </r>
       <r>  -11.9257    1.0000 </r>
       <r>  -11.7510    1.0000 </r>
       <r>  -11.7189    1.0000 </r>
       <r>  -11.6363    1.0000 </r>
       <r>  -11.3716    1.0000 </r>
       <r>  -11.1487    1.0000 </r>
       <r>  -11.0360    1.0000 </r>
       <r>  -11.0185    1.0000 </r>
       <r>  -10.9877    1.0000 </r>
       <r>  -10.8879    1.0000 </r>
       <r>  -10.8463    1.0000 </r>
       <r>  -10.7549    1.0000 </r>
       <r>  -10.7451    1.0000 </r>
       <r>  -10.7003    1.0000 </r>
       <r>  -10.6278    1.0000 </r>
       <r>  -10.5412    1.0000 </r>
       <r>  -10.4497    1.0000 </r>
       <r>  -10.3827    1.0000 </r>
       <r>  -10.3083    1.0000 </r>
       <r>  -10.2764    1.0000 </r>
       <r>  -10.2372    1.0000 </r>
       <r>  -10.2161    1.0000 </r>
       <r>  -10.1725    1.0000 </r>
       <r>  -10.0314    1.0000 </r>
       <r>   -9.9157    1.0000 </r>
       <r>   -9.8616    1.0000 </r>
       <r>   -9.8037    1.0000 </r>
       <r>   -9.6970    1.0000 </r>
       <r>   -9.6411    1.0000 </r>
       <r>   -9.5891    1.0000 </r>
       <r>   -9.5418    1.0000 </r>
       <r>   -9.5327    1.0000 </r>
       <r>   -9.4937    1.0000 </r>
       <r>   -9.4841    1.0000 </r>
       <r>   -9.4319    1.0000 </r>
       <r>   -9.3764    1.0000 </r>
       <r>   -9.3709    1.0000 </r>
       <r>   -9.3549    1.0000 </r>
       <r>   -9.3140    1.0000 </r>
       <r>   -9.2976    1.0000 </r>
       <r>   -9.2880    1.0000 </r>
       <r>   -9.2641    1.0000 </r>
       <r>   -9.2370    1.0000 </r>
       <r>   -9.2175    1.0000 </r>
       <r>   -9.1776    1.0000 </r>
       <r>   -9.1089    1.0000 </r>
       <r>   -9.0814    1.0000 </r>
       <r>   -9.0635    1.0000 </r>
       <r>   -9.0221    1.0000 </r>
       <r>   -8.9951    1.0000 </r>
       <r>   -8.9541    1.0000 </r>
       <r>   -8.9206    1.0000 </r>
       <r>   -8.9022    1.0000 </r>
       <r>   -8.8864    1.0000 </r>
       <r>   -8.8341    1.0000 </r>
       <r>   -8.7925    1.0000 </r>
       <r>   -8.6994    1.0000 </r>
       <r>   -8.6611    1.0000 </r>
       <r>   -8.6448    1.0000 </r>
       <r>   -8.6120    1.0000 </r>
       <r>   -8.5825    1.0000 </r>
       <r>   -8.4962    1.0000 </r>
       <r>   -8.4205    1.0000 </r>
       <r>   -8.1869    1.0000 </r>
       <r>   -8.0529    1.0000 </r>
       <r>   -7.9684    1.0000 </r>
       <r>   -7.8995    1.0000 </r>
       <r>   -7.7757    1.0000 </r>
       <r>   -7.7196    1.0000 </r>
       <r>   -7.6023    1.0000 </r>
       <r>   -7.5997    1.0000 </r>
       <r>   -7.4675    1.0000 </r>
       <r>   -7.4564    1.0000 </r>
       <r>   -7.4054    1.0000 </r>
       <r>   -7.3879    1.0000 </r>
       <r>   -7.1637    1.0000 </r>
       <r>   -7.0401    1.0000 </r>
       <r>   -6.9361    1.0000 </r>
       <r>   -6.8260    1.0000 </r>
       <r>   -6.7143    1.0000 </r>
       <r>   -6.6644    1.0000 </r>
       <r>   -6.6191    1.0000 </r>
       <r>   -6.5253    1.0000 </r>
       <r>   -6.2558    1.0000 </r>
       <r>   -6.2486    1.0000 </r>
       <r>   -6.1412    1.0000 </r>
       <r>   -6.0457    1.0000 </r>
       <r>   -6.0103    1.0000 </r>
       <r>   -5.9565    1.0000 </r>
       <r>   -5.9144    1.0000 </r>
       <r>   -5.8446    1.0000 </r>
       <r>   -5.0090    1.0000 </r>
       <r>   -4.8665    1.0000 </r>
       <r>   -4.7693    1.0000 </r>
       <r>   -4.6266    1.0000 </r>
       <r>   -4.5822    1.0000 </r>
       <r>   -4.4954    1.0000 </r>
       <r>   -4.3967    1.0000 </r>
       <r>   -4.3214    1.0000 </r>
       <r>   -3.7551    0.9999 </r>
       <r>   -3.5254    0.9872 </r>
       <r>   -3.2422    0.5904 </r>
       <r>   -3.1831    0.4250 </r>
       <r>   -2.6683    0.0001 </r>
       <r>   -2.6130    0.0000 </r>
       <r>   -2.5502    0.0000 </r>
       <r>   -2.3522    0.0000 </r>
       <r>   -2.1640    0.0000 </r>
       <r>   -1.7877    0.0000 </r>
       <r>   -1.6921    0.0000 </r>
       <r>   -1.5507    0.0000 </r>
       <r>   -1.5013    0.0000 </r>
       <r>   -1.3739    0.0000 </r>
       <r>   -1.3626    0.0000 </r>
       <r>   -1.2513    0.0000 </r>
       <r>   -1.1972    0.0000 </r>
       <r>   -0.7955    0.0000 </r>
       <r>   -0.7092    0.0000 </r>
       <r>   -0.5482    0.0000 </r>
       <r>   -0.4148    0.0000 </r>
       <r>   -0.0637    0.0000 </r>
       <r>    0.0972    0.0000 </r>
       <r>    0.1380    0.0000 </r>
       <r>    0.2383    0.0000 </r>
       <r>    0.2989    0.0000 </r>
       <r>    0.5726    0.0000 </r>
       <r>    0.6584    0.0000 </r>
       <r>    0.6861    0.0000 </r>
       <r>    0.7099    0.0000 </r>
       <r>    0.8437    0.0000 </r>
       <r>    0.8800    0.0000 </r>
       <r>    0.9198    0.0000 </r>
       <r>    0.9290    0.0000 </r>
       <r>    0.9821    0.0000 </r>
       <r>    0.9931    0.0000 </r>
       <r>    1.1506    0.0000 </r>
       <r>    1.1597    0.0000 </r>
       <r>    1.2242    0.0000 </r>
       <r>    1.3026    0.0000 </r>
       <r>    1.3083    0.0000 </r>
       <r>    1.3283    0.0000 </r>
       <r>    1.4106    0.0000 </r>
       <r>    1.4707    0.0000 </r>
       <r>    1.5534    0.0000 </r>
       <r>    1.5656    0.0000 </r>
       <r>    1.7301    0.0000 </r>
       <r>    1.7329    0.0000 </r>
       <r>    1.7386    0.0000 </r>
       <r>    1.7527    0.0000 </r>
       <r>    1.8329    0.0000 </r>
      </set>
      <set comment="kpoint 2">
       <r>  -23.0328    1.0000 </r>
       <r>  -22.9080    1.0000 </r>
       <r>  -22.8759    1.0000 </r>
       <r>  -22.5510    1.0000 </r>
       <r>  -22.4887    1.0000 </r>
       <r>  -22.3431    1.0000 </r>
       <r>  -22.1300    1.0000 </r>
       <r>  -22.0746    1.0000 </r>
       <r>  -21.9431    1.0000 </r>
       <r>  -21.8605    1.0000 </r>
       <r>  -21.7839    1.0000 </r>
       <r>  -21.7068    1.0000 </r>
       <r>  -21.2490    1.0000 </r>
       <r>  -21.1447    1.0000 </r>
       <r>  -21.0800    1.0000 </r>
       <r>  -20.9580    1.0000 </r>
       <r>  -20.5745    1.0000 </r>
       <r>  -20.5337    1.0000 </r>
       <r>  -20.4831    1.0000 </r>
       <r>  -20.2704    1.0000 </r>
       <r>  -20.1662    1.0000 </r>
       <r>  -20.1123    1.0000 </r>
       <r>  -20.0442    1.0000 </r>
       <r>  -19.9227    1.0000 </r>
       <r>  -19.8387    1.0000 </r>
       <r>  -19.5662    1.0000 </r>
       <r>  -19.4614    1.0000 </r>
       <r>  -19.1444    1.0000 </r>
       <r>  -19.0296    1.0000 </r>
       <r>  -18.8969    1.0000 </r>
       <r>  -18.6573    1.0000 </r>
       <r>  -18.5974    1.0000 </r>
       <r>  -18.5571    1.0000 </r>
       <r>  -18.2223    1.0000 </r>
       <r>  -18.1653    1.0000 </r>
       <r>  -18.0753    1.0000 </r>
       <r>  -18.0454    1.0000 </r>
       <r>  -17.9852    1.0000 </r>
       <r>  -17.8234    1.0000 </r>
       <r>  -17.7233    1.0000 </r>
       <r>  -17.4924    1.0000 </r>
       <r>  -17.3591    1.0000 </r>
       <r>  -17.3300    1.0000 </r>
       <r>  -17.1539    1.0000 </r>
       <r>  -17.0030    1.0000 </r>
       <r>  -16.5668    1.0000 </r>
       <r>  -16.3546    1.0000 </r>
       <r>  -16.1397    1.0000 </r>
       <r>  -16.0412    1.0000 </r>
       <r>  -15.8511    1.0000 </r>
       <r>  -15.7117    1.0000 </r>
       <r>  -15.6640    1.0000 </r>
       <r>  -15.5581    1.0000 </r>
       <r>  -15.3647    1.0000 </r>
       <r>  -15.2658    1.0000 </r>
       <r>  -15.2190    1.0000 </r>
       <r>  -15.1030    1.0000 </r>
       <r>  -15.0525    1.0000 </r>
       <r>  -14.9568    1.0000 </r>
       <r>  -14.8979    1.0000 </r>
       <r>  -14.8640    1.0000 </r>
       <r>  -14.7629    1.0000 </r>
       <r>  -14.5294    1.0000 </r>
       <r>  -14.4083    1.0000 </r>
       <r>  -14.3642    1.0000 </r>
       <r>  -14.1862    1.0000 </r>
       <r>  -13.9226    1.0000 </r>
       <r>  -13.8209    1.0000 </r>
       <r>  -13.2954    1.0000 </r>
       <r>  -13.2317    1.0000 </r>
       <r>  -13.1869    1.0000 </r>
       <r>  -13.1006    1.0000 </r>
       <r>  -12.9433    1.0000 </r>
       <r>  -12.8658    1.0000 </r>
       <r>  -12.8115    1.0000 </r>
       <r>  -12.7255    1.0000 </r>
       <r>  -12.6770    1.0000 </r>
       <r>  -12.5087    1.0000 </r>
       <r>  -12.3556    1.0000 </r>
       <r>  -12.2987    1.0000 </r>
       <r>  -12.1356    1.0000 </r>
       <r>  -12.1244    1.0000 </r>
       <r>  -12.0053    1.0000 </r>
       <r>  -11.8399    1.0000 </r>
       <r>  -11.7445    1.0000 </r>
       <r>  -11.6098    1.0000 </r>
       <r>  -11.5622    1.0000 </r>
       <r>  -11.3980    1.0000 </r>
       <r>  -11.2898    1.0000 </r>
       <r>  -11.2031    1.0000 </r>
       <r>  -11.0680    1.0000 </r>
       <r>  -11.0012    1.0000 </r>
       <r>  -10.9704    1.0000 </r>
       <r>  -10.9276    1.0000 </r>
       <r>  -10.8942    1.0000 </r>
       <r>  -10.8364    1.0000 </r>
       <r>  -10.8165    1.0000 </r>
       <r>  -10.7963    1.0000 </r>
       <r>  -10.7143    1.0000 </r>
       <r>  -10.6329    1.0000 </r>
       <r>  -10.5699    1.0000 </r>
       <r>  -10.5072    1.0000 </r>
       <r>  -10.4272    1.0000 </r>
       <r>  -10.3878    1.0000 </r>
       <r>  -10.3484    1.0000 </r>
       <r>  -10.3051    1.0000 </r>
       <r>  -10.2061    1.0000 </r>
       <r>  -10.0755    1.0000 </r>
       <r>  -10.0627    1.0000 </r>
       <r>  -10.0063    1.0000 </r>
       <r>   -9.9578    1.0000 </r>
       <r>   -9.8997    1.0000 </r>
       <r>   -9.8757    1.0000 </r>
       <r>   -9.8207    1.0000 </r>
       <r>   -9.7506    1.0000 </r>
       <r>   -9.7338    1.0000 </r>
       <r>   -9.6719    1.0000 </r>
       <r>   -9.5994    1.0000 </r>
       <r>   -9.5789    1.0000 </r>
       <r>   -9.5143    1.0000 </r>
       <r>   -9.4551    1.0000 </r>
       <r>   -9.3995    1.0000 </r>
       <r>   -9.3733    1.0000 </r>
       <r>   -9.3342    1.0000 </r>
       <r>   -9.2325    1.0000 </r>
       <r>   -9.1316    1.0000 </r>
       <r>   -9.0112    1.0000 </r>
       <r>   -8.8824    1.0000 </r>
       <r>   -8.8455    1.0000 </r>
       <r>   -8.7912    1.0000 </r>
       <r>   -8.7592    1.0000 </r>
       <r>   -8.7043    1.0000 </r>
       <r>   -8.6888    1.0000 </r>
       <r>   -8.6191    1.0000 </r>
       <r>   -8.5828    1.0000 </r>
       <r>   -8.5547    1.0000 </r>
       <r>   -8.4584    1.0000 </r>
       <r>   -8.4264    1.0000 </r>
       <r>   -8.3533    1.0000 </r>
       <r>   -8.2785    1.0000 </r>
       <r>   -8.2290    1.0000 </r>
       <r>   -8.1986    1.0000 </r>
       <r>   -8.0984    1.0000 </r>
       <r>   -8.0432    1.0000 </r>
       <r>   -7.9821    1.0000 </r>
       <r>   -7.9276    1.0000 </r>
       <r>   -7.8575    1.0000 </r>
       <r>   -7.8152    1.0000 </r>
       <r>   -7.7288    1.0000 </r>
       <r>   -7.6815    1.0000 </r>
       <r>   -7.6504    1.0000 </r>
       <r>   -7.5202    1.0000 </r>
       <r>   -7.4751    1.0000 </r>
       <r>   -7.4002    1.0000 </r>
       <r>   -7.3635    1.0000 </r>
       <r>   -7.3189    1.0000 </r>
       <r>   -7.2275    1.0000 </r>
       <r>   -7.0144    1.0000 </r>
       <r>   -6.9634    1.0000 </r>
       <r>   -6.8738    1.0000 </r>
       <r>   -6.8234    1.0000 </r>
       <r>   -6.7755    1.0000 </r>
       <r>   -6.6590    1.0000 </r>
       <r>   -6.6142    1.0000 </r>
       <r>   -6.4859    1.0000 </r>
       <r>   -6.3569    1.0000 </r>
       <r>   -6.1980    1.0000 </r>
       <r>   -6.1448    1.0000 </r>
       <r>   -6.0982    1.0000 </r>
       <r>   -6.0155    1.0000 </r>
       <r>   -5.9483    1.0000 </r>
       <r>   -5.7902    1.0000 </r>
       <r>   -5.7318    1.0000 </r>
       <r>   -5.6253    1.0000 </r>
       <r>   -5.4900    1.0000 </r>
       <r>   -5.4097    1.0000 </r>
       <r>   -5.1414    1.0000 </r>
       <r>   -5.0594    1.0000 </r>
       <r>   -4.7774    1.0000 </r>
       <r>   -4.7029    1.0000 </r>
       <r>   -4.5156    1.0000 </r>
       <r>   -4.4628    1.0000 </r>
       <r>   -4.3856    1.0000 </r>
       <r>   -3.5376    0.9898 </r>
       <r>   -2.8743    0.0088 </r>
       <r>   -2.6140    0.0000 </r>
       <r>   -2.1404    0.0000 </r>
       <r>   -2.0361    0.0000 </r>
       <r>   -1.5951    0.0000 </r>
       <r>   -1.5232    0.0000 </r>
       <r>   -1.4586    0.0000 </r>
       <r>   -1.3688    0.0000 </r>
       <r>   -1.3236    0.0000 </r>
       <r>   -1.2983    0.0000 </r>
       <r>   -1.0863    0.0000 </r>
       <r>   -1.0245    0.0000 </r>
       <r>   -0.9978    0.0000 </r>
       <r>   -0.8999    0.0000 </r>
       <r>   -0.7755    0.0000 </r>
       <r>   -0.6192    0.0000 </r>
       <r>   -0.2311    0.0000 </r>
       <r>   -0.1477    0.0000 </r>
       <r>   -0.0490    0.0000 </r>
       <r>    0.0116    0.0000 </r>
       <r>    0.1284    0.0000 </r>
       <r>    0.1992    0.0000 </r>
       <r>    0.2522    0.0000 </r>
       <r>    0.3073    0.0000 </r>
       <r>    0.3369    0.0000 </r>
       <r>    0.7842    0.0000 </r>
       <r>    0.8194    0.0000 </r>
       <r>    0.8522    0.0000 </r>
       <r>    0.9725    0.0000 </r>
       <r>    1.0431    0.0000 </r>
       <r>    1.0596    0.0000 </r>
       <r>    1.0757    0.0000 </r>
       <r>    1.1338    0.0000 </r>
       <r>    1.2527    0.0000 </r>
       <r>    1.2924    0.0000 </r>
       <r>    1.3022    0.0000 </r>
       <r>    1.3507    0.0000 </r>
       <r>    1.3658    0.0000 </r>
       <r>    1.3852    0.0000 </r>
       <r>    1.4373    0.0000 </r>
       <r>    1.4436    0.0000 </r>
       <r>    1.4674    0.0000 </r>
       <r>    1.5528    0.0000 </r>
       <r>    1.5725    0.0000 </r>
       <r>    1.6043    0.0000 </r>
       <r>    1.6339    0.0000 </r>
       <r>    1.6804    0.0000 </r>
       <r>    1.7180    0.0000 </r>
      </set>
      <set comment="kpoint 3">
       <r>  -22.7679    1.0000 </r>
       <r>  -22.7442    1.0000 </r>
       <r>  -22.6423    1.0000 </r>
       <r>  -22.6178    1.0000 </r>
       <r>  -22.5859    1.0000 </r>
       <r>  -22.5302    1.0000 </r>
       <r>  -22.2821    1.0000 </r>
       <r>  -22.2322    1.0000 </r>
       <r>  -22.2137    1.0000 </r>
       <r>  -22.1592    1.0000 </r>
       <r>  -21.6845    1.0000 </r>
       <r>  -21.6388    1.0000 </r>
       <r>  -21.6038    1.0000 </r>
       <r>  -21.5402    1.0000 </r>
       <r>  -20.9127    1.0000 </r>
       <r>  -20.8445    1.0000 </r>
       <r>  -20.6815    1.0000 </r>
       <r>  -20.6353    1.0000 </r>
       <r>  -19.8921    1.0000 </r>
       <r>  -19.8338    1.0000 </r>
       <r>  -19.6260    1.0000 </r>
       <r>  -19.6141    1.0000 </r>
       <r>  -19.4927    1.0000 </r>
       <r>  -19.4746    1.0000 </r>
       <r>  -19.4120    1.0000 </r>
       <r>  -19.3794    1.0000 </r>
       <r>  -19.2811    1.0000 </r>
       <r>  -19.2434    1.0000 </r>
       <r>  -19.1210    1.0000 </r>
       <r>  -19.0274    1.0000 </r>
       <r>  -18.8996    1.0000 </r>
       <r>  -18.8943    1.0000 </r>
       <r>  -18.6433    1.0000 </r>
       <r>  -18.5968    1.0000 </r>
       <r>  -18.5026    1.0000 </r>
       <r>  -18.4530    1.0000 </r>
       <r>  -18.3449    1.0000 </r>
       <r>  -18.3102    1.0000 </r>
       <r>  -18.1485    1.0000 </r>
       <r>  -18.0619    1.0000 </r>
       <r>  -17.7317    1.0000 </r>
       <r>  -17.6847    1.0000 </r>
       <r>  -17.6206    1.0000 </r>
       <r>  -17.5922    1.0000 </r>
       <r>  -16.9159    1.0000 </r>
       <r>  -16.8642    1.0000 </r>
       <r>  -16.2126    1.0000 </r>
       <r>  -16.1835    1.0000 </r>
       <r>  -15.9939    1.0000 </r>
       <r>  -15.9817    1.0000 </r>
       <r>  -15.8851    1.0000 </r>
       <r>  -15.8690    1.0000 </r>
       <r>  -15.2952    1.0000 </r>
       <r>  -15.2341    1.0000 </r>
       <r>  -15.1336    1.0000 </r>
       <r>  -15.0380    1.0000 </r>
       <r>  -14.8825    1.0000 </r>
       <r>  -14.8399    1.0000 </r>
       <r>  -14.6811    1.0000 </r>
       <r>  -14.6698    1.0000 </r>
       <r>  -14.0887    1.0000 </r>
       <r>  -13.9630    1.0000 </r>
       <r>  -13.7740    1.0000 </r>
       <r>  -13.7643    1.0000 </r>
       <r>  -13.6925    1.0000 </r>
       <r>  -13.6216    1.0000 </r>
       <r>  -13.6091    1.0000 </r>
       <r>  -13.5554    1.0000 </r>
       <r>  -13.5387    1.0000 </r>
       <r>  -13.4911    1.0000 </r>
       <r>  -13.4769    1.0000 </r>
       <r>  -13.4156    1.0000 </r>
       <r>  -13.4058    1.0000 </r>
       <r>  -13.3380    1.0000 </r>
       <r>  -13.1620    1.0000 </r>
       <r>  -13.1212    1.0000 </r>
       <r>  -12.3037    1.0000 </r>
       <r>  -12.2936    1.0000 </r>
       <r>  -12.1439    1.0000 </r>
       <r>  -12.1212    1.0000 </r>
       <r>  -12.0413    1.0000 </r>
       <r>  -12.0110    1.0000 </r>
       <r>  -11.9884    1.0000 </r>
       <r>  -11.9479    1.0000 </r>
       <r>  -11.8981    1.0000 </r>
       <r>  -11.8103    1.0000 </r>
       <r>  -11.7305    1.0000 </r>
       <r>  -11.7014    1.0000 </r>
       <r>  -11.6070    1.0000 </r>
       <r>  -11.5622    1.0000 </r>
       <r>  -11.2983    1.0000 </r>
       <r>  -11.2625    1.0000 </r>
       <r>  -11.1872    1.0000 </r>
       <r>  -11.1558    1.0000 </r>
       <r>  -11.0137    1.0000 </r>
       <r>  -10.9799    1.0000 </r>
       <r>  -10.7708    1.0000 </r>
       <r>  -10.6576    1.0000 </r>
       <r>  -10.6545    1.0000 </r>
       <r>  -10.6216    1.0000 </r>
       <r>  -10.5816    1.0000 </r>
       <r>  -10.5292    1.0000 </r>
       <r>  -10.5160    1.0000 </r>
       <r>  -10.4864    1.0000 </r>
       <r>  -10.4574    1.0000 </r>
       <r>  -10.4383    1.0000 </r>
       <r>  -10.3959    1.0000 </r>
       <r>  -10.3010    1.0000 </r>
       <r>  -10.2934    1.0000 </r>
       <r>  -10.2366    1.0000 </r>
       <r>  -10.2224    1.0000 </r>
       <r>  -10.1508    1.0000 </r>
       <r>  -10.1175    1.0000 </r>
       <r>  -10.0867    1.0000 </r>
       <r>  -10.0184    1.0000 </r>
[...]
       <r>   -22.6187    15.1256     7.1573 </r>
       <r>   -22.5222    15.8570     8.6881 </r>
       <r>   -22.4257    14.6478    10.1022 </r>
       <r>   -22.3291    13.2085    11.3773 </r>
       <r>   -22.2326    13.5887    12.6891 </r>
       <r>   -22.1360    15.2158    14.1580 </r>
       <r>   -22.0395    16.1456    15.7167 </r>
       <r>   -21.9430    15.6935    17.2317 </r>
       <r>   -21.8464    14.7664    18.6573 </r>
       <r>   -21.7499    14.1160    20.0200 </r>
       <r>   -21.6533    13.4562    21.3190 </r>
       <r>   -21.5568    12.3850    22.5147 </r>
       <r>   -21.4603    11.3466    23.6101 </r>
       <r>   -21.3637    11.3290    24.7038 </r>
       <r>   -21.2672    12.8937    25.9485 </r>
       <r>   -21.1707    15.3839    27.4336 </r>
       <r>   -21.0741    17.0681    29.0814 </r>
       <r>   -20.9776    16.4862    30.6729 </r>
       <r>   -20.8810    13.8816    32.0130 </r>
       <r>   -20.7845    11.2803    33.1020 </r>
       <r>   -20.6880    10.8423    34.1487 </r>
       <r>   -20.5914    12.6657    35.3714 </r>
       <r>   -20.4949    14.3746    36.7591 </r>
       <r>   -20.3983    14.0020    38.1109 </r>
       <r>   -20.3018    12.7896    39.3456 </r>
       <r>   -20.2053    13.1728    40.6173 </r>
       <r>   -20.1087    15.0436    42.0695 </r>
       <r>   -20.0122    16.2813    43.6413 </r>
       <r>   -19.9157    15.8007    45.1667 </r>
       <r>   -19.8191    14.1684    46.5345 </r>
       <r>   -19.7226    12.8248    47.7726 </r>
       <r>   -19.6260    13.3558    49.0619 </r>
       <r>   -19.5295    15.4144    50.5500 </r>
       <r>   -19.4330    16.4533    52.1384 </r>
       <r>   -19.3364    15.2433    53.6100 </r>
       <r>   -19.2399    13.5710    54.9201 </r>
       <r>   -19.1433    13.2264    56.1969 </r>
       <r>   -19.0468    13.7889    57.5281 </r>
       <r>   -18.9503    14.0192    58.8815 </r>
       <r>   -18.8537    13.6737    60.2016 </r>
       <r>   -18.7572    14.1574    61.5683 </r>
       <r>   -18.6607    16.4500    63.1563 </r>
       <r>   -18.5641    18.2469    64.9179 </r>
       <r>   -18.4676    17.1060    66.5693 </r>
       <r>   -18.3710    14.8256    68.0005 </r>
       <r>   -18.2745    14.5372    69.4039 </r>
       <r>   -18.1780    16.2541    70.9730 </r>
       <r>   -18.0814    17.3794    72.6508 </r>
       <r>   -17.9849    16.0690    74.2021 </r>
       <r>   -17.8883    13.5252    75.5078 </r>
       <r>   -17.7918    12.3270    76.6978 </r>
       <r>   -17.6953    12.7359    77.9274 </r>
       <r>   -17.5987    12.9430    79.1769 </r>
       <r>   -17.5022    12.4548    80.3792 </r>
       <r>   -17.4056    12.2540    81.5622 </r>
       <r>   -17.3091    12.1518    82.7353 </r>
       <r>   -17.2126    11.0996    83.8069 </r>
       <r>   -17.1160     9.6759    84.7410 </r>
       <r>   -17.0195     9.3960    85.6480 </r>
       <r>   -16.9230    10.2817    86.6406 </r>
       <r>   -16.8264    11.1443    87.7165 </r>
       <r>   -16.7299    11.6676    88.8428 </r>
       <r>   -16.6333    12.4949    90.0491 </r>
       <r>   -16.5368    13.6599    91.3678 </r>
       <r>   -16.4403    14.6430    92.7814 </r>
       <r>   -16.3437    15.2426    94.2529 </r>
       <r>   -16.2472    15.6634    95.7650 </r>
       <r>   -16.1506    16.2622    97.3349 </r>
       <r>   -16.0541    16.6779    98.9450 </r>
       <r>   -15.9576    16.1555   100.5046 </r>
       <r>   -15.8610    15.0320   101.9558 </r>
       <r>   -15.7645    14.2506   103.3315 </r>
       <r>   -15.6680    13.8104   104.6648 </r>
       <r>   -15.5714    13.1062   105.9300 </r>
       <r>   -15.4749    12.8031   107.1660 </r>
       <r>   -15.3783    14.5071   108.5665 </r>
       <r>   -15.2818    17.9690   110.3012 </r>
       <r>   -15.1853    21.0039   112.3289 </r>
       <r>   -15.0887    22.3642   114.4879 </r>
       <r>   -14.9922    22.3580   116.6463 </r>
       <r>   -14.8956    21.0920   118.6825 </r>
       <r>   -14.7991    18.2045   120.4400 </r>
       <r>   -14.7026    14.2660   121.8172 </r>
       <r>   -14.6060    10.9876   122.8779 </r>
       <r>   -14.5095     9.6340   123.8080 </r>
       <r>   -14.4130     9.8659   124.7604 </r>
       <r>   -14.3164    10.4530   125.7695 </r>
       <r>   -14.2199    10.9145   126.8232 </r>
       <r>   -14.1233    11.6692   127.9497 </r>
       <r>   -14.0268    12.9591   129.2008 </r>
       <r>   -13.9303    14.6613   130.6161 </r>
       <r>   -13.8337    16.3223   132.1919 </r>
       <r>   -13.7372    17.2527   133.8574 </r>
       <r>   -13.6406    17.4096   135.5381 </r>
       <r>   -13.5441    17.5547   137.2328 </r>
       <r>   -13.4476    18.1571   138.9857 </r>
       <r>   -13.3510    18.9594   140.8160 </r>
       <r>   -13.2545    19.5428   142.7026 </r>
       <r>   -13.1579    19.3588   144.5715 </r>
       <r>   -13.0614    18.0968   146.3186 </r>
       <r>   -12.9649    16.6030   147.9214 </r>
       <r>   -12.8683    15.8084   149.4475 </r>
       <r>   -12.7718    15.2173   150.9166 </r>
       <r>   -12.6753    13.8769   152.2562 </r>
       <r>   -12.5787    12.0661   153.4211 </r>
       <r>   -12.4822    11.3421   154.5160 </r>
       <r>   -12.3856    12.8209   155.7537 </r>
       <r>   -12.2891    16.1389   157.3118 </r>
       <r>   -12.1926    20.2431   159.2660 </r>
       <r>   -12.0960    23.7191   161.5558 </r>
       <r>   -11.9995    24.9060   163.9602 </r>
       <r>   -11.9029    23.7555   166.2535 </r>
       <r>   -11.8064    22.2524   168.4017 </r>
       <r>   -11.7099    21.4720   170.4746 </r>
       <r>   -11.6133    20.2205   172.4267 </r>
       <r>   -11.5168    17.7031   174.1357 </r>
       <r>   -11.4203    15.5857   175.6403 </r>
       <r>   -11.3237    15.8661   177.1720 </r>
       <r>   -11.2272    18.3619   178.9447 </r>
       <r>   -11.1306    22.1337   181.0814 </r>
       <r>   -11.0341    26.9102   183.6793 </r>
       <r>   -10.9376    31.5761   186.7276 </r>
       <r>   -10.8410    34.3455   190.0433 </r>
       <r>   -10.7445    35.0773   193.4296 </r>
       <r>   -10.6479    35.2350   196.8311 </r>
       <r>   -10.5514    35.9747   200.3041 </r>
       <r>   -10.4549    37.1403   203.8896 </r>
       <r>   -10.3583    37.7203   207.5310 </r>
       <r>   -10.2618    36.9785   211.1009 </r>
       <r>   -10.1652    35.4680   214.5249 </r>
       <r>   -10.0687    34.5718   217.8624 </r>
       <r>    -9.9722    34.4097   221.1843 </r>
       <r>    -9.8756    33.7792   224.4453 </r>
       <r>    -9.7791    32.7227   227.6043 </r>
       <r>    -9.6826    32.7187   230.7629 </r>
       <r>    -9.5860    34.3958   234.0834 </r>
       <r>    -9.4895    37.2276   237.6773 </r>
       <r>    -9.3929    40.2019   241.5584 </r>
       <r>    -9.2964    41.2014   245.5359 </r>
       <r>    -9.1999    38.5242   249.2550 </r>
       <r>    -9.1033    34.0323   252.5404 </r>
       <r>    -9.0068    31.7409   255.6046 </r>
       <r>    -8.9102    33.2302   258.8126 </r>
       <r>    -8.8137    36.4988   262.3362 </r>
       <r>    -8.7172    38.4124   266.0445 </r>
       <r>    -8.6206    37.2665   269.6421 </r>
       <r>    -8.5241    33.9699   272.9215 </r>
       <r>    -8.4276    30.9495   275.9094 </r>
       <r>    -8.3310    29.5035   278.7576 </r>
       <r>    -8.2345    28.8320   281.5410 </r>
       <r>    -8.1379    27.7024   284.2153 </r>
       <r>    -8.0414    26.3329   286.7575 </r>
       <r>    -7.9449    26.0818   289.2754 </r>
       <r>    -7.8483    27.5020   291.9304 </r>
       <r>    -7.7518    29.5464   294.7828 </r>
       <r>    -7.6552    30.9204   297.7678 </r>
       <r>    -7.5587    31.6652   300.8247 </r>
       <r>    -7.4622    32.1076   303.9243 </r>
       <r>    -7.3656    31.0173   306.9187 </r>
       <r>    -7.2691    27.6494   309.5879 </r>
       <r>    -7.1726    24.1570   311.9200 </r>
       <r>    -7.0760    23.0839   314.1485 </r>
       <r>    -6.9795    24.3729   316.5014 </r>
       <r>    -6.8829    26.2623   319.0367 </r>
       <r>    -6.7864    27.4915   321.6907 </r>
       <r>    -6.6899    27.4738   324.3430 </r>
       <r>    -6.5933    25.6096   326.8153 </r>
       <r>    -6.4968    22.2632   328.9646 </r>
       <r>    -6.4002    19.4602   330.8432 </r>
       <r>    -6.3037    19.1542   332.6924 </r>
       <r>    -6.2072    21.2862   334.7473 </r>
       <r>    -6.1106    24.0551   337.0696 </r>
       <r>    -6.0141    25.7169   339.5522 </r>
       <r>    -5.9175    25.4534   342.0095 </r>
       <r>    -5.8210    23.3551   344.2641 </r>
       <r>    -5.7245    20.2783   346.2218 </r>
       <r>    -5.6279    17.0778   347.8704 </r>
       <r>    -5.5314    14.2836   349.2494 </r>
       <r>    -5.4349    12.1483   350.4221 </r>
       <r>    -5.3383    10.8354   351.4682 </r>
       <r>    -5.2418    10.7507   352.5060 </r>
       <r>    -5.1452    11.5331   353.6194 </r>
       <r>    -5.0487    11.5932   354.7386 </r>
       <r>    -4.9522    10.4514   355.7476 </r>
       <r>    -4.8556     9.8020   356.6939 </r>
       <r>    -4.7591    10.7271   357.7294 </r>
       <r>    -4.6625    12.3451   358.9212 </r>
       <r>    -4.5660    13.7961   360.2531 </r>
       <r>    -4.4695    14.5230   361.6551 </r>
       <r>    -4.3729    13.3269   362.9417 </r>
       <r>    -4.2764    10.0311   363.9101 </r>
       <r>    -4.1799     6.5285   364.5403 </r>
       <r>    -4.0833     4.3579   364.9610 </r>
       <r>    -3.9868     3.1781   365.2678 </r>
       <r>    -3.8902     2.4142   365.5009 </r>
       <r>    -3.7937     2.2930   365.7222 </r>
       <r>    -3.6972     2.9969   366.0116 </r>
       <r>    -3.6006     4.1391   366.4111 </r>
       <r>    -3.5041     4.8205   366.8765 </r>
       <r>    -3.4075     4.4415   367.3053 </r>
       <r>    -3.3110     3.6923   367.6617 </r>
       <r>    -3.2145     3.3479   367.9849 </r>
       <r>    -3.1179     3.1086   368.2850 </r>
       <r>    -3.0214     2.9248   368.5674 </r>
       <r>    -2.9249     3.5143   368.9067 </r>
       <r>    -2.8283     5.2173   369.4103 </r>
       <r>    -2.7318     7.7535   370.1588 </r>
       <r>    -2.6352     9.9454   371.1189 </r>
       <r>    -2.5387     9.8482   372.0697 </r>
       <r>    -2.4422     7.4448   372.7884 </r>
       <r>    -2.3456     5.2639   373.2966 </r>
       <r>    -2.2491     5.1060   373.7895 </r>
       <r>    -2.1525     6.3138   374.3990 </r>
       <r>    -2.0560     6.9727   375.0721 </r>
       <r>    -1.9595     6.2653   375.6770 </r>
       <r>    -1.8629     5.6686   376.2242 </r>
       <r>    -1.7664     7.2288   376.9221 </r>
       <r>    -1.6698    11.4341   378.0259 </r>
       <r>    -1.5733    16.9277   379.6601 </r>
       <r>    -1.4768    21.3080   381.7171 </r>
       <r>    -1.3802    22.9341   383.9311 </r>
       <r>    -1.2837    22.1662   386.0710 </r>
       <r>    -1.1872    20.5853   388.0583 </r>
       <r>    -1.0906    19.3718   389.9285 </r>
       <r>    -0.9941    18.0830   391.6742 </r>
       <r>    -0.8975    16.0197   393.2207 </r>
       <r>    -0.8010    14.1740   394.5890 </r>
       <r>    -0.7045    13.7220   395.9137 </r>
       <r>    -0.6079    13.8827   397.2539 </r>
       <r>    -0.5114    12.9185   398.5011 </r>
       <r>    -0.4148    10.9829   399.5613 </r>
       <r>    -0.3183    10.4465   400.5698 </r>
       <r>    -0.2218    12.5360   401.7800 </r>
       <r>    -0.1252    15.6050   403.2865 </r>
       <r>    -0.0287    17.6959   404.9949 </r>
       <r>     0.0678    19.0386   406.8328 </r>
       <r>     0.1644    20.9488   408.8552 </r>
       <r>     0.2609    22.9681   411.0725 </r>
       <r>     0.3575    22.8662   413.2800 </r>
       <r>     0.4540    20.2518   415.2351 </r>
       <r>     0.5505    18.1918   416.9913 </r>
       <r>     0.6471    19.8345   418.9061 </r>
       <r>     0.7436    24.8806   421.3080 </r>
       <r>     0.8402    30.4150   424.2442 </r>
       <r>     0.9367    34.2764   427.5532 </r>
       <r>     1.0332    36.5279   431.0796 </r>
       <r>     1.1298    38.5314   434.7994 </r>
       <r>     1.2263    41.9942   438.8534 </r>
       <r>     1.3228    46.6948   443.3613 </r>
       <r>     1.4194    49.5099   448.1409 </r>
       <r>     1.5159    48.0493   452.7795 </r>
       <r>     1.6125    42.3107   456.8641 </r>
       <r>     1.7090    33.1558   460.0649 </r>
       <r>     1.8055    22.1529   462.2036 </r>
       <r>     1.9021    11.9184   463.3541 </r>
       <r>     1.9986     4.8786   463.8251 </r>
       <r>     2.0952     1.4547   463.9656 </r>
       <r>     2.1917     0.3070   463.9952 </r>
       <r>     2.2882     0.0450   463.9995 </r>
       <r>     2.3848     0.0045   464.0000 </r>
       <r>     2.4813     0.0003   464.0000 </r>
       <r>     2.5779     0.0000   464.0000 </r>
       <r>     2.6744     0.0000   464.0000 </r>
       <r>     2.7709     0.0000   464.0000 </r>
       <r>     2.8675     0.0000   464.0000 </r>
       <r>     2.9640     0.0000   464.0000 </r>
       <r>     3.0605     0.0000   464.0000 </r>
       <r>     3.1571     0.0000   464.0000 </r>
       <r>     3.2536     0.0000   464.0000 </r>
       <r>     3.3502     0.0000   464.0000 </r>
       <r>     3.4467     0.0000   464.0000 </r>
       <r>     3.5432     0.0000   464.0000 </r>
       <r>     3.6398     0.0000   464.0000 </r>
       <r>     3.7363     0.0000   464.0000 </r>
       <r>     3.8329     0.0000   464.0000 </r>
      </set>
     </set>
    </array>
   </total>
  </dos>
 </calculation>
 <structure name="finalpos" >
  <crystal>
   <varray name="basis" >
    <v>      28.05000000       0.00000000       0.00000000 </v>
    <v>       0.00000000       8.10000000       0.00000000 </v>
    <v>       0.00000000       0.00000000      33.50000000 </v>
   </varray>
   <i name="volume">   7611.36750000 </i>
   <varray name="rec_basis" >
    <v>       0.03565062       0.00000000       0.00000000 </v>
    <v>       0.00000000       0.12345679       0.00000000 </v>
    <v>       0.00000000       0.00000000       0.02985075 </v>
   </varray>
  </crystal>
  <varray name="positions" >
   <v>       0.00810724       0.10755407       0.44766269 </v>
   <v>       0.00714998       0.27923704       0.44976716 </v>
   <v>       0.05101711       0.02481593       0.45484179 </v>
   <v>       0.05000107       0.35546543       0.46136119 </v>
   <v>       0.09357932       0.10892198       0.46404776 </v>
   <v>       0.09388627       0.27640864       0.46690149 </v>
   <v>       0.13758467       0.02734802       0.47045373 </v>
   <v>       0.13619144       0.35875062       0.47866269 </v>
   <v>       0.18142709       0.10829506       0.48067463 </v>
   <v>       0.18121390       0.28028765       0.48597015 </v>
   <v>       0.22326417       0.02936605       0.49107164 </v>
   <v>       0.22101248       0.35710247       0.50191045 </v>
   <v>       0.26598111       0.10320469       0.50282985 </v>
   <v>       0.26503743       0.26824198       0.50931940 </v>
   <v>       0.31107736       0.01967148       0.51051642 </v>
   <v>       0.30690588       0.35225185       0.52318507 </v>
   <v>       0.35236684       0.09817198       0.52608657 </v>
   <v>       0.34922282       0.26886049       0.53259104 </v>
   <v>       0.39504100       0.02590704       0.53064776 </v>
   <v>       0.39220677       0.35551728       0.54149254 </v>
   <v>       0.43760428       0.11051370       0.53744776 </v>
   <v>       0.43738324       0.27722469       0.54254328 </v>
   <v>       0.48297326       0.02110630       0.54610746 </v>
   <v>       0.48355437       0.34940988       0.55020000 </v>
   <v>       0.52758289       0.10299025       0.54532537 </v>
   <v>       0.52773262       0.27538148       0.54743284 </v>
   <v>       0.57215686       0.02326259       0.54414627 </v>
   <v>       0.57305882       0.35526914       0.54710746 </v>
   <v>       0.61719786       0.10360531       0.53535522 </v>
   <v>       0.61713725       0.27624444       0.53950149 </v>
   <v>       0.65987879       0.02292914       0.52734328 </v>
   <v>       0.66157932       0.35500123       0.53052836 </v>
   <v>       0.70307665       0.10483790       0.51815522 </v>
   <v>       0.70245633       0.27233457       0.51880597 </v>
   <v>       0.74108734       0.01679099       0.49791642 </v>
   <v>       0.74457041       0.35223086       0.50367761 </v>
   <v>       0.78310873       0.09660111       0.48440597 </v>
   <v>       0.78254902       0.26389753       0.48524179 </v>
   <v>       0.82467380       0.01651198       0.46853731 </v>
   <v>       0.82432799       0.35132469       0.46959403 </v>
   <v>       0.86865597       0.09795000       0.45878806 </v>
   <v>       0.86715152       0.26345679       0.46142687 </v>
   <v>       0.90909804       0.01578864       0.44688955 </v>
   <v>       0.91147594       0.34918148       0.45644179 </v>
   <v>       0.95489483       0.09629506       0.44582985 </v>
   <v>       0.95429947       0.27198148       0.44655224 </v>
   <v>       0.00788000       0.60158272       0.45222687 </v>
   <v>       0.00875629       0.77176049       0.44292239 </v>
   <v>       0.04968200       0.52343951       0.46438806 </v>
   <v>       0.05284456       0.85114568       0.45217612 </v>
   <v>       0.09441676       0.61014938       0.46722090 </v>
   <v>       0.09491943       0.77618395       0.46015522 </v>
   <v>       0.13551800       0.52818025       0.48097612 </v>
   <v>       0.13767522       0.86162963       0.46920299 </v>
   <v>       0.17920963       0.61174321       0.49042388 </v>
   <v>       0.18090766       0.77976049       0.48131343 </v>
   <v>       0.21932799       0.52773827       0.50425672 </v>
   <v>       0.22206881       0.86350000       0.49508060 </v>
   <v>       0.26049626       0.61134691       0.51753134 </v>
   <v>       0.26274082       0.77689136       0.51288955 </v>
   <v>       0.30542995       0.51921852       0.52884478 </v>
   <v>       0.30905419       0.85219506       0.51566567 </v>
   <v>       0.35064207       0.60312346       0.53530746 </v>
   <v>       0.35097041       0.76573210       0.52737313 </v>
   <v>       0.39442424       0.52680988       0.54300896 </v>
   <v>       0.39485561       0.85584444       0.53391045 </v>
   <v>       0.43918004       0.60322593       0.54562985 </v>
   <v>       0.43840642       0.77366049       0.54226866 </v>
   <v>       0.48269519       0.52344691       0.55288657 </v>
   <v>       0.48418895       0.85420123       0.54739403 </v>
   <v>       0.52928699       0.60694321       0.55331642 </v>
   <v>       0.52914795       0.77412222       0.54873134 </v>
   <v>       0.57320856       0.52783457       0.54774328 </v>
   <v>       0.57382888       0.85141605       0.54649552 </v>
   <v>       0.61772193       0.61106049       0.53762687 </v>
   <v>       0.61757932       0.77414198       0.53623284 </v>
   <v>       0.66069875       0.52336790       0.52718507 </v>
   <v>       0.65973975       0.85628889       0.52429254 </v>
   <v>       0.70127629       0.60728519       0.51255224 </v>
   <v>       0.69789661       0.77685309       0.50538806 </v>
   <v>       0.74129412       0.51459630       0.50130746 </v>
   <v>       0.73840285       0.85063827       0.48949254 </v>
   <v>       0.78322282       0.59702593       0.48572836 </v>
   <v>       0.78065597       0.76367531       0.47775224 </v>
   <v>       0.82713012       0.51674938       0.47516418 </v>
   <v>       0.82303030       0.85264568       0.46662090 </v>
   <v>       0.86787522       0.59917654       0.46211045 </v>
   <v>       0.86602496       0.76457407       0.45756716 </v>
   <v>       0.91212834       0.51396543       0.45715821 </v>
   <v>       0.90984314       0.84972469       0.44730746 </v>
   <v>       0.95582888       0.60013827       0.44930448 </v>
   <v>       0.95441711       0.76929012       0.44187164 </v>
  </varray>
 </structure>
</modeling>
