unknown system                          
            1
    28.050000    0.000000    0.000000
     0.000000    8.100000    0.000000
     0.000000    0.000000   33.500000
   C 
    92
Direct configuration=     1
   0.00810724  0.10755407  0.44766269
   0.00714998  0.27923704  0.44976716
   0.05101711  0.02481593  0.45484179
   0.05000107  0.35546543  0.46136119
   0.09357932  0.10892198  0.46404776
   0.09388627  0.27640864  0.46690149
   0.13758467  0.02734802  0.47045373
   0.13619144  0.35875062  0.47866269
   0.18142709  0.10829506  0.48067463
   0.18121390  0.28028765  0.48597015
   0.22326417  0.02936605  0.49107164
   0.22101248  0.35710247  0.50191045
   0.26598111  0.10320469  0.50282985
   0.26503743  0.26824198  0.50931940
   0.31107736  0.01967148  0.51051642
   0.30690588  0.35225185  0.52318507
   0.35236684  0.09817198  0.52608657
   0.34922282  0.26886049  0.53259104
   0.39504100  0.02590704  0.53064776
   0.39220677  0.35551728  0.54149254
   0.43760428  0.11051370  0.53744776
   0.43738324  0.27722469  0.54254328
   0.48297326  0.02110630  0.54610746
   0.48355437  0.34940988  0.55020000
   0.52758289  0.10299025  0.54532537
   0.52773262  0.27538148  0.54743284
   0.57215686  0.02326259  0.54414627
   0.57305882  0.35526914  0.54710746
   0.61719786  0.10360531  0.53535522
   0.61713725  0.27624444  0.53950149
   0.65987879  0.02292914  0.52734328
   0.66157932  0.35500123  0.53052836
   0.70307665  0.10483790  0.51815522
   0.70245633  0.27233457  0.51880597
   0.74108734  0.01679099  0.49791642
   0.74457041  0.35223086  0.50367761
   0.78310873  0.09660111  0.48440597
   0.78254902  0.26389753  0.48524179
   0.82467380  0.01651198  0.46853731
   0.82432799  0.35132469  0.46959403
   0.86865597  0.09795000  0.45878806
   0.86715152  0.26345679  0.46142687
   0.90909804  0.01578864  0.44688955
   0.91147594  0.34918148  0.45644179
   0.95489483  0.09629506  0.44582985
   0.95429947  0.27198148  0.44655224
   0.00788000  0.60158272  0.45222687
   0.00875629  0.77176049  0.44292239
   0.04968200  0.52343951  0.46438806
   0.05284456  0.85114568  0.45217612
   0.09441676  0.61014938  0.46722090
   0.09491943  0.77618395  0.46015522
   0.13551800  0.52818025  0.48097612
   0.13767522  0.86162963  0.46920299
   0.17920963  0.61174321  0.49042388
   0.18090766  0.77976049  0.48131343
   0.21932799  0.52773827  0.50425672
   0.22206881  0.86350000  0.49508060
   0.26049626  0.61134691  0.51753134
   0.26274082  0.77689136  0.51288955
   0.30542995  0.51921852  0.52884478
   0.30905419  0.85219506  0.51566567
   0.35064207  0.60312346  0.53530746
   0.35097041  0.76573210  0.52737313
   0.39442424  0.52680988  0.54300896
   0.39485561  0.85584444  0.53391045
   0.43918004  0.60322593  0.54562985
   0.43840642  0.77366049  0.54226866
   0.48269519  0.52344691  0.55288657
   0.48418895  0.85420123  0.54739403
   0.52928699  0.60694321  0.55331642
   0.52914795  0.77412222  0.54873134
   0.57320856  0.52783457  0.54774328
   0.57382888  0.85141605  0.54649552
   0.61772193  0.61106049  0.53762687
   0.61757932  0.77414198  0.53623284
   0.66069875  0.52336790  0.52718507
   0.65973975  0.85628889  0.52429254
   0.70127629  0.60728519  0.51255224
   0.69789661  0.77685309  0.50538806
   0.74129412  0.51459630  0.50130746
   0.73840285  0.85063827  0.48949254
   0.78322282  0.59702593  0.48572836
   0.78065597  0.76367531  0.47775224
   0.82713012  0.51674938  0.47516418
   0.82303030  0.85264568  0.46662090
   0.86787522  0.59917654  0.46211045
   0.86602496  0.76457407  0.45756716
   0.91212834  0.51396543  0.45715821
   0.90984314  0.84972469  0.44730746
   0.95582888  0.60013827  0.44930448
   0.95441711  0.76929012  0.44187164
