  92  92   0   0
  0.8273226E+02  0.2805000E-08  0.8100000E-09  0.3350000E-08  0.5000000E-15
   1.0000000000000000E-004
  CAR 
 unknown system                          
      3.79598210    -25.15962037  301     -3.16305255      1.00000000
    -25.160  0.0000E+00  0.0000E+00
    -25.063  0.0000E+00  0.0000E+00
    -24.967  0.0000E+00  0.0000E+00
    -24.870  0.0000E+00  0.0000E+00
    -24.774  0.0000E+00  0.0000E+00
    -24.677  0.0000E+00  0.0000E+00
    -24.581  0.0000E+00  0.0000E+00
    -24.484  0.0000E+00  0.0000E+00
    -24.387  0.0000E+00  0.0000E+00
    -24.291  0.3163E-14  0.3053E-15
    -24.194  0.6626E-12  0.6425E-13
    -24.098  0.8556E-10  0.8323E-11
    -24.001  0.7021E-08  0.6860E-09
    -23.905  0.3673E-06  0.3614E-07
    -23.808  0.1231E-04  0.1224E-05
    -23.712  0.2661E-03  0.2691E-04
    -23.615  0.3742E-02  0.3880E-03
    -23.519  0.3462E-01  0.3730E-02
    -23.422  0.2141E+00  0.2439E-01
    -23.326  0.9016E+00  0.1114E+00
    -23.229  0.2653E+01  0.3675E+00
    -23.133  0.5646E+01  0.9124E+00
    -23.036  0.9084E+01  0.1789E+01
    -22.940  0.1165E+02  0.2913E+01
    -22.843  0.1269E+02  0.4138E+01
    -22.747  0.1308E+02  0.5400E+01
    -22.650  0.1436E+02  0.6787E+01
    -22.554  0.1612E+02  0.8343E+01
    -22.457  0.1608E+02  0.9895E+01
    -22.361  0.1420E+02  0.1127E+02
    -22.264  0.1311E+02  0.1253E+02
    -22.168  0.1371E+02  0.1385E+02
    -22.071  0.1449E+02  0.1525E+02
    -21.975  0.1472E+02  0.1667E+02
    -21.878  0.1469E+02  0.1809E+02
    -21.781  0.1442E+02  0.1948E+02
    -21.685  0.1374E+02  0.2081E+02
    -21.588  0.1261E+02  0.2203E+02
    -21.492  0.1130E+02  0.2312E+02
    -21.395  0.1074E+02  0.2415E+02
    -21.299  0.1184E+02  0.2530E+02
    -21.202  0.1447E+02  0.2669E+02
    -21.106  0.1714E+02  0.2835E+02
    -21.009  0.1763E+02  0.3005E+02
    -20.913  0.1525E+02  0.3152E+02
    -20.816  0.1229E+02  0.3271E+02
    -20.720  0.1111E+02  0.3378E+02
    -20.623  0.1190E+02  0.3493E+02
    -20.527  0.1350E+02  0.3623E+02
    -20.430  0.1450E+02  0.3763E+02
    -20.334  0.1419E+02  0.3900E+02
    -20.237  0.1352E+02  0.4031E+02
    -20.141  0.1380E+02  0.4164E+02
    -20.044  0.1493E+02  0.4308E+02
    -19.948  0.1567E+02  0.4459E+02
    -19.851  0.1497E+02  0.4604E+02
    -19.755  0.1348E+02  0.4734E+02
    -19.658  0.1337E+02  0.4863E+02
    -19.562  0.1533E+02  0.5011E+02
    -19.465  0.1688E+02  0.5174E+02
    -19.368  0.1581E+02  0.5326E+02
    -19.272  0.1348E+02  0.5456E+02
    -19.175  0.1249E+02  0.5577E+02
    -19.079  0.1317E+02  0.5704E+02
    -18.982  0.1396E+02  0.5839E+02
    -18.886  0.1399E+02  0.5974E+02
    -18.789  0.1407E+02  0.6109E+02
    -18.693  0.1545E+02  0.6259E+02
    -18.596  0.1748E+02  0.6427E+02
    -18.500  0.1772E+02  0.6598E+02
    -18.403  0.1586E+02  0.6751E+02
    -18.307  0.1473E+02  0.6894E+02
    -18.210  0.1603E+02  0.7048E+02
    -18.114  0.1770E+02  0.7219E+02
    -18.017  0.1703E+02  0.7384E+02
    -17.921  0.1451E+02  0.7524E+02
    -17.824  0.1265E+02  0.7646E+02
    -17.728  0.1237E+02  0.7765E+02
    -17.631  0.1274E+02  0.7888E+02
    -17.535  0.1316E+02  0.8015E+02
    -17.438  0.1337E+02  0.8144E+02
    -17.342  0.1274E+02  0.8267E+02
    -17.245  0.1128E+02  0.8376E+02
    -17.149  0.1012E+02  0.8474E+02
    -17.052  0.1004E+02  0.8570E+02
    -16.956  0.1038E+02  0.8671E+02
    -16.859  0.1007E+02  0.8768E+02
    -16.762  0.9782E+01  0.8862E+02
    -16.666  0.1105E+02  0.8969E+02
    -16.569  0.1353E+02  0.9100E+02
    -16.473  0.1544E+02  0.9249E+02
    -16.376  0.1614E+02  0.9404E+02
    -16.280  0.1628E+02  0.9561E+02
    -16.183  0.1654E+02  0.9721E+02
    -16.087  0.1684E+02  0.9884E+02
    -15.990  0.1677E+02  0.1005E+03
    -15.894  0.1615E+02  0.1020E+03
    -15.797  0.1489E+02  0.1035E+03
    -15.701  0.1318E+02  0.1047E+03
    -15.604  0.1179E+02  0.1059E+03
    -15.508  0.1161E+02  0.1070E+03
    -15.411  0.1376E+02  0.1083E+03
    -15.315  0.1800E+02  0.1100E+03
    -15.218  0.2164E+02  0.1121E+03
    -15.122  0.2266E+02  0.1143E+03
    -15.025  0.2166E+02  0.1164E+03
    -14.929  0.1984E+02  0.1183E+03
    -14.832  0.1744E+02  0.1200E+03
    -14.736  0.1460E+02  0.1214E+03
    -14.639  0.1212E+02  0.1226E+03
    -14.543  0.1064E+02  0.1236E+03
    -14.446  0.1007E+02  0.1246E+03
    -14.350  0.9809E+01  0.1255E+03
    -14.253  0.9807E+01  0.1265E+03
    -14.156  0.1097E+02  0.1275E+03
    -14.060  0.1324E+02  0.1288E+03
    -13.963  0.1504E+02  0.1303E+03
    -13.867  0.1579E+02  0.1318E+03
    -13.770  0.1643E+02  0.1334E+03
    -13.674  0.1737E+02  0.1351E+03
    -13.577  0.1799E+02  0.1368E+03
    -13.481  0.1817E+02  0.1385E+03
    -13.384  0.1885E+02  0.1404E+03
    -13.288  0.2034E+02  0.1423E+03
    -13.191  0.2064E+02  0.1443E+03
    -13.095  0.1804E+02  0.1461E+03
    -12.998  0.1473E+02  0.1475E+03
    -12.902  0.1390E+02  0.1488E+03
    -12.805  0.1493E+02  0.1503E+03
    -12.709  0.1512E+02  0.1517E+03
    -12.612  0.1378E+02  0.1531E+03
    -12.516  0.1254E+02  0.1543E+03
    -12.419  0.1290E+02  0.1555E+03
    -12.323  0.1490E+02  0.1570E+03
    -12.226  0.1804E+02  0.1587E+03
    -12.130  0.2186E+02  0.1608E+03
    -12.033  0.2482E+02  0.1632E+03
    -11.937  0.2553E+02  0.1657E+03
    -11.840  0.2429E+02  0.1680E+03
    -11.744  0.2187E+02  0.1701E+03
    -11.647  0.1880E+02  0.1719E+03
    -11.550  0.1605E+02  0.1735E+03
    -11.454  0.1496E+02  0.1749E+03
    -11.357  0.1627E+02  0.1765E+03
    -11.261  0.1898E+02  0.1783E+03
    -11.164  0.2168E+02  0.1804E+03
    -11.068  0.2482E+02  0.1828E+03
    -10.971  0.2901E+02  0.1856E+03
    -10.875  0.3280E+02  0.1888E+03
    -10.778  0.3471E+02  0.1921E+03
    -10.682  0.3541E+02  0.1956E+03
    -10.585  0.3660E+02  0.1991E+03
    -10.489  0.3833E+02  0.2028E+03
    -10.392  0.3898E+02  0.2065E+03
    -10.296  0.3791E+02  0.2102E+03
    -10.199  0.3630E+02  0.2137E+03
    -10.103  0.3521E+02  0.2171E+03
    -10.006  0.3408E+02  0.2204E+03
     -9.910  0.3214E+02  0.2235E+03
     -9.813  0.3105E+02  0.2265E+03
     -9.717  0.3304E+02  0.2297E+03
     -9.620  0.3715E+02  0.2333E+03
     -9.524  0.4076E+02  0.2372E+03
     -9.427  0.4237E+02  0.2413E+03
     -9.331  0.4113E+02  0.2453E+03
     -9.234  0.3696E+02  0.2488E+03
     -9.138  0.3196E+02  0.2519E+03
     -9.041  0.2950E+02  0.2548E+03
     -8.944  0.3078E+02  0.2577E+03
     -8.848  0.3391E+02  0.2610E+03
     -8.751  0.3652E+02  0.2645E+03
     -8.655  0.3740E+02  0.2681E+03
     -8.558  0.3594E+02  0.2716E+03
     -8.462  0.3295E+02  0.2748E+03
     -8.365  0.3067E+02  0.2778E+03
     -8.269  0.3002E+02  0.2806E+03
     -8.172  0.2980E+02  0.2835E+03
     -8.076  0.2903E+02  0.2863E+03
     -7.979  0.2813E+02  0.2890E+03
     -7.883  0.2798E+02  0.2917E+03
     -7.786  0.2863E+02  0.2945E+03
     -7.690  0.2917E+02  0.2973E+03
     -7.593  0.2917E+02  0.3001E+03
     -7.497  0.2911E+02  0.3029E+03
     -7.400  0.2887E+02  0.3057E+03
     -7.304  0.2785E+02  0.3084E+03
     -7.207  0.2637E+02  0.3110E+03
     -7.111  0.2544E+02  0.3134E+03
     -7.014  0.2535E+02  0.3159E+03
     -6.918  0.2551E+02  0.3183E+03
     -6.821  0.2567E+02  0.3208E+03
     -6.725  0.2608E+02  0.3233E+03
     -6.628  0.2604E+02  0.3258E+03
     -6.532  0.2416E+02  0.3282E+03
     -6.435  0.2114E+02  0.3302E+03
     -6.338  0.1957E+02  0.3321E+03
     -6.242  0.2016E+02  0.3340E+03
     -6.145  0.2163E+02  0.3361E+03
     -6.049  0.2357E+02  0.3384E+03
     -5.952  0.2544E+02  0.3409E+03
     -5.856  0.2541E+02  0.3433E+03
     -5.759  0.2289E+02  0.3455E+03
     -5.663  0.1955E+02  0.3474E+03
     -5.566  0.1663E+02  0.3490E+03
     -5.470  0.1368E+02  0.3503E+03
     -5.373  0.1095E+02  0.3514E+03
     -5.277  0.1016E+02  0.3524E+03
     -5.180  0.1136E+02  0.3535E+03
     -5.084  0.1205E+02  0.3546E+03
     -4.987  0.1095E+02  0.3557E+03
     -4.891  0.9813E+01  0.3566E+03
     -4.794  0.1055E+02  0.3577E+03
     -4.698  0.1269E+02  0.3589E+03
     -4.601  0.1447E+02  0.3603E+03
     -4.505  0.1480E+02  0.3617E+03
     -4.408  0.1343E+02  0.3630E+03
     -4.312  0.1051E+02  0.3640E+03
     -4.215  0.7054E+01  0.3647E+03
     -4.119  0.4278E+01  0.3651E+03
     -4.022  0.2508E+01  0.3654E+03
     -3.926  0.1658E+01  0.3655E+03
     -3.829  0.1859E+01  0.3657E+03
     -3.732  0.3025E+01  0.3660E+03
     -3.636  0.4399E+01  0.3664E+03
     -3.539  0.4844E+01  0.3669E+03
     -3.443  0.3935E+01  0.3673E+03
     -3.346  0.2715E+01  0.3675E+03
     -3.250  0.2405E+01  0.3678E+03
     -3.153  0.2882E+01  0.3680E+03
     -3.057  0.3383E+01  0.3684E+03
     -2.960  0.3821E+01  0.3687E+03
     -2.864  0.4440E+01  0.3692E+03
     -2.767  0.5132E+01  0.3696E+03
     -2.671  0.5805E+01  0.3702E+03
     -2.574  0.6549E+01  0.3708E+03
     -2.478  0.7370E+01  0.3716E+03
     -2.381  0.7959E+01  0.3723E+03
     -2.285  0.8135E+01  0.3731E+03
     -2.188  0.8338E+01  0.3739E+03
     -2.092  0.8387E+01  0.3747E+03
     -1.995  0.7336E+01  0.3754E+03
     -1.899  0.5850E+01  0.3760E+03
     -1.802  0.6214E+01  0.3766E+03
     -1.706  0.9570E+01  0.3775E+03
     -1.609  0.1489E+02  0.3790E+03
     -1.513  0.2001E+02  0.3809E+03
     -1.416  0.2279E+02  0.3831E+03
     -1.320  0.2250E+02  0.3853E+03
     -1.223  0.2083E+02  0.3873E+03
     -1.126  0.1988E+02  0.3892E+03
     -1.030  0.1920E+02  0.3910E+03
     -0.933  0.1703E+02  0.3927E+03
     -0.837  0.1386E+02  0.3940E+03
     -0.740  0.1174E+02  0.3952E+03
     -0.644  0.1133E+02  0.3962E+03
     -0.547  0.1180E+02  0.3974E+03
     -0.451  0.1203E+02  0.3985E+03
     -0.354  0.1182E+02  0.3997E+03
     -0.258  0.1265E+02  0.4009E+03
     -0.161  0.1538E+02  0.4024E+03
     -0.065  0.1835E+02  0.4042E+03
      0.032  0.1991E+02  0.4061E+03
      0.128  0.2068E+02  0.4081E+03
      0.225  0.2157E+02  0.4102E+03
      0.321  0.2164E+02  0.4123E+03
      0.418  0.1986E+02  0.4142E+03
      0.514  0.1803E+02  0.4159E+03
      0.611  0.1923E+02  0.4178E+03
      0.707  0.2382E+02  0.4201E+03
      0.804  0.2885E+02  0.4228E+03
      0.900  0.3163E+02  0.4259E+03
      0.997  0.3330E+02  0.4291E+03
      1.093  0.3661E+02  0.4326E+03
      1.190  0.4193E+02  0.4367E+03
      1.286  0.4733E+02  0.4413E+03
      1.383  0.5030E+02  0.4461E+03
      1.480  0.4932E+02  0.4509E+03
      1.576  0.4465E+02  0.4552E+03
      1.673  0.3718E+02  0.4588E+03
      1.769  0.2736E+02  0.4614E+03
      1.866  0.1643E+02  0.4630E+03
      1.962  0.7389E+01  0.4637E+03
      2.059  0.2344E+01  0.4639E+03
      2.155  0.5069E+00  0.4640E+03
      2.252  0.7340E-01  0.4640E+03
      2.348  0.7054E-02  0.4640E+03
      2.445  0.4475E-03  0.4640E+03
      2.541  0.1865E-04  0.4640E+03
      2.638  0.5084E-06  0.4640E+03
      2.734  0.9015E-08  0.4640E+03
      2.831  0.1034E-09  0.4640E+03
      2.927  0.7638E-12  0.4640E+03
      3.024  0.3451E-14  0.4640E+03
      3.120  0.0000E+00  0.4640E+03
      3.217  0.0000E+00  0.4640E+03
      3.313  0.0000E+00  0.4640E+03
      3.410  0.0000E+00  0.4640E+03
      3.506  0.0000E+00  0.4640E+03
      3.603  0.0000E+00  0.4640E+03
      3.699  0.0000E+00  0.4640E+03
      3.796  0.0000E+00  0.4640E+03
