       N       E                     dE             d eps       ncg     rms          rms(c)
DAV:   1     0.370213505864E+04    0.37021E+04   -0.11887E+05  1712   0.105E+03
DAV:   2     0.179204589952E+03   -0.35229E+04   -0.32589E+04  2128   0.239E+02
DAV:   3    -0.835181738235E+03   -0.10144E+04   -0.98989E+03  1792   0.135E+02
DAV:   4    -0.896427247202E+03   -0.61246E+02   -0.60280E+02  1712   0.428E+01
DAV:   5    -0.897957242396E+03   -0.15300E+01   -0.15094E+01  1816   0.653E+00    0.454E+01
DAV:   6    -0.848596588613E+03    0.49361E+02   -0.47361E+01  1584   0.126E+01    0.267E+01
DAV:   7    -0.830237613463E+03    0.18359E+02   -0.64919E+01  1568   0.143E+01    0.731E+00
DAV:   8    -0.829946371743E+03    0.29124E+00   -0.23924E+00  1600   0.336E+00    0.101E+00
DAV:   9    -0.829839855369E+03    0.10652E+00   -0.27716E-01  1640   0.104E+00    0.575E-01
DAV:  10    -0.829804097992E+03    0.35757E-01   -0.51311E-02  1720   0.459E-01    0.367E-01
DAV:  11    -0.829775260934E+03    0.28837E-01   -0.21382E-02  1576   0.253E-01    0.250E-01
DAV:  12    -0.829770436635E+03    0.48243E-02   -0.23560E-02  1552   0.229E-01    0.159E-01
DAV:  13    -0.829782718375E+03   -0.12282E-01   -0.92574E-03  1528   0.165E-01    0.873E-02
DAV:  14    -0.829796497283E+03   -0.13779E-01   -0.13004E-03  1592   0.752E-02    0.671E-02
DAV:  15    -0.829817333831E+03   -0.20837E-01   -0.18097E-03  1528   0.713E-02    0.312E-02
DAV:  16    -0.829827212015E+03   -0.98782E-02   -0.59605E-04  1608   0.403E-02    0.264E-02
DAV:  17    -0.829832751152E+03   -0.55391E-02   -0.34723E-04  1576   0.264E-02    0.131E-02
DAV:  18    -0.829834883436E+03   -0.21323E-02   -0.87571E-05  1640   0.147E-02    0.801E-03
DAV:  19    -0.829836263716E+03   -0.13803E-02   -0.53256E-05  1552   0.106E-02    0.402E-03
DAV:  20    -0.829836707911E+03   -0.44420E-03   -0.98677E-06  1392   0.460E-03    0.322E-03
DAV:  21    -0.829836995020E+03   -0.28711E-03   -0.43549E-06  1264   0.377E-03    0.169E-03
DAV:  22    -0.829837080355E+03   -0.85335E-04   -0.74571E-07  1040   0.172E-03    0.120E-03
DAV:  23    -0.829837121350E+03   -0.40995E-04   -0.38979E-07   976   0.145E-03    0.661E-04
DAV:  24    -0.829837147246E+03   -0.25896E-04   -0.22351E-07   960   0.920E-04    0.707E-04
DAV:  25    -0.829837153092E+03   -0.58457E-05   -0.60358E-08   936   0.752E-04    0.213E-04
DAV:  26    -0.829837159762E+03   -0.66696E-05   -0.69524E-08   896   0.540E-04    0.427E-04
DAV:  27    -0.829837161190E+03   -0.14285E-05   -0.15452E-08   896   0.412E-04    0.113E-04
DAV:  28    -0.829837163332E+03   -0.21422E-05   -0.14867E-08   920   0.253E-04    0.160E-04
DAV:  29    -0.829837164519E+03   -0.11869E-05   -0.50129E-09   944   0.161E-04    0.515E-05
DAV:  30    -0.829837165256E+03   -0.73673E-06   -0.26937E-09   872   0.100E-04
   1 F= -.82983717E+03 E0= -.82980603E+03  d E =-.622764E-01
