 vasp.6.5.0 16Dec24 (build Feb 19 2025 19:45:31) complex                         
 executed on              LinuxNV date 2025.10.25  14:06:44
 running    2 mpi-ranks, on    1 nodes
 distrk:  each k-point on    2 cores,    1 groups
 distr:  one band on NCORE=   1 cores,    2 groups
 Offloading initialized ...    2 GPUs detected


--------------------------------------------------------------------------------------------------------


 INCAR:
   ISTART = 0            (Not Read existing wavefunction
   ISPIN = 1            (Non-Spin polarised DFT, Default\=1)
   ICHARG = 2            (The initial guess charge density is generated by superposition of atomic charge density)
   LREAL = Auto         (Projection operators: automatic)
   ENCUT = 500          (Cut-off energy for plane wave basis set, in eV)
   LWAVE = .FALSE.       (Write WAVECAR or not)
   LCHARG = .FALSE.       (Write CHGCAR or not)
   PREC = Accurate   (Precision level)
   KGAMMA = .TRUE.
   ALGO = Normal
   NSW = 0           (Default: NSW \= 0)
   IBRION = -1           (Ions are not moved)
   ISMEAR = 0
   EDIFF = 1E-06        (SCF energy convergence
   NELM = 150          (Max electronic SCF steps)

 POTCAR:    PAW_PBE C 08Apr2002                   
 POTCAR:    PAW_PBE C 08Apr2002                   
   SHA256 =  253f7b50bb8d59471dbedb8285d89021f4a42ed1a2c5d38a03a736e69125dd95 C/POTCAR              
   COPYR  = (c) Copyright 08Apr2002 Georg Kresse                                                    
   COPYR  = This file is part of the software VASP. Any use, copying, and all other rights are regul
   COPYR  = If you do not have a valid VASP license, you may not use, copy or distribute this file. 
   VRHFIN =C: s2p2                                                                                  
   LEXCH  = PE                                                                                      
   EATOM  =   147.1560 eV,   10.8157 Ry                                                             
                                                                                                    
   TITEL  = PAW_PBE C 08Apr2002                                                                     
   LULTRA =        F    use ultrasoft PP ?                                                          
   IUNSCR =        1    unscreen: 0-lin 1-nonlin 2-no                                               
   RPACOR =    1.200    partial core radius                                                         
   POMASS =   12.011; ZVAL   =    4.000    mass and valenz                                          
   RCORE  =    1.500    outmost cutoff radius                                                       
   RWIGS  =    1.630; RWIGS  =    0.863    wigner-seitz radius (au A)                               
   ENMAX  =  400.000; ENMIN  =  300.000 eV                                                          
   ICORE  =        2    local potential                                                             
   LCOR   =        T    correct aug charges                                                         
   LPAW   =        T    paw PP                                                                      
   EAUG   =  644.873                                                                                
   DEXC   =    0.000                                                                                
   RMAX   =    1.529    core radius for proj-oper                                                   
   RAUG   =    1.300    factor for augmentation sphere                                              
   RDEP   =    1.501    radius for radial grids                                                     
   RDEPT  =    1.300    core radius for aug-charge                                                  
                                                                                                    
   Atomic configuration                                                                             
    4 entries                                                                                       
     n  l   j            E        occ.                                                              
     1  0  0.50      -273.3789   2.0000                                                             
     2  0  0.50       -13.7508   2.0000                                                             
     2  1  0.50        -5.2854   2.0000                                                             
     3  2  1.50        -5.4423   0.0000                                                             
   Description                                                                                      
     l       E           TYP  RCUT    TYP  RCUT                                                     
     0    -13.7508458     23  1.200                                                                 
     0     -8.2022199     23  1.200                                                                 
     1     -5.2854383     23  1.500                                                                 
     1     34.0145650     23  1.500                                                                 
     2     -5.4423304      7  1.500                                                                 
  local pseudopotential read in
  partial core-charges read in
  partial kinetic energy density read in
  atomic valenz-charges read in
  non local Contribution for L=            0  read in
    real space projection operators read in
  non local Contribution for L=            0  read in
    real space projection operators read in
  non local Contribution for L=            1  read in
    real space projection operators read in
  non local Contribution for L=            1  read in
    real space projection operators read in
    PAW grid and wavefunctions read in
 
   number of l-projection  operators is LMAX  =            4
   number of lm-projection operators is LMMAX =            8
 
 Optimization of the real space projectors (new method)

 maximal supplied QI-value         = 25.13
 optimisation between [QCUT,QGAM] = [ 11.31, 22.87] = [ 35.82,146.48] Ry 
 Optimized for a Real-space Cutoff    1.03 Angstroem

   l    n(q)    QCUT    max X(q) W(low)/X(q) W(high)/X(q)  e(spline) 
   0      7    11.310   115.676    0.20E-03    0.90E-03    0.20E-06
   0      7    11.310    87.132    0.20E-03    0.89E-03    0.19E-06
   1      6    11.310     4.429    0.16E-03    0.28E-03    0.12E-06
   1      6    11.310     2.733    0.12E-03    0.21E-03    0.99E-07
  PAW_PBE C 08Apr2002                   :
 energy of atom  1       EATOM= -147.1560
 kinetic energy error for atom=    0.0076 (will be added to EATOM!!)
 
 
 POSCAR:  C
  positions in cartesian coordinates
  No initial velocities read in


 exchange-correlation table for PE
   RHO(1)=    0.500       N(1)  =     2000
   RHO(2)=  100.500       N(2)  =     4000
 


--------------------------------------------------------------------------------------------------------


 ion  position               nearest neighbor table
   1  0.006  0.112  0.525-   2 1.35   3 1.41  45 1.51
   2  0.004  0.276  0.533-   4 1.35   1 1.35  46 1.52  45 2.01
   3  0.048  0.018  0.530-  50 1.36   5 1.39   1 1.41
   4  0.046  0.352  0.540-   2 1.35  49 1.36   6 1.43
   5  0.089  0.099  0.542-   6 1.35   3 1.39   7 1.41
   6  0.090  0.265  0.547-   5 1.35   4 1.43   8 1.44
   7  0.133  0.018  0.547-   9 1.38  54 1.39   5 1.41
   8  0.134  0.352  0.551-  53 1.35  10 1.43   6 1.44
   9  0.176  0.100  0.547-  10 1.37   7 1.38  11 1.45
  10  0.179  0.267  0.552-   9 1.37   8 1.43  12 1.48
  11  0.222  0.021  0.541-  58 1.38  13 1.43   9 1.45
  12  0.226  0.348  0.553-  57 1.39  14 1.44  10 1.48
  13  0.268  0.098  0.540-  14 1.37  11 1.43  15 1.46
  14  0.271  0.265  0.547-  13 1.37  16 1.42  12 1.44
  15  0.312  0.021  0.526-  62 1.34  17 1.43  13 1.46
  16  0.316  0.344  0.539-  61 1.40  18 1.41  14 1.42
  17  0.358  0.095  0.523-  19 1.39  18 1.41  15 1.43
  18  0.358  0.269  0.527-  16 1.41  17 1.41  20 1.43
  19  0.397  0.019  0.506-  66 1.38  17 1.39  21 1.42
  20  0.401  0.353  0.514-  65 1.37  22 1.42  18 1.43
  21  0.441  0.103  0.497-  22 1.38  23 1.39  19 1.42
  22  0.442  0.273  0.500-  21 1.38  24 1.39  20 1.42
  23  0.481  0.024  0.482-  70 1.36  21 1.39  25 1.44
  24  0.482  0.354  0.485-  22 1.39  26 1.40  69 1.43
  25  0.525  0.109  0.476-  26 1.35  27 1.42  23 1.44
  26  0.525  0.275  0.474-  25 1.35  28 1.40  24 1.40
  27  0.567  0.022  0.464-  74 1.38  29 1.41  25 1.42
  28  0.567  0.356  0.463-  73 1.37  26 1.40  30 1.42
  29  0.611  0.106  0.458-  30 1.36  27 1.41  31 1.42
  30  0.611  0.273  0.460-  29 1.36  28 1.42  32 1.44
  31  0.654  0.022  0.452-  78 1.38  29 1.42  33 1.42
  32  0.656  0.358  0.457-  77 1.39  34 1.42  30 1.44
  33  0.700  0.099  0.457-  35 1.39  31 1.42  34 1.43
  34  0.700  0.274  0.462-  32 1.42  36 1.42  33 1.43
  35  0.744  0.024  0.456-  82 1.37  33 1.39  37 1.44
  36  0.743  0.364  0.466-  81 1.36  34 1.42  38 1.43
  37  0.786  0.110  0.470-  38 1.36  35 1.44  39 1.48
  38  0.785  0.275  0.477-  37 1.36  40 1.39  36 1.43
  39  0.833  0.029  0.476-  41 1.34  86 1.38  37 1.48
  40  0.827  0.361  0.488-  85 1.38  38 1.39  42 1.41
  41  0.870  0.109  0.492-  39 1.34  42 1.37  43 1.42
  42  0.868  0.274  0.500-  41 1.37  40 1.41  44 1.45
  43  0.915  0.035  0.498-  45 1.38  41 1.42  90 1.42
  44  0.912  0.361  0.509-  46 1.34  89 1.34  42 1.45
  45  0.954  0.114  0.515-  43 1.38  46 1.41   1 1.51   2 2.01
  46  0.953  0.288  0.518-  44 1.34  45 1.41   2 1.52
  47  0.004  0.600  0.517-  48 1.41  91 1.46  49 1.47  92 2.04
  48  0.008  0.773  0.514-  50 1.39  47 1.41  92 1.49  91 2.04
  49  0.046  0.518  0.535-   4 1.36  51 1.42  47 1.47
  50  0.049  0.850  0.528-   3 1.36  48 1.39  52 1.42
  51  0.090  0.599  0.544-  52 1.36  49 1.42  53 1.43
  52  0.091  0.766  0.541-  51 1.36  54 1.41  50 1.42
  53  0.135  0.517  0.546-   8 1.35  51 1.43  55 1.44
  54  0.135  0.848  0.542-   7 1.39  56 1.41  52 1.41
  55  0.181  0.595  0.546-  56 1.38  57 1.41  53 1.44
  56  0.179  0.764  0.540-  55 1.38  58 1.40  54 1.41
  57  0.225  0.519  0.550-  12 1.39  59 1.41  55 1.41
  58  0.222  0.852  0.536-  11 1.38  56 1.40  60 1.47
  59  0.269  0.598  0.540-  60 1.38  61 1.40  57 1.41
  60  0.268  0.766  0.533-  59 1.38  62 1.44  58 1.47
  61  0.312  0.515  0.535-  59 1.40  16 1.40  63 1.45
  62  0.311  0.855  0.523-  15 1.34  60 1.44  64 1.44
  63  0.354  0.597  0.519-  64 1.39  65 1.40  61 1.45
  64  0.353  0.765  0.511-  63 1.39  66 1.40  62 1.44
  65  0.398  0.521  0.512-  20 1.37  63 1.40  67 1.45
  66  0.394  0.850  0.501-  19 1.38  68 1.39  64 1.40
  67  0.438  0.605  0.493-  68 1.35  69 1.43  65 1.45
  68  0.436  0.771  0.489-  67 1.35  66 1.39  70 1.44
  69  0.480  0.528  0.479-  71 1.41  24 1.43  67 1.43
  70  0.478  0.858  0.477-  23 1.36  72 1.44  68 1.44
  71  0.523  0.605  0.467-  72 1.38  73 1.40  69 1.41
  72  0.522  0.775  0.466-  74 1.37  71 1.38  70 1.44
  73  0.566  0.524  0.459-  28 1.37  71 1.40  75 1.45
  74  0.564  0.854  0.458-  72 1.37  27 1.38  76 1.41
  75  0.610  0.604  0.447-  76 1.38  77 1.41  73 1.45
  76  0.607  0.773  0.446-  75 1.38  74 1.41  78 1.45
  77  0.655  0.524  0.447-  32 1.39  75 1.41  79 1.43
  78  0.653  0.853  0.447-  31 1.38  80 1.45  76 1.45
  79  0.701  0.603  0.446-  80 1.36  81 1.41  77 1.43
  80  0.699  0.771  0.447-  79 1.36  78 1.45  82 1.45
  81  0.744  0.529  0.458-  36 1.36  79 1.41  83 1.42
  82  0.744  0.855  0.454-  35 1.37  84 1.44  80 1.45
  83  0.788  0.612  0.465-  84 1.36  81 1.42  85 1.45
  84  0.790  0.779  0.460-  83 1.36  86 1.42  82 1.44
  85  0.830  0.527  0.478-  87 1.38  40 1.38  83 1.45
  86  0.834  0.860  0.469-  39 1.38  84 1.42  88 1.43
  87  0.873  0.608  0.483-  88 1.38  85 1.38  89 1.42
  88  0.877  0.777  0.479-  87 1.38  90 1.42  86 1.43
  89  0.913  0.523  0.500-  44 1.34  91 1.36  87 1.42
  90  0.919  0.864  0.489-  92 1.33  88 1.42  43 1.42
  91  0.955  0.608  0.504-  89 1.36  92 1.40  47 1.46  48 2.04
  92  0.958  0.780  0.501-  90 1.33  91 1.40  48 1.49  47 2.04
 
  LATTYP: Found a simple orthorhombic cell.
 ALAT       =     8.1000000000
 B/A-ratio  =     3.4629629630
 C/A-ratio  =     4.1358024691
  
  Lattice vectors:
  
 A1 = (   0.0000000000,  -8.1000000000,   0.0000000000)
 A2 = (  28.0500000000,   0.0000000000,   0.0000000000)
 A3 = (   0.0000000000,   0.0000000000,  33.5000000000)


Analysis of symmetry for initial positions (statically):
=====================================================================
 Subroutine PRICEL returns:
 Original cell was already a primitive cell.
 

 Routine SETGRP: Setting up the symmetry group for a 
 simple orthorhombic supercell.


 Subroutine GETGRP returns: Found  1 space group operations
 (whereof  1 operations were pure point group operations)
 out of a pool of  8 trial point group operations.


The static configuration has the point symmetry C_1 .


Analysis of symmetry for dynamics (positions and initial velocities):
=====================================================================
 Subroutine PRICEL returns:
 Original cell was already a primitive cell.
 

 Routine SETGRP: Setting up the symmetry group for a 
 simple orthorhombic supercell.


 Subroutine GETGRP returns: Found  1 space group operations
 (whereof  1 operations were pure point group operations)
 out of a pool of  8 trial point group operations.


The dynamic configuration has the point symmetry C_1 .


 Subroutine INISYM returns: Found  1 space group operations
 (whereof  1 operations are pure point group operations),
 and found     1 'primitive' translations


----------------------------------------------------------------------------------------

                                     Primitive cell                                     

  volume of cell :    7611.3675

  direct lattice vectors                    reciprocal lattice vectors
    28.050000000  0.000000000  0.000000000     0.035650624  0.000000000  0.000000000
     0.000000000  8.100000000  0.000000000     0.000000000  0.123456790  0.000000000
     0.000000000  0.000000000 33.500000000     0.000000000  0.000000000  0.029850746

  length of vectors
    28.050000000  8.100000000 33.500000000     0.035650624  0.123456790  0.029850746

  position of ions in fractional coordinates (direct lattice)
     0.006470517  0.112131358  0.525391045
     0.004190410  0.275540741  0.532943284
     0.048279501  0.018067531  0.529659701
     0.045960428  0.351849383  0.540474627
     0.089321212  0.099059506  0.542337313
     0.089609269  0.265175309  0.546797015
     0.133382175  0.017687654  0.546886567
     0.134016756  0.351790123  0.551095522
     0.176273084  0.100040247  0.546779104
     0.178840642  0.267266667  0.551826866
     0.221936898  0.020721235  0.541071642
     0.226147594  0.347774074  0.552805970
     0.267860606  0.098170988  0.539889552
     0.271074510  0.264682716  0.546656716
     0.311710873  0.020508025  0.526056716
     0.315519430  0.343616049  0.539331343
     0.357982175  0.094603086  0.523188060
     0.358356506  0.268529630  0.527059701
     0.397301248  0.019237160  0.505665672
     0.400631016  0.353023457  0.514268657
     0.440552585  0.103380000  0.497029851
     0.442470588  0.273164198  0.500152239
     0.480645276  0.024330123  0.481901493
     0.482121212  0.354416049  0.485062687
     0.525322638  0.109017654  0.475719403
     0.524541889  0.275487654  0.474226866
     0.566773619  0.022340370  0.463859701
     0.566631016  0.355874074  0.463149254
     0.610541889  0.105760988  0.458017910
     0.610901961  0.273187654  0.459811940
     0.654352941  0.022033210  0.451904478
     0.655975045  0.357822222  0.457462687
     0.699597148  0.098903827  0.456662687
     0.700007130  0.273854321  0.461785075
     0.744263815  0.023543086  0.455847761
     0.743194296  0.364353086  0.466453731
     0.785775401  0.109669877  0.469788060
     0.785433155  0.275151852  0.477017910
     0.832720143  0.028775926  0.475707463
     0.826541889  0.361097531  0.487588060
     0.870124777  0.108709753  0.491719403
     0.867572193  0.274097531  0.499522388
     0.915426025  0.035275802  0.497531343
     0.911625668  0.361176543  0.508519403
     0.954074866  0.114393580  0.514579104
     0.952948307  0.287862963  0.518179104
     0.004262282  0.599834568  0.517301493
     0.008274082  0.773358025  0.514044776
     0.046093761  0.518006173  0.534570149
     0.049488770  0.850197531  0.527755224
     0.089573262  0.599075309  0.543585075
     0.090971480  0.766386420  0.540707463
     0.134741533  0.516674074  0.545922388
     0.135378253  0.847995062  0.541976119
     0.180656328  0.595267901  0.546170149
     0.179277005  0.763630864  0.540065672
     0.225477718  0.518506173  0.550113433
     0.222016043  0.851951852  0.536397015
     0.268521569  0.598119753  0.540417910
     0.268071658  0.766180247  0.533092537
     0.311776471  0.515122222  0.534731343
     0.310860963  0.854850617  0.523414925
     0.353980749  0.597211111  0.519247761
     0.352670232  0.765218519  0.511008955
     0.397914439  0.521337037  0.511537313
     0.394338681  0.849959259  0.500734328
     0.437518717  0.604923457  0.492671642
     0.436185383  0.770953086  0.489397015
     0.480463458  0.528327160  0.478725373
     0.478367201  0.857966667  0.476546269
     0.523347594  0.605125926  0.466791045
     0.522000000  0.774828395  0.466005970
     0.566385027  0.523695062  0.458859701
     0.564270945  0.854041975  0.458023881
     0.610445633  0.603865432  0.446791045
     0.606748663  0.773440741  0.446289552
     0.655048128  0.524337037  0.447256716
     0.653208556  0.853076543  0.447298507
     0.700698752  0.602760494  0.446423881
     0.698948307  0.770854321  0.447217910
     0.744303030  0.528702469  0.457782090
     0.743964349  0.854677778  0.453716418
     0.788078431  0.612361728  0.464719403
     0.789818182  0.779341975  0.459898507
     0.830409982  0.526800000  0.478205970
     0.833586453  0.860137037  0.469047761
     0.873458111  0.607546914  0.482865672
     0.877076649  0.776851852  0.479116418
     0.912873440  0.523107407  0.499722388
     0.919069519  0.863967901  0.489420896
     0.954509804  0.607749383  0.504486567
     0.957561497  0.779516049  0.500507463

  ion indices of the primitive-cell ions
   primitive index   ion index
                 1           1
                 2           2
                 3           3
                 4           4
                 5           5
                 6           6
                 7           7
                 8           8
                 9           9
                10          10
                11          11
                12          12
                13          13
                14          14
                15          15
                16          16
                17          17
                18          18
                19          19
                20          20
                21          21
                22          22
                23          23
                24          24
                25          25
                26          26
                27          27
                28          28
                29          29
                30          30
                31          31
                32          32
                33          33
                34          34
                35          35
                36          36
                37          37
                38          38
                39          39
                40          40
                41          41
                42          42
                43          43
                44          44
                45          45
                46          46
                47          47
                48          48
                49          49
                50          50
                51          51
                52          52
                53          53
                54          54
                55          55
                56          56
                57          57
                58          58
                59          59
                60          60
                61          61
                62          62
                63          63
                64          64
                65          65
                66          66
                67          67
                68          68
                69          69
                70          70
                71          71
                72          72
                73          73
                74          74
                75          75
                76          76
                77          77
                78          78
                79          79
                80          80
                81          81
                82          82
                83          83
                84          84
                85          85
                86          86
                87          87
                88          88
                89          89
                90          90
                91          91
                92          92

----------------------------------------------------------------------------------------

 
 
 KPOINTS: K-Spacing Value to Generate K-Mesh: 0.03

Automatic generation of k-mesh.
 Grid dimensions read from file:
 generate k-points for:    1    4    1

 Generating k-lattice:

  Cartesian coordinates                     Fractional coordinates (reciprocal lattice)
     0.035650624  0.000000000  0.000000000     1.000000000  0.000000000  0.000000000
     0.000000000  0.030864198  0.000000000     0.000000000  0.250000000  0.000000000
     0.000000000  0.000000000  0.029850746     0.000000000  0.000000000  1.000000000

  Length of vectors
     0.035650624  0.030864198  0.029850746

  Shift w.r.t. Gamma in fractional coordinates (k-lattice)
     0.000000000  0.000000000  0.000000000

 
 Subroutine IBZKPT returns following result:
 ===========================================
 
 Found      3 irreducible k-points:
 
 Following reciprocal coordinates:
            Coordinates               Weight
  0.000000  0.000000  0.000000      1.000000
  0.000000  0.250000  0.000000      2.000000
  0.000000  0.500000  0.000000      1.000000
 
 Following cartesian coordinates:
            Coordinates               Weight
  0.000000  0.000000  0.000000      1.000000
  0.000000  0.030864  0.000000      2.000000
  0.000000  0.061728  0.000000      1.000000
 


--------------------------------------------------------------------------------------------------------




 Dimension of arrays:
   k-points           NKPTS =      3   k-points in BZ     NKDIM =      3   number of bands    NBANDS=    232
   number of dos      NEDOS =    301   number of ions     NIONS =     92
   non local maximal  LDIM  =      4   non local SUM 2l+1 LMDIM =      8
   total plane-waves  NPLWV = ******
   max r-space proj   IRMAX =   1967   max aug-charges    IRDMAX=   5083
   dimension x,y,z NGX =   210 NGY =   60 NGZ =  250
   dimension x,y,z NGXF=   420 NGYF=  120 NGZF=  500
   support grid    NGXF=   420 NGYF=  120 NGZF=  500
   ions per type =              92
   NGX,Y,Z   is equivalent  to a cutoff of  12.45, 12.31, 12.41 a.u.
   NGXF,Y,Z  is equivalent  to a cutoff of  24.89, 24.63, 24.81 a.u.

 SYSTEM =  unknown system                          
 POSCAR =   C                                      

 Startparameter for this run:
   NWRITE =      2    write-flag & timer
   PREC   = accura    normal or accurate (medium, high low for compatibility)
   ISTART =      0    job   : 0-new  1-cont  2-samecut
   ICHARG =      2    charge: 1-file 2-atom 10-const
   ISPIN  =      1    spin polarized calculation?
   LNONCOLLINEAR =      F non collinear calculations
   LSORBIT =      F    spin-orbit coupling
   INIWAV =      1    electr: 0-lowe 1-rand  2-diag
   LASPH  =      F    aspherical Exc in radial PAW
 Electronic Relaxation 1
   ENCUT  =  500.0 eV  36.75 Ry    6.06 a.u.  51.14 14.77 61.08*2*pi/ulx,y,z
   ENINI  =  500.0     initial cutoff
   ENAUG  =  644.9 eV  augmentation charge cutoff
   NELM   =    150;   NELMIN=  2; NELMDL= -5     # of ELM steps 
   EDIFF  = 0.1E-05   stopping-criterion for ELM
   LREAL  =      T    real-space projection
   NLSPLINE    = F    spline interpolate recip. space projectors
   LCOMPAT=      F    compatible to vasp.4.4
   GGA_COMPAT  = T    GGA compatible to vasp.4.4-vasp.4.6
   LMAXPAW     = -100 max onsite density
   LMAXMIX     =    2 max onsite mixed and CHGCAR
   VOSKOWN=      0    Vosko Wilk Nusair interpolation
   ROPT   =   -0.00025
 Ionic relaxation
   EDIFFG = 0.1E-04   stopping-criterion for IOM
   NSW    =      0    number of steps for IOM
   NBLOCK =      1;   KBLOCK =      1    inner block; outer block 
   IBRION =     -1    ionic relax: 0-MD 1-quasi-New 2-CG
   NFREE  =      0    steps in history (QN), initial steepest desc. (CG)
   ISIF   =      2    stress and relaxation
   IWAVPR =     10    prediction:  0-non 1-charg 2-wave 3-comb
   ISYM   =      2    0-nonsym 1-usesym 2-fastsym
   LCORR  =      T    Harris-Foulkes like correction to forces

   POTIM  = 0.5000    time-step for ionic-motion
   TEIN   =    0.0    initial temperature
   TEBEG  =    0.0;   TEEND  =   0.0 temperature during run
   SMASS  =  -3.00    Nose mass-parameter (am)
   estimated Nose-frequenzy (Omega)   =  0.10E-29 period in steps = 0.13E+47 mass=  -0.180E-25a.u.
   SCALEE = 1.0000    scale energy and forces
   NPACO  =    256;   APACO  = 10.0  distance and # of slots for P.C.
   PSTRESS=    0.0 pullay stress

  Mass of Ions in am
   POMASS =  12.01
  Ionic Valenz
   ZVAL   =   4.00
  Atomic Wigner-Seitz radii
   RWIGS  =  -1.00
  virtual crystal weights 
   VCA    =   1.00
   NELECT =     368.0000    total number of electrons
   NUPDOWN=      -1.0000    fix difference up-down

 DOS related values:
   EMIN   =  10.00;   EMAX   =-10.00  energy-range for DOS
   EFERMI =   0.00;   METHOD = LEGACY      
   ISMEAR =     0;   SIGMA  =   0.20  broadening in eV -4-tet -1-fermi 0-gaus
   EFERMI_NEDOS =   21; number of points for ismear=-14 and -15

 Electronic relaxation 2 (details)
   IALGO  =     38    algorithm
   LDIAG  =      T    sub-space diagonalisation (order eigenvalues)
   LSUBROT=      F    optimize rotation matrix (better conditioning)
   TURBO    =      0    0=normal 1=particle mesh
   IRESTART =      0    0=no restart 2=restart with 2 vectors
   NREBOOT  =      0    no. of reboots
   NMIN     =      0    reboot dimension
   EREF     =   0.00    reference energy to select bands
   IMIX   =      4    mixing-type and parameters
     AMIX     =   0.40;   BMIX     =  1.00
     AMIX_MAG =   1.60;   BMIX_MAG =  1.00
     AMIN     =   0.10
     WC   =   100.;   INIMIX=   1;  MIXPRE=   1;  MAXMIX= -45

 Intra band minimization:
   WEIMIN = 0.0000     energy-eigenvalue tresh-hold
   EBREAK =  0.11E-08  absolut break condition
   DEPER  =   0.30     relativ break condition  

   TIME   =   0.40     timestep for ELM

  volume/ion in A,a.u.               =      82.73       558.30
  Fermi-wavevector in a.u.,A,eV,Ry     =   0.596398  1.127030  4.839472  0.355691
  Thomas-Fermi vector in A             =   1.646729
 
 Write flags
   LWAVE        =      F    write WAVECAR
   LDOWNSAMPLE  =      F    k-point downsampling of WAVECAR
   LCHARG       =      F    write CHGCAR
   LVTOT        =      F    write LOCPOT, total local potential
   LVHAR        =      F    write LOCPOT, Hartree potential only
   WRT_POTENTIAL= false  ! write potential to hdf5 file
   LELF         =      F    write electronic localiz. function (ELF)
   LORBIT       =      0    0 simple, 1 ext, 2 COOP (PROOUT), +10 PAW based schemes


 Python interface
   PLUGINS active      =      F    recompile with -DPLUGINS to activate
 
 Dipole corrections
   LMONO      =      F    monopole corrections only (constant potential shift)
   LDIPOL     =      F    correct potential (dipole corrections)
   IDIPOL     =      0    1-x, 2-y, 3-z, 4-all directions 
   EPSILON    =  1.0000000 bulk dielectric constant
   LVACPOTAV  =      F  vacuum potentials using an averaging scheme for the charge density
   VACPOTFLAT =  0.1000000 required flatness to determine vacuum potential
 
Coulomb truncation method
  LTRUNCATE          =      F  Coulomb kernel truncation to be used
  IDIMENSIONALITY    =      3  Dimensionality of cutoff (0 molecules / 2 surfaces)
  ISURFACE           =     -1  Direction of surface normal
  LCOARSEN           =      F  Coarsen the charge grid before padding, preferred

 
 Exchange correlation treatment:
   GGA     = PE    functional components
   XC_C    = 1    coefficients multiplying the functional components
   LIBXC   =     F    Libxc                    
   VOSKOWN =     0    Vosko Wilk Nusair interpolation
   LHFCALC =     F    Hartree Fock is set to
   LHFONE  =     F    Hartree Fock one center treatment
   AEXX    =    0.0000 exact exchange contribution

 Parameters of functionals:
   PE:
     No parameter
 
 Van der Waals corrections
   IVDW    =     0    specifies the selected vdW correction

 Linear response parameters
   LEPSILON=     F    determine dielectric tensor
   LRPA    =     F    only Hartree local field effects (RPA)
   LNABLA  =     F    use nabla operator in PAW spheres
   LVEL    =     F    velocity operator in full k-point grid
   CSHIFT  =0.1000    complex shift for real part using Kramers Kronig
   OMEGAMAX=  -1.0    maximum frequency
   DEG_THRESHOLD= 0.2000000E-02 threshold for treating states as degnerate
   RTIME   =   -0.100 relaxation time in fs
  (WPLASMAI=    0.000 imaginary part of plasma frequency in eV, 0.658/RTIME)
   DFIELD  = 0.0000000 0.0000000 0.0000000 field for delta impulse in time
 
  Optional k-point grid parameters
   LKPOINTS_OPT  =     F    use optional k-point grid
   KPOINTS_OPT_MODE=     1    mode for optional k-point grid
 
 Orbital magnetization related:
   ORBITALMAG=     F  switch on orbital magnetization
   LCHIMAG   =     F  perturbation theory with respect to B field
   DQ        =  0.001000  dq finite difference perturbation B field
   LLRAUG    =     F  two centre corrections for induced B field
   LBONE     =     F  B-component reconstruction in AE one-centre
   LVGVCALC  =     T  calculate vGv susceptibility
   LVGVAPPL  =     F  apply vGv susceptibility instead of pGv for G=0

 Random number generation:
   RANDOM_GENERATOR = DEFAULT
   PCG_SEED         = not used


--------------------------------------------------------------------------------------------------------


 Static calculation
 charge density and potential will be updated during run
 non-spin polarized calculation
 Variant of blocked Davidson
 Davidson routine will perform the subspace rotation
 perform sub-space diagonalisation
    after iterative eigenvector-optimisation
 modified Broyden-mixing scheme, WC =      100.0
 initial mixing is a Kerker type mixing with AMIX =  0.4000 and BMIX =      1.0000
 Hartree-type preconditioning will be used
 using additional bands            48
 real space projection scheme for non local part
 use partial core corrections
 calculate Harris-corrections to forces 
   (improved forces if not selfconsistent)
 use gradient corrections 
 use of overlap-Matrix (Vanderbilt PP)
 Gauss-broadening in eV      SIGMA  =   0.20


--------------------------------------------------------------------------------------------------------


  energy-cutoff  :      500.00
  volume of cell :     7611.37
      direct lattice vectors                 reciprocal lattice vectors
    28.050000000  0.000000000  0.000000000     0.035650624  0.000000000  0.000000000
     0.000000000  8.100000000  0.000000000     0.000000000  0.123456790  0.000000000
     0.000000000  0.000000000 33.500000000     0.000000000  0.000000000  0.029850746

  length of vectors
    28.050000000  8.100000000 33.500000000     0.035650624  0.123456790  0.029850746


 
 k-points in units of 2pi/SCALE and weight: K-Spacing Value to Generate K-Mesh: 0.03
   0.00000000  0.00000000  0.00000000       0.250
   0.00000000  0.03086420  0.00000000       0.500
   0.00000000  0.06172840  0.00000000       0.250
 
 k-points in reciprocal lattice and weights: K-Spacing Value to Generate K-Mesh: 0.03
   0.00000000  0.00000000  0.00000000       0.250
   0.00000000  0.25000000  0.00000000       0.500
   0.00000000  0.50000000  0.00000000       0.250
 
 position of ions in fractional coordinates (direct lattice) 
   0.00647052  0.11213136  0.52539104
   0.00419041  0.27554074  0.53294328
   0.04827950  0.01806753  0.52965970
   0.04596043  0.35184938  0.54047463
   0.08932121  0.09905951  0.54233731
   0.08960927  0.26517531  0.54679701
   0.13338217  0.01768765  0.54688657
   0.13401676  0.35179012  0.55109552
   0.17627308  0.10004025  0.54677910
   0.17884064  0.26726667  0.55182687
   0.22193690  0.02072123  0.54107164
   0.22614759  0.34777407  0.55280597
   0.26786061  0.09817099  0.53988955
   0.27107451  0.26468272  0.54665672
   0.31171087  0.02050802  0.52605672
   0.31551943  0.34361605  0.53933134
   0.35798217  0.09460309  0.52318806
   0.35835651  0.26852963  0.52705970
   0.39730125  0.01923716  0.50566567
   0.40063102  0.35302346  0.51426866
   0.44055258  0.10338000  0.49702985
   0.44247059  0.27316420  0.50015224
   0.48064528  0.02433012  0.48190149
   0.48212121  0.35441605  0.48506269
   0.52532264  0.10901765  0.47571940
   0.52454189  0.27548765  0.47422687
   0.56677362  0.02234037  0.46385970
   0.56663102  0.35587407  0.46314925
   0.61054189  0.10576099  0.45801791
   0.61090196  0.27318765  0.45981194
   0.65435294  0.02203321  0.45190448
   0.65597504  0.35782222  0.45746269
   0.69959715  0.09890383  0.45666269
   0.70000713  0.27385432  0.46178507
   0.74426381  0.02354309  0.45584776
   0.74319430  0.36435309  0.46645373
   0.78577540  0.10966988  0.46978806
   0.78543316  0.27515185  0.47701791
   0.83272014  0.02877593  0.47570746
   0.82654189  0.36109753  0.48758806
   0.87012478  0.10870975  0.49171940
   0.86757219  0.27409753  0.49952239
   0.91542602  0.03527580  0.49753134
   0.91162567  0.36117654  0.50851940
   0.95407487  0.11439358  0.51457910
   0.95294831  0.28786296  0.51817910
   0.00426228  0.59983457  0.51730149
   0.00827408  0.77335802  0.51404478
   0.04609376  0.51800617  0.53457015
   0.04948877  0.85019753  0.52775522
   0.08957326  0.59907531  0.54358507
   0.09097148  0.76638642  0.54070746
   0.13474153  0.51667407  0.54592239
   0.13537825  0.84799506  0.54197612
   0.18065633  0.59526790  0.54617015
   0.17927701  0.76363086  0.54006567
   0.22547772  0.51850617  0.55011343
   0.22201604  0.85195185  0.53639701
   0.26852157  0.59811975  0.54041791
   0.26807166  0.76618025  0.53309254
   0.31177647  0.51512222  0.53473134
   0.31086096  0.85485062  0.52341493
   0.35398075  0.59721111  0.51924776
   0.35267023  0.76521852  0.51100896
   0.39791444  0.52133704  0.51153731
   0.39433868  0.84995926  0.50073433
   0.43751872  0.60492346  0.49267164
   0.43618538  0.77095309  0.48939701
   0.48046346  0.52832716  0.47872537
   0.47836720  0.85796667  0.47654627
   0.52334759  0.60512593  0.46679104
   0.52200000  0.77482840  0.46600597
   0.56638503  0.52369506  0.45885970
   0.56427094  0.85404198  0.45802388
   0.61044563  0.60386543  0.44679104
   0.60674866  0.77344074  0.44628955
   0.65504813  0.52433704  0.44725672
   0.65320856  0.85307654  0.44729851
   0.70069875  0.60276049  0.44642388
   0.69894831  0.77085432  0.44721791
   0.74430303  0.52870247  0.45778209
   0.74396435  0.85467778  0.45371642
   0.78807843  0.61236173  0.46471940
   0.78981818  0.77934198  0.45989851
   0.83040998  0.52680000  0.47820597
   0.83358645  0.86013704  0.46904776
   0.87345811  0.60754691  0.48286567
   0.87707665  0.77685185  0.47911642
   0.91287344  0.52310741  0.49972239
   0.91906952  0.86396790  0.48942090
   0.95450980  0.60774938  0.50448657
   0.95756150  0.77951605  0.50050746
 
 position of ions in cartesian coordinates  (Angst):
   0.18149800  0.90826400 17.60060000
   0.11754100  2.23188000 17.85360000
   1.35424000  0.14634700 17.74360000
   1.28919000  2.84998000 18.10590000
   2.50546000  0.80238200 18.16830000
   2.51354000  2.14792000 18.31770000
   3.74137000  0.14327000 18.32070000
   3.75917000  2.84950000 18.46170000
   4.94446000  0.81032600 18.31710000
   5.01648000  2.16486000 18.48620000
   6.22533000  0.16784200 18.12590000
   6.34344000  2.81697000 18.51900000
   7.51349000  0.79518500 18.08630000
   7.60364000  2.14393000 18.31300000
   8.74349000  0.16611500 17.62290000
   8.85032000  2.78329000 18.06760000
  10.04140000  0.76628500 17.52680000
  10.05190000  2.17509000 17.65650000
  11.14430000  0.15582100 16.93980000
  11.23770000  2.85949000 17.22800000
  12.35750000  0.83737800 16.65050000
  12.41130000  2.21263000 16.75510000
  13.48210000  0.19707400 16.14370000
  13.52350000  2.87077000 16.24960000
  14.73530000  0.88304300 15.93660000
  14.71340000  2.23145000 15.88660000
  15.89800000  0.18095700 15.53930000
  15.89400000  2.88258000 15.51550000
  17.12570000  0.85666400 15.34360000
  17.13580000  2.21282000 15.40370000
  18.35460000  0.17846900 15.13880000
  18.40010000  2.89836000 15.32500000
  19.62370000  0.80112100 15.29820000
  19.63520000  2.21822000 15.46980000
  20.87660000  0.19069900 15.27090000
  20.84660000  2.95126000 15.62620000
  22.04100000  0.88832600 15.73790000
  22.03140000  2.22873000 15.98010000
  23.35780000  0.23308500 15.93620000
  23.18450000  2.92489000 16.33420000
  24.40700000  0.88054900 16.47260000
  24.33540000  2.22019000 16.73400000
  25.67770000  0.28573400 16.66730000
  25.57110000  2.92553000 17.03540000
  26.76180000  0.92658800 17.23840000
  26.73020000  2.33169000 17.35900000
   0.11955700  4.85866000 17.32960000
   0.23208800  6.26420000 17.22050000
   1.29293000  4.19585000 17.90810000
   1.38816000  6.88660000 17.67980000
   2.51253000  4.85251000 18.21010000
   2.55175000  6.20773000 18.11370000
   3.77950000  4.18506000 18.28840000
   3.79736000  6.86876000 18.15620000
   5.06741000  4.82167000 18.29670000
   5.02872000  6.18541000 18.09220000
   6.32465000  4.19990000 18.42880000
   6.22755000  6.90081000 17.96930000
   7.53203000  4.84477000 18.10400000
   7.51941000  6.20606000 17.85860000
   8.74533000  4.17249000 17.91350000
   8.71965000  6.92429000 17.53440000
   9.92916000  4.83741000 17.39480000
   9.89240000  6.19827000 17.11880000
  11.16150000  4.22283000 17.13650000
  11.06120000  6.88467000 16.77460000
  12.27240000  4.89988000 16.50450000
  12.23500000  6.24472000 16.39480000
  13.47700000  4.27945000 16.03730000
  13.41820000  6.94953000 15.96430000
  14.67990000  4.90152000 15.63750000
  14.64210000  6.27611000 15.61120000
  15.88710000  4.24193000 15.37180000
  15.82780000  6.91774000 15.34380000
  17.12300000  4.89131000 14.96750000
  17.01930000  6.26487000 14.95070000
  18.37410000  4.24713000 14.98310000
  18.32250000  6.90992000 14.98450000
  19.65460000  4.88236000 14.95520000
  19.60550000  6.24392000 14.98180000
  20.87770000  4.28249000 15.33570000
  20.86820000  6.92289000 15.19950000
  22.10560000  4.96013000 15.56810000
  22.15440000  6.31267000 15.40660000
  23.29300000  4.26708000 16.01990000
  23.38210000  6.96711000 15.71310000
  24.50050000  4.92113000 16.17600000
  24.60200000  6.29250000 16.05040000
  25.60610000  4.23717000 16.74070000
  25.77990000  6.99814000 16.39560000
  26.77400000  4.92277000 16.90030000
  26.85960000  6.31408000 16.76700000
 


--------------------------------------------------------------------------------------------------------


 k-point     1 :   0.0000 0.0000 0.0000  plane waves:  193173
 k-point     2 :   0.0000 0.2500 0.0000  plane waves:  193166
 k-point     3 :   0.0000 0.5000 0.0000  plane waves:  193226

 maximum and minimum number of plane-waves per node :    193226   193166

 maximum number of plane-waves:    193226
 maximum index in each direction: 
   IXMAX=   51   IYMAX=   14   IZMAX=   61
   IXMIN=  -51   IYMIN=  -15   IZMIN=  -61


 serial   3D FFT for wavefunctions
 parallel 3D FFT for charge:
    minimum data exchange during FFTs selected (reduces bandwidth)


 total amount of memory used by VASP MPI-rank0  2294510. kBytes
=======================================================================

   base                                    :      30000. kBytes
   nonlr-proj                              :      15076. kBytes
   fftplans                                :     436558. kBytes
   grid                                    :     732614. kBytes
   one-center                              :        282. kBytes
   wavefun                                 :    1079980. kBytes
 
     INWAV:  cpu time      0.0000: real time      0.0000
 Broyden mixing: mesh for mixing (old mesh)
   NGX =103   NGY = 29   NGZ =123
  (NGX  =420   NGY  =120   NGZ  =500)
  gives a total of 367401 points

 initial charge density was supplied:
 charge density of overlapping atoms calculated
 number of electron     368.0000000 magnetization 
 keeping initial charge density in first step


--------------------------------------------------------------------------------------------------------


 Maximum index for non-local projection operator          1871
 Maximum index for augmentation-charges          2387 (set IRDMAX)


--------------------------------------------------------------------------------------------------------


 First call to EWALD:  gamma=   0.090
 Maximum number of real-space cells   2x   6x   2
 Maximum number of reciprocal cells   4x   1x   4

    FEWALD:  cpu time      0.1584: real time      0.1584


--------------------------------------- Ionic step        1  -------------------------------------------




--------------------------------------- Iteration      1(   1)  ---------------------------------------


    POTLOK:  cpu time      0.4219: real time      0.4382
    SETDIJ:  cpu time      0.0419: real time      0.0419
     EDDAV:  cpu time     11.0436: real time     11.0503
       DOS:  cpu time      0.0008: real time      0.0008
    --------------------------------------------
      LOOP:  cpu time     11.5082: real time     11.5311

 eigenvalue-minimisations  :  1712
 total energy-change (2. order) : 0.3702135E+04  (-0.1188747E+05)
 number of electron     368.0000000 magnetization 
 augmentation part      368.0000000 magnetization 

 Free energy of the ion-electron system (eV)
  ---------------------------------------------------
  alpha Z        PSCENC =        91.34886789
  Ewald energy   TEWEN  =    119453.58718066
  -Hartree energ DENC   =   -128786.22366955
  -exchange      EXHF   =         0.00000000
  -V(xc)+E(xc)   XCENC  =      1221.02149816
  PAW double counting   =      9984.02826696   -10036.41360137
  entropy T*S    EENTRO =        -0.86392108
  eigenvalues    EBANDS =     -1762.00435694
  atomic energy  EATOM  =     13537.65479391
  Solvation  Ediel_sol  =         0.00000000
  ---------------------------------------------------
  free energy    TOTEN  =      3702.13505864 eV

  energy without entropy =     3702.99897972  energy(sigma->0) =     3702.56701918


--------------------------------------------------------------------------------------------------------




--------------------------------------- Iteration      1(   2)  ---------------------------------------


     EDDAV:  cpu time     13.0434: real time     13.0481
       DOS:  cpu time      0.0007: real time      0.0007
    --------------------------------------------
      LOOP:  cpu time     13.0441: real time     13.0488

 eigenvalue-minimisations  :  2128
 total energy-change (2. order) :-0.3522930E+04  (-0.3258944E+04)
 number of electron     368.0000000 magnetization 
 augmentation part      368.0000000 magnetization 

 Free energy of the ion-electron system (eV)
  ---------------------------------------------------
  alpha Z        PSCENC =        91.34886789
  Ewald energy   TEWEN  =    119453.58718066
  -Hartree energ DENC   =   -128786.22366955
  -exchange      EXHF   =         0.00000000
  -V(xc)+E(xc)   XCENC  =      1221.02149816
  PAW double counting   =      9984.02826696   -10036.41360137
  entropy T*S    EENTRO =        -0.22257634
  eigenvalues    EBANDS =     -5285.57617037
  atomic energy  EATOM  =     13537.65479391
  Solvation  Ediel_sol  =         0.00000000
  ---------------------------------------------------
  free energy    TOTEN  =       179.20458995 eV

  energy without entropy =      179.42716629  energy(sigma->0) =      179.31587812


--------------------------------------------------------------------------------------------------------




--------------------------------------- Iteration      1(   3)  ---------------------------------------


     EDDAV:  cpu time     11.2836: real time     11.2877
       DOS:  cpu time      0.0007: real time      0.0007
    --------------------------------------------
      LOOP:  cpu time     11.2843: real time     11.2884

 eigenvalue-minimisations  :  1792
 total energy-change (2. order) :-0.1014386E+04  (-0.9898928E+03)
 number of electron     368.0000000 magnetization 
 augmentation part      368.0000000 magnetization 

 Free energy of the ion-electron system (eV)
  ---------------------------------------------------
  alpha Z        PSCENC =        91.34886789
  Ewald energy   TEWEN  =    119453.58718066
  -Hartree energ DENC   =   -128786.22366955
  -exchange      EXHF   =         0.00000000
  -V(xc)+E(xc)   XCENC  =      1221.02149816
  PAW double counting   =      9984.02826696   -10036.41360137
  entropy T*S    EENTRO =        -0.04775010
  eigenvalues    EBANDS =     -6300.13732479
  atomic energy  EATOM  =     13537.65479391
  Solvation  Ediel_sol  =         0.00000000
  ---------------------------------------------------
  free energy    TOTEN  =      -835.18173823 eV

  energy without entropy =     -835.13398813  energy(sigma->0) =     -835.15786318


--------------------------------------------------------------------------------------------------------




--------------------------------------- Iteration      1(   4)  ---------------------------------------


     EDDAV:  cpu time     10.8693: real time     10.8731
       DOS:  cpu time      0.0007: real time      0.0007
    --------------------------------------------
      LOOP:  cpu time     10.8700: real time     10.8737

 eigenvalue-minimisations  :  1712
 total energy-change (2. order) :-0.6124551E+02  (-0.6028019E+02)
 number of electron     368.0000000 magnetization 
 augmentation part      368.0000000 magnetization 

 Free energy of the ion-electron system (eV)
  ---------------------------------------------------
  alpha Z        PSCENC =        91.34886789
  Ewald energy   TEWEN  =    119453.58718066
  -Hartree energ DENC   =   -128786.22366955
  -exchange      EXHF   =         0.00000000
  -V(xc)+E(xc)   XCENC  =      1221.02149816
  PAW double counting   =      9984.02826696   -10036.41360137
  entropy T*S    EENTRO =        -0.05705103
  eigenvalues    EBANDS =     -6361.37353283
  atomic energy  EATOM  =     13537.65479391
  Solvation  Ediel_sol  =         0.00000000
  ---------------------------------------------------
  free energy    TOTEN  =      -896.42724720 eV

  energy without entropy =     -896.37019617  energy(sigma->0) =     -896.39872169


--------------------------------------------------------------------------------------------------------




--------------------------------------- Iteration      1(   5)  ---------------------------------------


     EDDAV:  cpu time     11.4281: real time     11.4323
       DOS:  cpu time      0.0007: real time      0.0007
    CHARGE:  cpu time      1.2086: real time      1.2089
    MIXING:  cpu time      0.2754: real time      0.2754
    --------------------------------------------
      LOOP:  cpu time     12.9129: real time     12.9172

 eigenvalue-minimisations  :  1816
 total energy-change (2. order) :-0.1529995E+01  (-0.1509383E+01)
 number of electron     368.0000004 magnetization 
 augmentation part       10.1435069 magnetization 

 Broyden mixing:
  rms(total) = 0.45431E+01    rms(broyden)= 0.45425E+01
  rms(prec ) = 0.46602E+01
  weight for this iteration     100.00

 Free energy of the ion-electron system (eV)
  ---------------------------------------------------
  alpha Z        PSCENC =        91.34886789
  Ewald energy   TEWEN  =    119453.58718066
  -Hartree energ DENC   =   -128786.22366955
  -exchange      EXHF   =         0.00000000
  -V(xc)+E(xc)   XCENC  =      1221.02149816
  PAW double counting   =      9984.02826696   -10036.41360137
  entropy T*S    EENTRO =        -0.05707618
  eigenvalues    EBANDS =     -6362.90350287
  atomic energy  EATOM  =     13537.65479391
  Solvation  Ediel_sol  =         0.00000000
  ---------------------------------------------------
  free energy    TOTEN  =      -897.95724240 eV

  energy without entropy =     -897.90016621  energy(sigma->0) =     -897.92870431


--------------------------------------------------------------------------------------------------------




--------------------------------------- Iteration      1(   6)  ---------------------------------------


    POTLOK:  cpu time      0.3198: real time      0.3198
    SETDIJ:  cpu time      0.0404: real time      0.0404
     EDDAV:  cpu time     10.2817: real time     10.2861
       DOS:  cpu time      0.0007: real time      0.0007
    CHARGE:  cpu time      1.1605: real time      1.1614
    MIXING:  cpu time      0.2769: real time      0.2782
    --------------------------------------------
      LOOP:  cpu time     12.0800: real time     12.0867

 eigenvalue-minimisations  :  1584
 total energy-change (2. order) : 0.4936065E+02  (-0.4736122E+01)
 number of electron     368.0000004 magnetization 
 augmentation part        9.7176025 magnetization 

 Broyden mixing:
  rms(total) = 0.26669E+01    rms(broyden)= 0.26668E+01
  rms(prec ) = 0.27248E+01
  weight for this iteration     100.00

 eigenvalues of (default mixing * dielectric matrix)
  average eigenvalue GAMMA=   2.1811
  2.1811

 Free energy of the ion-electron system (eV)
  ---------------------------------------------------
  alpha Z        PSCENC =        91.34886789
  Ewald energy   TEWEN  =    119453.58718066
  -Hartree energ DENC   =   -129355.02235438
  -exchange      EXHF   =         0.00000000
  -V(xc)+E(xc)   XCENC  =      1244.30717362
  PAW double counting   =     18915.70883004   -18975.68875137
  entropy T*S    EENTRO =        -0.05843207
  eigenvalues    EBANDS =     -5760.43389691
  atomic energy  EATOM  =     13537.65479391
  Solvation  Ediel_sol  =         0.00000000
  ---------------------------------------------------
  free energy    TOTEN  =      -848.59658861 eV

  energy without entropy =     -848.53815654  energy(sigma->0) =     -848.56737258


--------------------------------------------------------------------------------------------------------




--------------------------------------- Iteration      1(   7)  ---------------------------------------


    POTLOK:  cpu time      0.3198: real time      0.3198
    SETDIJ:  cpu time      0.0400: real time      0.0400
     EDDAV:  cpu time     10.1986: real time     10.2040
       DOS:  cpu time      0.0007: real time      0.0007
    CHARGE:  cpu time      1.1548: real time      1.1551
    MIXING:  cpu time      0.2788: real time      0.2792
    --------------------------------------------
      LOOP:  cpu time     11.9927: real time     11.9988

 eigenvalue-minimisations  :  1568
 total energy-change (2. order) : 0.1835898E+02  (-0.6491946E+01)
 number of electron     368.0000003 magnetization 
 augmentation part        9.1652248 magnetization 

 Broyden mixing:
  rms(total) = 0.73143E+00    rms(broyden)= 0.73116E+00
  rms(prec ) = 0.74119E+00
  weight for this iteration     100.00

 eigenvalues of (default mixing * dielectric matrix)
  average eigenvalue GAMMA=   2.1929
  2.1929  2.1929

 Free energy of the ion-electron system (eV)
  ---------------------------------------------------
  alpha Z        PSCENC =        91.34886789
  Ewald energy   TEWEN  =    119453.58718066
  -Hartree energ DENC   =   -130116.71793410
  -exchange      EXHF   =         0.00000000
  -V(xc)+E(xc)   XCENC  =      1275.29743489
  PAW double counting   =     36459.95753684   -36526.80687459
  entropy T*S    EENTRO =        -0.06358244
  eigenvalues    EBANDS =     -5004.49503652
  atomic energy  EATOM  =     13537.65479391
  Solvation  Ediel_sol  =         0.00000000
  ---------------------------------------------------
  free energy    TOTEN  =      -830.23761346 eV

  energy without entropy =     -830.17403103  energy(sigma->0) =     -830.20582225


--------------------------------------------------------------------------------------------------------




--------------------------------------- Iteration      1(   8)  ---------------------------------------


    POTLOK:  cpu time      0.3196: real time      0.3194
    SETDIJ:  cpu time      0.0401: real time      0.0401
     EDDAV:  cpu time     10.3613: real time     10.3677
       DOS:  cpu time      0.0007: real time      0.0007
    CHARGE:  cpu time      1.1539: real time      1.1576
    MIXING:  cpu time      0.2822: real time      0.2832
    --------------------------------------------
      LOOP:  cpu time     12.1579: real time     12.1688

 eigenvalue-minimisations  :  1600
 total energy-change (2. order) : 0.2912417E+00  (-0.2392350E+00)
 number of electron     368.0000003 magnetization 
 augmentation part        9.1492961 magnetization 

 Broyden mixing:
  rms(total) = 0.10093E+00    rms(broyden)= 0.10089E+00
  rms(prec ) = 0.12301E+00
  weight for this iteration     100.00

 eigenvalues of (default mixing * dielectric matrix)
  average eigenvalue GAMMA=   1.8660
  1.2495  2.4409  1.9075

 Free energy of the ion-electron system (eV)
  ---------------------------------------------------
  alpha Z        PSCENC =        91.34886789
  Ewald energy   TEWEN  =    119453.58718066
  -Hartree energ DENC   =   -130211.42211822
  -exchange      EXHF   =         0.00000000
  -V(xc)+E(xc)   XCENC  =      1275.13887677
  PAW double counting   =     40711.45113172   -40775.66425712
  entropy T*S    EENTRO =        -0.06238271
  eigenvalues    EBANDS =     -4911.97846464
  atomic energy  EATOM  =     13537.65479391
  Solvation  Ediel_sol  =         0.00000000
  ---------------------------------------------------
  free energy    TOTEN  =      -829.94637174 eV

  energy without entropy =     -829.88398903  energy(sigma->0) =     -829.91518039


--------------------------------------------------------------------------------------------------------




--------------------------------------- Iteration      1(   9)  ---------------------------------------


    POTLOK:  cpu time      0.3195: real time      0.3195
    SETDIJ:  cpu time      0.0403: real time      0.0403
     EDDAV:  cpu time     10.5729: real time     10.5764
       DOS:  cpu time      0.0008: real time      0.0008
    CHARGE:  cpu time      1.1549: real time      1.1570
    MIXING:  cpu time      0.2850: real time      0.2866
    --------------------------------------------
      LOOP:  cpu time     12.3733: real time     12.3806

 eigenvalue-minimisations  :  1640
 total energy-change (2. order) : 0.1065164E+00  (-0.2771593E-01)
 number of electron     368.0000003 magnetization 
 augmentation part        9.1261704 magnetization 

 Broyden mixing:
  rms(total) = 0.57496E-01    rms(broyden)= 0.57486E-01
  rms(prec ) = 0.78755E-01
  weight for this iteration     100.00

 eigenvalues of (default mixing * dielectric matrix)
  average eigenvalue GAMMA=   1.6804
  2.2014  2.2014  1.0621  1.2568

 Free energy of the ion-electron system (eV)
  ---------------------------------------------------
  alpha Z        PSCENC =        91.34886789
  Ewald energy   TEWEN  =    119453.58718066
  -Hartree energ DENC   =   -130281.83022800
  -exchange      EXHF   =         0.00000000
  -V(xc)+E(xc)   XCENC  =      1276.54901349
  PAW double counting   =     41250.87082070   -41315.14264642
  entropy T*S    EENTRO =        -0.06243279
  eigenvalues    EBANDS =     -4842.81522481
  atomic energy  EATOM  =     13537.65479391
  Solvation  Ediel_sol  =         0.00000000
  ---------------------------------------------------
  free energy    TOTEN  =      -829.83985537 eV

  energy without entropy =     -829.77742258  energy(sigma->0) =     -829.80863898


--------------------------------------------------------------------------------------------------------




--------------------------------------- Iteration      1(  10)  ---------------------------------------


    POTLOK:  cpu time      0.3196: real time      0.3196
    SETDIJ:  cpu time      0.0404: real time      0.0405
     EDDAV:  cpu time     10.9283: real time     10.9319
       DOS:  cpu time      0.0016: real time      0.0016
    CHARGE:  cpu time      1.1522: real time      1.1543
    MIXING:  cpu time      0.2907: real time      0.2918
    --------------------------------------------
      LOOP:  cpu time     12.7328: real time     12.7396

 eigenvalue-minimisations  :  1720
 total energy-change (2. order) : 0.3575738E-01  (-0.5131052E-02)
 number of electron     368.0000003 magnetization 
 augmentation part        9.1164637 magnetization 

 Broyden mixing:
  rms(total) = 0.36698E-01    rms(broyden)= 0.36696E-01
  rms(prec ) = 0.56204E-01
  weight for this iteration     100.00

 eigenvalues of (default mixing * dielectric matrix)
  average eigenvalue GAMMA=   1.7164
  2.4471  2.4471  1.4286  1.4286  0.8306

 Free energy of the ion-electron system (eV)
  ---------------------------------------------------
  alpha Z        PSCENC =        91.34886789
  Ewald energy   TEWEN  =    119453.58718066
  -Hartree energ DENC   =   -130328.66552479
  -exchange      EXHF   =         0.00000000
  -V(xc)+E(xc)   XCENC  =      1276.84519507
  PAW double counting   =     41031.21626013   -41095.35257853
  entropy T*S    EENTRO =        -0.06208080
  eigenvalues    EBANDS =     -4796.37621153
  atomic energy  EATOM  =     13537.65479391
  Solvation  Ediel_sol  =         0.00000000
  ---------------------------------------------------
  free energy    TOTEN  =      -829.80409799 eV

  energy without entropy =     -829.74201719  energy(sigma->0) =     -829.77305759


--------------------------------------------------------------------------------------------------------




--------------------------------------- Iteration      1(  11)  ---------------------------------------


    POTLOK:  cpu time      0.3216: real time      0.3216
    SETDIJ:  cpu time      0.0400: real time      0.0401
     EDDAV:  cpu time     10.2103: real time     10.2137
       DOS:  cpu time      0.0008: real time      0.0008
    CHARGE:  cpu time      1.1610: real time      1.1625
    MIXING:  cpu time      0.3005: real time      0.3008
    --------------------------------------------
      LOOP:  cpu time     12.0341: real time     12.0394

 eigenvalue-minimisations  :  1576
 total energy-change (2. order) : 0.2883706E-01  (-0.2138219E-02)
 number of electron     368.0000003 magnetization 
 augmentation part        9.1120133 magnetization 

 Broyden mixing:
  rms(total) = 0.25024E-01    rms(broyden)= 0.25023E-01
  rms(prec ) = 0.38788E-01
  weight for this iteration     100.00

 eigenvalues of (default mixing * dielectric matrix)
  average eigenvalue GAMMA=   1.7672
  2.8862  2.6084  1.9153  0.9438  1.1247  1.1247

 Free energy of the ion-electron system (eV)
  ---------------------------------------------------
  alpha Z        PSCENC =        91.34886789
  Ewald energy   TEWEN  =    119453.58718066
  -Hartree energ DENC   =   -130391.37633992
  -exchange      EXHF   =         0.00000000
  -V(xc)+E(xc)   XCENC  =      1277.37663599
  PAW double counting   =     40945.75660977   -41009.78282208
  entropy T*S    EENTRO =        -0.06203084
  eigenvalues    EBANDS =     -4734.27815631
  atomic energy  EATOM  =     13537.65479391
  Solvation  Ediel_sol  =         0.00000000
  ---------------------------------------------------
  free energy    TOTEN  =      -829.77526093 eV

  energy without entropy =     -829.71323010  energy(sigma->0) =     -829.74424552


--------------------------------------------------------------------------------------------------------




--------------------------------------- Iteration      1(  12)  ---------------------------------------


    POTLOK:  cpu time      0.3195: real time      0.3195
    SETDIJ:  cpu time      0.0403: real time      0.0403
     EDDAV:  cpu time     10.0838: real time     10.0874
       DOS:  cpu time      0.0007: real time      0.0007
    CHARGE:  cpu time      1.1550: real time      1.1552
    MIXING:  cpu time      0.3067: real time      0.3067
    --------------------------------------------
      LOOP:  cpu time     11.9060: real time     11.9098

 eigenvalue-minimisations  :  1552
 total energy-change (2. order) : 0.4824299E-02  (-0.2356009E-02)
 number of electron     368.0000003 magnetization 
 augmentation part        9.1046597 magnetization 

 Broyden mixing:
  rms(total) = 0.15910E-01    rms(broyden)= 0.15907E-01
  rms(prec ) = 0.24099E-01
  weight for this iteration     100.00

 eigenvalues of (default mixing * dielectric matrix)
  average eigenvalue GAMMA=   2.0302
  4.6406  2.3971  2.0134  2.0134  0.9262  1.1102  1.1102

 Free energy of the ion-electron system (eV)
  ---------------------------------------------------
  alpha Z        PSCENC =        91.34886789
  Ewald energy   TEWEN  =    119453.58718066
  -Hartree energ DENC   =   -130454.95892123
  -exchange      EXHF   =         0.00000000
  -V(xc)+E(xc)   XCENC  =      1278.00831278
  PAW double counting   =     40994.90180286   -41058.91917633
  entropy T*S    EENTRO =        -0.06234011
  eigenvalues    EBANDS =     -4671.33095705
  atomic energy  EATOM  =     13537.65479391
  Solvation  Ediel_sol  =         0.00000000
  ---------------------------------------------------
  free energy    TOTEN  =      -829.77043664 eV

  energy without entropy =     -829.70809652  energy(sigma->0) =     -829.73926658


--------------------------------------------------------------------------------------------------------




--------------------------------------- Iteration      1(  13)  ---------------------------------------


    POTLOK:  cpu time      0.3199: real time      0.3199
    SETDIJ:  cpu time      0.0402: real time      0.0402
     EDDAV:  cpu time      9.9499: real time      9.9533
       DOS:  cpu time      0.0007: real time      0.0007
    CHARGE:  cpu time      1.1551: real time      1.1554
    MIXING:  cpu time      0.3139: real time      0.3142
    --------------------------------------------
      LOOP:  cpu time     11.7797: real time     11.7839

 eigenvalue-minimisations  :  1528
 total energy-change (2. order) :-0.1228174E-01  (-0.9257443E-03)
 number of electron     368.0000003 magnetization 
 augmentation part        9.1017562 magnetization 

 Broyden mixing:
  rms(total) = 0.87319E-02    rms(broyden)= 0.87294E-02
  rms(prec ) = 0.12554E-01
  weight for this iteration     100.00

 eigenvalues of (default mixing * dielectric matrix)
  average eigenvalue GAMMA=   2.0448
  5.3482  2.4086  2.4086  1.8857  1.1702  1.1702  1.1125  0.8543

 Free energy of the ion-electron system (eV)
  ---------------------------------------------------
  alpha Z        PSCENC =        91.34886789
  Ewald energy   TEWEN  =    119453.58718066
  -Hartree energ DENC   =   -130506.37889958
  -exchange      EXHF   =         0.00000000
  -V(xc)+E(xc)   XCENC  =      1278.23055642
  PAW double counting   =     40965.13471115   -41029.14200505
  entropy T*S    EENTRO =        -0.06231982
  eigenvalues    EBANDS =     -4620.15560395
  atomic energy  EATOM  =     13537.65479391
  Solvation  Ediel_sol  =         0.00000000
  ---------------------------------------------------
  free energy    TOTEN  =      -829.78271837 eV

  energy without entropy =     -829.72039855  energy(sigma->0) =     -829.75155846


--------------------------------------------------------------------------------------------------------




--------------------------------------- Iteration      1(  14)  ---------------------------------------


    POTLOK:  cpu time      0.3202: real time      0.3201
    SETDIJ:  cpu time      0.0400: real time      0.0400
     EDDAV:  cpu time     10.2902: real time     10.2938
       DOS:  cpu time      0.0008: real time      0.0008
    CHARGE:  cpu time      1.1536: real time      1.1543
    MIXING:  cpu time      0.3202: real time      0.3214
    --------------------------------------------
      LOOP:  cpu time     12.1249: real time     12.1303

 eigenvalue-minimisations  :  1592
 total energy-change (2. order) :-0.1377891E-01  (-0.1300445E-03)
 number of electron     368.0000003 magnetization 
 augmentation part        9.1007886 magnetization 

 Broyden mixing:
  rms(total) = 0.67074E-02    rms(broyden)= 0.67068E-02
  rms(prec ) = 0.89713E-02
  weight for this iteration     100.00

 eigenvalues of (default mixing * dielectric matrix)
  average eigenvalue GAMMA=   2.1458
  6.1270  2.6443  2.6443  1.8179  1.5414  1.5414  1.1141  0.9411  0.9411

 Free energy of the ion-electron system (eV)
  ---------------------------------------------------
  alpha Z        PSCENC =        91.34886789
  Ewald energy   TEWEN  =    119453.58718066
  -Hartree energ DENC   =   -130522.30617239
  -exchange      EXHF   =         0.00000000
  -V(xc)+E(xc)   XCENC  =      1278.26502498
  PAW double counting   =     40957.37595549   -41021.39468085
  entropy T*S    EENTRO =        -0.06224505
  eigenvalues    EBANDS =     -4604.26522192
  atomic energy  EATOM  =     13537.65479391
  Solvation  Ediel_sol  =         0.00000000
  ---------------------------------------------------
  free energy    TOTEN  =      -829.79649728 eV

  energy without entropy =     -829.73425224  energy(sigma->0) =     -829.76537476


--------------------------------------------------------------------------------------------------------




--------------------------------------- Iteration      1(  15)  ---------------------------------------


    POTLOK:  cpu time      0.3218: real time      0.3219
    SETDIJ:  cpu time      0.0401: real time      0.0401
     EDDAV:  cpu time      9.9546: real time      9.9592
       DOS:  cpu time      0.0007: real time      0.0007
    CHARGE:  cpu time      1.1506: real time      1.1526
    MIXING:  cpu time      0.3319: real time      0.3319
    --------------------------------------------
      LOOP:  cpu time     11.7997: real time     11.8065

 eigenvalue-minimisations  :  1528
 total energy-change (2. order) :-0.2083655E-01  (-0.1809743E-03)
 number of electron     368.0000003 magnetization 
 augmentation part        9.1004232 magnetization 

 Broyden mixing:
  rms(total) = 0.31178E-02    rms(broyden)= 0.31174E-02
  rms(prec ) = 0.44554E-02
  weight for this iteration     100.00

 eigenvalues of (default mixing * dielectric matrix)
  average eigenvalue GAMMA=   2.2254
  7.0388  3.4570  2.2274  2.2274  1.6222  1.3332  1.3332  0.9554  0.9554  1.1043

 Free energy of the ion-electron system (eV)
  ---------------------------------------------------
  alpha Z        PSCENC =        91.34886789
  Ewald energy   TEWEN  =    119453.58718066
  -Hartree energ DENC   =   -130533.41949901
  -exchange      EXHF   =         0.00000000
  -V(xc)+E(xc)   XCENC  =      1278.24517515
  PAW double counting   =     40965.29056687   -41029.30996818
  entropy T*S    EENTRO =        -0.06228808
  eigenvalues    EBANDS =     -4593.15216303
  atomic energy  EATOM  =     13537.65479391
  Solvation  Ediel_sol  =         0.00000000
  ---------------------------------------------------
  free energy    TOTEN  =      -829.81733383 eV

  energy without entropy =     -829.75504575  energy(sigma->0) =     -829.78618979


--------------------------------------------------------------------------------------------------------




--------------------------------------- Iteration      1(  16)  ---------------------------------------


    POTLOK:  cpu time      0.3199: real time      0.3201
    SETDIJ:  cpu time      0.0402: real time      0.0402
     EDDAV:  cpu time     10.3624: real time     10.3680
       DOS:  cpu time      0.0008: real time      0.0008
    CHARGE:  cpu time      1.1590: real time      1.1613
    MIXING:  cpu time      0.3385: real time      0.3402
    --------------------------------------------
      LOOP:  cpu time     12.2208: real time     12.2305

 eigenvalue-minimisations  :  1608
 total energy-change (2. order) :-0.9878184E-02  (-0.5960541E-04)
 number of electron     368.0000003 magnetization 
 augmentation part        9.1003955 magnetization 

 Broyden mixing:
  rms(total) = 0.26358E-02    rms(broyden)= 0.26356E-02
  rms(prec ) = 0.31993E-02
  weight for this iteration     100.00

 eigenvalues of (default mixing * dielectric matrix)
  average eigenvalue GAMMA=   2.2914
  7.6410  3.8109  2.3358  2.3358  1.9230  1.5387  1.5387  1.0841  1.0841  0.9936
  0.9195

 Free energy of the ion-electron system (eV)
  ---------------------------------------------------
  alpha Z        PSCENC =        91.34886789
  Ewald energy   TEWEN  =    119453.58718066
  -Hartree energ DENC   =   -130538.06407775
  -exchange      EXHF   =         0.00000000
  -V(xc)+E(xc)   XCENC  =      1278.21659886
  PAW double counting   =     40952.49489451   -41016.51389000
  entropy T*S    EENTRO =        -0.06226689
  eigenvalues    EBANDS =     -4588.48931321
  atomic energy  EATOM  =     13537.65479391
  Solvation  Ediel_sol  =         0.00000000
  ---------------------------------------------------
  free energy    TOTEN  =      -829.82721201 eV

  energy without entropy =     -829.76494513  energy(sigma->0) =     -829.79607857


--------------------------------------------------------------------------------------------------------




--------------------------------------- Iteration      1(  17)  ---------------------------------------


    POTLOK:  cpu time      0.3199: real time      0.3198
    SETDIJ:  cpu time      0.0403: real time      0.0403
     EDDAV:  cpu time     10.1918: real time     10.1989
       DOS:  cpu time      0.0007: real time      0.0007
    CHARGE:  cpu time      1.1529: real time      1.1539
    MIXING:  cpu time      0.3485: real time      0.3492
    --------------------------------------------
      LOOP:  cpu time     12.0541: real time     12.0629

 eigenvalue-minimisations  :  1576
 total energy-change (2. order) :-0.5539138E-02  (-0.3472298E-04)
 number of electron     368.0000003 magnetization 
 augmentation part        9.1001909 magnetization 

 Broyden mixing:
  rms(total) = 0.13051E-02    rms(broyden)= 0.13050E-02
  rms(prec ) = 0.16446E-02
  weight for this iteration     100.00

 eigenvalues of (default mixing * dielectric matrix)
  average eigenvalue GAMMA=   2.3109
  8.2569  4.3464  2.4030  2.4030  1.9596  1.4991  1.4991  1.2311  1.2311  0.9553
  0.9553  0.9902

 Free energy of the ion-electron system (eV)
  ---------------------------------------------------
  alpha Z        PSCENC =        91.34886789
  Ewald energy   TEWEN  =    119453.58718066
  -Hartree energ DENC   =   -130540.59105514
  -exchange      EXHF   =         0.00000000
  -V(xc)+E(xc)   XCENC  =      1278.22211526
  PAW double counting   =     40962.69925201   -41026.71596678
  entropy T*S    EENTRO =        -0.06226786
  eigenvalues    EBANDS =     -4585.97567111
  atomic energy  EATOM  =     13537.65479391
  Solvation  Ediel_sol  =         0.00000000
  ---------------------------------------------------
  free energy    TOTEN  =      -829.83275115 eV

  energy without entropy =     -829.77048329  energy(sigma->0) =     -829.80161722


--------------------------------------------------------------------------------------------------------




--------------------------------------- Iteration      1(  18)  ---------------------------------------


    POTLOK:  cpu time      0.3203: real time      0.3203
    SETDIJ:  cpu time      0.0403: real time      0.0403
     EDDAV:  cpu time     10.5140: real time     10.5208
       DOS:  cpu time      0.0007: real time      0.0007
    CHARGE:  cpu time      1.1492: real time      1.1540
    MIXING:  cpu time      0.3599: real time      0.3601
    --------------------------------------------
      LOOP:  cpu time     12.3844: real time     12.3962

 eigenvalue-minimisations  :  1640
 total energy-change (2. order) :-0.2132284E-02  (-0.8757116E-05)
 number of electron     368.0000003 magnetization 
 augmentation part        9.1001569 magnetization 

 Broyden mixing:
  rms(total) = 0.80072E-03    rms(broyden)= 0.80065E-03
  rms(prec ) = 0.10093E-02
  weight for this iteration     100.00

 eigenvalues of (default mixing * dielectric matrix)
  average eigenvalue GAMMA=   2.3604
  8.6926  4.8008  2.6314  2.6314  1.9382  1.5539  1.5539  1.4130  1.4130  0.9510
  0.9510  1.0774  1.0774

 Free energy of the ion-electron system (eV)
  ---------------------------------------------------
  alpha Z        PSCENC =        91.34886789
  Ewald energy   TEWEN  =    119453.58718066
  -Hartree energ DENC   =   -130541.43338173
  -exchange      EXHF   =         0.00000000
  -V(xc)+E(xc)   XCENC  =      1278.21802536
  PAW double counting   =     40960.48660352   -41024.50298515
  entropy T*S    EENTRO =        -0.06228413
  eigenvalues    EBANDS =     -4585.13170376
  atomic energy  EATOM  =     13537.65479391
  Solvation  Ediel_sol  =         0.00000000
  ---------------------------------------------------
  free energy    TOTEN  =      -829.83488344 eV

  energy without entropy =     -829.77259930  energy(sigma->0) =     -829.80374137


--------------------------------------------------------------------------------------------------------




--------------------------------------- Iteration      1(  19)  ---------------------------------------


    POTLOK:  cpu time      0.3222: real time      0.3223
    SETDIJ:  cpu time      0.0402: real time      0.0402
     EDDAV:  cpu time     10.0675: real time     10.0744
       DOS:  cpu time      0.0008: real time      0.0008
    CHARGE:  cpu time      1.1527: real time      1.1531
    MIXING:  cpu time      0.3725: real time      0.3727
    --------------------------------------------
      LOOP:  cpu time     11.9558: real time     11.9634

 eigenvalue-minimisations  :  1552
 total energy-change (2. order) :-0.1380280E-02  (-0.5325619E-05)
 number of electron     368.0000003 magnetization 
 augmentation part        9.1001681 magnetization 

 Broyden mixing:
  rms(total) = 0.40188E-03    rms(broyden)= 0.40183E-03
  rms(prec ) = 0.51165E-03
  weight for this iteration     100.00

 eigenvalues of (default mixing * dielectric matrix)
  average eigenvalue GAMMA=   2.3618
  8.9268  5.2957  2.9843  2.2779  2.2779  1.8508  1.5838  1.5838  1.1868  1.1868
  0.9138  1.0176  0.9894  0.9894

 Free energy of the ion-electron system (eV)
  ---------------------------------------------------
  alpha Z        PSCENC =        91.34886789
  Ewald energy   TEWEN  =    119453.58718066
  -Hartree energ DENC   =   -130541.89264343
  -exchange      EXHF   =         0.00000000
  -V(xc)+E(xc)   XCENC  =      1278.21622330
  PAW double counting   =     40959.00944682   -41023.02422244
  entropy T*S    EENTRO =        -0.06227662
  eigenvalues    EBANDS =     -4584.67363379
  atomic energy  EATOM  =     13537.65479391
  Solvation  Ediel_sol  =         0.00000000
  ---------------------------------------------------
  free energy    TOTEN  =      -829.83626372 eV

  energy without entropy =     -829.77398710  energy(sigma->0) =     -829.80512541


--------------------------------------------------------------------------------------------------------




--------------------------------------- Iteration      1(  20)  ---------------------------------------


    POTLOK:  cpu time      0.3210: real time      0.3210
    SETDIJ:  cpu time      0.0392: real time      0.0392
     EDDAV:  cpu time      9.3041: real time      9.3099
       DOS:  cpu time      0.0007: real time      0.0007
    CHARGE:  cpu time      1.1527: real time      1.1554
    MIXING:  cpu time      0.3835: real time      0.3846
    --------------------------------------------
      LOOP:  cpu time     11.2012: real time     11.2108

 eigenvalue-minimisations  :  1392
 total energy-change (2. order) :-0.4441952E-03  (-0.9867718E-06)
 number of electron     368.0000003 magnetization 
 augmentation part        9.1001502 magnetization 

 Broyden mixing:
  rms(total) = 0.32212E-03    rms(broyden)= 0.32210E-03
  rms(prec ) = 0.37942E-03
  weight for this iteration     100.00

 eigenvalues of (default mixing * dielectric matrix)
  average eigenvalue GAMMA=   2.3997
  9.1476  5.6291  3.4163  2.5300  2.1116  1.9480  1.6246  1.6246  1.4840  1.2294
  1.2294  0.9547  0.9547  1.0555  1.0555

 Free energy of the ion-electron system (eV)
  ---------------------------------------------------
  alpha Z        PSCENC =        91.34886789
  Ewald energy   TEWEN  =    119453.58718066
  -Hartree energ DENC   =   -130542.09551884
  -exchange      EXHF   =         0.00000000
  -V(xc)+E(xc)   XCENC  =      1278.21621774
  PAW double counting   =     40959.24853264   -41023.26353673
  entropy T*S    EENTRO =        -0.06227662
  eigenvalues    EBANDS =     -4584.47096857
  atomic energy  EATOM  =     13537.65479391
  Solvation  Ediel_sol  =         0.00000000
  ---------------------------------------------------
  free energy    TOTEN  =      -829.83670791 eV

  energy without entropy =     -829.77443129  energy(sigma->0) =     -829.80556960


--------------------------------------------------------------------------------------------------------




--------------------------------------- Iteration      1(  21)  ---------------------------------------


    POTLOK:  cpu time      0.3188: real time      0.3202
    SETDIJ:  cpu time      0.0402: real time      0.0402
     EDDAV:  cpu time      8.6616: real time      8.6657
       DOS:  cpu time      0.0008: real time      0.0008
    CHARGE:  cpu time      1.1625: real time      1.1647
    MIXING:  cpu time      0.3976: real time      0.3977
    --------------------------------------------
      LOOP:  cpu time     10.5815: real time     10.5892

 eigenvalue-minimisations  :  1264
 total energy-change (2. order) :-0.2871092E-03  (-0.4354867E-06)
 number of electron     368.0000003 magnetization 
 augmentation part        9.1001513 magnetization 

 Broyden mixing:
  rms(total) = 0.16947E-03    rms(broyden)= 0.16946E-03
  rms(prec ) = 0.19735E-03
  weight for this iteration     100.00

 eigenvalues of (default mixing * dielectric matrix)
  average eigenvalue GAMMA=   2.3825
  9.1448  6.0645  3.6678  2.4960  2.4960  2.0372  1.6220  1.6220  1.5811  1.1596
  1.1596  1.2283  0.9509  0.9509  0.9700  0.9700

 Free energy of the ion-electron system (eV)
  ---------------------------------------------------
  alpha Z        PSCENC =        91.34886789
  Ewald energy   TEWEN  =    119453.58718066
  -Hartree energ DENC   =   -130542.19267573
  -exchange      EXHF   =         0.00000000
  -V(xc)+E(xc)   XCENC  =      1278.21527310
  PAW double counting   =     40958.11385856   -41022.12921901
  entropy T*S    EENTRO =        -0.06227544
  eigenvalues    EBANDS =     -4584.37279895
  atomic energy  EATOM  =     13537.65479391
  Solvation  Ediel_sol  =         0.00000000
  ---------------------------------------------------
  free energy    TOTEN  =      -829.83699502 eV

  energy without entropy =     -829.77471958  energy(sigma->0) =     -829.80585730


[...]
   -.280E+02 -.613E+01 -.127E+03   0.287E+02 0.520E+01 0.127E+03   0.148E+00 -.485E+00 0.706E+00   -.643E-05 0.212E-05 0.140E-05
   0.379E+00 -.123E+02 0.269E+01   -.158E+00 0.124E+02 -.350E+01   -.506E-01 -.289E+00 0.124E+01   -.702E-05 -.314E-05 0.143E-05
   -.205E+02 0.122E+02 -.948E+02   0.205E+02 -.127E+02 0.950E+02   -.436E+00 -.543E-01 0.303E+00   -.675E-05 0.149E-05 0.266E-05
   0.453E+01 0.815E+01 -.203E+02   -.475E+01 -.820E+01 0.208E+02   -.427E+00 0.915E-01 -.499E+00   -.116E-04 -.118E-05 0.444E-05
   -.779E+01 -.113E+02 -.537E+02   0.717E+01 0.113E+02 0.543E+02   -.726E+00 -.308E+00 -.200E-01   -.969E-05 0.294E-05 0.516E-05
   0.483E+01 -.102E+02 0.559E+02   -.397E+01 0.109E+02 -.564E+02   0.273E+00 -.185E+00 0.628E+00   -.488E-05 0.420E-05 0.142E-05
   0.637E+01 -.515E+01 0.163E+02   -.615E+01 0.722E+01 -.166E+02   0.192E+00 0.428E+00 -.403E+00   -.297E-05 -.238E-05 0.255E-05
   0.442E+00 0.188E+02 0.764E+01   -.459E+00 -.203E+02 -.691E+01   -.737E+00 -.104E+01 -.134E+01   0.285E-05 -.186E-05 0.188E-05
   0.831E+01 -.145E+02 0.476E+02   -.845E+01 0.154E+02 -.476E+02   0.213E+00 -.454E+00 0.455E+00   0.628E-05 0.951E-05 -.164E-05
   0.551E+01 -.479E+01 0.728E+02   -.562E+01 0.515E+01 -.730E+02   0.686E-01 0.335E+00 0.103E+00   0.155E-04 -.327E-05 -.286E-05
   0.788E+01 0.813E+01 0.948E+02   -.740E+01 -.812E+01 -.951E+02   0.316E+00 0.631E-01 0.540E+00   0.114E-04 0.662E-07 -.164E-05
   0.156E+01 0.137E+02 0.988E+02   -.153E+01 -.145E+02 -.986E+02   0.200E+00 -.271E+00 0.769E-01   0.203E-04 -.183E-05 -.225E-05
   -.401E+01 -.153E+02 0.747E+02   0.461E+01 0.163E+02 -.745E+02   -.429E-01 0.136E+00 -.178E+00   0.125E-04 0.146E-05 -.245E-06
   -.305E+01 -.131E+02 0.144E+03   0.310E+01 0.131E+02 -.144E+03   0.486E+00 -.354E-01 0.963E+00   0.105E-04 0.270E-06 0.189E-05
   -.127E+00 0.695E+01 0.678E+02   -.420E-01 -.711E+01 -.677E+02   -.817E+00 -.325E+00 -.671E+00   0.762E-05 0.545E-05 0.269E-06
   -.123E+01 0.316E+01 0.970E+02   0.763E+00 -.239E+01 -.965E+02   -.253E+00 0.198E+01 -.436E+00   0.487E-05 -.795E-05 -.377E-06
   -.379E+01 0.203E+01 0.371E+02   0.402E+01 -.275E+01 -.372E+02   -.809E+00 0.403E+00 -.392E+00   0.485E-05 0.882E-06 -.349E-06
   -.310E+02 -.160E+02 0.163E+03   0.317E+02 0.161E+02 -.164E+03   -.563E+00 0.341E+00 0.217E+01   -.995E-05 -.335E-05 -.893E-06
   -.183E+01 0.792E+01 0.277E+02   0.206E+01 -.892E+01 -.276E+02   -.478E+00 -.132E+01 -.193E+00   0.223E-05 0.689E-05 -.109E-05
   -.104E+02 0.216E+02 0.597E+02   0.114E+02 -.234E+02 -.592E+02   0.964E+00 -.653E-01 -.424E+00   -.586E-05 0.300E-05 -.980E-06
   0.120E+02 -.392E+01 -.242E+02   -.130E+02 0.459E+01 0.242E+02   -.627E+00 0.660E+00 -.537E+00   -.337E-05 0.705E-05 -.241E-06
   -.323E+01 -.664E+01 0.865E+02   0.288E+00 0.615E+01 -.881E+02   -.180E+01 -.306E+00 0.258E+00   0.859E-05 0.590E-05 0.401E-05
   0.149E+02 -.412E+01 -.665E+02   -.144E+02 0.407E+01 0.668E+02   0.538E+00 -.346E+00 -.356E+00   -.607E-05 -.295E-05 -.215E-05
   -.927E+01 0.137E+02 -.201E+02   0.107E+02 -.133E+02 0.211E+02   0.113E+01 0.622E+00 0.102E+00   -.376E-05 -.704E-06 -.178E-05
   0.161E+02 -.870E+01 -.114E+03   -.158E+02 0.947E+01 0.115E+03   0.901E+00 0.671E+00 -.732E+00   0.840E-07 -.539E-05 -.193E-05
   -.274E+02 0.354E+01 0.229E+02   0.279E+02 -.395E+01 -.237E+02   0.180E+00 -.117E+01 0.887E+00   -.150E-04 0.334E-05 -.482E-05
   0.198E+02 0.397E+01 -.104E+03   -.223E+02 -.483E+01 0.105E+03   0.408E+00 -.999E-01 -.469E+00   -.612E-05 0.500E-05 -.230E-05
   -.322E+01 0.671E+02 -.741E+02   0.152E+01 -.678E+02 0.747E+02   0.129E+01 0.128E+01 -.141E+01   -.585E-05 0.207E-05 -.153E-05
   -.958E+01 -.559E+02 -.104E+03   0.929E+01 0.556E+02 0.104E+03   0.151E+01 -.302E+01 0.129E+01   -.714E-05 0.467E-05 -.117E-05
   -.345E+01 0.684E+02 -.249E+01   0.685E+01 -.695E+02 0.315E+01   0.259E+00 0.191E+01 0.978E+00   0.905E-05 0.460E-05 0.353E-05
   -.334E+01 -.585E+02 0.443E+02   0.569E+01 0.582E+02 -.441E+02   -.156E+01 -.176E+01 0.415E+00   0.139E-04 -.136E-05 0.577E-05
   0.429E+02 -.188E+02 -.888E+02   -.439E+02 0.198E+02 0.887E+02   -.484E+00 0.692E+00 -.244E+00   0.713E-05 0.205E-05 0.246E-05
   0.210E+02 0.752E+01 -.265E+02   -.210E+02 -.832E+01 0.264E+02   -.129E+01 0.381E+00 -.444E+00   0.849E-05 -.889E-05 0.289E-05
   0.247E+02 0.134E+02 -.155E+03   -.248E+02 -.137E+02 0.156E+03   0.566E+00 0.332E+00 -.155E+01   -.275E-05 0.842E-05 -.386E-05
   0.245E+02 -.108E+02 -.129E+03   -.242E+02 0.108E+02 0.130E+03   -.382E+00 0.421E+00 -.135E+01   -.846E-05 -.332E-05 -.442E-05
   0.582E+01 -.186E+02 -.104E+03   -.564E+01 0.196E+02 0.104E+03   0.805E-02 0.830E-01 0.166E+01   -.330E-05 0.102E-05 -.202E-05
   0.247E+01 0.909E+01 -.840E+02   -.230E+01 -.902E+01 0.836E+02   -.673E+00 -.461E-01 0.814E+00   -.231E-05 -.860E-06 -.198E-05
   0.173E+01 0.133E+02 -.119E+03   -.223E+01 -.137E+02 0.119E+03   -.777E+00 0.806E+00 -.228E+00   0.298E-06 0.351E-05 -.287E-05
   0.141E+01 -.261E+01 -.454E+02   -.126E+01 0.260E+01 0.453E+02   -.147E+00 0.783E+00 0.485E+00   -.343E-05 -.146E-05 -.885E-06
   -.109E+02 -.125E+02 -.192E+03   0.108E+02 0.119E+02 0.192E+03   -.424E+00 -.314E+00 -.113E+01   0.228E-05 0.593E-05 -.432E-05
   -.102E+02 0.907E+01 -.247E+02   0.114E+02 -.957E+01 0.244E+02   0.704E+00 -.627E+00 0.511E+00   -.108E-04 0.110E-05 0.569E-06
   -.134E+02 0.281E+01 -.124E+03   0.134E+02 -.242E+01 0.124E+03   0.345E+00 0.426E+00 -.238E-02   -.638E-05 -.846E-05 0.127E-05
   0.538E-01 -.115E+02 -.476E+02   -.553E+00 0.125E+02 0.475E+02   -.696E+00 0.412E+00 -.538E-01   0.923E-06 -.350E-05 0.203E-06
   -.237E+02 -.112E+02 -.120E+03   0.246E+02 0.108E+02 0.120E+03   0.123E+01 0.329E+00 -.402E+00   -.853E-05 -.491E-05 0.176E-05
   0.639E+01 0.159E+02 -.163E+02   -.617E+01 -.177E+02 0.162E+02   -.667E+00 -.147E+01 -.905E+00   0.211E-05 0.717E-05 -.284E-06
   0.551E+01 0.120E+02 -.517E+02   -.672E+01 -.122E+02 0.520E+02   0.384E+00 0.747E+00 -.138E+00   -.245E-05 -.221E-05 0.862E-06
   0.274E+02 0.616E-01 0.503E+02   -.286E+02 -.589E-01 -.504E+02   0.505E-02 0.646E+00 0.148E+01   -.357E-05 0.690E-05 0.355E-06
   -.232E+02 -.150E+02 -.746E+02   0.239E+02 0.152E+02 0.748E+02   0.190E+00 -.155E+00 -.150E+01   -.491E-05 -.281E-05 0.343E-05
   0.223E+02 0.321E+01 0.519E+02   -.224E+02 -.312E+01 -.519E+02   0.357E+00 0.386E+00 -.237E+00   -.568E-05 0.181E-06 0.876E-06
   0.113E+02 0.242E+02 0.305E+02   -.113E+02 -.253E+02 -.306E+02   0.652E+00 -.734E-01 -.140E-01   -.125E-04 0.574E-06 0.536E-05
   0.847E+01 -.115E+02 0.681E+02   -.783E+01 0.124E+02 -.685E+02   0.273E+00 0.356E+00 -.577E+00   -.127E-04 0.407E-05 0.349E-05
   0.284E+02 -.472E+01 0.927E+02   -.289E+02 0.352E+01 -.926E+02   -.445E-01 -.145E+01 0.147E+01   -.299E-05 -.300E-06 -.364E-06
   0.290E+02 0.147E+02 0.116E+03   -.291E+02 -.158E+02 -.116E+03   0.647E+00 -.580E+00 0.725E+00   -.523E-05 -.728E-05 -.829E-06
   0.224E+02 0.126E+02 0.109E+03   -.226E+02 -.125E+02 -.109E+03   -.915E+00 0.295E+00 -.620E-01   0.903E-05 0.156E-05 -.239E-05
   0.340E+02 -.964E+01 0.117E+03   -.356E+02 0.972E+01 -.116E+03   -.904E-01 -.118E+00 -.124E+00   0.802E-05 0.616E-06 -.249E-05
   0.804E+01 -.131E+02 0.124E+03   -.674E+01 0.134E+02 -.124E+03   -.295E+00 -.236E+00 -.732E+00   0.127E-04 0.415E-06 -.136E-05
   0.117E+02 0.396E+01 0.136E+03   -.112E+02 -.359E+01 -.136E+03   0.786E+00 0.533E+00 -.625E+00   0.107E-04 -.639E-05 -.248E-05
   0.166E+02 0.180E+02 0.217E+03   -.176E+02 -.181E+02 -.217E+03   -.975E+00 0.116E-03 0.938E+00   0.144E-04 -.605E-06 0.100E-05
   0.164E+02 -.177E+02 0.228E+03   -.157E+02 0.180E+02 -.229E+03   0.181E+01 -.177E+00 0.122E+01   0.102E-04 -.124E-05 0.118E-05
   -.530E+00 -.322E+01 0.196E+03   0.123E+01 0.279E+01 -.196E+03   0.238E+00 -.624E+00 0.516E+00   0.147E-04 0.252E-05 0.361E-05
   0.194E+00 0.134E+02 0.176E+03   -.679E+00 -.138E+02 -.176E+03   0.542E+00 0.378E+00 -.755E+00   0.120E-04 0.351E-05 0.382E-05
   -.166E+02 0.200E+02 0.219E+03   0.163E+02 -.205E+02 -.220E+03   -.638E+00 0.576E+00 0.121E+01   0.474E-05 0.111E-05 0.542E-05
   -.103E+02 -.216E+02 0.184E+03   0.102E+02 0.224E+02 -.184E+03   0.615E+00 0.770E+00 -.101E-02   0.347E-05 -.899E-05 0.354E-05
   -.191E+02 -.105E+02 0.130E+03   0.196E+02 0.112E+02 -.130E+03   -.375E+00 -.646E+00 0.325E+00   -.853E-05 -.849E-06 0.124E-06
   -.154E+02 0.151E+02 0.150E+03   0.152E+02 -.157E+02 -.150E+03   0.737E+00 0.527E+00 -.949E+00   -.538E-05 0.563E-05 0.109E-05
   -.206E+02 0.144E+02 0.993E+02   0.213E+02 -.151E+02 -.992E+02   0.235E-01 -.886E+00 -.360E+00   -.953E-05 -.101E-05 -.186E-05
   -.285E+02 -.188E+02 0.160E+03   0.284E+02 0.194E+02 -.160E+03   -.498E+00 -.528E+00 0.658E+00   -.756E-05 -.330E-05 -.501E-06
   -.382E+01 -.747E+01 0.515E+02   0.231E+01 0.808E+01 -.519E+02   -.867E+00 0.352E-01 0.278E-01   -.124E-05 -.241E-05 -.317E-06
   -.295E+02 0.723E+01 0.143E+03   0.301E+02 -.741E+01 -.143E+03   -.214E+00 0.320E+00 0.175E+00   -.365E-05 0.363E-05 -.166E-06
   -.266E+02 0.831E+01 0.888E+02   0.274E+02 -.820E+01 -.891E+02   0.242E+00 -.239E-01 0.121E+01   0.125E-05 -.661E-05 0.116E-05
   -.323E+02 -.108E+02 0.117E+03   0.318E+02 0.111E+02 -.118E+03   -.106E+01 -.756E-01 -.776E+00   -.706E-06 -.145E-05 -.380E-06
   -.660E+01 -.463E+01 -.140E+02   0.564E+01 0.581E+01 0.141E+02   0.981E+00 0.129E+01 -.604E+00   -.803E-05 -.609E-05 -.772E-06
   -.396E+02 -.210E+02 0.110E+03   0.388E+02 0.231E+02 -.110E+03   -.662E+00 -.414E+00 0.914E+00   -.520E-05 0.307E-05 -.251E-05
   -.247E+02 0.512E+02 0.174E+02   0.226E+02 -.518E+02 -.190E+02   0.214E+01 0.129E+01 0.130E+01   -.370E-05 -.330E-05 0.472E-06
   -.476E+02 -.583E+02 0.562E+02   0.470E+02 0.586E+02 -.567E+02   0.197E+01 -.206E+01 0.394E+00   0.207E-05 -.407E-06 0.341E-06
 -----------------------------------------------------------------------------------------------
   0.362E+00 -.949E+00 -.186E+00   0.306E-12 0.561E-12 -.142E-13   -.213E+00 0.927E+00 0.149E+00   -.434E-07 0.725E-05 -.462E-05
 
 
 POSITION                                       TOTAL-FORCE (eV/Angst)
 -----------------------------------------------------------------------------------
      0.18150      0.90826     17.60060        -0.828607     -2.287519      0.024087
      0.11754      2.23188     17.85360        -0.469227     -0.182158     -0.717089
      1.35424      0.14635     17.74360        -1.037315      1.818623      0.407417
      1.28919      2.84998     18.10590         0.971751      0.375890      0.307450
      2.50546      0.80238     18.16830         0.706192     -0.424343      0.529393
      2.51354      2.14792     18.31770        -0.111915      1.906082      0.230132
      3.74137      0.14327     18.32070         0.005519     -1.113586     -1.372934
      3.75917      2.84950     18.46170         0.423063     -2.011138     -0.235454
      4.94446      0.81033     18.31710         3.020898      0.108438      0.521177
      5.01648      2.16486     18.48620         0.901547      1.251312      0.243845
      6.22533      0.16784     18.12590         0.170025     -0.273127     -0.212000
      6.34344      2.81697     18.51900        -1.028892     -0.466521     -0.260976
      7.51349      0.79518     18.08630         0.605469     -0.142765     -0.696212
      7.60364      2.14393     18.31300        -1.027449      0.031168      0.318268
      8.74349      0.16612     17.62290        -0.416864      0.865423      1.432809
      8.85032      2.78329     18.06760        -0.684286      1.660259     -0.161651
     10.04140      0.76628     17.52680        -1.778312      2.452307     -0.738390
     10.05190      2.17509     17.65650         0.823923     -1.406031      0.201178
     11.14430      0.15582     16.93980         0.168539     -0.185463      0.420055
     11.23770      2.85949     17.22800        -0.516341     -0.541856      0.492167
     12.35750      0.83738     16.65050        -0.653940      0.045308      0.087269
     12.41130      2.21263     16.75510        -1.344928     -0.343523      0.539246
     13.48210      0.19707     16.14370         1.131214      0.492772      0.071629
     13.52350      2.87077     16.24960         0.407602      2.502132     -0.683928
     14.73530      0.88304     15.93660        -0.755691     -2.532380     -0.607016
     14.71340      2.23145     15.88660         0.067930      0.400457      0.440410
     15.89800      0.18096     15.53930        -0.048035      0.701558     -0.048625
     15.89400      2.88258     15.51550         0.800528      0.081011      0.251671
     17.12570      0.85666     15.34360         0.232330     -0.999283      0.228776
     17.13580      2.21282     15.40370         0.557062      1.133729     -0.045962
     18.35460      0.17847     15.13880         0.535554     -0.004521      0.525593
     18.40010      2.89836     15.32500        -0.986714     -0.489165     -0.571628
     19.62370      0.80112     15.29820        -0.725236      2.750312      0.123844
     19.63520      2.21822     15.46980        -0.574318     -0.318499     -0.439974
     20.87660      0.19070     15.27090         0.078838      0.450911      1.307212
     20.84660      2.95126     15.62620        -0.254236     -2.321555     -0.053823
     22.04100      0.88833     15.73790         1.972733     -1.789301      0.060092
     22.03140      2.22873     15.98010        -1.571075      1.339137     -0.518849
     23.35780      0.23309     15.93620        -4.746779     -0.792255     -1.339415
     23.18450      2.92489     16.33420         0.976850     -0.394268      0.000305
     24.40700      0.88055     16.47260         2.590643      1.051486      1.120402
     24.33540      2.22019     16.73400         1.194746      1.435380     -0.071734
     25.67770      0.28573     16.66730         0.628953     -1.582221      0.016511
     25.57110      2.92553     17.03540        -2.026077     -0.967198     -0.024647
     26.76180      0.92659     17.23840        -0.409266      0.566072     -0.753768
     26.73020      2.33169     17.35900         1.213026     -3.368635      1.536704
      0.11956      4.85866     17.32960         3.662383      0.770451      1.646437
      0.23209      6.26420     17.22050         0.786371     -2.004268      0.621009
      1.29293      4.19585     17.90810        -1.490417      1.619719     -0.416290
      1.38816      6.88660     17.67980        -1.359457     -0.416676     -0.496431
      2.51253      4.85251     18.21010         0.469201     -0.020963     -1.308980
      2.55175      6.20773     18.11370        -0.129160      0.448417     -1.007179
      3.77950      4.18506     18.28840         0.187757      1.116209      1.376476
      3.79736      6.86876     18.15620        -0.508310      0.019918      0.398632
      5.06741      4.82167     18.29670        -1.278596      0.403890     -0.241166
      5.02872      6.18541     18.09220         0.007305      0.771521      0.394850
      6.32465      4.19990     18.42880        -0.572885     -0.866901     -0.475283
      6.22755      6.90081     17.96930         1.929881     -1.128436      0.256989
      7.53203      4.84477     18.10400         0.336849      0.815047     -0.224921
      7.51941      6.20606     17.85860        -1.196031      1.464364     -0.203053
      8.74533      4.17249     17.91350         2.121473     -0.128551     -0.314979
      8.71965      6.92429     17.53440        -0.452141     -3.247558     -0.913266
      9.92916      4.83741     17.39480        -0.827342      0.538246      0.165249
      9.89240      6.19827     17.11880        -1.192426      0.649302      1.424888
     11.16150      4.22283     17.13650         0.863630      0.095246     -1.207828
     11.06120      6.88467     16.77460         0.307496      0.483387     -0.237706
     12.27240      4.89988     16.50450         0.594857     -1.254759     -0.138546
     12.23500      6.24472     16.39480         0.918542      1.217306     -0.970096
     13.47700      4.27945     16.03730        -0.584827     -2.649331      1.629300
     13.41820      6.94953     15.96430         0.593829     -1.705465      0.331702
     14.67990      4.90152     15.63750        -1.108970      0.426713     -0.252320
     14.64210      6.27611     15.61120        -1.692957     -0.036791      0.063636
     15.88710      4.24193     15.37180         1.013180      0.049679     -0.780275
     15.82780      6.91774     15.34380         1.214294      0.902288     -0.589959
     17.12300      4.89131     14.96750        -1.983219     -0.145947      0.728707
     17.01930      6.26487     14.95070         2.448225      0.169466      0.513127
     18.37410      4.24713     14.98310         0.937528     -1.061977      0.587415
     18.32250      6.90992     14.98450         0.055113     -0.038767     -0.589753
     19.65460      4.88236     14.95520        -0.903489      0.072882      0.495059
     19.60550      6.24392     14.98180         0.446017      1.540843     -0.190850
     20.87770      4.28249     15.33570         0.044164     -0.005420      0.351395
     20.86820      6.92289     15.19950         0.578210     -0.064269     -0.762692
     22.10560      4.96013     15.56810         0.796292     -1.624487     -0.202683
     22.15440      6.31267     15.40660        -0.589306      0.073509     -0.080721
     23.29300      4.26708     16.01990        -2.381250      0.642319     -0.301751
     23.38210      6.96711     15.71310         0.351656      0.142865      0.052514
     24.50050      4.92113     16.17600         1.082222      0.090225      0.937826
     24.60200      6.29250     16.05040        -1.582239      0.241702     -0.987924
     25.60610      4.23717     16.74070         0.020945      2.467849     -0.593682
     25.77990      6.99814     16.39560        -1.533440      1.744717      0.005723
     26.77400      4.92277     16.90030         0.049486      0.697274     -0.251371
     26.85960      6.31408     16.76700         1.360125     -1.757244     -0.124800
 -----------------------------------------------------------------------------------
    total drift:                                0.148847     -0.022251     -0.037252


--------------------------------------------------------------------------------------------------------



  FREE ENERGIE OF THE ION-ELECTRON SYSTEM (eV)
  ---------------------------------------------------
  free  energy   TOTEN  =      -829.83716526 eV

  energy  without entropy=     -829.77488882  energy(sigma->0) =     -829.80602704
 


--------------------------------------------------------------------------------------------------------


    POTLOK:  cpu time      0.4527: real time      0.4525


--------------------------------------------------------------------------------------------------------


     LOOP+:  cpu time    342.3357: real time    342.5444
    4ORBIT:  cpu time      0.0000: real time      0.0000

 total amount of memory used by VASP MPI-rank0  2294510. kBytes
=======================================================================

   base                                    :      30000. kBytes
   nonlr-proj                              :      15076. kBytes
   fftplans                                :     436558. kBytes
   grid                                    :     732614. kBytes
   one-center                              :        282. kBytes
   wavefun                                 :    1079980. kBytes
 
  
  
 General timing and accounting informations for this job:
 ========================================================
  
                  Total CPU time used (sec):      375.639
                            User time (sec):      367.007
                          System time (sec):        8.632
                         Elapsed time (sec):      375.956
  
                   Maximum memory used (kb):     3731412.
                   Average memory used (kb):          N/A
  
                          Minor page faults:      3265648
                          Major page faults:         5077
                 Voluntary context switches:        10529
