unknown system                          
            1
    28.050000    0.000000    0.000000
     0.000000    8.100000    0.000000
     0.000000    0.000000   33.500000
   C 
    92
Direct configuration=     1
   0.00647052  0.11213136  0.52539104
   0.00419041  0.27554074  0.53294328
   0.04827950  0.01806753  0.52965970
   0.04596043  0.35184938  0.54047463
   0.08932121  0.09905951  0.54233731
   0.08960927  0.26517531  0.54679701
   0.13338217  0.01768765  0.54688657
   0.13401676  0.35179012  0.55109552
   0.17627308  0.10004025  0.54677910
   0.17884064  0.26726667  0.55182687
   0.22193690  0.02072123  0.54107164
   0.22614759  0.34777407  0.55280597
   0.26786061  0.09817099  0.53988955
   0.27107451  0.26468272  0.54665672
   0.31171087  0.02050802  0.52605672
   0.31551943  0.34361605  0.53933134
   0.35798217  0.09460309  0.52318806
   0.35835651  0.26852963  0.52705970
   0.39730125  0.01923716  0.50566567
   0.40063102  0.35302346  0.51426866
   0.44055258  0.10338000  0.49702985
   0.44247059  0.27316420  0.50015224
   0.48064528  0.02433012  0.48190149
   0.48212121  0.35441605  0.48506269
   0.52532264  0.10901765  0.47571940
   0.52454189  0.27548765  0.47422687
   0.56677362  0.02234037  0.46385970
   0.56663102  0.35587407  0.46314925
   0.61054189  0.10576099  0.45801791
   0.61090196  0.27318765  0.45981194
   0.65435294  0.02203321  0.45190448
   0.65597504  0.35782222  0.45746269
   0.69959715  0.09890383  0.45666269
   0.70000713  0.27385432  0.46178507
   0.74426381  0.02354309  0.45584776
   0.74319430  0.36435309  0.46645373
   0.78577540  0.10966988  0.46978806
   0.78543316  0.27515185  0.47701791
   0.83272014  0.02877593  0.47570746
   0.82654189  0.36109753  0.48758806
   0.87012478  0.10870975  0.49171940
   0.86757219  0.27409753  0.49952239
   0.91542602  0.03527580  0.49753134
   0.91162567  0.36117654  0.50851940
   0.95407487  0.11439358  0.51457910
   0.95294831  0.28786296  0.51817910
   0.00426228  0.59983457  0.51730149
   0.00827408  0.77335802  0.51404478
   0.04609376  0.51800617  0.53457015
   0.04948877  0.85019753  0.52775522
   0.08957326  0.59907531  0.54358507
   0.09097148  0.76638642  0.54070746
   0.13474153  0.51667407  0.54592239
   0.13537825  0.84799506  0.54197612
   0.18065633  0.59526790  0.54617015
   0.17927701  0.76363086  0.54006567
   0.22547772  0.51850617  0.55011343
   0.22201604  0.85195185  0.53639701
   0.26852157  0.59811975  0.54041791
   0.26807166  0.76618025  0.53309254
   0.31177647  0.51512222  0.53473134
   0.31086096  0.85485062  0.52341493
   0.35398075  0.59721111  0.51924776
   0.35267023  0.76521852  0.51100896
   0.39791444  0.52133704  0.51153731
   0.39433868  0.84995926  0.50073433
   0.43751872  0.60492346  0.49267164
   0.43618538  0.77095309  0.48939701
   0.48046346  0.52832716  0.47872537
   0.47836720  0.85796667  0.47654627
   0.52334759  0.60512593  0.46679104
   0.52200000  0.77482840  0.46600597
   0.56638503  0.52369506  0.45885970
   0.56427094  0.85404198  0.45802388
   0.61044563  0.60386543  0.44679104
   0.60674866  0.77344074  0.44628955
   0.65504813  0.52433704  0.44725672
   0.65320856  0.85307654  0.44729851
   0.70069875  0.60276049  0.44642388
   0.69894831  0.77085432  0.44721791
   0.74430303  0.52870247  0.45778209
   0.74396435  0.85467778  0.45371642
   0.78807843  0.61236173  0.46471940
   0.78981818  0.77934198  0.45989851
   0.83040998  0.52680000  0.47820597
   0.83358645  0.86013704  0.46904776
   0.87345811  0.60754691  0.48286567
   0.87707665  0.77685185  0.47911642
   0.91287344  0.52310741  0.49972239
   0.91906952  0.86396790  0.48942090
   0.95450980  0.60774938  0.50448657
   0.95756150  0.77951605  0.50050746
