<?xml version="1.0" encoding="ISO-8859-1"?>
<modeling>
 <generator>
  <i name="program" type="string">vasp </i>
  <i name="version" type="string">6.5.0  </i>
  <i name="subversion" type="string">16Dec24 (build Feb 19 2025 19:45:31) complex                          parallel </i>
  <i name="platform" type="string">LinuxNV </i>
  <i name="date" type="string">2025 10 25 </i>
  <i name="time" type="string">19:34:38 </i>
 </generator>
 <incar>
  <i type="int" name="ISTART">     0</i>
  <i type="string" name="PREC">Accurate   (Precision level)</i>
  <i type="string" name="ALGO">Normal</i>
  <i type="int" name="ISPIN">     1</i>
  <i type="int" name="ICHARG">     2</i>
  <i type="int" name="NELM">   150</i>
  <i type="int" name="IBRION">    -1</i>
  <i name="EDIFF">      0.00000100</i>
  <i type="int" name="NSW">     0</i>
  <i name="ENCUT">    500.00000000</i>
  <i type="string" name="LREAL">Auto         (Projection operators: automatic)</i>
  <i type="int" name="ISMEAR">     0</i>
  <i type="logical" name="KGAMMA"> T  </i>
  <i type="logical" name="LWAVE"> F  </i>
  <i type="logical" name="LCHARG"> F  </i>
 </incar>
 <primitive_cell>
  <structure name="primitive_cell" >
   <crystal>
    <varray name="basis" >
     <v>      28.05000000       0.00000000       0.00000000 </v>
     <v>       0.00000000       8.10000000       0.00000000 </v>
     <v>       0.00000000       0.00000000      33.50000000 </v>
    </varray>
    <i name="volume">   7611.36750000 </i>
    <varray name="rec_basis" >
     <v>       0.03565062       0.00000000       0.00000000 </v>
     <v>       0.00000000       0.12345679       0.00000000 </v>
     <v>       0.00000000       0.00000000       0.02985075 </v>
    </varray>
   </crystal>
   <varray name="positions" >
    <v>       0.48607487       0.09767346       0.88355522 </v>
    <v>       0.48638859       0.26672840       0.88024776 </v>
    <v>       0.52875936       0.01843877       0.88450149 </v>
    <v>       0.52947950       0.35081358       0.87872836 </v>
    <v>       0.57272014       0.10353778       0.88109254 </v>
    <v>       0.57454902       0.27417037       0.87759403 </v>
    <v>       0.61715865       0.02121383       0.88745075 </v>
    <v>       0.61896970       0.35146173       0.88174925 </v>
    <v>       0.66327986       0.10205741       0.88871343 </v>
    <v>       0.66284135       0.27073457       0.88845970 </v>
    <v>       0.70749733       0.01149595       0.89607761 </v>
    <v>       0.70697326       0.34908889       0.89702388 </v>
    <v>       0.75049554       0.09303012       0.90513731 </v>
    <v>       0.75195009       0.26083580       0.90278507 </v>
    <v>       0.78989305       0.02158605       0.92154328 </v>
    <v>       0.79272727       0.35072593       0.91453433 </v>
    <v>       0.83630303       0.10013543       0.92578806 </v>
    <v>       0.83495187       0.26738025       0.92427463 </v>
    <v>       0.87668093       0.01532741       0.93895821 </v>
    <v>       0.87809269       0.34833580       0.93480597 </v>
    <v>       0.92063102       0.09943198       0.94500597 </v>
    <v>       0.91973619       0.26643086       0.94798209 </v>
    <v>       0.96463458       0.01355765       0.95098507 </v>
    <v>       0.96264528       0.34441481       0.96174030 </v>
    <v>       0.00758916       0.09756185       0.95965672 </v>
    <v>       0.00434332       0.26669012       0.96893134 </v>
    <v>       0.04986275       0.01774617       0.96975224 </v>
    <v>       0.04702353       0.34763086       0.97846567 </v>
    <v>       0.09495865       0.10093049       0.97450746 </v>
    <v>       0.09521070       0.26999383       0.97659104 </v>
    <v>       0.13974724       0.02081136       0.97907164 </v>
    <v>       0.13663280       0.35325062       0.97394627 </v>
    <v>       0.18254617       0.09591580       0.96882687 </v>
    <v>       0.18023458       0.26550864       0.96591642 </v>
    <v>       0.22760428       0.02012160       0.96415522 </v>
    <v>       0.22362032       0.35107531       0.95928060 </v>
    <v>       0.26975116       0.09659728       0.94981194 </v>
    <v>       0.26716150       0.26237778       0.94709254 </v>
    <v>       0.31253512       0.01710198       0.93774030 </v>
    <v>       0.30755579       0.35463827       0.93167164 </v>
    <v>       0.35042602       0.09942481       0.92054925 </v>
    <v>       0.34962068       0.27314321       0.91897612 </v>
    <v>       0.39364706       0.02324753       0.90738507 </v>
    <v>       0.39191800       0.34735802       0.90704478 </v>
    <v>       0.43240642       0.10551963       0.89222388 </v>
    <v>       0.43418895       0.27782346       0.88973134 </v>
    <v>       0.48515865       0.59550000       0.89611343 </v>
    <v>       0.48527629       0.76914815       0.89600597 </v>
    <v>       0.52988948       0.51713704       0.88606866 </v>
    <v>       0.52968271       0.84639753       0.89255522 </v>
    <v>       0.57268449       0.59748889       0.89418507 </v>
    <v>       0.57316221       0.76894568       0.89696418 </v>
    <v>       0.61676292       0.51446667       0.89204776 </v>
    <v>       0.61795365       0.85217654       0.89495522 </v>
    <v>       0.66026738       0.59647901       0.90081791 </v>
    <v>       0.65955080       0.76326914       0.90295224 </v>
    <v>       0.70475223       0.51653210       0.90435821 </v>
    <v>       0.70594296       0.84667531       0.90484478 </v>
    <v>       0.74806061       0.59641481       0.91469254 </v>
    <v>       0.74719430       0.76667284       0.91838209 </v>
    <v>       0.79182175       0.51710000       0.91914030 </v>
    <v>       0.78884492       0.85258642       0.92473731 </v>
    <v>       0.83322638       0.59966667       0.93316418 </v>
    <v>       0.83170053       0.76476420       0.93508955 </v>
    <v>       0.87624955       0.51533827       0.94037015 </v>
    <v>       0.87430303       0.84415556       0.94420597 </v>
    <v>       0.91914795       0.59531358       0.95211642 </v>
    <v>       0.91967914       0.76204198       0.95189254 </v>
    <v>       0.96208200       0.51338889       0.96441791 </v>
    <v>       0.96505169       0.84295802       0.95322388 </v>
    <v>       0.00523647       0.59657160       0.97008358 </v>
    <v>       0.00723658       0.76287037       0.96281791 </v>
    <v>       0.04911622       0.51806420       0.97691045 </v>
    <v>       0.05112620       0.84713580       0.96885970 </v>
    <v>       0.09473583       0.60078889       0.97952836 </v>
    <v>       0.09413119       0.76654444       0.97802388 </v>
    <v>       0.13864920       0.51980494       0.97675821 </v>
    <v>       0.14019822       0.85438519       0.98221493 </v>
    <v>       0.18189519       0.60284815       0.97157015 </v>
    <v>       0.18427986       0.77233333       0.97547463 </v>
    <v>       0.22608913       0.51689259       0.96515821 </v>
    <v>       0.22980071       0.85214938       0.96772239 </v>
    <v>       0.26920463       0.59780741       0.95530149 </v>
    <v>       0.27140428       0.76394938       0.95522090 </v>
    <v>       0.31003316       0.51877901       0.93849254 </v>
    <v>       0.31372906       0.84796420       0.94277015 </v>
    <v>       0.35341854       0.59984444       0.92743284 </v>
    <v>       0.35464349       0.76459136       0.92875522 </v>
    <v>       0.39238146       0.52336049       0.90938806 </v>
    <v>       0.39449554       0.85615432       0.91437313 </v>
    <v>       0.43537968       0.59867531       0.90694627 </v>
    <v>       0.43677718       0.77109012       0.90690746 </v>
   </varray>
  </structure>
  <varray name="primitive_index" >
   <v type="int" >        1 </v>
   <v type="int" >        2 </v>
   <v type="int" >        3 </v>
   <v type="int" >        4 </v>
   <v type="int" >        5 </v>
   <v type="int" >        6 </v>
   <v type="int" >        7 </v>
   <v type="int" >        8 </v>
   <v type="int" >        9 </v>
   <v type="int" >       10 </v>
   <v type="int" >       11 </v>
   <v type="int" >       12 </v>
   <v type="int" >       13 </v>
   <v type="int" >       14 </v>
   <v type="int" >       15 </v>
   <v type="int" >       16 </v>
   <v type="int" >       17 </v>
   <v type="int" >       18 </v>
   <v type="int" >       19 </v>
   <v type="int" >       20 </v>
   <v type="int" >       21 </v>
   <v type="int" >       22 </v>
   <v type="int" >       23 </v>
   <v type="int" >       24 </v>
   <v type="int" >       25 </v>
   <v type="int" >       26 </v>
   <v type="int" >       27 </v>
   <v type="int" >       28 </v>
   <v type="int" >       29 </v>
   <v type="int" >       30 </v>
   <v type="int" >       31 </v>
   <v type="int" >       32 </v>
   <v type="int" >       33 </v>
   <v type="int" >       34 </v>
   <v type="int" >       35 </v>
   <v type="int" >       36 </v>
   <v type="int" >       37 </v>
   <v type="int" >       38 </v>
   <v type="int" >       39 </v>
   <v type="int" >       40 </v>
   <v type="int" >       41 </v>
   <v type="int" >       42 </v>
   <v type="int" >       43 </v>
   <v type="int" >       44 </v>
   <v type="int" >       45 </v>
   <v type="int" >       46 </v>
   <v type="int" >       47 </v>
   <v type="int" >       48 </v>
   <v type="int" >       49 </v>
   <v type="int" >       50 </v>
   <v type="int" >       51 </v>
   <v type="int" >       52 </v>
   <v type="int" >       53 </v>
   <v type="int" >       54 </v>
   <v type="int" >       55 </v>
   <v type="int" >       56 </v>
   <v type="int" >       57 </v>
   <v type="int" >       58 </v>
   <v type="int" >       59 </v>
   <v type="int" >       60 </v>
   <v type="int" >       61 </v>
   <v type="int" >       62 </v>
   <v type="int" >       63 </v>
   <v type="int" >       64 </v>
   <v type="int" >       65 </v>
   <v type="int" >       66 </v>
   <v type="int" >       67 </v>
   <v type="int" >       68 </v>
   <v type="int" >       69 </v>
   <v type="int" >       70 </v>
   <v type="int" >       71 </v>
   <v type="int" >       72 </v>
   <v type="int" >       73 </v>
   <v type="int" >       74 </v>
   <v type="int" >       75 </v>
   <v type="int" >       76 </v>
   <v type="int" >       77 </v>
   <v type="int" >       78 </v>
   <v type="int" >       79 </v>
   <v type="int" >       80 </v>
   <v type="int" >       81 </v>
   <v type="int" >       82 </v>
   <v type="int" >       83 </v>
   <v type="int" >       84 </v>
   <v type="int" >       85 </v>
   <v type="int" >       86 </v>
   <v type="int" >       87 </v>
   <v type="int" >       88 </v>
   <v type="int" >       89 </v>
   <v type="int" >       90 </v>
   <v type="int" >       91 </v>
   <v type="int" >       92 </v>
  </varray>
 </primitive_cell>
 <kpoints>
  <generation param="Gamma">
   <v type="int" name="divisions">       1        4        1 </v>
   <v name="usershift">      0.00000000       0.00000000       0.00000000 </v>
   <v name="genvec1">      1.00000000       0.00000000       0.00000000 </v>
   <v name="genvec2">      0.00000000       0.25000000       0.00000000 </v>
   <v name="genvec3">      0.00000000       0.00000000       1.00000000 </v>
   <v name="shift">      0.00000000       0.00000000       0.00000000 </v>
  </generation>
  <varray name="kpointlist" >
   <v>       0.00000000       0.00000000       0.00000000 </v>
   <v>       0.00000000       0.25000000       0.00000000 </v>
   <v>       0.00000000       0.50000000       0.00000000 </v>
  </varray>
  <varray name="weights" >
   <v>       0.25000000 </v>
   <v>       0.50000000 </v>
   <v>       0.25000000 </v>
  </varray>
 </kpoints>
 <parameters>
  <separator name="general" >
   <i type="string" name="SYSTEM">unknown system</i>
   <i type="logical" name="LCOMPAT"> F  </i>
  </separator>
  <separator name="electronic" >
   <i type="string" name="PREC">accura</i>
   <i name="ENMAX">    500.00000000</i>
   <i name="ENAUG">    644.87300000</i>
   <i name="EDIFF">      0.00000100</i>
   <i type="int" name="IALGO">    38</i>
   <i type="int" name="IWAVPR">    10</i>
   <i type="int" name="NBANDS">   232</i>
   <i type="int" name="NBANDSLOW">    -1</i>
   <i type="int" name="NBANDSHIGH">    -1</i>
   <i name="NELECT">    368.00000000</i>
   <i type="int" name="TURBO">     0</i>
   <i type="int" name="IRESTART">     0</i>
   <i type="int" name="NREBOOT">     0</i>
   <i type="int" name="NMIN">     0</i>
   <i name="EREF">      0.00000000</i>
   <separator name="electronic smearing" >
    <i type="int" name="ISMEAR">     0</i>
    <i name="SIGMA">      0.20000000</i>
    <i name="KSPACING">      0.50000000</i>
    <i type="logical" name="KGAMMA"> T  </i>
    <i type="logical" name="KBLOWUP"> T  </i>
   </separator>
   <separator name="electronic projectors" >
    <i type="logical" name="LREAL"> T  </i>
    <v name="ROPT">     -0.00025000</v>
    <i type="int" name="LMAXPAW">  -100</i>
    <i type="int" name="LMAXMIX">     2</i>
    <i type="logical" name="NLSPLINE"> F  </i>
   </separator>
   <separator name="electronic startup" >
    <i type="int" name="ISTART">     0</i>
    <i type="int" name="ICHARG">     2</i>
    <i type="int" name="INIWAV">     1</i>
   </separator>
   <separator name="electronic spin" >
    <i type="int" name="ISPIN">     1</i>
    <i type="logical" name="LNONCOLLINEAR"> F  </i>
    <v name="MAGMOM">      1.00000000      1.00000000      1.00000000      1.00000000      1.00000000      1.00000000      1.00000000      1.00000000      1.00000000      1.00000000      1.00000000      1.00000000      1.00000000      1.00000000      1.00000000      1.00000000      1.00000000      1.00000000      1.00000000      1.00000000
      1.00000000      1.00000000      1.00000000      1.00000000      1.00000000      1.00000000      1.00000000      1.00000000      1.00000000      1.00000000      1.00000000      1.00000000      1.00000000      1.00000000      1.00000000      1.00000000      1.00000000      1.00000000      1.00000000      1.00000000
      1.00000000      1.00000000      1.00000000      1.00000000      1.00000000      1.00000000      1.00000000      1.00000000      1.00000000      1.00000000      1.00000000      1.00000000      1.00000000      1.00000000      1.00000000      1.00000000      1.00000000      1.00000000      1.00000000      1.00000000
      1.00000000      1.00000000      1.00000000      1.00000000      1.00000000      1.00000000      1.00000000      1.00000000      1.00000000      1.00000000      1.00000000      1.00000000      1.00000000      1.00000000      1.00000000      1.00000000      1.00000000      1.00000000      1.00000000      1.00000000
      1.00000000      1.00000000      1.00000000      1.00000000      1.00000000      1.00000000      1.00000000      1.00000000      1.00000000      1.00000000      1.00000000      1.00000000</v>
    <i name="NUPDOWN">     -1.00000000</i>
    <i type="logical" name="LSORBIT"> F  </i>
    <v name="SAXIS">      0.00000000      0.00000000      1.00000000</v>
    <i type="logical" name="LSPIRAL"> F  </i>
    <v name="QSPIRAL">      0.00000000      0.00000000      0.00000000</v>
    <i type="logical" name="LZEROZ"> F  </i>
   </separator>
   <separator name="electronic exchange-correlation" >
    <i type="logical" name="LASPH"> F  </i>
   </separator>
   <separator name="electronic convergence" >
    <i type="int" name="NELM">   150</i>
    <i type="int" name="NELMDL">    -5</i>
    <i type="int" name="NELMIN">     2</i>
    <i name="ENINI">    500.00000000</i>
    <separator name="electronic convergence detail" >
     <i type="logical" name="LDIAG"> T  </i>
     <i type="logical" name="LSUBROT"> F  </i>
     <i name="WEIMIN">      0.00000000</i>
     <i name="EBREAK">      0.00000000</i>
     <i name="DEPER">      0.30000000</i>
     <i type="int" name="NRMM">     4</i>
     <i name="TIME">      0.40000000</i>
    </separator>
   </separator>
   <separator name="electronic mixer" >
    <i name="AMIX">      0.40000000</i>
    <i name="BMIX">      1.00000000</i>
    <i name="AMIN">      0.10000000</i>
    <i name="AMIX_MAG">      1.60000000</i>
    <i name="BMIX_MAG">      1.00000000</i>
    <separator name="electronic mixer details" >
     <i type="int" name="IMIX">     4</i>
     <i type="logical" name="MIXFIRST"> F  </i>
     <i type="int" name="MAXMIX">   -45</i>
     <i name="WC">    100.00000000</i>
     <i type="int" name="INIMIX">     1</i>
     <i type="int" name="MIXPRE">     1</i>
     <i type="int" name="MREMOVE">     5</i>
    </separator>
   </separator>
   <separator name="electronic dipolcorrection" >
    <i type="logical" name="LDIPOL"> F  </i>
    <i type="logical" name="LMONO"> F  </i>
    <i type="int" name="IDIPOL">     0</i>
    <i name="EPSILON">      1.00000000</i>
    <v name="DIPOL">   -100.00000000   -100.00000000   -100.00000000</v>
    <i name="EFIELD">      0.00000000</i>
    <i type="logical" name="LVACPOTAV"> F  </i>
   </separator>
  </separator>
  <separator name="grids" >
   <i type="int" name="NGX">   210</i>
   <i type="int" name="NGY">    60</i>
   <i type="int" name="NGZ">   250</i>
   <i type="int" name="NGXF">   420</i>
   <i type="int" name="NGYF">   120</i>
   <i type="int" name="NGZF">   500</i>
   <i type="logical" name="ADDGRID"> F  </i>
  </separator>
  <separator name="ionic" >
   <i type="int" name="NSW">     0</i>
   <i type="int" name="IBRION">    -1</i>
   <i type="int" name="MDALGO">     0</i>
   <i type="int" name="ISIF">     2</i>
   <i name="PSTRESS">      0.00000000</i>
   <i name="EDIFFG">      0.00001000</i>
   <i type="int" name="NFREE">     0</i>
   <i name="POTIM">      0.50000000</i>
   <i name="SMASS">     -3.00000000</i>
   <i name="SCALEE">      1.00000000</i>
  </separator>
  <separator name="ionic md" >
   <i name="TEBEG">      0.00010000</i>
   <i name="TEEND">      0.00010000</i>
   <i type="int" name="NBLOCK">     1</i>
   <i type="int" name="KBLOCK">     1</i>
   <i type="int" name="NPACO">   256</i>
   <i name="APACO">     10.00000000</i>
  </separator>
  <separator name="symmetry" >
   <i type="int" name="ISYM">     2</i>
   <i name="SYMPREC">      0.00001000</i>
  </separator>
  <separator name="dos" >
   <i type="int" name="LORBIT">     0</i>
   <v name="RWIGS">     -1.00000000</v>
   <i type="int" name="NEDOS">   301</i>
   <i name="EMIN">     10.00000000</i>
   <i name="EMAX">    -10.00000000</i>
   <i name="EFERMI">      0.00000000</i>
  </separator>
  <separator name="writing" >
   <i type="int" name="NWRITE">     2</i>
   <i type="logical" name="LWAVE"> F  </i>
   <i type="logical" name="LDOWNSAMPLE"> F  </i>
   <i type="logical" name="LCHARG"> F  </i>
   <i type="logical" name="LPARD"> F  </i>
   <i type="logical" name="LVTOT"> F  </i>
   <i type="logical" name="LVHAR"> F  </i>
   <i type="logical" name="LELF"> F  </i>
   <i type="logical" name="LOPTICS"> F  </i>
   <v name="STM">      0.00000000      0.00000000      0.00000000      0.00000000      0.00000000      0.00000000      0.00000000</v>
  </separator>
  <separator name="performance" >
   <i type="int" name="NPAR">     2</i>
   <i type="int" name="NSIM">     4</i>
   <i type="int" name="NBLK">    -1</i>
   <i type="logical" name="LPLANE"> T  </i>
   <i type="logical" name="LSCALAPACK"> T  </i>
   <i type="logical" name="LSCAAWARE"> F  </i>
   <i type="logical" name="LSCALU"> F  </i>
   <i type="logical" name="LASYNC"> F  </i>
   <i type="logical" name="LORBITALREAL"> F  </i>
  </separator>
  <separator name="miscellaneous" >
   <i type="int" name="IDIOT">     3</i>
   <i type="int" name="PHON_NSTRUCT">    -1</i>
   <i type="logical" name="LMUSIC"> F  </i>
   <v name="POMASS">     12.01100000</v>
   <v name="DARWINR">      0.00000000</v>
   <v name="DARWINV">      1.00000000</v>
   <i type="logical" name="LCORR"> T  </i>
  </separator>
  <i type="logical" name="GGA_COMPAT"> T  </i>
  <i type="logical" name="LBERRY"> F  </i>
  <i type="int" name="ICORELEVEL">     0</i>
  <i type="logical" name="LDAU"> F  </i>
  <i type="int" name="I_CONSTRAINED_M">     0</i>
  <separator name="electronic exchange-correlation" >
   <i type="string" name="GGA    ">PE</i>
   <i type="string" name="XC_C">1</i>
   <i type="int" name="VOSKOWN">     0</i>
   <i type="logical" name="LHFCALC"> F  </i>
   <i type="string" name="PRECFOCK"></i>
   <i type="logical" name="LSYMGRAD"> F  </i>
   <i type="logical" name="LHFONE"> F  </i>
   <i type="logical" name="LRHFCALC"> F  </i>
   <i type="logical" name="LTHOMAS"> F  </i>
   <i type="logical" name="LMODELHF"> F  </i>
   <i type="logical" name="LFOCKACE"> F  </i>
   <i name="ENCUT4O">     -1.00000000</i>
   <i type="int" name="EXXOEP">     0</i>
   <i type="int" name="FOURORBIT">     0</i>
   <i name="AEXX">      0.00000000</i>
   <i name="HFALPHA">      0.00000000</i>
   <i name="MCALPHA">      0.00000000</i>
   <i name="ALDAX">      1.00000000</i>
   <i name="AGGAX">      1.00000000</i>
   <i name="AMGGAX">      1.00000000</i>
   <i name="ALDAC">      1.00000000</i>
   <i name="AGGAC">      1.00000000</i>
   <i name="AMGGAC">      1.00000000</i>
   <i type="int" name="NKREDX">     1</i>
   <i type="int" name="NKREDY">     1</i>
   <i type="int" name="NKREDZ">     1</i>
   <i type="logical" name="SHIFTRED"> F  </i>
   <i type="logical" name="ODDONLY"> F  </i>
   <i type="logical" name="EVENONLY"> F  </i>
   <i type="int" name="LMAXFOCK">     0</i>
   <i type="int" name="NMAXFOCKAE">     0</i>
   <i type="logical" name="LFOCKAEDFT"> F  </i>
   <i name="HFSCREEN">      0.00000000</i>
   <i name="HFSCREENC">      0.00000000</i>
   <i type="int" name="NBANDSGWLOW">     0</i>
  </separator>
  <separator name="vdW DFT" >
   <i type="logical" name="LUSE_VDW"> F  </i>
   <i type="int" name="IVDW_NL">    -1</i>
   <i type="logical" name="LSPIN_VDW"> F  </i>
   <i name="ZAB_VDW">     -0.84910000</i>
   <i name="GAMMA_VDW">      1.39626340</i>
   <i name="ALPHA_VDW">      0.00000000</i>
   <i name="PARAM1">      0.12340000</i>
   <i name="PARAM2">      1.00000000</i>
   <i name="BPARAM">      6.30000000</i>
   <i name="CPARAM">      0.00930000</i>
  </separator>
  <separator name="model GW" >
   <i type="int" name="MODEL_GW">     0</i>
   <i name="MODEL_EPS0">     49.63935326</i>
   <i name="MODEL_ALPHA">      1.00000000</i>
  </separator>
  <separator name="linear response parameters" >
   <i type="logical" name="LEPSILON"> F  </i>
   <i type="logical" name="LRPA"> F  </i>
   <i type="logical" name="LNABLA"> F  </i>
   <i type="logical" name="LVEL"> F  </i>
   <i name="CSHIFT">      0.10000000</i>
   <i name="OMEGAMAX">     -1.00000000</i>
   <i name="DEG_THRESHOLD">      0.00200000</i>
   <i name="RTIME">     -0.10000000</i>
   <i name="WPLASMAI">      0.00000000</i>
   <v name="DFIELD">      0.00000000      0.00000000      0.00000000</v>
   <v name="WPLASMA">      0.00000000      0.00000000      0.00000000      0.00000000      0.00000000      0.00000000      0.00000000      0.00000000      0.00000000</v>
  </separator>
  <separator name="orbital magnetization" >
   <i type="logical" name="NUCIND"> F  </i>
   <v name="MAGPOS">      0.00000000      0.00000000      0.00000000</v>
   <i type="logical" name="LNICSALL"> T  </i>
   <i type="logical" name="ORBITALMAG"> F  </i>
   <i type="logical" name="LMAGBLOCH"> F  </i>
   <i type="logical" name="LCHIMAG"> F  </i>
   <i type="logical" name="LGAUGE"> T  </i>
   <i type="int" name="MAGATOM">     0</i>
   <v name="MAGDIPOL">      0.00000000      0.00000000      0.00000000</v>
   <v name="AVECCONST">      0.00000000      0.00000000      0.00000000</v>
  </separator>
  <separator name="response functions" >
   <i type="logical" name="LALL_IN_ONE"> F  </i>
   <i type="int" name="IALL_IN_ONE">    -1</i>
   <i type="int" name="NBANDS_WAVE">    -1</i>
   <i type="logical" name="LFINITE_TEMPERATURE"> F  </i>
   <i type="logical" name="LADDER"> F  </i>
   <i type="logical" name="LRPAFORCE"> F  </i>
   <i type="logical" name="LFXC"> F  </i>
   <i type="logical" name="LHARTREE"> T  </i>
   <i type="int" name="IBSE">     2</i>
   <v type="int" name="KPOINT">    -1     0     0     0</v>
   <i type="logical" name="LTCTC"> F  </i>
   <i type="logical" name="LTCTE"> F  </i>
   <i type="logical" name="LTETE"> F  </i>
   <i type="logical" name="LTRIPLET"> F  </i>
   <i type="logical" name="LFXCEPS"> F  </i>
   <i type="logical" name="LFXHEG"> F  </i>
   <i type="int" name="NATURALO">     2</i>
   <i type="logical" name="LHOLEGF"> F  </i>
   <i type="logical" name="L2ORDER"> F  </i>
   <i type="logical" name="LDMP1"> F  </i>
   <i type="logical" name="LMP2LT"> F  </i>
   <i type="logical" name="LSMP2LT"> F  </i>
   <i type="logical" name="LGWLF"> F  </i>
   <i name="ENCUTGW">     -1.60000002</i>
   <i name="ENCUTGWSOFT">     -1.60000002</i>
   <i name="ENCUTLF">     -1.00000000</i>
   <i type="logical" name="ESF_SPLINES"> F  </i>
   <i name="ESF_CONV">      0.01000000</i>
   <i type="int" name="ESF_NINTER">    15</i>
   <i type="int" name="LMAXMP2">    -1</i>
   <i name="SCISSOR">      0.00000000</i>
   <i type="int" name="NOMEGA">     0</i>
   <i type="int" name="NOMEGAR">     0</i>
   <i type="int" name="NBANDSGW">    -1</i>
   <i type="int" name="NBANDSO">    -1</i>
   <i type="int" name="NBANDSV">    -1</i>
   <i type="int" name="NELMGW">     1</i>
   <i type="int" name="NELMHF">     1</i>
   <i type="int" name="DIM">     3</i>
   <i type="int" name="IESPILON">     4</i>
   <i type="int" name="ANTIRES">     0</i>
   <i name="OMEGAMAX">    -30.00000000</i>
   <i name="OMEGAMIN">    -30.00000000</i>
   <i name="OMEGATL">   -200.00000000</i>
   <i type="int" name="OMEGAGRID">     0</i>
   <i name="CSHIFT">     -0.10000000</i>
   <i type="logical" name="LSELFENERGY"> F  </i>
   <i type="logical" name="LSPECTRAL"> F  </i>
   <i type="logical" name="LSPECTRALGW"> F  </i>
   <i type="logical" name="LSINGLES"> F  </i>
   <i type="logical" name="LFERMIGW"> F  </i>
   <i type="logical" name="ODDONLYGW"> F  </i>
   <i type="logical" name="EVENONLYGW"> F  </i>
   <i type="int" name="NKREDLFX">     1</i>
   <i type="int" name="NKREDLFY">     1</i>
   <i type="int" name="NKREDLFZ">     1</i>
   <i type="int" name="MAXMEM">  2800</i>
   <i type="int" name="TELESCOPE">     0</i>
   <i type="int" name="NTAUPAR">    -1</i>
   <i type="int" name="NOMEGAPAR">    -1</i>
   <i name="DAMP_NEWTON">      0.80000001</i>
   <i name="LAMBDA">      1.00000000</i>
  </separator>
  <separator name="External order field" >
   <i name="OFIELD_KAPPA">      0.00000000</i>
   <v name="OFIELD_K">      0.00000000      0.00000000      0.00000000</v>
   <i name="OFIELD_Q6_NEAR">      0.00000000</i>
   <i name="OFIELD_Q6_FAR">      0.00000000</i>
   <i name="OFIELD_A">      0.00000000</i>
  </separator>
  <separator name="optional k-points parameters" >
   <i type="int" name="KPOINTS_OPT_MODE">     1</i>
   <i type="logical" name="LKPOINTS_OPT"> F  </i>
  </separator>
 </parameters>
 <atominfo>
  <atoms>      92 </atoms>
  <types>       1 </types>
  <array name="atoms" >
   <dimension dim="1">ion</dimension>
   <field type="string">element</field>
   <field type="int">atomtype</field>
   <set>
    <rc><c>C </c><c>   1</c></rc>
    <rc><c>C </c><c>   1</c></rc>
    <rc><c>C </c><c>   1</c></rc>
    <rc><c>C </c><c>   1</c></rc>
    <rc><c>C </c><c>   1</c></rc>
    <rc><c>C </c><c>   1</c></rc>
    <rc><c>C </c><c>   1</c></rc>
    <rc><c>C </c><c>   1</c></rc>
    <rc><c>C </c><c>   1</c></rc>
    <rc><c>C </c><c>   1</c></rc>
    <rc><c>C </c><c>   1</c></rc>
    <rc><c>C </c><c>   1</c></rc>
    <rc><c>C </c><c>   1</c></rc>
    <rc><c>C </c><c>   1</c></rc>
    <rc><c>C </c><c>   1</c></rc>
    <rc><c>C </c><c>   1</c></rc>
    <rc><c>C </c><c>   1</c></rc>
    <rc><c>C </c><c>   1</c></rc>
    <rc><c>C </c><c>   1</c></rc>
    <rc><c>C </c><c>   1</c></rc>
    <rc><c>C </c><c>   1</c></rc>
    <rc><c>C </c><c>   1</c></rc>
    <rc><c>C </c><c>   1</c></rc>
    <rc><c>C </c><c>   1</c></rc>
    <rc><c>C </c><c>   1</c></rc>
    <rc><c>C </c><c>   1</c></rc>
    <rc><c>C </c><c>   1</c></rc>
    <rc><c>C </c><c>   1</c></rc>
    <rc><c>C </c><c>   1</c></rc>
    <rc><c>C </c><c>   1</c></rc>
    <rc><c>C </c><c>   1</c></rc>
    <rc><c>C </c><c>   1</c></rc>
    <rc><c>C </c><c>   1</c></rc>
    <rc><c>C </c><c>   1</c></rc>
    <rc><c>C </c><c>   1</c></rc>
    <rc><c>C </c><c>   1</c></rc>
    <rc><c>C </c><c>   1</c></rc>
    <rc><c>C </c><c>   1</c></rc>
    <rc><c>C </c><c>   1</c></rc>
    <rc><c>C </c><c>   1</c></rc>
    <rc><c>C </c><c>   1</c></rc>
    <rc><c>C </c><c>   1</c></rc>
    <rc><c>C </c><c>   1</c></rc>
    <rc><c>C </c><c>   1</c></rc>
    <rc><c>C </c><c>   1</c></rc>
    <rc><c>C </c><c>   1</c></rc>
    <rc><c>C </c><c>   1</c></rc>
    <rc><c>C </c><c>   1</c></rc>
    <rc><c>C </c><c>   1</c></rc>
    <rc><c>C </c><c>   1</c></rc>
    <rc><c>C </c><c>   1</c></rc>
    <rc><c>C </c><c>   1</c></rc>
    <rc><c>C </c><c>   1</c></rc>
    <rc><c>C </c><c>   1</c></rc>
    <rc><c>C </c><c>   1</c></rc>
    <rc><c>C </c><c>   1</c></rc>
    <rc><c>C </c><c>   1</c></rc>
    <rc><c>C </c><c>   1</c></rc>
    <rc><c>C </c><c>   1</c></rc>
    <rc><c>C </c><c>   1</c></rc>
    <rc><c>C </c><c>   1</c></rc>
    <rc><c>C </c><c>   1</c></rc>
    <rc><c>C </c><c>   1</c></rc>
    <rc><c>C </c><c>   1</c></rc>
    <rc><c>C </c><c>   1</c></rc>
    <rc><c>C </c><c>   1</c></rc>
    <rc><c>C </c><c>   1</c></rc>
    <rc><c>C </c><c>   1</c></rc>
    <rc><c>C </c><c>   1</c></rc>
    <rc><c>C </c><c>   1</c></rc>
    <rc><c>C </c><c>   1</c></rc>
    <rc><c>C </c><c>   1</c></rc>
    <rc><c>C </c><c>   1</c></rc>
    <rc><c>C </c><c>   1</c></rc>
    <rc><c>C </c><c>   1</c></rc>
    <rc><c>C </c><c>   1</c></rc>
    <rc><c>C </c><c>   1</c></rc>
    <rc><c>C </c><c>   1</c></rc>
    <rc><c>C </c><c>   1</c></rc>
    <rc><c>C </c><c>   1</c></rc>
    <rc><c>C </c><c>   1</c></rc>
    <rc><c>C </c><c>   1</c></rc>
    <rc><c>C </c><c>   1</c></rc>
    <rc><c>C </c><c>   1</c></rc>
    <rc><c>C </c><c>   1</c></rc>
    <rc><c>C </c><c>   1</c></rc>
    <rc><c>C </c><c>   1</c></rc>
    <rc><c>C </c><c>   1</c></rc>
    <rc><c>C </c><c>   1</c></rc>
    <rc><c>C </c><c>   1</c></rc>
    <rc><c>C </c><c>   1</c></rc>
    <rc><c>C </c><c>   1</c></rc>
   </set>
  </array>
  <array name="atomtypes" >
   <dimension dim="1">type</dimension>
   <field type="int">atomspertype</field>
   <field type="string">element</field>
   <field>mass</field>
   <field>valence</field>
   <field type="string">pseudopotential</field>
   <set>
    <rc><c>  92</c><c>C </c><c>     12.01100000</c><c>      4.00000000</c><c>  PAW_PBE C 08Apr2002                   </c></rc>
   </set>
  </array>
 </atominfo>
 <structure name="initialpos" >
  <crystal>
   <varray name="basis" >
    <v>      28.05000000       0.00000000       0.00000000 </v>
    <v>       0.00000000       8.10000000       0.00000000 </v>
    <v>       0.00000000       0.00000000      33.50000000 </v>
   </varray>
   <i name="volume">   7611.36750000 </i>
   <varray name="rec_basis" >
    <v>       0.03565062       0.00000000       0.00000000 </v>
    <v>       0.00000000       0.12345679       0.00000000 </v>
    <v>       0.00000000       0.00000000       0.02985075 </v>
   </varray>
  </crystal>
  <varray name="positions" >
   <v>       0.48607487       0.09767346       0.88355522 </v>
   <v>       0.48638859       0.26672840       0.88024776 </v>
   <v>       0.52875936       0.01843877       0.88450149 </v>
   <v>       0.52947950       0.35081358       0.87872836 </v>
   <v>       0.57272014       0.10353778       0.88109254 </v>
   <v>       0.57454902       0.27417037       0.87759403 </v>
   <v>       0.61715865       0.02121383       0.88745075 </v>
   <v>       0.61896970       0.35146173       0.88174925 </v>
   <v>       0.66327986       0.10205741       0.88871343 </v>
   <v>       0.66284135       0.27073457       0.88845970 </v>
   <v>       0.70749733       0.01149595       0.89607761 </v>
   <v>       0.70697326       0.34908889       0.89702388 </v>
   <v>       0.75049554       0.09303012       0.90513731 </v>
   <v>       0.75195009       0.26083580       0.90278507 </v>
   <v>       0.78989305       0.02158605       0.92154328 </v>
   <v>       0.79272727       0.35072593       0.91453433 </v>
   <v>       0.83630303       0.10013543       0.92578806 </v>
   <v>       0.83495187       0.26738025       0.92427463 </v>
   <v>       0.87668093       0.01532741       0.93895821 </v>
   <v>       0.87809269       0.34833580       0.93480597 </v>
   <v>       0.92063102       0.09943198       0.94500597 </v>
   <v>       0.91973619       0.26643086       0.94798209 </v>
   <v>       0.96463458       0.01355765       0.95098507 </v>
   <v>       0.96264528       0.34441481       0.96174030 </v>
   <v>       0.00758916       0.09756185       0.95965672 </v>
   <v>       0.00434332       0.26669012       0.96893134 </v>
   <v>       0.04986275       0.01774617       0.96975224 </v>
   <v>       0.04702353       0.34763086       0.97846567 </v>
   <v>       0.09495865       0.10093049       0.97450746 </v>
   <v>       0.09521070       0.26999383       0.97659104 </v>
   <v>       0.13974724       0.02081136       0.97907164 </v>
   <v>       0.13663280       0.35325062       0.97394627 </v>
   <v>       0.18254617       0.09591580       0.96882687 </v>
   <v>       0.18023458       0.26550864       0.96591642 </v>
   <v>       0.22760428       0.02012160       0.96415522 </v>
   <v>       0.22362032       0.35107531       0.95928060 </v>
   <v>       0.26975116       0.09659728       0.94981194 </v>
   <v>       0.26716150       0.26237778       0.94709254 </v>
   <v>       0.31253512       0.01710198       0.93774030 </v>
   <v>       0.30755579       0.35463827       0.93167164 </v>
   <v>       0.35042602       0.09942481       0.92054925 </v>
   <v>       0.34962068       0.27314321       0.91897612 </v>
   <v>       0.39364706       0.02324753       0.90738507 </v>
   <v>       0.39191800       0.34735802       0.90704478 </v>
   <v>       0.43240642       0.10551963       0.89222388 </v>
   <v>       0.43418895       0.27782346       0.88973134 </v>
   <v>       0.48515865       0.59550000       0.89611343 </v>
   <v>       0.48527629       0.76914815       0.89600597 </v>
   <v>       0.52988948       0.51713704       0.88606866 </v>
   <v>       0.52968271       0.84639753       0.89255522 </v>
   <v>       0.57268449       0.59748889       0.89418507 </v>
   <v>       0.57316221       0.76894568       0.89696418 </v>
   <v>       0.61676292       0.51446667       0.89204776 </v>
   <v>       0.61795365       0.85217654       0.89495522 </v>
   <v>       0.66026738       0.59647901       0.90081791 </v>
   <v>       0.65955080       0.76326914       0.90295224 </v>
   <v>       0.70475223       0.51653210       0.90435821 </v>
   <v>       0.70594296       0.84667531       0.90484478 </v>
   <v>       0.74806061       0.59641481       0.91469254 </v>
   <v>       0.74719430       0.76667284       0.91838209 </v>
   <v>       0.79182175       0.51710000       0.91914030 </v>
   <v>       0.78884492       0.85258642       0.92473731 </v>
   <v>       0.83322638       0.59966667       0.93316418 </v>
   <v>       0.83170053       0.76476420       0.93508955 </v>
   <v>       0.87624955       0.51533827       0.94037015 </v>
   <v>       0.87430303       0.84415556       0.94420597 </v>
   <v>       0.91914795       0.59531358       0.95211642 </v>
   <v>       0.91967914       0.76204198       0.95189254 </v>
   <v>       0.96208200       0.51338889       0.96441791 </v>
   <v>       0.96505169       0.84295802       0.95322388 </v>
   <v>       0.00523647       0.59657160       0.97008358 </v>
   <v>       0.00723658       0.76287037       0.96281791 </v>
   <v>       0.04911622       0.51806420       0.97691045 </v>
   <v>       0.05112620       0.84713580       0.96885970 </v>
   <v>       0.09473583       0.60078889       0.97952836 </v>
   <v>       0.09413119       0.76654444       0.97802388 </v>
   <v>       0.13864920       0.51980494       0.97675821 </v>
   <v>       0.14019822       0.85438519       0.98221493 </v>
   <v>       0.18189519       0.60284815       0.97157015 </v>
   <v>       0.18427986       0.77233333       0.97547463 </v>
   <v>       0.22608913       0.51689259       0.96515821 </v>
   <v>       0.22980071       0.85214938       0.96772239 </v>
   <v>       0.26920463       0.59780741       0.95530149 </v>
   <v>       0.27140428       0.76394938       0.95522090 </v>
   <v>       0.31003316       0.51877901       0.93849254 </v>
   <v>       0.31372906       0.84796420       0.94277015 </v>
   <v>       0.35341854       0.59984444       0.92743284 </v>
   <v>       0.35464349       0.76459136       0.92875522 </v>
   <v>       0.39238146       0.52336049       0.90938806 </v>
   <v>       0.39449554       0.85615432       0.91437313 </v>
   <v>       0.43537968       0.59867531       0.90694627 </v>
   <v>       0.43677718       0.77109012       0.90690746 </v>
  </varray>
 </structure>
 <calculation>
  <scstep>
   <time name="dav">   11.03   11.03</time>
   <time name="total">   11.49   11.51</time>
   <energy>
    <i name="alphaZ">     91.34886789 </i>
    <i name="ewald"> 120006.07455728 </i>
    <i name="hartreedc">-129318.60974109 </i>
    <i name="XCdc">   1222.31340677 </i>
    <i name="pawpsdc">   9984.02826696 </i>
    <i name="pawaedc"> -10036.41360137 </i>
    <i name="eentropy">     -0.79182814 </i>
    <i name="bandstr">  -1779.99947836 </i>
    <i name="atom">  13537.65479391 </i>
    <i name="e_fr_energy">   3705.60524385 </i>
    <i name="e_wo_entrp">   3706.39707199 </i>
    <i name="e_0_energy">   3706.00115792 </i>
   </energy>
  </scstep>
  <scstep>
   <time name="dav">   13.09   13.10</time>
   <time name="total">   13.09   13.10</time>
   <energy>
    <i name="e_fr_energy">    181.22824013 </i>
    <i name="e_wo_entrp">    181.43949777 </i>
    <i name="e_0_energy">    181.33386895 </i>
   </energy>
  </scstep>
  <scstep>
   <time name="dav">   11.34   11.35</time>
   <time name="total">   11.34   11.35</time>
   <energy>
    <i name="e_fr_energy">   -834.93325036 </i>
    <i name="e_wo_entrp">   -834.89996776 </i>
    <i name="e_0_energy">   -834.91660906 </i>
   </energy>
  </scstep>
  <scstep>
   <time name="dav">   10.99   11.00</time>
   <time name="total">   10.99   11.00</time>
   <energy>
    <i name="e_fr_energy">   -897.15988180 </i>
    <i name="e_wo_entrp">   -897.10764277 </i>
    <i name="e_0_energy">   -897.13376228 </i>
   </energy>
  </scstep>
  <scstep>
   <time name="dav">   11.13   11.14</time>
   <time name="total">   12.62   12.63</time>
   <energy>
    <i name="e_fr_energy">   -898.65876303 </i>
    <i name="e_wo_entrp">   -898.60565103 </i>
    <i name="e_0_energy">   -898.63220703 </i>
   </energy>
  </scstep>
  <scstep>
   <time name="dav">   10.30   10.30</time>
   <time name="total">   12.10   12.11</time>
   <energy>
    <i name="e_fr_energy">   -848.47514116 </i>
    <i name="e_wo_entrp">   -848.41624405 </i>
    <i name="e_0_energy">   -848.44569261 </i>
   </energy>
  </scstep>
  <scstep>
   <time name="dav">   10.13   10.13</time>
   <time name="total">   11.93   11.93</time>
   <energy>
    <i name="e_fr_energy">   -829.76709897 </i>
    <i name="e_wo_entrp">   -829.69816237 </i>
    <i name="e_0_energy">   -829.73263067 </i>
   </energy>
  </scstep>
  <scstep>
   <time name="dav">   10.50   10.51</time>
   <time name="total">   12.30   12.31</time>
   <energy>
    <i name="e_fr_energy">   -829.46994210 </i>
    <i name="e_wo_entrp">   -829.40559172 </i>
    <i name="e_0_energy">   -829.43776691 </i>
   </energy>
  </scstep>
  <scstep>
   <time name="dav">   10.63   10.63</time>
   <time name="total">   12.43   12.44</time>
   <energy>
    <i name="e_fr_energy">   -829.36282634 </i>
    <i name="e_wo_entrp">   -829.29759923 </i>
    <i name="e_0_energy">   -829.33021279 </i>
   </energy>
  </scstep>
  <scstep>
   <time name="dav">   11.13   11.14</time>
   <time name="total">   12.94   12.95</time>
   <energy>
    <i name="e_fr_energy">   -829.32400896 </i>
    <i name="e_wo_entrp">   -829.25854316 </i>
    <i name="e_0_energy">   -829.29127606 </i>
   </energy>
  </scstep>
  <scstep>
   <time name="dav">   10.16   10.17</time>
   <time name="total">   11.99   12.00</time>
   <energy>
    <i name="e_fr_energy">   -829.29101662 </i>
    <i name="e_wo_entrp">   -829.22556320 </i>
    <i name="e_0_energy">   -829.25828991 </i>
   </energy>
  </scstep>
  <scstep>
   <time name="dav">   10.11   10.12</time>
   <time name="total">   11.94   11.95</time>
   <energy>
    <i name="e_fr_energy">   -829.28443978 </i>
    <i name="e_wo_entrp">   -829.21889151 </i>
    <i name="e_0_energy">   -829.25166564 </i>
   </energy>
  </scstep>
  <scstep>
   <time name="dav">   10.10   10.11</time>
   <time name="total">   11.94   11.94</time>
   <energy>
    <i name="e_fr_energy">   -829.29638330 </i>
    <i name="e_wo_entrp">   -829.23093165 </i>
    <i name="e_0_energy">   -829.26365748 </i>
   </energy>
  </scstep>
  <scstep>
   <time name="dav">   10.37   10.37</time>
   <time name="total">   12.21   12.22</time>
   <energy>
    <i name="e_fr_energy">   -829.31461218 </i>
    <i name="e_wo_entrp">   -829.24914257 </i>
    <i name="e_0_energy">   -829.28187737 </i>
   </energy>
  </scstep>
  <scstep>
   <time name="dav">   10.15   10.16</time>
   <time name="total">   12.01   12.01</time>
   <energy>
    <i name="e_fr_energy">   -829.33580900 </i>
    <i name="e_wo_entrp">   -829.27024619 </i>
    <i name="e_0_energy">   -829.30302759 </i>
   </energy>
  </scstep>
  <scstep>
   <time name="dav">   10.48   10.49</time>
   <time name="total">   12.35   12.36</time>
   <energy>
    <i name="e_fr_energy">   -829.34369549 </i>
    <i name="e_wo_entrp">   -829.27817911 </i>
    <i name="e_0_energy">   -829.31093730 </i>
   </energy>
  </scstep>
  <scstep>
   <time name="dav">   10.28   10.28</time>
   <time name="total">   12.15   12.15</time>
   <energy>
    <i name="e_fr_energy">   -829.34934484 </i>
    <i name="e_wo_entrp">   -829.28383476 </i>
    <i name="e_0_energy">   -829.31658980 </i>
   </energy>
  </scstep>
  <scstep>
   <time name="dav">   10.52   10.53</time>
   <time name="total">   12.41   12.41</time>
   <energy>
    <i name="e_fr_energy">   -829.35104530 </i>
    <i name="e_wo_entrp">   -829.28552363 </i>
    <i name="e_0_energy">   -829.31828446 </i>
   </energy>
  </scstep>
  <scstep>
   <time name="dav">    9.28    9.29</time>
   <time name="total">   11.18   11.18</time>
   <energy>
    <i name="e_fr_energy">   -829.35221215 </i>
    <i name="e_wo_entrp">   -829.28669682 </i>
    <i name="e_0_energy">   -829.31945449 </i>
   </energy>
  </scstep>
  <scstep>
   <time name="dav">    9.22    9.23</time>
   <time name="total">   11.13   11.13</time>
   <energy>
    <i name="e_fr_energy">   -829.35251720 </i>
    <i name="e_wo_entrp">   -829.28700042 </i>
    <i name="e_0_energy">   -829.31975881 </i>
   </energy>
  </scstep>
  <scstep>
   <time name="dav">    8.70    8.70</time>
   <time name="total">   10.62   10.63</time>
   <energy>
    <i name="e_fr_energy">   -829.35274731 </i>
    <i name="e_wo_entrp">   -829.28722881 </i>
    <i name="e_0_energy">   -829.31998806 </i>
   </energy>
  </scstep>
  <scstep>
   <time name="dav">    7.71    7.71</time>
   <time name="total">    9.63    9.64</time>
   <energy>
    <i name="e_fr_energy">   -829.35279381 </i>
    <i name="e_wo_entrp">   -829.28727597 </i>
    <i name="e_0_energy">   -829.32003489 </i>
   </energy>
  </scstep>
  <scstep>
   <time name="dav">    7.15    7.16</time>
   <time name="total">    9.09    9.10</time>
   <energy>
    <i name="e_fr_energy">   -829.35282909 </i>
    <i name="e_wo_entrp">   -829.28731098 </i>
    <i name="e_0_energy">   -829.32007003 </i>
   </energy>
  </scstep>
  <scstep>
   <time name="dav">    7.32    7.32</time>
   <time name="total">    9.28    9.28</time>
   <energy>
    <i name="e_fr_energy">   -829.35284273 </i>
    <i name="e_wo_entrp">   -829.28732481 </i>
    <i name="e_0_energy">   -829.32008377 </i>
   </energy>
  </scstep>
  <scstep>
   <time name="dav">    7.17    7.17</time>
   <time name="total">    9.14    9.14</time>
   <energy>
    <i name="e_fr_energy">   -829.35284738 </i>
    <i name="e_wo_entrp">   -829.28732966 </i>
    <i name="e_0_energy">   -829.32008852 </i>
   </energy>
  </scstep>
  <scstep>
   <time name="dav">    7.07    7.07</time>
   <time name="total">    9.07    9.08</time>
   <energy>
    <i name="e_fr_energy">   -829.35285123 </i>
    <i name="e_wo_entrp">   -829.28733340 </i>
    <i name="e_0_energy">   -829.32009231 </i>
   </energy>
  </scstep>
  <scstep>
   <time name="dav">    7.17    7.17</time>
   <time name="total">    9.17    9.18</time>
   <energy>
    <i name="e_fr_energy">   -829.35285243 </i>
    <i name="e_wo_entrp">   -829.28733467 </i>
    <i name="e_0_energy">   -829.32009355 </i>
   </energy>
  </scstep>
  <scstep>
   <time name="dav">    7.13    7.13</time>
   <time name="total">    9.15    9.16</time>
   <energy>
    <i name="e_fr_energy">   -829.35285432 </i>
    <i name="e_wo_entrp">   -829.28733648 </i>
    <i name="e_0_energy">   -829.32009540 </i>
   </energy>
  </scstep>
  <scstep>
   <time name="dav">    7.12    7.13</time>
   <time name="total">    7.48    7.49</time>
   <energy>
    <i name="alphaZ">     91.34886789 </i>
    <i name="ewald"> 120006.07455728 </i>
    <i name="hartreedc">-131094.29917646 </i>
    <i name="XCdc">   1279.95611050 </i>
    <i name="pawpsdc">  41342.67609499 </i>
    <i name="pawaedc"> -41406.83926064 </i>
    <i name="eentropy">     -0.06551785 </i>
    <i name="bandstr">  -4585.85932452 </i>
    <i name="atom">  13537.65479391 </i>
    <i name="e_fr_energy">   -829.35285491 </i>
    <i name="e_wo_entrp">   -829.28733706 </i>
    <i name="e_0_energy">   -829.32009598 </i>
   </energy>
  </scstep>
  <structure>
   <crystal>
    <varray name="basis" >
     <v>      28.05000000       0.00000000       0.00000000 </v>
     <v>       0.00000000       8.10000000       0.00000000 </v>
     <v>       0.00000000       0.00000000      33.50000000 </v>
    </varray>
    <i name="volume">   7611.36750000 </i>
    <varray name="rec_basis" >
     <v>       0.03565062       0.00000000       0.00000000 </v>
     <v>       0.00000000       0.12345679       0.00000000 </v>
     <v>       0.00000000       0.00000000       0.02985075 </v>
    </varray>
   </crystal>
   <varray name="positions" >
    <v>       0.48607487       0.09767346       0.88355522 </v>
    <v>       0.48638859       0.26672840       0.88024776 </v>
    <v>       0.52875936       0.01843877       0.88450149 </v>
    <v>       0.52947950       0.35081358       0.87872836 </v>
    <v>       0.57272014       0.10353778       0.88109254 </v>
    <v>       0.57454902       0.27417037       0.87759403 </v>
    <v>       0.61715865       0.02121383       0.88745075 </v>
    <v>       0.61896970       0.35146173       0.88174925 </v>
    <v>       0.66327986       0.10205741       0.88871343 </v>
    <v>       0.66284135       0.27073457       0.88845970 </v>
    <v>       0.70749733       0.01149595       0.89607761 </v>
    <v>       0.70697326       0.34908889       0.89702388 </v>
    <v>       0.75049554       0.09303012       0.90513731 </v>
    <v>       0.75195009       0.26083580       0.90278507 </v>
    <v>       0.78989305       0.02158605       0.92154328 </v>
    <v>       0.79272727       0.35072593       0.91453433 </v>
    <v>       0.83630303       0.10013543       0.92578806 </v>
    <v>       0.83495187       0.26738025       0.92427463 </v>
    <v>       0.87668093       0.01532741       0.93895821 </v>
    <v>       0.87809269       0.34833580       0.93480597 </v>
    <v>       0.92063102       0.09943198       0.94500597 </v>
    <v>       0.91973619       0.26643086       0.94798209 </v>
    <v>       0.96463458       0.01355765       0.95098507 </v>
    <v>       0.96264528       0.34441481       0.96174030 </v>
    <v>       0.00758916       0.09756185       0.95965672 </v>
    <v>       0.00434332       0.26669012       0.96893134 </v>
    <v>       0.04986275       0.01774617       0.96975224 </v>
    <v>       0.04702353       0.34763086       0.97846567 </v>
    <v>       0.09495865       0.10093049       0.97450746 </v>
    <v>       0.09521070       0.26999383       0.97659104 </v>
    <v>       0.13974724       0.02081136       0.97907164 </v>
    <v>       0.13663280       0.35325062       0.97394627 </v>
    <v>       0.18254617       0.09591580       0.96882687 </v>
    <v>       0.18023458       0.26550864       0.96591642 </v>
    <v>       0.22760428       0.02012160       0.96415522 </v>
    <v>       0.22362032       0.35107531       0.95928060 </v>
    <v>       0.26975116       0.09659728       0.94981194 </v>
    <v>       0.26716150       0.26237778       0.94709254 </v>
    <v>       0.31253512       0.01710198       0.93774030 </v>
    <v>       0.30755579       0.35463827       0.93167164 </v>
    <v>       0.35042602       0.09942481       0.92054925 </v>
    <v>       0.34962068       0.27314321       0.91897612 </v>
    <v>       0.39364706       0.02324753       0.90738507 </v>
    <v>       0.39191800       0.34735802       0.90704478 </v>
    <v>       0.43240642       0.10551963       0.89222388 </v>
    <v>       0.43418895       0.27782346       0.88973134 </v>
    <v>       0.48515865       0.59550000       0.89611343 </v>
    <v>       0.48527629       0.76914815       0.89600597 </v>
    <v>       0.52988948       0.51713704       0.88606866 </v>
    <v>       0.52968271       0.84639753       0.89255522 </v>
    <v>       0.57268449       0.59748889       0.89418507 </v>
    <v>       0.57316221       0.76894568       0.89696418 </v>
    <v>       0.61676292       0.51446667       0.89204776 </v>
    <v>       0.61795365       0.85217654       0.89495522 </v>
    <v>       0.66026738       0.59647901       0.90081791 </v>
    <v>       0.65955080       0.76326914       0.90295224 </v>
    <v>       0.70475223       0.51653210       0.90435821 </v>
    <v>       0.70594296       0.84667531       0.90484478 </v>
    <v>       0.74806061       0.59641481       0.91469254 </v>
    <v>       0.74719430       0.76667284       0.91838209 </v>
    <v>       0.79182175       0.51710000       0.91914030 </v>
    <v>       0.78884492       0.85258642       0.92473731 </v>
    <v>       0.83322638       0.59966667       0.93316418 </v>
    <v>       0.83170053       0.76476420       0.93508955 </v>
    <v>       0.87624955       0.51533827       0.94037015 </v>
    <v>       0.87430303       0.84415556       0.94420597 </v>
    <v>       0.91914795       0.59531358       0.95211642 </v>
    <v>       0.91967914       0.76204198       0.95189254 </v>
    <v>       0.96208200       0.51338889       0.96441791 </v>
    <v>       0.96505169       0.84295802       0.95322388 </v>
    <v>       0.00523647       0.59657160       0.97008358 </v>
    <v>       0.00723658       0.76287037       0.96281791 </v>
    <v>       0.04911622       0.51806420       0.97691045 </v>
    <v>       0.05112620       0.84713580       0.96885970 </v>
    <v>       0.09473583       0.60078889       0.97952836 </v>
    <v>       0.09413119       0.76654444       0.97802388 </v>
    <v>       0.13864920       0.51980494       0.97675821 </v>
    <v>       0.14019822       0.85438519       0.98221493 </v>
    <v>       0.18189519       0.60284815       0.97157015 </v>
    <v>       0.18427986       0.77233333       0.97547463 </v>
    <v>       0.22608913       0.51689259       0.96515821 </v>
    <v>       0.22980071       0.85214938       0.96772239 </v>
    <v>       0.26920463       0.59780741       0.95530149 </v>
    <v>       0.27140428       0.76394938       0.95522090 </v>
    <v>       0.31003316       0.51877901       0.93849254 </v>
    <v>       0.31372906       0.84796420       0.94277015 </v>
    <v>       0.35341854       0.59984444       0.92743284 </v>
    <v>       0.35464349       0.76459136       0.92875522 </v>
    <v>       0.39238146       0.52336049       0.90938806 </v>
    <v>       0.39449554       0.85615432       0.91437313 </v>
    <v>       0.43537968       0.59867531       0.90694627 </v>
    <v>       0.43677718       0.77109012       0.90690746 </v>
   </varray>
  </structure>
  <varray name="forces" >
   <v>      -1.14149491       0.80630992      -0.49113004 </v>
   <v>       0.48542803       0.45296673      -0.15377388 </v>
   <v>       0.82375371      -1.61811606       0.46479843 </v>
   <v>      -0.00602268       0.36913909      -0.20855958 </v>
   <v>       1.11465851      -0.54522896       0.04866313 </v>
   <v>      -0.74563848      -2.01504919      -0.35110684 </v>
   <v>       1.35464229      -0.26267707      -0.06623847 </v>
   <v>      -0.16566029       0.17920442       0.92598158 </v>
   <v>      -0.44328981      -1.99130837      -0.26432284 </v>
   <v>       0.90486263      -0.32325231      -0.77723065 </v>
   <v>      -1.45322473       1.02592280       0.67876302 </v>
   <v>       0.54353597      -0.49700184      -0.04494235 </v>
   <v>      -0.94378277       1.05984848      -0.53782275 </v>
   <v>      -2.10508196       2.89195446      -0.08733415 </v>
   <v>       2.88164323      -1.57166961      -0.55519800 </v>
   <v>       0.15343770      -1.73422084      -0.40707213 </v>
   <v>      -2.52281829      -1.20568359       0.73330693 </v>
   <v>       1.75156799       0.69938794      -0.40353706 </v>
   <v>       0.56636222      -0.39801229      -0.24061802 </v>
   <v>      -0.38979766      -0.13684786       1.01812272 </v>
   <v>       0.25303755      -1.98076086       0.14382610 </v>
   <v>       0.65066911       0.56352025      -0.55435712 </v>
   <v>      -0.06720205       0.51119259       0.10387033 </v>
   <v>      -2.69731341       1.11148044      -0.37218118 </v>
   <v>      -0.88338609       0.70895059       1.15662328 </v>
   <v>       2.20222444      -2.24236920      -0.30971308 </v>
   <v>       1.85612524      -0.19591416      -0.82868705 </v>
   <v>       2.89402586       0.22920857      -0.73638130 </v>
   <v>      -0.47320847      -0.32432376       0.79468929 </v>
   <v>      -4.75169500      -0.68342198       0.16907511 </v>
   <v>      -1.03815266      -0.21191855      -0.97505444 </v>
   <v>       3.16311817      -1.10819546      -0.35191368 </v>
   <v>       0.65809342       1.68126583       0.45174821 </v>
   <v>       0.42634909       1.23224678       0.20971881 </v>
   <v>       0.43023293      -0.78051391      -0.22257234 </v>
   <v>       1.17532653      -2.16610237      -0.39470302 </v>
   <v>      -0.44607236       0.07415404      -0.00182628 </v>
   <v>      -0.29538930       3.39911717      -0.68843907 </v>
   <v>      -1.51272493      -0.73875606       0.77052602 </v>
   <v>      -0.28356450      -2.09720488       1.16839738 </v>
   <v>       1.26210495       1.89800882      -0.73899016 </v>
   <v>      -0.27156645      -2.31248260      -0.37463756 </v>
   <v>      -1.27965370       0.03836468       0.72466067 </v>
   <v>       1.81195481       3.10123230      -1.85102195 </v>
   <v>       0.74797882       0.30754399      -0.32180522 </v>
   <v>      -2.50419663      -1.87024843       1.26744648 </v>
   <v>       3.67518328       0.71558715      -1.28266572 </v>
   <v>       3.93675728      -1.44696696       0.08306534 </v>
   <v>      -3.06663491       0.75578671       1.55528519 </v>
   <v>      -1.62421720       2.52328026      -0.05588554 </v>
   <v>       0.79733890       0.39965865      -0.60152549 </v>
   <v>       0.68602157      -0.73500108      -0.55247823 </v>
   <v>       0.71775820       1.04166046       0.07833343 </v>
   <v>      -1.46866095      -0.02131677       0.54109494 </v>
   <v>      -0.36879892      -0.97240715       0.33832383 </v>
   <v>       2.13653162       2.42234421      -0.52704325 </v>
   <v>       0.84848487      -0.41530528      -0.16682630 </v>
   <v>      -2.28172091      -0.61058996       0.48066003 </v>
   <v>      -0.74937383       0.46958122       0.12101550 </v>
   <v>      -0.77149023      -0.21926562      -1.12683902 </v>
   <v>      -0.14652448       0.50913308       0.67118778 </v>
   <v>       1.69434161      -0.78989487       1.22754023 </v>
   <v>      -0.39798385      -2.04586956      -0.74803986 </v>
   <v>      -0.45040712       2.10105751       0.40953550 </v>
   <v>       0.65248398       0.64803667       0.22523272 </v>
   <v>       2.29952799       1.20835119      -0.28589676 </v>
   <v>       0.18932882      -1.14090787       0.83849391 </v>
   <v>      -0.90914604       1.70588880      -0.70986183 </v>
   <v>      -1.02010871       0.35577800      -0.96436954 </v>
   <v>      -1.69331861       0.78051283       0.28067366 </v>
   <v>       0.59767799       0.22643333       0.03050267 </v>
   <v>       0.59972218       0.50520326       0.24871236 </v>
   <v>       0.27741680      -0.65257325       0.72281160 </v>
   <v>      -0.50510472       0.08730988       0.46957845 </v>
   <v>      -1.46825951      -1.26053557      -0.30427845 </v>
   <v>       1.64315932       2.22574552       0.44136956 </v>
   <v>      -0.24710593       0.86107347      -0.02791555 </v>
   <v>      -1.06031685      -2.14433732      -1.03276133 </v>
   <v>       1.59688676      -0.29690681       0.82322257 </v>
   <v>       0.36970049      -0.07341795       0.23144298 </v>
   <v>      -0.71879840       0.87225198      -0.99835328 </v>
   <v>      -1.42103013      -1.10605454      -0.04450320 </v>
   <v>       0.91692577      -1.07810674      -0.52508116 </v>
   <v>      -0.17031482       2.55874482       1.05965133 </v>
   <v>      -0.11935623       0.87192043       0.12022689 </v>
   <v>      -0.50583781      -0.49039786      -0.42419822 </v>
   <v>      -1.20010654      -0.94775032      -0.33363078 </v>
   <v>      -0.38692303       2.88383434       0.60638797 </v>
   <v>       0.47335000      -3.20900258       1.27593150 </v>
   <v>       1.92805220      -1.54848577      -0.19690426 </v>
   <v>      -1.42234229       1.12623368      -0.46067553 </v>
   <v>      -3.55296367       0.01994673       0.97040609 </v>
  </varray>
  <varray name="stress" >
   <v>      -1.12539011      -0.61977555       0.62851470 </v>
   <v>      -0.61977555      55.65477778       0.22796987 </v>
   <v>       0.62851471       0.22796988      -0.71112091 </v>
  </varray>
  <energy>
   <i name="e_fr_energy">   -829.35285491 </i>
   <i name="e_wo_entrp">   -829.28733706 </i>
   <i name="e_0_energy">   -829.32009598 </i>
  </energy>
  <time name="totalsc">  334.70  334.91</time>
  <eigenvalues>
   <array>
    <dimension dim="1">band</dimension>
    <dimension dim="2">kpoint</dimension>
    <dimension dim="3">spin</dimension>
    <field>eigene</field>
    <field>occ</field>
    <set>
     <set comment="spin 1">
      <set comment="kpoint 1">
       <r>  -23.1938    1.0000 </r>
       <r>  -23.0927    1.0000 </r>
       <r>  -23.0052    1.0000 </r>
       <r>  -22.6782    1.0000 </r>
       <r>  -22.6465    1.0000 </r>
       <r>  -22.3377    1.0000 </r>
       <r>  -22.0883    1.0000 </r>
       <r>  -21.9569    1.0000 </r>
       <r>  -21.5565    1.0000 </r>
       <r>  -21.4883    1.0000 </r>
       <r>  -21.4336    1.0000 </r>
       <r>  -21.3569    1.0000 </r>
       <r>  -21.2501    1.0000 </r>
       <r>  -21.1668    1.0000 </r>
       <r>  -21.1449    1.0000 </r>
       <r>  -21.0838    1.0000 </r>
       <r>  -21.0632    1.0000 </r>
       <r>  -20.9876    1.0000 </r>
       <r>  -20.8076    1.0000 </r>
       <r>  -20.6307    1.0000 </r>
       <r>  -20.4031    1.0000 </r>
       <r>  -20.3283    1.0000 </r>
       <r>  -20.1441    1.0000 </r>
       <r>  -20.0356    1.0000 </r>
       <r>  -19.9578    1.0000 </r>
       <r>  -19.7574    1.0000 </r>
       <r>  -19.5786    1.0000 </r>
       <r>  -19.4940    1.0000 </r>
       <r>  -19.1449    1.0000 </r>
       <r>  -18.9104    1.0000 </r>
       <r>  -18.7651    1.0000 </r>
       <r>  -18.6632    1.0000 </r>
       <r>  -18.5140    1.0000 </r>
       <r>  -18.4250    1.0000 </r>
       <r>  -18.1765    1.0000 </r>
       <r>  -17.5903    1.0000 </r>
       <r>  -17.4205    1.0000 </r>
       <r>  -17.2112    1.0000 </r>
       <r>  -17.0229    1.0000 </r>
       <r>  -16.9016    1.0000 </r>
       <r>  -16.8200    1.0000 </r>
       <r>  -16.7492    1.0000 </r>
       <r>  -16.7289    1.0000 </r>
       <r>  -16.6578    1.0000 </r>
       <r>  -16.6178    1.0000 </r>
       <r>  -16.5270    1.0000 </r>
       <r>  -16.4788    1.0000 </r>
       <r>  -16.4611    1.0000 </r>
       <r>  -16.4223    1.0000 </r>
       <r>  -16.3579    1.0000 </r>
       <r>  -16.3102    1.0000 </r>
       <r>  -16.2021    1.0000 </r>
       <r>  -16.0895    1.0000 </r>
       <r>  -16.0306    1.0000 </r>
       <r>  -15.8544    1.0000 </r>
       <r>  -15.6474    1.0000 </r>
       <r>  -15.4943    1.0000 </r>
       <r>  -15.3298    1.0000 </r>
       <r>  -15.2704    1.0000 </r>
       <r>  -15.1942    1.0000 </r>
       <r>  -15.0638    1.0000 </r>
       <r>  -14.9576    1.0000 </r>
       <r>  -14.3095    1.0000 </r>
       <r>  -14.1935    1.0000 </r>
       <r>  -14.1107    1.0000 </r>
       <r>  -14.0687    1.0000 </r>
       <r>  -13.9570    1.0000 </r>
       <r>  -13.7644    1.0000 </r>
       <r>  -13.6933    1.0000 </r>
       <r>  -13.6432    1.0000 </r>
       <r>  -13.4601    1.0000 </r>
       <r>  -13.3779    1.0000 </r>
       <r>  -13.2752    1.0000 </r>
       <r>  -13.1364    1.0000 </r>
       <r>  -13.0158    1.0000 </r>
       <r>  -12.9551    1.0000 </r>
       <r>  -12.7000    1.0000 </r>
       <r>  -12.4618    1.0000 </r>
       <r>  -12.1629    1.0000 </r>
       <r>  -12.1457    1.0000 </r>
       <r>  -12.1009    1.0000 </r>
       <r>  -12.0235    1.0000 </r>
       <r>  -11.8395    1.0000 </r>
       <r>  -11.8047    1.0000 </r>
       <r>  -11.7221    1.0000 </r>
       <r>  -11.5727    1.0000 </r>
       <r>  -11.3311    1.0000 </r>
       <r>  -11.1874    1.0000 </r>
       <r>  -11.0984    1.0000 </r>
       <r>  -11.0313    1.0000 </r>
       <r>  -10.9873    1.0000 </r>
       <r>  -10.8989    1.0000 </r>
       <r>  -10.7939    1.0000 </r>
       <r>  -10.7513    1.0000 </r>
       <r>  -10.7045    1.0000 </r>
       <r>  -10.6622    1.0000 </r>
       <r>  -10.5862    1.0000 </r>
       <r>  -10.5525    1.0000 </r>
       <r>  -10.5162    1.0000 </r>
       <r>  -10.3929    1.0000 </r>
       <r>  -10.3617    1.0000 </r>
       <r>  -10.2891    1.0000 </r>
       <r>  -10.2495    1.0000 </r>
       <r>  -10.2089    1.0000 </r>
       <r>  -10.0838    1.0000 </r>
       <r>  -10.0356    1.0000 </r>
       <r>   -9.8464    1.0000 </r>
       <r>   -9.8190    1.0000 </r>
       <r>   -9.7727    1.0000 </r>
       <r>   -9.6554    1.0000 </r>
       <r>   -9.6491    1.0000 </r>
       <r>   -9.6336    1.0000 </r>
       <r>   -9.6100    1.0000 </r>
       <r>   -9.5622    1.0000 </r>
       <r>   -9.5313    1.0000 </r>
       <r>   -9.5093    1.0000 </r>
       <r>   -9.4608    1.0000 </r>
       <r>   -9.4436    1.0000 </r>
       <r>   -9.3824    1.0000 </r>
       <r>   -9.3612    1.0000 </r>
       <r>   -9.3437    1.0000 </r>
       <r>   -9.3160    1.0000 </r>
       <r>   -9.2989    1.0000 </r>
       <r>   -9.2708    1.0000 </r>
       <r>   -9.2520    1.0000 </r>
       <r>   -9.2468    1.0000 </r>
       <r>   -9.2198    1.0000 </r>
       <r>   -9.1952    1.0000 </r>
       <r>   -9.1613    1.0000 </r>
       <r>   -9.1067    1.0000 </r>
       <r>   -9.0694    1.0000 </r>
       <r>   -9.0107    1.0000 </r>
       <r>   -8.9788    1.0000 </r>
       <r>   -8.9611    1.0000 </r>
       <r>   -8.8889    1.0000 </r>
       <r>   -8.8628    1.0000 </r>
       <r>   -8.8239    1.0000 </r>
       <r>   -8.8038    1.0000 </r>
       <r>   -8.7497    1.0000 </r>
       <r>   -8.7142    1.0000 </r>
       <r>   -8.6604    1.0000 </r>
       <r>   -8.6031    1.0000 </r>
       <r>   -8.5872    1.0000 </r>
       <r>   -8.5479    1.0000 </r>
       <r>   -8.4167    1.0000 </r>
       <r>   -8.3512    1.0000 </r>
       <r>   -8.1047    1.0000 </r>
       <r>   -7.9785    1.0000 </r>
       <r>   -7.9107    1.0000 </r>
       <r>   -7.8170    1.0000 </r>
       <r>   -7.7135    1.0000 </r>
       <r>   -7.6202    1.0000 </r>
       <r>   -7.5488    1.0000 </r>
       <r>   -7.4898    1.0000 </r>
       <r>   -7.4268    1.0000 </r>
       <r>   -7.3773    1.0000 </r>
       <r>   -7.3485    1.0000 </r>
       <r>   -7.1383    1.0000 </r>
       <r>   -7.0657    1.0000 </r>
       <r>   -6.9988    1.0000 </r>
       <r>   -6.8171    1.0000 </r>
       <r>   -6.6925    1.0000 </r>
       <r>   -6.6275    1.0000 </r>
       <r>   -6.5043    1.0000 </r>
       <r>   -6.3935    1.0000 </r>
       <r>   -6.2540    1.0000 </r>
       <r>   -6.2114    1.0000 </r>
       <r>   -6.0503    1.0000 </r>
       <r>   -5.9993    1.0000 </r>
       <r>   -5.9804    1.0000 </r>
       <r>   -5.9311    1.0000 </r>
       <r>   -5.8963    1.0000 </r>
       <r>   -5.7834    1.0000 </r>
       <r>   -5.0816    1.0000 </r>
       <r>   -4.9458    1.0000 </r>
       <r>   -4.8985    1.0000 </r>
       <r>   -4.7106    1.0000 </r>
       <r>   -4.5294    1.0000 </r>
       <r>   -4.4951    1.0000 </r>
       <r>   -4.4138    1.0000 </r>
       <r>   -4.3835    1.0000 </r>
       <r>   -3.7204    1.0000 </r>
       <r>   -3.6393    0.9998 </r>
       <r>   -3.2019    0.6588 </r>
       <r>   -3.0504    0.2538 </r>
       <r>   -2.7149    0.0012 </r>
       <r>   -2.5941    0.0001 </r>
       <r>   -2.4806    0.0000 </r>
       <r>   -2.1930    0.0000 </r>
       <r>   -2.1388    0.0000 </r>
       <r>   -1.7390    0.0000 </r>
       <r>   -1.6760    0.0000 </r>
       <r>   -1.5082    0.0000 </r>
       <r>   -1.4691    0.0000 </r>
       <r>   -1.3597    0.0000 </r>
       <r>   -1.3474    0.0000 </r>
       <r>   -1.2818    0.0000 </r>
       <r>   -0.9868    0.0000 </r>
       <r>   -0.8050    0.0000 </r>
       <r>   -0.5771    0.0000 </r>
       <r>   -0.5478    0.0000 </r>
       <r>   -0.3861    0.0000 </r>
       <r>   -0.0638    0.0000 </r>
       <r>    0.0979    0.0000 </r>
       <r>    0.1228    0.0000 </r>
       <r>    0.1539    0.0000 </r>
       <r>    0.3188    0.0000 </r>
       <r>    0.6242    0.0000 </r>
       <r>    0.6434    0.0000 </r>
       <r>    0.7063    0.0000 </r>
       <r>    0.7648    0.0000 </r>
       <r>    0.8901    0.0000 </r>
       <r>    0.9053    0.0000 </r>
       <r>    0.9226    0.0000 </r>
       <r>    0.9429    0.0000 </r>
       <r>    0.9834    0.0000 </r>
       <r>    1.0787    0.0000 </r>
       <r>    1.1505    0.0000 </r>
       <r>    1.1572    0.0000 </r>
       <r>    1.2185    0.0000 </r>
       <r>    1.3089    0.0000 </r>
       <r>    1.3161    0.0000 </r>
       <r>    1.3303    0.0000 </r>
       <r>    1.4049    0.0000 </r>
       <r>    1.4635    0.0000 </r>
       <r>    1.5492    0.0000 </r>
       <r>    1.5732    0.0000 </r>
       <r>    1.7124    0.0000 </r>
       <r>    1.7269    0.0000 </r>
       <r>    1.7276    0.0000 </r>
       <r>    1.7330    0.0000 </r>
       <r>    1.7833    0.0000 </r>
      </set>
      <set comment="kpoint 2">
       <r>  -23.1112    1.0000 </r>
       <r>  -23.0004    1.0000 </r>
       <r>  -22.9045    1.0000 </r>
       <r>  -22.6044    1.0000 </r>
       <r>  -22.5611    1.0000 </r>
       <r>  -22.4518    1.0000 </r>
       <r>  -22.2102    1.0000 </r>
       <r>  -22.1067    1.0000 </r>
       <r>  -22.0069    1.0000 </r>
       <r>  -21.8514    1.0000 </r>
       <r>  -21.8092    1.0000 </r>
       <r>  -21.7190    1.0000 </r>
       <r>  -21.3248    1.0000 </r>
       <r>  -21.1253    1.0000 </r>
       <r>  -21.0660    1.0000 </r>
       <r>  -20.9904    1.0000 </r>
       <r>  -20.6138    1.0000 </r>
       <r>  -20.5323    1.0000 </r>
       <r>  -20.4920    1.0000 </r>
       <r>  -20.2924    1.0000 </r>
       <r>  -20.2267    1.0000 </r>
       <r>  -20.1444    1.0000 </r>
       <r>  -20.0624    1.0000 </r>
       <r>  -19.8908    1.0000 </r>
       <r>  -19.8589    1.0000 </r>
       <r>  -19.5378    1.0000 </r>
       <r>  -19.4725    1.0000 </r>
       <r>  -19.1126    1.0000 </r>
       <r>  -19.0765    1.0000 </r>
       <r>  -18.8617    1.0000 </r>
       <r>  -18.7227    1.0000 </r>
       <r>  -18.5796    1.0000 </r>
       <r>  -18.5064    1.0000 </r>
       <r>  -18.2852    1.0000 </r>
       <r>  -18.1692    1.0000 </r>
       <r>  -18.0832    1.0000 </r>
       <r>  -18.0471    1.0000 </r>
       <r>  -18.0168    1.0000 </r>
       <r>  -17.8516    1.0000 </r>
       <r>  -17.7617    1.0000 </r>
       <r>  -17.5069    1.0000 </r>
       <r>  -17.4085    1.0000 </r>
       <r>  -17.2999    1.0000 </r>
       <r>  -17.1583    1.0000 </r>
       <r>  -17.0594    1.0000 </r>
       <r>  -16.5859    1.0000 </r>
       <r>  -16.4004    1.0000 </r>
       <r>  -16.1888    1.0000 </r>
       <r>  -16.0807    1.0000 </r>
       <r>  -15.8674    1.0000 </r>
       <r>  -15.7782    1.0000 </r>
       <r>  -15.6599    1.0000 </r>
       <r>  -15.5627    1.0000 </r>
       <r>  -15.3478    1.0000 </r>
       <r>  -15.3089    1.0000 </r>
       <r>  -15.2189    1.0000 </r>
       <r>  -15.1194    1.0000 </r>
       <r>  -15.0975    1.0000 </r>
       <r>  -14.9899    1.0000 </r>
       <r>  -14.9662    1.0000 </r>
       <r>  -14.9269    1.0000 </r>
       <r>  -14.7803    1.0000 </r>
       <r>  -14.5773    1.0000 </r>
       <r>  -14.3650    1.0000 </r>
       <r>  -14.3053    1.0000 </r>
       <r>  -14.1443    1.0000 </r>
       <r>  -13.9358    1.0000 </r>
       <r>  -13.8453    1.0000 </r>
       <r>  -13.3490    1.0000 </r>
       <r>  -13.2265    1.0000 </r>
       <r>  -13.1949    1.0000 </r>
       <r>  -13.1756    1.0000 </r>
       <r>  -12.9507    1.0000 </r>
       <r>  -12.8190    1.0000 </r>
       <r>  -12.7753    1.0000 </r>
       <r>  -12.7415    1.0000 </r>
       <r>  -12.6741    1.0000 </r>
       <r>  -12.5291    1.0000 </r>
       <r>  -12.3998    1.0000 </r>
       <r>  -12.2958    1.0000 </r>
       <r>  -12.1784    1.0000 </r>
       <r>  -12.1103    1.0000 </r>
       <r>  -12.0404    1.0000 </r>
       <r>  -11.9185    1.0000 </r>
       <r>  -11.7333    1.0000 </r>
       <r>  -11.5951    1.0000 </r>
       <r>  -11.5048    1.0000 </r>
       <r>  -11.3331    1.0000 </r>
       <r>  -11.2828    1.0000 </r>
       <r>  -11.2306    1.0000 </r>
       <r>  -11.0901    1.0000 </r>
       <r>  -11.0384    1.0000 </r>
       <r>  -10.9839    1.0000 </r>
       <r>  -10.9495    1.0000 </r>
       <r>  -10.8972    1.0000 </r>
       <r>  -10.8622    1.0000 </r>
       <r>  -10.8384    1.0000 </r>
       <r>  -10.7704    1.0000 </r>
       <r>  -10.6985    1.0000 </r>
       <r>  -10.6378    1.0000 </r>
       <r>  -10.5617    1.0000 </r>
       <r>  -10.5074    1.0000 </r>
       <r>  -10.4572    1.0000 </r>
       <r>  -10.4271    1.0000 </r>
       <r>  -10.3706    1.0000 </r>
       <r>  -10.3231    1.0000 </r>
       <r>  -10.2507    1.0000 </r>
       <r>  -10.1040    1.0000 </r>
       <r>  -10.0731    1.0000 </r>
       <r>  -10.0257    1.0000 </r>
       <r>   -9.9908    1.0000 </r>
       <r>   -9.9387    1.0000 </r>
       <r>   -9.8914    1.0000 </r>
       <r>   -9.7969    1.0000 </r>
       <r>   -9.7671    1.0000 </r>
       <r>   -9.6743    1.0000 </r>
       <r>   -9.6623    1.0000 </r>
       <r>   -9.6124    1.0000 </r>
       <r>   -9.5746    1.0000 </r>
       <r>   -9.5305    1.0000 </r>
       <r>   -9.4760    1.0000 </r>
       <r>   -9.4604    1.0000 </r>
       <r>   -9.4246    1.0000 </r>
       <r>   -9.3320    1.0000 </r>
       <r>   -9.2939    1.0000 </r>
       <r>   -9.1676    1.0000 </r>
       <r>   -9.0020    1.0000 </r>
       <r>   -8.9037    1.0000 </r>
       <r>   -8.8479    1.0000 </r>
       <r>   -8.8050    1.0000 </r>
       <r>   -8.7410    1.0000 </r>
       <r>   -8.7157    1.0000 </r>
       <r>   -8.7008    1.0000 </r>
       <r>   -8.6431    1.0000 </r>
       <r>   -8.5742    1.0000 </r>
       <r>   -8.5245    1.0000 </r>
       <r>   -8.4934    1.0000 </r>
       <r>   -8.4057    1.0000 </r>
       <r>   -8.3198    1.0000 </r>
       <r>   -8.2801    1.0000 </r>
       <r>   -8.1891    1.0000 </r>
       <r>   -8.1531    1.0000 </r>
       <r>   -8.1002    1.0000 </r>
       <r>   -8.0710    1.0000 </r>
       <r>   -8.0441    1.0000 </r>
       <r>   -7.9920    1.0000 </r>
       <r>   -7.9433    1.0000 </r>
       <r>   -7.8489    1.0000 </r>
       <r>   -7.7725    1.0000 </r>
       <r>   -7.7154    1.0000 </r>
       <r>   -7.6602    1.0000 </r>
       <r>   -7.5376    1.0000 </r>
       <r>   -7.4720    1.0000 </r>
       <r>   -7.3847    1.0000 </r>
       <r>   -7.3392    1.0000 </r>
       <r>   -7.2938    1.0000 </r>
       <r>   -7.1874    1.0000 </r>
       <r>   -7.0160    1.0000 </r>
       <r>   -6.9725    1.0000 </r>
       <r>   -6.9382    1.0000 </r>
       <r>   -6.7687    1.0000 </r>
       <r>   -6.6766    1.0000 </r>
       <r>   -6.6069    1.0000 </r>
       <r>   -6.5572    1.0000 </r>
       <r>   -6.4968    1.0000 </r>
       <r>   -6.2731    1.0000 </r>
       <r>   -6.1518    1.0000 </r>
       <r>   -6.1031    1.0000 </r>
       <r>   -6.0295    1.0000 </r>
       <r>   -5.9826    1.0000 </r>
       <r>   -5.8853    1.0000 </r>
       <r>   -5.7865    1.0000 </r>
       <r>   -5.7453    1.0000 </r>
       <r>   -5.6991    1.0000 </r>
       <r>   -5.5503    1.0000 </r>
       <r>   -5.5226    1.0000 </r>
       <r>   -5.2006    1.0000 </r>
       <r>   -5.1263    1.0000 </r>
       <r>   -4.7319    1.0000 </r>
       <r>   -4.7006    1.0000 </r>
       <r>   -4.5415    1.0000 </r>
       <r>   -4.4710    1.0000 </r>
       <r>   -4.4295    1.0000 </r>
       <r>   -3.5063    0.9948 </r>
       <r>   -2.9078    0.0474 </r>
       <r>   -2.5158    0.0000 </r>
       <r>   -2.0836    0.0000 </r>
       <r>   -2.0253    0.0000 </r>
       <r>   -1.5293    0.0000 </r>
       <r>   -1.4616    0.0000 </r>
       <r>   -1.4012    0.0000 </r>
       <r>   -1.3560    0.0000 </r>
       <r>   -1.3044    0.0000 </r>
       <r>   -1.2809    0.0000 </r>
       <r>   -1.0676    0.0000 </r>
       <r>   -1.0134    0.0000 </r>
       <r>   -0.9512    0.0000 </r>
       <r>   -0.9058    0.0000 </r>
       <r>   -0.7338    0.0000 </r>
       <r>   -0.4136    0.0000 </r>
       <r>   -0.1767    0.0000 </r>
       <r>   -0.1296    0.0000 </r>
       <r>   -0.0287    0.0000 </r>
       <r>    0.0526    0.0000 </r>
       <r>    0.0896    0.0000 </r>
       <r>    0.1959    0.0000 </r>
       <r>    0.2576    0.0000 </r>
       <r>    0.3498    0.0000 </r>
       <r>    0.3722    0.0000 </r>
       <r>    0.7736    0.0000 </r>
       <r>    0.8014    0.0000 </r>
       <r>    0.8479    0.0000 </r>
       <r>    1.0431    0.0000 </r>
       <r>    1.0619    0.0000 </r>
       <r>    1.0822    0.0000 </r>
       <r>    1.1201    0.0000 </r>
       <r>    1.1383    0.0000 </r>
       <r>    1.2641    0.0000 </r>
       <r>    1.2917    0.0000 </r>
       <r>    1.2986    0.0000 </r>
       <r>    1.3585    0.0000 </r>
       <r>    1.3714    0.0000 </r>
       <r>    1.4067    0.0000 </r>
       <r>    1.4482    0.0000 </r>
       <r>    1.4532    0.0000 </r>
       <r>    1.4684    0.0000 </r>
       <r>    1.5471    0.0000 </r>
       <r>    1.6003    0.0000 </r>
       <r>    1.6171    0.0000 </r>
       <r>    1.6857    0.0000 </r>
       <r>    1.7097    0.0000 </r>
       <r>    1.7294    0.0000 </r>
      </set>
      <set comment="kpoint 3">
       <r>  -22.9624    1.0000 </r>
       <r>  -22.7699    1.0000 </r>
       <r>  -22.7179    1.0000 </r>
       <r>  -22.6653    1.0000 </r>
       <r>  -22.6061    1.0000 </r>
       <r>  -22.5856    1.0000 </r>
       <r>  -22.3211    1.0000 </r>
       <r>  -22.2872    1.0000 </r>
       <r>  -22.2597    1.0000 </r>
       <r>  -22.1583    1.0000 </r>
       <r>  -21.7915    1.0000 </r>
       <r>  -21.6820    1.0000 </r>
       <r>  -21.5726    1.0000 </r>
       <r>  -21.5328    1.0000 </r>
       <r>  -20.9224    1.0000 </r>
       <r>  -20.8262    1.0000 </r>
       <r>  -20.7389    1.0000 </r>
       <r>  -20.6647    1.0000 </r>
       <r>  -19.9370    1.0000 </r>
       <r>  -19.8448    1.0000 </r>
       <r>  -19.6477    1.0000 </r>
       <r>  -19.5590    1.0000 </r>
       <r>  -19.5492    1.0000 </r>
       <r>  -19.5020    1.0000 </r>
       <r>  -19.4136    1.0000 </r>
       <r>  -19.3760    1.0000 </r>
       <r>  -19.2975    1.0000 </r>
       <r>  -19.2234    1.0000 </r>
       <r>  -19.1212    1.0000 </r>
       <r>  -19.0413    1.0000 </r>
       <r>  -18.9717    1.0000 </r>
       <r>  -18.9089    1.0000 </r>
       <r>  -18.6594    1.0000 </r>
       <r>  -18.6145    1.0000 </r>
       <r>  -18.4775    1.0000 </r>
       <r>  -18.4252    1.0000 </r>
       <r>  -18.3413    1.0000 </r>
       <r>  -18.2717    1.0000 </r>
       <r>  -18.1844    1.0000 </r>
       <r>  -18.1189    1.0000 </r>
       <r>  -17.7684    1.0000 </r>
       <r>  -17.7054    1.0000 </r>
       <r>  -17.6733    1.0000 </r>
       <r>  -17.6051    1.0000 </r>
       <r>  -16.9931    1.0000 </r>
       <r>  -16.8327    1.0000 </r>
       <r>  -16.3079    1.0000 </r>
       <r>  -16.2074    1.0000 </r>
       <r>  -16.0636    1.0000 </r>
       <r>  -15.9625    1.0000 </r>
       <r>  -15.9449    1.0000 </r>
       <r>  -15.8630    1.0000 </r>
       <r>  -15.3294    1.0000 </r>
       <r>  -15.2756    1.0000 </r>
       <r>  -15.1183    1.0000 </r>
       <r>  -15.0399    1.0000 </r>
       <r>  -14.8465    1.0000 </r>
       <r>  -14.8064    1.0000 </r>
       <r>  -14.7172    1.0000 </r>
       <r>  -14.6677    1.0000 </r>
       <r>  -14.0422    1.0000 </r>
       <r>  -13.9493    1.0000 </r>
       <r>  -13.8343    1.0000 </r>
       <r>  -13.7623    1.0000 </r>
       <r>  -13.7001    1.0000 </r>
       <r>  -13.6514    1.0000 </r>
       <r>  -13.6397    1.0000 </r>
       <r>  -13.6036    1.0000 </r>
       <r>  -13.5666    1.0000 </r>
       <r>  -13.5419    1.0000 </r>
       <r>  -13.5306    1.0000 </r>
       <r>  -13.4477    1.0000 </r>
       <r>  -13.3840    1.0000 </r>
       <r>  -13.3393    1.0000 </r>
       <r>  -13.1097    1.0000 </r>
       <r>  -13.0448    1.0000 </r>
       <r>  -12.3931    1.0000 </r>
       <r>  -12.3439    1.0000 </r>
       <r>  -12.1598    1.0000 </r>
       <r>  -12.1185    1.0000 </r>
       <r>  -12.0876    1.0000 </r>
       <r>  -12.0411    1.0000 </r>
       <r>  -11.9699    1.0000 </r>
       <r>  -11.9288    1.0000 </r>
       <r>  -11.8784    1.0000 </r>
       <r>  -11.8178    1.0000 </r>
       <r>  -11.7796    1.0000 </r>
       <r>  -11.7553    1.0000 </r>
       <r>  -11.6856    1.0000 </r>
       <r>  -11.5625    1.0000 </r>
       <r>  -11.3735    1.0000 </r>
       <r>  -11.2630    1.0000 </r>
       <r>  -11.1851    1.0000 </r>
       <r>  -11.1025    1.0000 </r>
       <r>  -11.0508    1.0000 </r>
       <r>  -10.9732    1.0000 </r>
       <r>  -10.7667    1.0000 </r>
       <r>  -10.7232    1.0000 </r>
       <r>  -10.6929    1.0000 </r>
       <r>  -10.6440    1.0000 </r>
       <r>  -10.5932    1.0000 </r>
       <r>  -10.5496    1.0000 </r>
       <r>  -10.5268    1.0000 </r>
       <r>  -10.5068    1.0000 </r>
       <r>  -10.4661    1.0000 </r>
       <r>  -10.4289    1.0000 </r>
       <r>  -10.3507    1.0000 </r>
       <r>  -10.2969    1.0000 </r>
       <r>  -10.2482    1.0000 </r>
       <r>  -10.2232    1.0000 </r>
       <r>  -10.1733    1.0000 </r>
       <r>  -10.1583    1.0000 </r>
       <r>  -10.1283    1.0000 </r>
       <r>  -10.1049    1.0000 </r>
       <r>  -10.0612    1.0000 </r>
[...]
       <r>   -22.6824    14.5634     7.0623 </r>
       <r>   -22.5858    16.3895     8.6453 </r>
       <r>   -22.4892    15.8739    10.1786 </r>
       <r>   -22.3926    14.0617    11.5368 </r>
       <r>   -22.2961    13.3866    12.8298 </r>
       <r>   -22.1995    13.9517    14.1774 </r>
       <r>   -22.1029    14.2782    15.5565 </r>
       <r>   -22.0063    13.8574    16.8950 </r>
       <r>   -21.9097    13.4901    18.1980 </r>
       <r>   -21.8131    13.6297    19.5145 </r>
       <r>   -21.7165    13.5082    20.8193 </r>
       <r>   -21.6199    12.6578    22.0419 </r>
       <r>   -21.5233    11.7441    23.1763 </r>
       <r>   -21.4267    11.3472    24.2723 </r>
       <r>   -21.3302    11.6941    25.4018 </r>
       <r>   -21.2336    13.1843    26.6753 </r>
       <r>   -21.1370    15.5899    28.1811 </r>
       <r>   -21.0404    17.0481    29.8278 </r>
       <r>   -20.9438    15.8650    31.3602 </r>
       <r>   -20.8472    13.1907    32.6343 </r>
       <r>   -20.7506    11.6546    33.7600 </r>
       <r>   -20.6540    12.0930    34.9281 </r>
       <r>   -20.5574    13.0989    36.1933 </r>
       <r>   -20.4608    13.2507    37.4732 </r>
       <r>   -20.3643    12.9430    38.7234 </r>
       <r>   -20.2677    13.3201    40.0100 </r>
       <r>   -20.1711    14.3015    41.3913 </r>
       <r>   -20.0745    15.0663    42.8466 </r>
       <r>   -19.9779    15.3309    44.3274 </r>
       <r>   -19.8813    14.9167    45.7682 </r>
       <r>   -19.7847    13.6687    47.0885 </r>
       <r>   -19.6881    12.9484    48.3392 </r>
       <r>   -19.5915    14.3561    49.7258 </r>
       <r>   -19.4949    16.2690    51.2972 </r>
       <r>   -19.3984    15.7504    52.8186 </r>
       <r>   -19.3018    13.4992    54.1225 </r>
       <r>   -19.2052    12.6529    55.3446 </r>
       <r>   -19.1086    13.8019    56.6777 </r>
       <r>   -19.0120    14.7734    58.1047 </r>
       <r>   -18.9154    14.4916    59.5044 </r>
       <r>   -18.8188    14.0361    60.8602 </r>
       <r>   -18.7222    14.5154    62.2622 </r>
       <r>   -18.6256    15.7806    63.7865 </r>
       <r>   -18.5290    16.7183    65.4013 </r>
       <r>   -18.4325    16.5748    67.0023 </r>
       <r>   -18.3359    16.1136    68.5587 </r>
       <r>   -18.2393    16.6245    70.1644 </r>
       <r>   -18.1427    17.6836    71.8725 </r>
       <r>   -18.0461    17.3469    73.5480 </r>
       <r>   -17.9495    15.1137    75.0079 </r>
       <r>   -17.8529    12.9952    76.2631 </r>
       <r>   -17.7563    12.4353    77.4642 </r>
       <r>   -17.6597    12.5378    78.6752 </r>
       <r>   -17.5631    12.3457    79.8677 </r>
       <r>   -17.4666    12.0074    81.0275 </r>
       <r>   -17.3700    11.6475    82.1525 </r>
       <r>   -17.2734    11.2557    83.2397 </r>
       <r>   -17.1768    11.1039    84.3122 </r>
       <r>   -17.0802    11.1590    85.3901 </r>
       <r>   -16.9836    10.9627    86.4490 </r>
       <r>   -16.8870    10.5835    87.4712 </r>
       <r>   -16.7904    10.6908    88.5039 </r>
       <r>   -16.6938    11.5898    89.6233 </r>
       <r>   -16.5972    13.0263    90.8815 </r>
       <r>   -16.5007    14.5388    92.2858 </r>
       <r>   -16.4041    15.5940    93.7921 </r>
       <r>   -16.3075    15.9599    95.3336 </r>
       <r>   -16.2109    16.0502    96.8839 </r>
       <r>   -16.1143    16.2297    98.4516 </r>
       <r>   -16.0177    16.2337   100.0196 </r>
       <r>   -15.9211    15.8304   101.5486 </r>
       <r>   -15.8245    15.0202   102.9994 </r>
       <r>   -15.7279    13.8075   104.3331 </r>
       <r>   -15.6313    12.5218   105.5426 </r>
       <r>   -15.5347    11.8517   106.6873 </r>
       <r>   -15.4382    12.8749   107.9309 </r>
       <r>   -15.3416    16.1117   109.4872 </r>
       <r>   -15.2450    19.9796   111.4170 </r>
       <r>   -15.1484    22.4698   113.5873 </r>
       <r>   -15.0518    23.1824   115.8265 </r>
       <r>   -14.9552    22.1065   117.9618 </r>
       <r>   -14.8586    19.2181   119.8181 </r>
       <r>   -14.7620    15.4225   121.3077 </r>
       <r>   -14.6654    11.8638   122.4537 </r>
       <r>   -14.5688     9.1856   123.3409 </r>
       <r>   -14.4723     8.0500   124.1185 </r>
       <r>   -14.3757     8.8749   124.9757 </r>
       <r>   -14.2791    10.7811   126.0170 </r>
       <r>   -14.1825    12.4360   127.2182 </r>
       <r>   -14.0859    13.6052   128.5324 </r>
       <r>   -13.9893    14.6563   129.9480 </r>
       <r>   -13.8927    15.6882   131.4633 </r>
       <r>   -13.7961    16.6484   133.0714 </r>
       <r>   -13.6995    17.4965   134.7614 </r>
       <r>   -13.6029    17.9431   136.4945 </r>
       <r>   -13.5064    17.8679   138.2204 </r>
       <r>   -13.4098    17.9645   139.9556 </r>
       <r>   -13.3132    18.7062   141.7624 </r>
       <r>   -13.2166    19.2763   143.6243 </r>
       <r>   -13.1200    18.5144   145.4126 </r>
       <r>   -13.0234    16.6042   147.0164 </r>
       <r>   -12.9268    15.1004   148.4750 </r>
       <r>   -12.8302    14.9716   149.9211 </r>
       <r>   -12.7336    15.2402   151.3931 </r>
       <r>   -12.6370    14.4233   152.7863 </r>
       <r>   -12.5405    13.1087   154.0525 </r>
       <r>   -12.4439    13.0572   155.3137 </r>
       <r>   -12.3473    14.6795   156.7315 </r>
       <r>   -12.2507    17.6852   158.4398 </r>
       <r>   -12.1541    21.5924   160.5254 </r>
       <r>   -12.0575    24.3841   162.8806 </r>
       <r>   -11.9609    24.3978   165.2372 </r>
       <r>   -11.8643    22.7976   167.4392 </r>
       <r>   -11.7677    21.1590   169.4830 </r>
       <r>   -11.6711    19.3418   171.3512 </r>
       <r>   -11.5746    17.1437   173.0071 </r>
       <r>   -11.4780    15.5449   174.5086 </r>
       <r>   -11.3814    15.9370   176.0480 </r>
       <r>   -11.2848    18.5095   177.8358 </r>
       <r>   -11.1882    22.0312   179.9638 </r>
       <r>   -11.0916    25.7248   182.4486 </r>
       <r>   -10.9950    29.2288   185.2718 </r>
       <r>   -10.8984    31.7110   188.3347 </r>
       <r>   -10.8018    33.2034   191.5419 </r>
       <r>   -10.7052    34.7367   194.8971 </r>
       <r>   -10.6087    36.6515   198.4373 </r>
       <r>   -10.5121    38.1533   202.1225 </r>
       <r>   -10.4155    38.2457   205.8166 </r>
       <r>   -10.3189    36.9677   209.3874 </r>
       <r>   -10.2223    35.6037   212.8263 </r>
       <r>   -10.1257    35.1843   216.2248 </r>
       <r>   -10.0291    34.9053   219.5963 </r>
       <r>    -9.9325    33.4308   222.8254 </r>
       <r>    -9.8359    31.8447   225.9013 </r>
       <r>    -9.7393    32.5620   229.0464 </r>
       <r>    -9.6428    35.7388   232.4984 </r>
       <r>    -9.5462    39.3413   236.2984 </r>
       <r>    -9.4496    41.8496   240.3407 </r>
       <r>    -9.3530    42.5522   244.4508 </r>
       <r>    -9.2564    40.2597   248.3395 </r>
       <r>    -9.1598    35.0463   251.7246 </r>
       <r>    -9.0632    30.2406   254.6456 </r>
       <r>    -8.9666    29.3639   257.4818 </r>
       <r>    -8.8700    32.3072   260.6024 </r>
       <r>    -8.7734    36.0458   264.0841 </r>
       <r>    -8.6768    37.4543   267.7018 </r>
       <r>    -8.5803    35.6383   271.1441 </r>
       <r>    -8.4837    32.4939   274.2827 </r>
       <r>    -8.3871    30.3830   277.2174 </r>
       <r>    -8.2905    29.7128   280.0873 </r>
       <r>    -8.1939    29.6603   282.9522 </r>
       <r>    -8.0973    29.4796   285.7997 </r>
       <r>    -8.0007    28.4202   288.5448 </r>
       <r>    -7.9041    26.7207   291.1257 </r>
       <r>    -7.8075    25.8350   293.6211 </r>
       <r>    -7.7109    26.3732   296.1685 </r>
       <r>    -7.6144    27.6160   298.8360 </r>
       <r>    -7.5178    28.9745   301.6346 </r>
       <r>    -7.4212    30.0644   304.5385 </r>
       <r>    -7.3246    29.8948   307.4261 </r>
       <r>    -7.2280    28.0945   310.1397 </r>
       <r>    -7.1314    26.1828   312.6687 </r>
       <r>    -7.0348    25.4891   315.1307 </r>
       <r>    -6.9382    25.2692   317.5715 </r>
       <r>    -6.8416    24.8460   319.9713 </r>
       <r>    -6.7450    24.9459   322.3809 </r>
       <r>    -6.6485    25.3508   324.8295 </r>
       <r>    -6.5519    24.5144   327.1974 </r>
       <r>    -6.4553    22.1217   329.3341 </r>
       <r>    -6.3587    19.8181   331.2483 </r>
       <r>    -6.2621    19.1604   333.0990 </r>
       <r>    -6.1655    20.3038   335.0602 </r>
       <r>    -6.0689    22.8152   337.2639 </r>
       <r>    -5.9723    25.6852   339.7448 </r>
       <r>    -5.8757    27.2047   342.3725 </r>
       <r>    -5.7791    26.4400   344.9264 </r>
       <r>    -5.6826    23.5943   347.2053 </r>
       <r>    -5.5860    19.2035   349.0602 </r>
       <r>    -5.4894    14.1362   350.4256 </r>
       <r>    -5.3928    10.2405   351.4148 </r>
       <r>    -5.2962     9.6264   352.3446 </r>
       <r>    -5.1996    11.6043   353.4654 </r>
       <r>    -5.1030    12.5714   354.6797 </r>
       <r>    -5.0064    10.8795   355.7306 </r>
       <r>    -4.9098     8.7543   356.5761 </r>
       <r>    -4.8132     8.6145   357.4082 </r>
       <r>    -4.7167    10.4372   358.4163 </r>
       <r>    -4.6201    12.9059   359.6629 </r>
       <r>    -4.5235    14.9478   361.1067 </r>
       <r>    -4.4269    15.1295   362.5681 </r>
       <r>    -4.3303    12.2582   363.7521 </r>
       <r>    -4.2337     7.6597   364.4920 </r>
       <r>    -4.1371     3.9551   364.8740 </r>
       <r>    -4.0405     2.2538   365.0917 </r>
       <r>    -3.9439     2.0096   365.2858 </r>
       <r>    -3.8473     2.3868   365.5163 </r>
       <r>    -3.7508     3.1102   365.8168 </r>
       <r>    -3.6542     4.0518   366.2081 </r>
       <r>    -3.5576     4.6459   366.6569 </r>
       <r>    -3.4610     4.3264   367.0747 </r>
       <r>    -3.3644     3.3271   367.3961 </r>
       <r>    -3.2678     2.6137   367.6486 </r>
       <r>    -3.1712     2.7498   367.9142 </r>
       <r>    -3.0746     3.4686   368.2492 </r>
       <r>    -2.9780     4.3554   368.6699 </r>
       <r>    -2.8814     5.1460   369.1669 </r>
       <r>    -2.7849     5.8163   369.7287 </r>
       <r>    -2.6883     6.6942   370.3753 </r>
       <r>    -2.5917     7.7889   371.1276 </r>
       <r>    -2.4951     8.1117   371.9112 </r>
       <r>    -2.3985     6.8837   372.5761 </r>
       <r>    -2.3019     5.4264   373.1002 </r>
       <r>    -2.2053     5.7304   373.6537 </r>
       <r>    -2.1087     7.3085   374.3596 </r>
       <r>    -2.0121     7.7613   375.1093 </r>
       <r>    -1.9155     6.4062   375.7281 </r>
       <r>    -1.8190     5.4516   376.2546 </r>
       <r>    -1.7224     7.1928   376.9494 </r>
       <r>    -1.6258    11.7726   378.0865 </r>
       <r>    -1.5292    17.6709   379.7933 </r>
       <r>    -1.4326    22.5042   381.9670 </r>
       <r>    -1.3360    23.9143   384.2769 </r>
       <r>    -1.2394    21.7896   386.3816 </r>
       <r>    -1.1428    19.2004   388.2361 </r>
       <r>    -1.0462    18.6441   390.0370 </r>
       <r>    -0.9496    18.4680   391.8208 </r>
       <r>    -0.8530    16.2855   393.3938 </r>
       <r>    -0.7565    13.2203   394.6708 </r>
       <r>    -0.6599    11.7410   395.8048 </r>
       <r>    -0.5633    12.0608   396.9698 </r>
       <r>    -0.4667    12.3959   398.1671 </r>
       <r>    -0.3701    11.8230   399.3091 </r>
       <r>    -0.2735    11.9657   400.4649 </r>
       <r>    -0.1769    14.5489   401.8701 </r>
       <r>    -0.0803    18.2374   403.6317 </r>
       <r>     0.0163    20.5104   405.6128 </r>
       <r>     0.1129    20.9866   407.6399 </r>
       <r>     0.2094    20.7989   409.6489 </r>
       <r>     0.3060    20.5996   411.6386 </r>
       <r>     0.4026    19.8985   413.5606 </r>
       <r>     0.4992    18.6984   415.3667 </r>
       <r>     0.5958    19.1916   417.2204 </r>
       <r>     0.6924    22.9720   419.4393 </r>
       <r>     0.7890    27.9928   422.1431 </r>
       <r>     0.8856    31.3267   425.1689 </r>
       <r>     0.9822    33.3188   428.3872 </r>
       <r>     1.0788    36.3035   431.8937 </r>
       <r>     1.1753    41.0194   435.8558 </r>
       <r>     1.2719    46.4476   440.3422 </r>
       <r>     1.3685    50.3695   445.2074 </r>
       <r>     1.4651    50.3548   450.0712 </r>
       <r>     1.5617    46.0570   454.5198 </r>
       <r>     1.6583    38.7586   458.2635 </r>
       <r>     1.7549    29.1800   461.0820 </r>
       <r>     1.8515    18.1565   462.8357 </r>
       <r>     1.9481     8.5127   463.6580 </r>
       <r>     2.0447     2.8099   463.9294 </r>
       <r>     2.1412     0.6280   463.9901 </r>
       <r>     2.2378     0.0932   463.9991 </r>
       <r>     2.3344     0.0091   463.9999 </r>
       <r>     2.4310     0.0006   464.0000 </r>
       <r>     2.5276     0.0000   464.0000 </r>
       <r>     2.6242     0.0000   464.0000 </r>
       <r>     2.7208     0.0000   464.0000 </r>
       <r>     2.8174     0.0000   464.0000 </r>
       <r>     2.9140     0.0000   464.0000 </r>
       <r>     3.0106     0.0000   464.0000 </r>
       <r>     3.1071     0.0000   464.0000 </r>
       <r>     3.2037     0.0000   464.0000 </r>
       <r>     3.3003     0.0000   464.0000 </r>
       <r>     3.3969     0.0000   464.0000 </r>
       <r>     3.4935     0.0000   464.0000 </r>
       <r>     3.5901     0.0000   464.0000 </r>
       <r>     3.6867     0.0000   464.0000 </r>
       <r>     3.7833     0.0000   464.0000 </r>
      </set>
     </set>
    </array>
   </total>
  </dos>
 </calculation>
 <structure name="finalpos" >
  <crystal>
   <varray name="basis" >
    <v>      28.05000000       0.00000000       0.00000000 </v>
    <v>       0.00000000       8.10000000       0.00000000 </v>
    <v>       0.00000000       0.00000000      33.50000000 </v>
   </varray>
   <i name="volume">   7611.36750000 </i>
   <varray name="rec_basis" >
    <v>       0.03565062       0.00000000       0.00000000 </v>
    <v>       0.00000000       0.12345679       0.00000000 </v>
    <v>       0.00000000       0.00000000       0.02985075 </v>
   </varray>
  </crystal>
  <varray name="positions" >
   <v>       0.48607487       0.09767346       0.88355522 </v>
   <v>       0.48638859       0.26672840       0.88024776 </v>
   <v>       0.52875936       0.01843877       0.88450149 </v>
   <v>       0.52947950       0.35081358       0.87872836 </v>
   <v>       0.57272014       0.10353778       0.88109254 </v>
   <v>       0.57454902       0.27417037       0.87759403 </v>
   <v>       0.61715865       0.02121383       0.88745075 </v>
   <v>       0.61896970       0.35146173       0.88174925 </v>
   <v>       0.66327986       0.10205741       0.88871343 </v>
   <v>       0.66284135       0.27073457       0.88845970 </v>
   <v>       0.70749733       0.01149595       0.89607761 </v>
   <v>       0.70697326       0.34908889       0.89702388 </v>
   <v>       0.75049554       0.09303012       0.90513731 </v>
   <v>       0.75195009       0.26083580       0.90278507 </v>
   <v>       0.78989305       0.02158605       0.92154328 </v>
   <v>       0.79272727       0.35072593       0.91453433 </v>
   <v>       0.83630303       0.10013543       0.92578806 </v>
   <v>       0.83495187       0.26738025       0.92427463 </v>
   <v>       0.87668093       0.01532741       0.93895821 </v>
   <v>       0.87809269       0.34833580       0.93480597 </v>
   <v>       0.92063102       0.09943198       0.94500597 </v>
   <v>       0.91973619       0.26643086       0.94798209 </v>
   <v>       0.96463458       0.01355765       0.95098507 </v>
   <v>       0.96264528       0.34441481       0.96174030 </v>
   <v>       0.00758916       0.09756185       0.95965672 </v>
   <v>       0.00434332       0.26669012       0.96893134 </v>
   <v>       0.04986275       0.01774617       0.96975224 </v>
   <v>       0.04702353       0.34763086       0.97846567 </v>
   <v>       0.09495865       0.10093049       0.97450746 </v>
   <v>       0.09521070       0.26999383       0.97659104 </v>
   <v>       0.13974724       0.02081136       0.97907164 </v>
   <v>       0.13663280       0.35325062       0.97394627 </v>
   <v>       0.18254617       0.09591580       0.96882687 </v>
   <v>       0.18023458       0.26550864       0.96591642 </v>
   <v>       0.22760428       0.02012160       0.96415522 </v>
   <v>       0.22362032       0.35107531       0.95928060 </v>
   <v>       0.26975116       0.09659728       0.94981194 </v>
   <v>       0.26716150       0.26237778       0.94709254 </v>
   <v>       0.31253512       0.01710198       0.93774030 </v>
   <v>       0.30755579       0.35463827       0.93167164 </v>
   <v>       0.35042602       0.09942481       0.92054925 </v>
   <v>       0.34962068       0.27314321       0.91897612 </v>
   <v>       0.39364706       0.02324753       0.90738507 </v>
   <v>       0.39191800       0.34735802       0.90704478 </v>
   <v>       0.43240642       0.10551963       0.89222388 </v>
   <v>       0.43418895       0.27782346       0.88973134 </v>
   <v>       0.48515865       0.59550000       0.89611343 </v>
   <v>       0.48527629       0.76914815       0.89600597 </v>
   <v>       0.52988948       0.51713704       0.88606866 </v>
   <v>       0.52968271       0.84639753       0.89255522 </v>
   <v>       0.57268449       0.59748889       0.89418507 </v>
   <v>       0.57316221       0.76894568       0.89696418 </v>
   <v>       0.61676292       0.51446667       0.89204776 </v>
   <v>       0.61795365       0.85217654       0.89495522 </v>
   <v>       0.66026738       0.59647901       0.90081791 </v>
   <v>       0.65955080       0.76326914       0.90295224 </v>
   <v>       0.70475223       0.51653210       0.90435821 </v>
   <v>       0.70594296       0.84667531       0.90484478 </v>
   <v>       0.74806061       0.59641481       0.91469254 </v>
   <v>       0.74719430       0.76667284       0.91838209 </v>
   <v>       0.79182175       0.51710000       0.91914030 </v>
   <v>       0.78884492       0.85258642       0.92473731 </v>
   <v>       0.83322638       0.59966667       0.93316418 </v>
   <v>       0.83170053       0.76476420       0.93508955 </v>
   <v>       0.87624955       0.51533827       0.94037015 </v>
   <v>       0.87430303       0.84415556       0.94420597 </v>
   <v>       0.91914795       0.59531358       0.95211642 </v>
   <v>       0.91967914       0.76204198       0.95189254 </v>
   <v>       0.96208200       0.51338889       0.96441791 </v>
   <v>       0.96505169       0.84295802       0.95322388 </v>
   <v>       0.00523647       0.59657160       0.97008358 </v>
   <v>       0.00723658       0.76287037       0.96281791 </v>
   <v>       0.04911622       0.51806420       0.97691045 </v>
   <v>       0.05112620       0.84713580       0.96885970 </v>
   <v>       0.09473583       0.60078889       0.97952836 </v>
   <v>       0.09413119       0.76654444       0.97802388 </v>
   <v>       0.13864920       0.51980494       0.97675821 </v>
   <v>       0.14019822       0.85438519       0.98221493 </v>
   <v>       0.18189519       0.60284815       0.97157015 </v>
   <v>       0.18427986       0.77233333       0.97547463 </v>
   <v>       0.22608913       0.51689259       0.96515821 </v>
   <v>       0.22980071       0.85214938       0.96772239 </v>
   <v>       0.26920463       0.59780741       0.95530149 </v>
   <v>       0.27140428       0.76394938       0.95522090 </v>
   <v>       0.31003316       0.51877901       0.93849254 </v>
   <v>       0.31372906       0.84796420       0.94277015 </v>
   <v>       0.35341854       0.59984444       0.92743284 </v>
   <v>       0.35464349       0.76459136       0.92875522 </v>
   <v>       0.39238146       0.52336049       0.90938806 </v>
   <v>       0.39449554       0.85615432       0.91437313 </v>
   <v>       0.43537968       0.59867531       0.90694627 </v>
   <v>       0.43677718       0.77109012       0.90690746 </v>
  </varray>
 </structure>
</modeling>
