  92  92   0   0
  0.8273226E+02  0.2805000E-08  0.8100000E-09  0.3350000E-08  0.5000000E-15
   1.0000000000000000E-004
  CAR 
 unknown system                          
      3.77209515    -25.14003172  301     -3.17802169      1.00000000
    -25.140  0.0000E+00  0.0000E+00
    -25.044  0.0000E+00  0.0000E+00
    -24.947  0.0000E+00  0.0000E+00
    -24.851  0.0000E+00  0.0000E+00
    -24.755  0.0000E+00  0.0000E+00
    -24.658  0.0000E+00  0.0000E+00
    -24.562  0.0000E+00  0.0000E+00
    -24.465  0.0000E+00  0.0000E+00
    -24.369  0.0000E+00  0.0000E+00
    -24.273  0.2880E-14  0.2776E-15
    -24.176  0.6149E-12  0.5954E-13
    -24.080  0.7938E-10  0.7710E-11
    -23.984  0.6524E-08  0.6365E-09
    -23.887  0.3424E-06  0.3364E-07
    -23.791  0.1154E-04  0.1145E-05
    -23.694  0.2511E-03  0.2535E-04
    -23.598  0.3565E-02  0.3690E-03
    -23.502  0.3341E-01  0.3589E-02
    -23.405  0.2099E+00  0.2382E-01
    -23.309  0.9009E+00  0.1106E+00
    -23.213  0.2704E+01  0.3712E+00
    -23.116  0.5843E+01  0.9343E+00
    -23.020  0.9451E+01  0.1845E+01
    -22.923  0.1207E+02  0.3008E+01
    -22.827  0.1315E+02  0.4275E+01
    -22.731  0.1365E+02  0.5591E+01
    -22.634  0.1470E+02  0.7008E+01
    -22.538  0.1580E+02  0.8530E+01
    -22.442  0.1553E+02  0.1003E+02
    -22.345  0.1410E+02  0.1139E+02
    -22.249  0.1322E+02  0.1266E+02
    -22.152  0.1369E+02  0.1398E+02
    -22.056  0.1465E+02  0.1539E+02
    -21.960  0.1510E+02  0.1685E+02
    -21.863  0.1466E+02  0.1826E+02
    -21.767  0.1355E+02  0.1957E+02
    -21.671  0.1279E+02  0.2080E+02
    -21.574  0.1261E+02  0.2201E+02
    -21.478  0.1195E+02  0.2317E+02
    -21.381  0.1111E+02  0.2424E+02
    -21.285  0.1184E+02  0.2538E+02
    -21.189  0.1448E+02  0.2677E+02
    -21.092  0.1699E+02  0.2841E+02
    -20.996  0.1712E+02  0.3006E+02
    -20.900  0.1499E+02  0.3150E+02
    -20.803  0.1268E+02  0.3273E+02
    -20.707  0.1183E+02  0.3387E+02
    -20.610  0.1244E+02  0.3507E+02
    -20.514  0.1355E+02  0.3637E+02
    -20.418  0.1413E+02  0.3773E+02
    -20.321  0.1385E+02  0.3907E+02
    -20.225  0.1332E+02  0.4035E+02
    -20.129  0.1352E+02  0.4166E+02
    -20.032  0.1468E+02  0.4307E+02
    -19.936  0.1564E+02  0.4458E+02
    -19.839  0.1507E+02  0.4603E+02
    -19.743  0.1353E+02  0.4733E+02
    -19.647  0.1332E+02  0.4862E+02
    -19.550  0.1512E+02  0.5007E+02
    -19.454  0.1643E+02  0.5166E+02
    -19.358  0.1527E+02  0.5313E+02
    -19.261  0.1330E+02  0.5441E+02
    -19.165  0.1287E+02  0.5565E+02
    -19.068  0.1391E+02  0.5699E+02
    -18.972  0.1486E+02  0.5842E+02
    -18.876  0.1489E+02  0.5986E+02
    -18.779  0.1462E+02  0.6127E+02
    -18.683  0.1510E+02  0.6272E+02
    -18.587  0.1621E+02  0.6429E+02
    -18.490  0.1665E+02  0.6589E+02
    -18.394  0.1596E+02  0.6743E+02
    -18.297  0.1536E+02  0.6891E+02
    -18.201  0.1602E+02  0.7045E+02
    -18.105  0.1712E+02  0.7210E+02
    -18.008  0.1676E+02  0.7372E+02
    -17.912  0.1481E+02  0.7515E+02
    -17.816  0.1333E+02  0.7643E+02
    -17.719  0.1308E+02  0.7769E+02
    -17.623  0.1269E+02  0.7891E+02
    -17.527  0.1190E+02  0.8006E+02
    -17.430  0.1185E+02  0.8120E+02
    -17.334  0.1224E+02  0.8238E+02
    -17.237  0.1180E+02  0.8352E+02
    -17.141  0.1076E+02  0.8456E+02
    -17.045  0.1017E+02  0.8554E+02
    -16.948  0.1017E+02  0.8652E+02
    -16.852  0.1031E+02  0.8751E+02
    -16.756  0.1063E+02  0.8853E+02
    -16.659  0.1161E+02  0.8965E+02
    -16.563  0.1305E+02  0.9091E+02
    -16.466  0.1414E+02  0.9228E+02
    -16.370  0.1499E+02  0.9372E+02
    -16.274  0.1633E+02  0.9529E+02
    -16.177  0.1791E+02  0.9702E+02
    -16.081  0.1840E+02  0.9879E+02
    -15.985  0.1716E+02  0.1004E+03
    -15.888  0.1535E+02  0.1019E+03
    -15.792  0.1405E+02  0.1033E+03
    -15.695  0.1314E+02  0.1045E+03
    -15.599  0.1242E+02  0.1057E+03
    -15.503  0.1239E+02  0.1069E+03
    -15.406  0.1399E+02  0.1083E+03
    -15.310  0.1736E+02  0.1100E+03
    -15.214  0.2077E+02  0.1120E+03
    -15.117  0.2253E+02  0.1141E+03
    -15.021  0.2259E+02  0.1163E+03
    -14.924  0.2132E+02  0.1184E+03
    -14.828  0.1863E+02  0.1202E+03
    -14.732  0.1486E+02  0.1216E+03
    -14.635  0.1127E+02  0.1227E+03
    -14.539  0.9140E+01  0.1236E+03
    -14.443  0.9017E+01  0.1244E+03
    -14.346  0.1017E+02  0.1254E+03
    -14.250  0.1120E+02  0.1265E+03
    -14.153  0.1184E+02  0.1276E+03
    -14.057  0.1287E+02  0.1289E+03
    -13.961  0.1454E+02  0.1303E+03
    -13.864  0.1621E+02  0.1318E+03
    -13.768  0.1736E+02  0.1335E+03
    -13.672  0.1788E+02  0.1352E+03
    -13.575  0.1792E+02  0.1370E+03
    -13.479  0.1796E+02  0.1387E+03
    -13.382  0.1846E+02  0.1405E+03
    -13.286  0.1919E+02  0.1423E+03
    -13.190  0.1897E+02  0.1441E+03
    -13.093  0.1720E+02  0.1458E+03
    -12.997  0.1544E+02  0.1473E+03
    -12.901  0.1526E+02  0.1488E+03
    -12.804  0.1582E+02  0.1503E+03
    -12.708  0.1544E+02  0.1518E+03
    -12.611  0.1400E+02  0.1531E+03
    -12.515  0.1279E+02  0.1544E+03
    -12.419  0.1313E+02  0.1556E+03
    -12.322  0.1542E+02  0.1571E+03
    -12.226  0.1916E+02  0.1589E+03
    -12.130  0.2282E+02  0.1611E+03
    -12.033  0.2441E+02  0.1635E+03
    -11.937  0.2356E+02  0.1658E+03
    -11.840  0.2180E+02  0.1679E+03
    -11.744  0.2029E+02  0.1698E+03
    -11.648  0.1884E+02  0.1716E+03
    -11.551  0.1720E+02  0.1733E+03
    -11.455  0.1611E+02  0.1749E+03
    -11.359  0.1653E+02  0.1764E+03
    -11.262  0.1849E+02  0.1782E+03
    -11.166  0.2174E+02  0.1803E+03
    -11.069  0.2620E+02  0.1828E+03
    -10.973  0.3071E+02  0.1858E+03
    -10.877  0.3342E+02  0.1890E+03
    -10.780  0.3396E+02  0.1923E+03
    -10.684  0.3385E+02  0.1956E+03
    -10.588  0.3512E+02  0.1989E+03
    -10.491  0.3794E+02  0.2026E+03
    -10.395  0.3957E+02  0.2064E+03
    -10.298  0.3779E+02  0.2101E+03
    -10.202  0.3465E+02  0.2134E+03
    -10.106  0.3331E+02  0.2166E+03
    -10.009  0.3346E+02  0.2198E+03
     -9.913  0.3340E+02  0.2231E+03
     -9.817  0.3373E+02  0.2263E+03
     -9.720  0.3555E+02  0.2297E+03
     -9.624  0.3787E+02  0.2334E+03
     -9.527  0.3953E+02  0.2372E+03
     -9.431  0.4056E+02  0.2411E+03
     -9.335  0.4053E+02  0.2450E+03
     -9.238  0.3825E+02  0.2487E+03
     -9.142  0.3386E+02  0.2520E+03
     -9.046  0.2999E+02  0.2548E+03
     -8.949  0.2950E+02  0.2577E+03
     -8.853  0.3273E+02  0.2608E+03
     -8.756  0.3710E+02  0.2644E+03
     -8.660  0.3865E+02  0.2681E+03
     -8.564  0.3617E+02  0.2716E+03
     -8.467  0.3249E+02  0.2748E+03
     -8.371  0.3033E+02  0.2777E+03
     -8.275  0.2920E+02  0.2805E+03
     -8.178  0.2819E+02  0.2832E+03
     -8.082  0.2801E+02  0.2859E+03
     -7.986  0.2866E+02  0.2887E+03
     -7.889  0.2897E+02  0.2915E+03
     -7.793  0.2855E+02  0.2942E+03
     -7.696  0.2795E+02  0.2969E+03
     -7.600  0.2795E+02  0.2996E+03
     -7.504  0.2876E+02  0.3024E+03
     -7.407  0.2946E+02  0.3052E+03
     -7.311  0.2894E+02  0.3080E+03
     -7.215  0.2736E+02  0.3106E+03
     -7.118  0.2595E+02  0.3131E+03
     -7.022  0.2550E+02  0.3156E+03
     -6.925  0.2552E+02  0.3181E+03
     -6.829  0.2519E+02  0.3205E+03
     -6.733  0.2504E+02  0.3229E+03
     -6.636  0.2538E+02  0.3253E+03
     -6.540  0.2453E+02  0.3277E+03
     -6.444  0.2189E+02  0.3298E+03
     -6.347  0.1990E+02  0.3317E+03
     -6.251  0.2013E+02  0.3337E+03
     -6.154  0.2176E+02  0.3358E+03
     -6.058  0.2422E+02  0.3381E+03
     -5.962  0.2656E+02  0.3407E+03
     -5.865  0.2655E+02  0.3432E+03
     -5.769  0.2374E+02  0.3455E+03
     -5.673  0.1999E+02  0.3474E+03
     -5.576  0.1665E+02  0.3490E+03
     -5.480  0.1347E+02  0.3503E+03
     -5.383  0.1077E+02  0.3514E+03
     -5.287  0.1013E+02  0.3524E+03
     -5.191  0.1155E+02  0.3535E+03
     -5.094  0.1229E+02  0.3547E+03
     -4.998  0.1083E+02  0.3557E+03
     -4.902  0.8959E+01  0.3566E+03
     -4.805  0.8611E+01  0.3574E+03
     -4.709  0.9911E+01  0.3583E+03
     -4.612  0.1241E+02  0.3595E+03
     -4.516  0.1506E+02  0.3610E+03
     -4.420  0.1541E+02  0.3625E+03
     -4.323  0.1203E+02  0.3636E+03
     -4.227  0.7179E+01  0.3643E+03
     -4.131  0.4108E+01  0.3647E+03
     -4.034  0.3163E+01  0.3650E+03
     -3.938  0.2874E+01  0.3653E+03
     -3.841  0.2739E+01  0.3656E+03
     -3.745  0.3179E+01  0.3659E+03
     -3.649  0.4030E+01  0.3663E+03
     -3.552  0.4528E+01  0.3667E+03
     -3.456  0.4238E+01  0.3671E+03
     -3.360  0.3473E+01  0.3674E+03
     -3.263  0.3002E+01  0.3677E+03
     -3.167  0.3130E+01  0.3680E+03
     -3.070  0.3576E+01  0.3684E+03
     -2.974  0.4278E+01  0.3688E+03
     -2.878  0.5387E+01  0.3693E+03
     -2.781  0.6899E+01  0.3700E+03
     -2.685  0.8522E+01  0.3708E+03
     -2.589  0.9124E+01  0.3717E+03
     -2.492  0.7623E+01  0.3724E+03
     -2.396  0.5245E+01  0.3729E+03
     -2.299  0.4670E+01  0.3734E+03
     -2.203  0.6455E+01  0.3740E+03
     -2.107  0.8069E+01  0.3748E+03
     -2.010  0.7288E+01  0.3755E+03
     -1.914  0.5464E+01  0.3760E+03
     -1.818  0.5794E+01  0.3766E+03
     -1.721  0.9508E+01  0.3775E+03
     -1.625  0.1516E+02  0.3789E+03
     -1.528  0.2049E+02  0.3809E+03
     -1.432  0.2361E+02  0.3832E+03
     -1.336  0.2356E+02  0.3855E+03
     -1.239  0.2136E+02  0.3875E+03
     -1.143  0.1925E+02  0.3894E+03
     -1.047  0.1783E+02  0.3911E+03
     -0.950  0.1618E+02  0.3926E+03
     -0.854  0.1427E+02  0.3940E+03
     -0.757  0.1318E+02  0.3953E+03
     -0.661  0.1328E+02  0.3966E+03
     -0.565  0.1334E+02  0.3979E+03
     -0.468  0.1203E+02  0.3990E+03
     -0.372  0.1063E+02  0.4000E+03
     -0.276  0.1190E+02  0.4012E+03
     -0.179  0.1567E+02  0.4027E+03
     -0.083  0.1875E+02  0.4045E+03
      0.014  0.1977E+02  0.4064E+03
      0.110  0.2043E+02  0.4084E+03
      0.206  0.2161E+02  0.4105E+03
      0.303  0.2167E+02  0.4125E+03
      0.399  0.1950E+02  0.4144E+03
      0.495  0.1718E+02  0.4161E+03
      0.592  0.1797E+02  0.4178E+03
      0.688  0.2247E+02  0.4200E+03
      0.785  0.2850E+02  0.4227E+03
      0.881  0.3344E+02  0.4259E+03
      0.977  0.3600E+02  0.4294E+03
      1.074  0.3700E+02  0.4330E+03
      1.170  0.3873E+02  0.4367E+03
      1.266  0.4274E+02  0.4408E+03
      1.363  0.4749E+02  0.4454E+03
      1.459  0.4962E+02  0.4502E+03
      1.555  0.4683E+02  0.4547E+03
      1.652  0.3916E+02  0.4585E+03
      1.748  0.2850E+02  0.4612E+03
      1.845  0.1724E+02  0.4629E+03
      1.941  0.8063E+01  0.4637E+03
      2.037  0.2717E+01  0.4639E+03
      2.134  0.6285E+00  0.4640E+03
      2.230  0.9695E-01  0.4640E+03
      2.326  0.9814E-02  0.4640E+03
      2.423  0.6461E-03  0.4640E+03
      2.519  0.2750E-04  0.4640E+03
      2.616  0.7540E-06  0.4640E+03
      2.712  0.1328E-07  0.4640E+03
      2.808  0.1498E-09  0.4640E+03
      2.905  0.1081E-11  0.4640E+03
      3.001  0.4032E-14  0.4640E+03
      3.097  0.0000E+00  0.4640E+03
      3.194  0.0000E+00  0.4640E+03
      3.290  0.0000E+00  0.4640E+03
      3.387  0.0000E+00  0.4640E+03
      3.483  0.0000E+00  0.4640E+03
      3.579  0.0000E+00  0.4640E+03
      3.676  0.0000E+00  0.4640E+03
      3.772  0.0000E+00  0.4640E+03
