       N       E                     dE             d eps       ncg     rms          rms(c)
DAV:   1     0.372269800175E+04    0.37227E+04   -0.11851E+05  1704   0.105E+03
DAV:   2     0.188590228443E+03   -0.35341E+04   -0.32718E+04  2144   0.239E+02
DAV:   3    -0.832847027888E+03   -0.10214E+04   -0.99786E+03  1792   0.135E+02
DAV:   4    -0.895004460805E+03   -0.62157E+02   -0.61173E+02  1712   0.431E+01
DAV:   5    -0.896526290646E+03   -0.15218E+01   -0.15005E+01  1776   0.651E+00    0.452E+01
DAV:   6    -0.847811103578E+03    0.48715E+02   -0.46709E+01  1576   0.125E+01    0.265E+01
DAV:   7    -0.829685675516E+03    0.18125E+02   -0.63996E+01  1568   0.142E+01    0.725E+00
DAV:   8    -0.829403159764E+03    0.28252E+00   -0.23593E+00  1592   0.325E+00    0.103E+00
DAV:   9    -0.829299067679E+03    0.10409E+00   -0.23973E-01  1672   0.924E-01    0.569E-01
DAV:  10    -0.829260467134E+03    0.38601E-01   -0.41790E-02  1728   0.402E-01    0.372E-01
DAV:  11    -0.829231040989E+03    0.29426E-01   -0.19301E-02  1568   0.232E-01    0.240E-01
DAV:  12    -0.829225288385E+03    0.57526E-02   -0.26135E-02  1568   0.231E-01    0.150E-01
DAV:  13    -0.829237314763E+03   -0.12026E-01   -0.85804E-03  1536   0.139E-01    0.829E-02
DAV:  14    -0.829253875690E+03   -0.16561E-01   -0.11117E-03  1600   0.628E-02    0.546E-02
DAV:  15    -0.829274493515E+03   -0.20618E-01   -0.17902E-03  1584   0.625E-02    0.302E-02
DAV:  16    -0.829282881258E+03   -0.83877E-02   -0.44199E-04  1600   0.358E-02    0.210E-02
DAV:  17    -0.829288567385E+03   -0.56861E-02   -0.40317E-04  1592   0.252E-02    0.102E-02
DAV:  18    -0.829290279779E+03   -0.17124E-02   -0.63839E-05  1624   0.112E-02    0.608E-03
DAV:  19    -0.829291343438E+03   -0.10637E-02   -0.36579E-05  1328   0.814E-03    0.358E-03
DAV:  20    -0.829291749409E+03   -0.40597E-03   -0.77592E-06  1376   0.379E-03    0.213E-03
DAV:  21    -0.829291962464E+03   -0.21306E-03   -0.28627E-06  1272   0.258E-03    0.104E-03
DAV:  22    -0.829292017710E+03   -0.55246E-04   -0.25571E-07  1056   0.100E-03    0.666E-04
DAV:  23    -0.829292049112E+03   -0.31402E-04   -0.24763E-07   944   0.860E-04    0.377E-04
DAV:  24    -0.829292063293E+03   -0.14181E-04   -0.10108E-07   928   0.553E-04    0.302E-04
DAV:  25    -0.829292067341E+03   -0.40485E-05   -0.27861E-08   968   0.415E-04    0.143E-04
DAV:  26    -0.829292071820E+03   -0.44791E-05   -0.33517E-08   912   0.286E-04    0.177E-04
DAV:  27    -0.829292073027E+03   -0.12072E-05   -0.70224E-09   960   0.232E-04    0.833E-05
DAV:  28    -0.829292075179E+03   -0.21519E-05   -0.86135E-09   936   0.154E-04    0.927E-05
DAV:  29    -0.829292075604E+03   -0.42477E-06   -0.22589E-09   952   0.106E-04
   1 F= -.82929208E+03 E0= -.82925937E+03  d E =-.654078E-01
