 vasp.6.5.0 16Dec24 (build Feb 19 2025 19:45:31) complex                         
 executed on              LinuxNV date 2025.10.25  14:13:04
 running    2 mpi-ranks, on    1 nodes
 distrk:  each k-point on    2 cores,    1 groups
 distr:  one band on NCORE=   1 cores,    2 groups
 Offloading initialized ...    2 GPUs detected


--------------------------------------------------------------------------------------------------------


 INCAR:
   ISTART = 0            (Not Read existing wavefunction
   ISPIN = 1            (Non-Spin polarised DFT, Default\=1)
   ICHARG = 2            (The initial guess charge density is generated by superposition of atomic charge density)
   LREAL = Auto         (Projection operators: automatic)
   ENCUT = 500          (Cut-off energy for plane wave basis set, in eV)
   LWAVE = .FALSE.       (Write WAVECAR or not)
   LCHARG = .FALSE.       (Write CHGCAR or not)
   PREC = Accurate   (Precision level)
   KGAMMA = .TRUE.
   ALGO = Normal
   NSW = 0           (Default: NSW \= 0)
   IBRION = -1           (Ions are not moved)
   ISMEAR = 0
   EDIFF = 1E-06        (SCF energy convergence
   NELM = 150          (Max electronic SCF steps)

 POTCAR:    PAW_PBE C 08Apr2002                   
 POTCAR:    PAW_PBE C 08Apr2002                   
   SHA256 =  253f7b50bb8d59471dbedb8285d89021f4a42ed1a2c5d38a03a736e69125dd95 C/POTCAR              
   COPYR  = (c) Copyright 08Apr2002 Georg Kresse                                                    
   COPYR  = This file is part of the software VASP. Any use, copying, and all other rights are regul
   COPYR  = If you do not have a valid VASP license, you may not use, copy or distribute this file. 
   VRHFIN =C: s2p2                                                                                  
   LEXCH  = PE                                                                                      
   EATOM  =   147.1560 eV,   10.8157 Ry                                                             
                                                                                                    
   TITEL  = PAW_PBE C 08Apr2002                                                                     
   LULTRA =        F    use ultrasoft PP ?                                                          
   IUNSCR =        1    unscreen: 0-lin 1-nonlin 2-no                                               
   RPACOR =    1.200    partial core radius                                                         
   POMASS =   12.011; ZVAL   =    4.000    mass and valenz                                          
   RCORE  =    1.500    outmost cutoff radius                                                       
   RWIGS  =    1.630; RWIGS  =    0.863    wigner-seitz radius (au A)                               
   ENMAX  =  400.000; ENMIN  =  300.000 eV                                                          
   ICORE  =        2    local potential                                                             
   LCOR   =        T    correct aug charges                                                         
   LPAW   =        T    paw PP                                                                      
   EAUG   =  644.873                                                                                
   DEXC   =    0.000                                                                                
   RMAX   =    1.529    core radius for proj-oper                                                   
   RAUG   =    1.300    factor for augmentation sphere                                              
   RDEP   =    1.501    radius for radial grids                                                     
   RDEPT  =    1.300    core radius for aug-charge                                                  
                                                                                                    
   Atomic configuration                                                                             
    4 entries                                                                                       
     n  l   j            E        occ.                                                              
     1  0  0.50      -273.3789   2.0000                                                             
     2  0  0.50       -13.7508   2.0000                                                             
     2  1  0.50        -5.2854   2.0000                                                             
     3  2  1.50        -5.4423   0.0000                                                             
   Description                                                                                      
     l       E           TYP  RCUT    TYP  RCUT                                                     
     0    -13.7508458     23  1.200                                                                 
     0     -8.2022199     23  1.200                                                                 
     1     -5.2854383     23  1.500                                                                 
     1     34.0145650     23  1.500                                                                 
     2     -5.4423304      7  1.500                                                                 
  local pseudopotential read in
  partial core-charges read in
  partial kinetic energy density read in
  atomic valenz-charges read in
  non local Contribution for L=            0  read in
    real space projection operators read in
  non local Contribution for L=            0  read in
    real space projection operators read in
  non local Contribution for L=            1  read in
    real space projection operators read in
  non local Contribution for L=            1  read in
    real space projection operators read in
    PAW grid and wavefunctions read in
 
   number of l-projection  operators is LMAX  =            4
   number of lm-projection operators is LMMAX =            8
 
 Optimization of the real space projectors (new method)

 maximal supplied QI-value         = 25.13
 optimisation between [QCUT,QGAM] = [ 11.31, 22.87] = [ 35.82,146.48] Ry 
 Optimized for a Real-space Cutoff    1.03 Angstroem

   l    n(q)    QCUT    max X(q) W(low)/X(q) W(high)/X(q)  e(spline) 
   0      7    11.310   115.676    0.20E-03    0.90E-03    0.20E-06
   0      7    11.310    87.132    0.20E-03    0.89E-03    0.19E-06
   1      6    11.310     4.429    0.16E-03    0.28E-03    0.12E-06
   1      6    11.310     2.733    0.12E-03    0.21E-03    0.99E-07
  PAW_PBE C 08Apr2002                   :
 energy of atom  1       EATOM= -147.1560
 kinetic energy error for atom=    0.0076 (will be added to EATOM!!)
 
 
 POSCAR:  C
  positions in cartesian coordinates
  No initial velocities read in


 exchange-correlation table for PE
   RHO(1)=    0.500       N(1)  =     2000
   RHO(2)=  100.500       N(2)  =     4000
 


--------------------------------------------------------------------------------------------------------


 ion  position               nearest neighbor table
   1  0.009  0.095  0.557-   3 1.33   2 1.41  45 1.48  46 2.01
   2  0.008  0.269  0.556-   1 1.41   4 1.42  46 1.50  45 2.06
   3  0.049  0.021  0.546-   1 1.33  50 1.39   5 1.44
   4  0.052  0.352  0.549-  49 1.36   6 1.40   2 1.42
   5  0.093  0.100  0.535-   6 1.39   7 1.42   3 1.44
   6  0.093  0.271  0.536-   5 1.39   4 1.40   8 1.40
   7  0.136  0.020  0.524-  54 1.39   5 1.42   9 1.47
   8  0.136  0.351  0.528-  53 1.38   6 1.40  10 1.41
   9  0.179  0.108  0.512-  10 1.33  11 1.40   7 1.47
  10  0.178  0.272  0.514-   9 1.33  12 1.39   8 1.41
  11  0.220  0.026  0.498-  58 1.37  13 1.39   9 1.40
  12  0.220  0.357  0.504-  57 1.37  10 1.39  14 1.50
  13  0.261  0.110  0.485-  14 1.35  11 1.39  15 1.44
  14  0.265  0.274  0.491-  13 1.35  16 1.42  12 1.50
  15  0.305  0.031  0.474-  62 1.39  17 1.40  13 1.44
  16  0.310  0.355  0.487-  61 1.39  18 1.42  14 1.42
  17  0.348  0.107  0.463-  18 1.39  15 1.40  19 1.45
  18  0.349  0.277  0.468-  17 1.39  16 1.42  20 1.46
  19  0.393  0.028  0.455-  66 1.37  21 1.38  17 1.45
  20  0.395  0.359  0.465-  65 1.38  22 1.38  18 1.46
  21  0.436  0.109  0.450-  19 1.38  22 1.38  23 1.38
  22  0.436  0.279  0.454-  21 1.38  20 1.38  24 1.43
  23  0.480  0.031  0.449-  21 1.38  70 1.41  25 1.46
  24  0.481  0.364  0.456-  69 1.36  22 1.43  26 1.45
  25  0.526  0.112  0.447-  26 1.36  27 1.43  23 1.46
  26  0.526  0.278  0.454-  25 1.36  28 1.41  24 1.45
  27  0.570  0.028  0.453-  74 1.35  29 1.43  25 1.43
  28  0.570  0.360  0.460-  73 1.38  30 1.41  26 1.41
  29  0.613  0.110  0.464-  30 1.37  27 1.43  31 1.46
  30  0.613  0.278  0.468-  29 1.37  28 1.41  32 1.45
  31  0.660  0.034  0.469-  33 1.38  78 1.39  29 1.46
  32  0.657  0.354  0.482-  34 1.38  77 1.41  30 1.45
  33  0.701  0.100  0.486-  31 1.38  35 1.42  34 1.43
  34  0.699  0.276  0.490-  32 1.38  36 1.39  33 1.43
  35  0.746  0.022  0.491-  82 1.37  37 1.40  33 1.42
  36  0.741  0.354  0.503-  81 1.38  34 1.39  38 1.43
  37  0.786  0.098  0.507-  38 1.37  35 1.40  39 1.41
  38  0.782  0.264  0.514-  37 1.37  36 1.43  40 1.44
  39  0.829  0.017  0.516-  37 1.41  86 1.42  41 1.45
  40  0.824  0.343  0.530-  85 1.39  38 1.44  42 1.47
  41  0.871  0.098  0.533-  42 1.35  39 1.45  43 1.45
  42  0.869  0.260  0.542-  41 1.35  44 1.38  40 1.47
  43  0.915  0.007  0.540-  90 1.33  45 1.41  41 1.45
  44  0.911  0.341  0.550-  42 1.38  89 1.41  46 1.42
  45  0.956  0.089  0.553-  46 1.38  43 1.41   1 1.48   2 2.06
  46  0.955  0.258  0.557-  45 1.38  44 1.42   2 1.50   1 2.01
  47  0.011  0.598  0.558-  49 1.36  48 1.40  91 1.48  92 2.06
  48  0.008  0.770  0.557-  50 1.40  47 1.40  92 1.45  91 2.01
  49  0.053  0.520  0.551-  47 1.36   4 1.36  51 1.40
  50  0.050  0.849  0.546-   3 1.39  48 1.40  52 1.46
  51  0.096  0.602  0.545-  52 1.37  49 1.40  53 1.43
  52  0.097  0.771  0.543-  54 1.37  51 1.37  50 1.46
  53  0.139  0.519  0.534-   8 1.38  55 1.42  51 1.43
  54  0.137  0.851  0.531-  52 1.37   7 1.39  56 1.46
  55  0.182  0.604  0.525-  56 1.36  57 1.41  53 1.42
  56  0.183  0.771  0.521-  55 1.36  58 1.42  54 1.46
  57  0.223  0.522  0.512-  12 1.37  55 1.41  59 1.43
  58  0.221  0.860  0.505-  11 1.37  56 1.42  60 1.44
  59  0.267  0.604  0.503-  60 1.38  61 1.41  57 1.43
  60  0.265  0.772  0.496-  59 1.38  62 1.41  58 1.44
  61  0.310  0.526  0.492-  16 1.39  63 1.40  59 1.41
  62  0.304  0.861  0.480-  15 1.39  60 1.41  64 1.47
  63  0.351  0.610  0.479-  64 1.39  61 1.40  65 1.42
  64  0.349  0.779  0.472-  63 1.39  66 1.45  62 1.47
  65  0.395  0.526  0.472-  67 1.37  20 1.38  63 1.42
  66  0.392  0.859  0.458-  19 1.37  68 1.40  64 1.45
  67  0.437  0.609  0.466-  65 1.37  68 1.39  69 1.42
  68  0.436  0.777  0.456-  67 1.39  66 1.40  70 1.46
  69  0.482  0.531  0.461-  24 1.36  67 1.42  71 1.43
  70  0.482  0.857  0.449-  72 1.38  23 1.41  68 1.46
  71  0.526  0.615  0.457-  72 1.37  73 1.41  69 1.43
  72  0.526  0.783  0.451-  71 1.37  70 1.38  74 1.44
  73  0.569  0.530  0.462-  28 1.38  71 1.41  75 1.45
  74  0.572  0.862  0.451-  27 1.35  76 1.41  72 1.44
  75  0.615  0.616  0.464-  76 1.36  77 1.44  73 1.45
  76  0.616  0.782  0.459-  75 1.36  74 1.41  78 1.43
  77  0.656  0.527  0.478-  79 1.39  32 1.41  75 1.44
  78  0.660  0.862  0.467-  31 1.39  76 1.43  80 1.44
  79  0.699  0.607  0.483-  80 1.36  77 1.39  81 1.44
  80  0.702  0.773  0.478-  79 1.36  82 1.42  78 1.44
  81  0.740  0.523  0.500-  36 1.38  83 1.41  79 1.44
  82  0.746  0.854  0.487-  35 1.37  80 1.42  84 1.48
  83  0.785  0.595  0.507-  84 1.38  81 1.41  85 1.44
  84  0.788  0.764  0.502-  83 1.38  86 1.39  82 1.48
  85  0.824  0.515  0.527-  40 1.39  83 1.44  87 1.48
  86  0.831  0.843  0.510-  84 1.39  39 1.42  88 1.42
  87  0.871  0.597  0.533-  88 1.37  89 1.44  85 1.48
  88  0.873  0.760  0.522-  87 1.37  86 1.42  90 1.43
  89  0.914  0.514  0.546-  44 1.41  91 1.42  87 1.44
  90  0.916  0.845  0.535-  43 1.33  92 1.40  88 1.43
  91  0.958  0.592  0.552-  89 1.42  92 1.43  47 1.48  48 2.01
  92  0.957  0.768  0.549-  90 1.40  91 1.43  48 1.45  47 2.06
 
  LATTYP: Found a simple orthorhombic cell.
 ALAT       =     8.1000000000
 B/A-ratio  =     3.4629629630
 C/A-ratio  =     4.1358024691
  
  Lattice vectors:
  
 A1 = (   0.0000000000,  -8.1000000000,   0.0000000000)
 A2 = (  28.0500000000,   0.0000000000,   0.0000000000)
 A3 = (   0.0000000000,   0.0000000000,  33.5000000000)


Analysis of symmetry for initial positions (statically):
=====================================================================
 Subroutine PRICEL returns:
 Original cell was already a primitive cell.
 

 Routine SETGRP: Setting up the symmetry group for a 
 simple orthorhombic supercell.


 Subroutine GETGRP returns: Found  1 space group operations
 (whereof  1 operations were pure point group operations)
 out of a pool of  8 trial point group operations.


The static configuration has the point symmetry C_1 .


Analysis of symmetry for dynamics (positions and initial velocities):
=====================================================================
 Subroutine PRICEL returns:
 Original cell was already a primitive cell.
 

 Routine SETGRP: Setting up the symmetry group for a 
 simple orthorhombic supercell.


 Subroutine GETGRP returns: Found  1 space group operations
 (whereof  1 operations were pure point group operations)
 out of a pool of  8 trial point group operations.


The dynamic configuration has the point symmetry C_1 .


 Subroutine INISYM returns: Found  1 space group operations
 (whereof  1 operations are pure point group operations),
 and found     1 'primitive' translations


----------------------------------------------------------------------------------------

                                     Primitive cell                                     

  volume of cell :    7611.3675

  direct lattice vectors                    reciprocal lattice vectors
    28.050000000  0.000000000  0.000000000     0.035650624  0.000000000  0.000000000
     0.000000000  8.100000000  0.000000000     0.000000000  0.123456790  0.000000000
     0.000000000  0.000000000 33.500000000     0.000000000  0.000000000  0.029850746

  length of vectors
    28.050000000  8.100000000 33.500000000     0.035650624  0.123456790  0.029850746

  position of ions in fractional coordinates (direct lattice)
     0.008770980  0.095093086  0.557268657
     0.008181640  0.269412346  0.555605970
     0.048648485  0.020650370  0.545713433
     0.052080214  0.352065432  0.549310448
     0.093157932  0.099723827  0.535432836
     0.093359002  0.271195062  0.536471642
     0.136423173  0.020423704  0.524468657
     0.136384314  0.351056790  0.527537313
     0.179483066  0.108084938  0.511626866
     0.178411052  0.272260494  0.514053731
     0.220400000  0.026310617  0.498489552
     0.219831373  0.356812346  0.503907463
     0.260928342  0.109690123  0.485417910
     0.265134046  0.273623457  0.491059701
     0.304746881  0.030823457  0.474110448
     0.309629947  0.355333333  0.486868657
     0.347674510  0.106647407  0.463319403
     0.348911943  0.277175309  0.468029851
     0.393008913  0.027629383  0.455238806
     0.394891266  0.359249383  0.464797015
     0.435721925  0.108972716  0.450325373
     0.436295900  0.278845679  0.453591045
     0.479575758  0.030664198  0.448826866
     0.480780749  0.364314815  0.455814925
     0.525939394  0.111947778  0.446901493
     0.525903743  0.278009877  0.453561194
     0.570278075  0.027761111  0.453232836
     0.569500891  0.359714815  0.460352239
     0.613472371  0.110358025  0.463626866
     0.612805704  0.278100000  0.468128358
     0.660249554  0.034035062  0.469432836
     0.656534759  0.353838272  0.481904478
     0.700980392  0.100262222  0.485749254
     0.699016043  0.275633333  0.489934328
     0.745754011  0.022288642  0.490967164
     0.740538324  0.353501235  0.502671642
     0.786074866  0.097549753  0.507235821
     0.782256684  0.263656790  0.514319403
     0.829450980  0.017298889  0.516029851
     0.824349376  0.343171605  0.530000000
     0.870866310  0.097653333  0.533289552
     0.868901961  0.260360494  0.542023881
     0.914816399  0.006997025  0.540122388
     0.911073084  0.341441975  0.549516418
     0.956367201  0.089126049  0.553444776
     0.954877005  0.258260494  0.556991045
     0.010630196  0.597580247  0.557782090
     0.007775508  0.770364198  0.556588060
     0.052598930  0.519585185  0.550811940
     0.050381462  0.849180247  0.546202985
     0.095767914  0.601739506  0.544528358
     0.097004278  0.770604938  0.542701493
     0.139146168  0.519196296  0.534044776
     0.137451693  0.850974074  0.530749254
     0.182078075  0.604361728  0.525176119
     0.182530481  0.770993827  0.521352239
     0.223414260  0.522295062  0.511555224
     0.221417825  0.859637037  0.505029851
     0.267365775  0.603755556  0.502662687
     0.264926203  0.772274074  0.496000000
     0.310174332  0.525877778  0.491638806
     0.303972193  0.861149383  0.480423881
     0.351110160  0.609741975  0.479462687
     0.349370053  0.778506173  0.471949254
     0.394862745  0.526382716  0.472489552
     0.392470588  0.858980247  0.458155224
     0.436859180  0.609449383  0.466328358
     0.436106952  0.776517284  0.456292537
     0.481515152  0.530670370  0.461110448
     0.481764706  0.857262963  0.449002985
     0.525878788  0.614974074  0.456898507
     0.525992870  0.782964198  0.451164179
     0.569450980  0.530265432  0.462149254
     0.571832442  0.861645679  0.451364179
     0.614762923  0.615570370  0.464310448
     0.615532977  0.781546914  0.458856716
     0.656074866  0.526683951  0.477808955
     0.659771836  0.862198765  0.467474627
     0.699386809  0.607039506  0.482958209
     0.702210339  0.772740741  0.477779104
     0.740185383  0.523285185  0.499770149
     0.745675579  0.854248148  0.487438806
     0.785090909  0.594880247  0.506919403
     0.788142602  0.764235802  0.502447761
     0.824363636  0.514807407  0.526808955
     0.830944742  0.843446914  0.510471642
     0.871033868  0.597090123  0.532656716
     0.873354724  0.760251852  0.522208955
     0.913700535  0.514069136  0.546053731
     0.915675579  0.844944444  0.534597015
     0.958417112  0.591888889  0.552256716
     0.957069519  0.768124691  0.548817910

  ion indices of the primitive-cell ions
   primitive index   ion index
                 1           1
                 2           2
                 3           3
                 4           4
                 5           5
                 6           6
                 7           7
                 8           8
                 9           9
                10          10
                11          11
                12          12
                13          13
                14          14
                15          15
                16          16
                17          17
                18          18
                19          19
                20          20
                21          21
                22          22
                23          23
                24          24
                25          25
                26          26
                27          27
                28          28
                29          29
                30          30
                31          31
                32          32
                33          33
                34          34
                35          35
                36          36
                37          37
                38          38
                39          39
                40          40
                41          41
                42          42
                43          43
                44          44
                45          45
                46          46
                47          47
                48          48
                49          49
                50          50
                51          51
                52          52
                53          53
                54          54
                55          55
                56          56
                57          57
                58          58
                59          59
                60          60
                61          61
                62          62
                63          63
                64          64
                65          65
                66          66
                67          67
                68          68
                69          69
                70          70
                71          71
                72          72
                73          73
                74          74
                75          75
                76          76
                77          77
                78          78
                79          79
                80          80
                81          81
                82          82
                83          83
                84          84
                85          85
                86          86
                87          87
                88          88
                89          89
                90          90
                91          91
                92          92

----------------------------------------------------------------------------------------

 
 
 KPOINTS: K-Spacing Value to Generate K-Mesh: 0.03

Automatic generation of k-mesh.
 Grid dimensions read from file:
 generate k-points for:    1    4    1

 Generating k-lattice:

  Cartesian coordinates                     Fractional coordinates (reciprocal lattice)
     0.035650624  0.000000000  0.000000000     1.000000000  0.000000000  0.000000000
     0.000000000  0.030864198  0.000000000     0.000000000  0.250000000  0.000000000
     0.000000000  0.000000000  0.029850746     0.000000000  0.000000000  1.000000000

  Length of vectors
     0.035650624  0.030864198  0.029850746

  Shift w.r.t. Gamma in fractional coordinates (k-lattice)
     0.000000000  0.000000000  0.000000000

 
 Subroutine IBZKPT returns following result:
 ===========================================
 
 Found      3 irreducible k-points:
 
 Following reciprocal coordinates:
            Coordinates               Weight
  0.000000  0.000000  0.000000      1.000000
  0.000000  0.250000  0.000000      2.000000
  0.000000  0.500000  0.000000      1.000000
 
 Following cartesian coordinates:
            Coordinates               Weight
  0.000000  0.000000  0.000000      1.000000
  0.000000  0.030864  0.000000      2.000000
  0.000000  0.061728  0.000000      1.000000
 


--------------------------------------------------------------------------------------------------------




 Dimension of arrays:
   k-points           NKPTS =      3   k-points in BZ     NKDIM =      3   number of bands    NBANDS=    232
   number of dos      NEDOS =    301   number of ions     NIONS =     92
   non local maximal  LDIM  =      4   non local SUM 2l+1 LMDIM =      8
   total plane-waves  NPLWV = ******
   max r-space proj   IRMAX =   1967   max aug-charges    IRDMAX=   5083
   dimension x,y,z NGX =   210 NGY =   60 NGZ =  250
   dimension x,y,z NGXF=   420 NGYF=  120 NGZF=  500
   support grid    NGXF=   420 NGYF=  120 NGZF=  500
   ions per type =              92
   NGX,Y,Z   is equivalent  to a cutoff of  12.45, 12.31, 12.41 a.u.
   NGXF,Y,Z  is equivalent  to a cutoff of  24.89, 24.63, 24.81 a.u.

 SYSTEM =  unknown system                          
 POSCAR =   C                                      

 Startparameter for this run:
   NWRITE =      2    write-flag & timer
   PREC   = accura    normal or accurate (medium, high low for compatibility)
   ISTART =      0    job   : 0-new  1-cont  2-samecut
   ICHARG =      2    charge: 1-file 2-atom 10-const
   ISPIN  =      1    spin polarized calculation?
   LNONCOLLINEAR =      F non collinear calculations
   LSORBIT =      F    spin-orbit coupling
   INIWAV =      1    electr: 0-lowe 1-rand  2-diag
   LASPH  =      F    aspherical Exc in radial PAW
 Electronic Relaxation 1
   ENCUT  =  500.0 eV  36.75 Ry    6.06 a.u.  51.14 14.77 61.08*2*pi/ulx,y,z
   ENINI  =  500.0     initial cutoff
   ENAUG  =  644.9 eV  augmentation charge cutoff
   NELM   =    150;   NELMIN=  2; NELMDL= -5     # of ELM steps 
   EDIFF  = 0.1E-05   stopping-criterion for ELM
   LREAL  =      T    real-space projection
   NLSPLINE    = F    spline interpolate recip. space projectors
   LCOMPAT=      F    compatible to vasp.4.4
   GGA_COMPAT  = T    GGA compatible to vasp.4.4-vasp.4.6
   LMAXPAW     = -100 max onsite density
   LMAXMIX     =    2 max onsite mixed and CHGCAR
   VOSKOWN=      0    Vosko Wilk Nusair interpolation
   ROPT   =   -0.00025
 Ionic relaxation
   EDIFFG = 0.1E-04   stopping-criterion for IOM
   NSW    =      0    number of steps for IOM
   NBLOCK =      1;   KBLOCK =      1    inner block; outer block 
   IBRION =     -1    ionic relax: 0-MD 1-quasi-New 2-CG
   NFREE  =      0    steps in history (QN), initial steepest desc. (CG)
   ISIF   =      2    stress and relaxation
   IWAVPR =     10    prediction:  0-non 1-charg 2-wave 3-comb
   ISYM   =      2    0-nonsym 1-usesym 2-fastsym
   LCORR  =      T    Harris-Foulkes like correction to forces

   POTIM  = 0.5000    time-step for ionic-motion
   TEIN   =    0.0    initial temperature
   TEBEG  =    0.0;   TEEND  =   0.0 temperature during run
   SMASS  =  -3.00    Nose mass-parameter (am)
   estimated Nose-frequenzy (Omega)   =  0.10E-29 period in steps = 0.13E+47 mass=  -0.180E-25a.u.
   SCALEE = 1.0000    scale energy and forces
   NPACO  =    256;   APACO  = 10.0  distance and # of slots for P.C.
   PSTRESS=    0.0 pullay stress

  Mass of Ions in am
   POMASS =  12.01
  Ionic Valenz
   ZVAL   =   4.00
  Atomic Wigner-Seitz radii
   RWIGS  =  -1.00
  virtual crystal weights 
   VCA    =   1.00
   NELECT =     368.0000    total number of electrons
   NUPDOWN=      -1.0000    fix difference up-down

 DOS related values:
   EMIN   =  10.00;   EMAX   =-10.00  energy-range for DOS
   EFERMI =   0.00;   METHOD = LEGACY      
   ISMEAR =     0;   SIGMA  =   0.20  broadening in eV -4-tet -1-fermi 0-gaus
   EFERMI_NEDOS =   21; number of points for ismear=-14 and -15

 Electronic relaxation 2 (details)
   IALGO  =     38    algorithm
   LDIAG  =      T    sub-space diagonalisation (order eigenvalues)
   LSUBROT=      F    optimize rotation matrix (better conditioning)
   TURBO    =      0    0=normal 1=particle mesh
   IRESTART =      0    0=no restart 2=restart with 2 vectors
   NREBOOT  =      0    no. of reboots
   NMIN     =      0    reboot dimension
   EREF     =   0.00    reference energy to select bands
   IMIX   =      4    mixing-type and parameters
     AMIX     =   0.40;   BMIX     =  1.00
     AMIX_MAG =   1.60;   BMIX_MAG =  1.00
     AMIN     =   0.10
     WC   =   100.;   INIMIX=   1;  MIXPRE=   1;  MAXMIX= -45

 Intra band minimization:
   WEIMIN = 0.0000     energy-eigenvalue tresh-hold
   EBREAK =  0.11E-08  absolut break condition
   DEPER  =   0.30     relativ break condition  

   TIME   =   0.40     timestep for ELM

  volume/ion in A,a.u.               =      82.73       558.30
  Fermi-wavevector in a.u.,A,eV,Ry     =   0.596398  1.127030  4.839472  0.355691
  Thomas-Fermi vector in A             =   1.646729
 
 Write flags
   LWAVE        =      F    write WAVECAR
   LDOWNSAMPLE  =      F    k-point downsampling of WAVECAR
   LCHARG       =      F    write CHGCAR
   LVTOT        =      F    write LOCPOT, total local potential
   LVHAR        =      F    write LOCPOT, Hartree potential only
   WRT_POTENTIAL= false  ! write potential to hdf5 file
   LELF         =      F    write electronic localiz. function (ELF)
   LORBIT       =      0    0 simple, 1 ext, 2 COOP (PROOUT), +10 PAW based schemes


 Python interface
   PLUGINS active      =      F    recompile with -DPLUGINS to activate
 
 Dipole corrections
   LMONO      =      F    monopole corrections only (constant potential shift)
   LDIPOL     =      F    correct potential (dipole corrections)
   IDIPOL     =      0    1-x, 2-y, 3-z, 4-all directions 
   EPSILON    =  1.0000000 bulk dielectric constant
   LVACPOTAV  =      F  vacuum potentials using an averaging scheme for the charge density
   VACPOTFLAT =  0.1000000 required flatness to determine vacuum potential
 
Coulomb truncation method
  LTRUNCATE          =      F  Coulomb kernel truncation to be used
  IDIMENSIONALITY    =      3  Dimensionality of cutoff (0 molecules / 2 surfaces)
  ISURFACE           =     -1  Direction of surface normal
  LCOARSEN           =      F  Coarsen the charge grid before padding, preferred

 
 Exchange correlation treatment:
   GGA     = PE    functional components
   XC_C    = 1    coefficients multiplying the functional components
   LIBXC   =     F    Libxc                    
   VOSKOWN =     0    Vosko Wilk Nusair interpolation
   LHFCALC =     F    Hartree Fock is set to
   LHFONE  =     F    Hartree Fock one center treatment
   AEXX    =    0.0000 exact exchange contribution

 Parameters of functionals:
   PE:
     No parameter
 
 Van der Waals corrections
   IVDW    =     0    specifies the selected vdW correction

 Linear response parameters
   LEPSILON=     F    determine dielectric tensor
   LRPA    =     F    only Hartree local field effects (RPA)
   LNABLA  =     F    use nabla operator in PAW spheres
   LVEL    =     F    velocity operator in full k-point grid
   CSHIFT  =0.1000    complex shift for real part using Kramers Kronig
   OMEGAMAX=  -1.0    maximum frequency
   DEG_THRESHOLD= 0.2000000E-02 threshold for treating states as degnerate
   RTIME   =   -0.100 relaxation time in fs
  (WPLASMAI=    0.000 imaginary part of plasma frequency in eV, 0.658/RTIME)
   DFIELD  = 0.0000000 0.0000000 0.0000000 field for delta impulse in time
 
  Optional k-point grid parameters
   LKPOINTS_OPT  =     F    use optional k-point grid
   KPOINTS_OPT_MODE=     1    mode for optional k-point grid
 
 Orbital magnetization related:
   ORBITALMAG=     F  switch on orbital magnetization
   LCHIMAG   =     F  perturbation theory with respect to B field
   DQ        =  0.001000  dq finite difference perturbation B field
   LLRAUG    =     F  two centre corrections for induced B field
   LBONE     =     F  B-component reconstruction in AE one-centre
   LVGVCALC  =     T  calculate vGv susceptibility
   LVGVAPPL  =     F  apply vGv susceptibility instead of pGv for G=0

 Random number generation:
   RANDOM_GENERATOR = DEFAULT
   PCG_SEED         = not used


--------------------------------------------------------------------------------------------------------


 Static calculation
 charge density and potential will be updated during run
 non-spin polarized calculation
 Variant of blocked Davidson
 Davidson routine will perform the subspace rotation
 perform sub-space diagonalisation
    after iterative eigenvector-optimisation
 modified Broyden-mixing scheme, WC =      100.0
 initial mixing is a Kerker type mixing with AMIX =  0.4000 and BMIX =      1.0000
 Hartree-type preconditioning will be used
 using additional bands            48
 real space projection scheme for non local part
 use partial core corrections
 calculate Harris-corrections to forces 
   (improved forces if not selfconsistent)
 use gradient corrections 
 use of overlap-Matrix (Vanderbilt PP)
 Gauss-broadening in eV      SIGMA  =   0.20


--------------------------------------------------------------------------------------------------------


  energy-cutoff  :      500.00
  volume of cell :     7611.37
      direct lattice vectors                 reciprocal lattice vectors
    28.050000000  0.000000000  0.000000000     0.035650624  0.000000000  0.000000000
     0.000000000  8.100000000  0.000000000     0.000000000  0.123456790  0.000000000
     0.000000000  0.000000000 33.500000000     0.000000000  0.000000000  0.029850746

  length of vectors
    28.050000000  8.100000000 33.500000000     0.035650624  0.123456790  0.029850746


 
 k-points in units of 2pi/SCALE and weight: K-Spacing Value to Generate K-Mesh: 0.03
   0.00000000  0.00000000  0.00000000       0.250
   0.00000000  0.03086420  0.00000000       0.500
   0.00000000  0.06172840  0.00000000       0.250
 
 k-points in reciprocal lattice and weights: K-Spacing Value to Generate K-Mesh: 0.03
   0.00000000  0.00000000  0.00000000       0.250
   0.00000000  0.25000000  0.00000000       0.500
   0.00000000  0.50000000  0.00000000       0.250
 
 position of ions in fractional coordinates (direct lattice) 
   0.00877098  0.09509309  0.55726866
   0.00818164  0.26941235  0.55560597
   0.04864848  0.02065037  0.54571343
   0.05208021  0.35206543  0.54931045
   0.09315793  0.09972383  0.53543284
   0.09335900  0.27119506  0.53647164
   0.13642317  0.02042370  0.52446866
   0.13638431  0.35105679  0.52753731
   0.17948307  0.10808494  0.51162687
   0.17841105  0.27226049  0.51405373
   0.22040000  0.02631062  0.49848955
   0.21983137  0.35681235  0.50390746
   0.26092834  0.10969012  0.48541791
   0.26513405  0.27362346  0.49105970
   0.30474688  0.03082346  0.47411045
   0.30962995  0.35533333  0.48686866
   0.34767451  0.10664741  0.46331940
   0.34891194  0.27717531  0.46802985
   0.39300891  0.02762938  0.45523881
   0.39489127  0.35924938  0.46479701
   0.43572193  0.10897272  0.45032537
   0.43629590  0.27884568  0.45359104
   0.47957576  0.03066420  0.44882687
   0.48078075  0.36431481  0.45581493
   0.52593939  0.11194778  0.44690149
   0.52590374  0.27800988  0.45356119
   0.57027807  0.02776111  0.45323284
   0.56950089  0.35971481  0.46035224
   0.61347237  0.11035802  0.46362687
   0.61280570  0.27810000  0.46812836
   0.66024955  0.03403506  0.46943284
   0.65653476  0.35383827  0.48190448
   0.70098039  0.10026222  0.48574925
   0.69901604  0.27563333  0.48993433
   0.74575401  0.02228864  0.49096716
   0.74053832  0.35350123  0.50267164
   0.78607487  0.09754975  0.50723582
   0.78225668  0.26365679  0.51431940
   0.82945098  0.01729889  0.51602985
   0.82434938  0.34317160  0.53000000
   0.87086631  0.09765333  0.53328955
   0.86890196  0.26036049  0.54202388
   0.91481640  0.00699702  0.54012239
   0.91107308  0.34144198  0.54951642
   0.95636720  0.08912605  0.55344478
   0.95487701  0.25826049  0.55699104
   0.01063020  0.59758025  0.55778209
   0.00777551  0.77036420  0.55658806
   0.05259893  0.51958519  0.55081194
   0.05038146  0.84918025  0.54620299
   0.09576791  0.60173951  0.54452836
   0.09700428  0.77060494  0.54270149
   0.13914617  0.51919630  0.53404478
   0.13745169  0.85097407  0.53074925
   0.18207807  0.60436173  0.52517612
   0.18253048  0.77099383  0.52135224
   0.22341426  0.52229506  0.51155522
   0.22141783  0.85963704  0.50502985
   0.26736578  0.60375556  0.50266269
   0.26492620  0.77227407  0.49600000
   0.31017433  0.52587778  0.49163881
   0.30397219  0.86114938  0.48042388
   0.35111016  0.60974198  0.47946269
   0.34937005  0.77850617  0.47194925
   0.39486275  0.52638272  0.47248955
   0.39247059  0.85898025  0.45815522
   0.43685918  0.60944938  0.46632836
   0.43610695  0.77651728  0.45629254
   0.48151515  0.53067037  0.46111045
   0.48176471  0.85726296  0.44900299
   0.52587879  0.61497407  0.45689851
   0.52599287  0.78296420  0.45116418
   0.56945098  0.53026543  0.46214925
   0.57183244  0.86164568  0.45136418
   0.61476292  0.61557037  0.46431045
   0.61553298  0.78154691  0.45885672
   0.65607487  0.52668395  0.47780896
   0.65977184  0.86219877  0.46747463
   0.69938681  0.60703951  0.48295821
   0.70221034  0.77274074  0.47777910
   0.74018538  0.52328519  0.49977015
   0.74567558  0.85424815  0.48743881
   0.78509091  0.59488025  0.50691940
   0.78814260  0.76423580  0.50244776
   0.82436364  0.51480741  0.52680896
   0.83094474  0.84344691  0.51047164
   0.87103387  0.59709012  0.53265672
   0.87335472  0.76025185  0.52220896
   0.91370053  0.51406914  0.54605373
   0.91567558  0.84494444  0.53459701
   0.95841711  0.59188889  0.55225672
   0.95706952  0.76812469  0.54881791
 
 position of ions in cartesian coordinates  (Angst):
   0.24602600  0.77025400 18.66850000
   0.22949500  2.18224000 18.61280000
   1.36459000  0.16726800 18.28140000
   1.46085000  2.85173000 18.40190000
   2.61308000  0.80776300 17.93700000
   2.61872000  2.19668000 17.97180000
   3.82667000  0.16543200 17.56970000
   3.82558000  2.84356000 17.67250000
   5.03450000  0.87548800 17.13950000
   5.00443000  2.20531000 17.22080000
   6.18222000  0.21311600 16.69940000
   6.16627000  2.89018000 16.88090000
   7.31904000  0.88849000 16.26150000
   7.43701000  2.21635000 16.45050000
   8.54815000  0.24967000 15.88270000
   8.68512000  2.87820000 16.31010000
   9.75227000  0.86384400 15.52120000
   9.78698000  2.24512000 15.67900000
  11.02390000  0.22379800 15.25050000
  11.07670000  2.90992000 15.57070000
  12.22200000  0.88267900 15.08590000
  12.23810000  2.25865000 15.19530000
  13.45210000  0.24838000 15.03570000
  13.48590000  2.95095000 15.26980000
  14.75260000  0.90677700 14.97120000
  14.75160000  2.25188000 15.19430000
  15.99630000  0.22486500 15.18330000
  15.97450000  2.91369000 15.42180000
  17.20790000  0.89390000 15.53150000
  17.18920000  2.25261000 15.68230000
  18.52000000  0.27568400 15.72600000
  18.41580000  2.86609000 16.14380000
  19.66250000  0.81212400 16.27260000
  19.60740000  2.23263000 16.41280000
  20.91840000  0.18053800 16.44740000
  20.77210000  2.86336000 16.83950000
  22.04940000  0.79015300 16.99240000
  21.94230000  2.13562000 17.22970000
  23.26610000  0.14012100 17.28700000
  23.12300000  2.77969000 17.75500000
  24.42780000  0.79099200 17.86520000
  24.37270000  2.10892000 18.15780000
  25.66060000  0.05667590 18.09410000
  25.55560000  2.76568000 18.40880000
  26.82610000  0.72192100 18.54040000
  26.78430000  2.09191000 18.65920000
   0.29817700  4.84040000 18.68570000
   0.21810300  6.23995000 18.64570000
   1.47540000  4.20864000 18.45220000
   1.41320000  6.87836000 18.29780000
   2.68629000  4.87409000 18.24170000
   2.72097000  6.24190000 18.18050000
   3.90305000  4.20549000 17.89050000
   3.85552000  6.89289000 17.78010000
   5.10729000  4.89533000 17.59340000
   5.11998000  6.24505000 17.46530000
   6.26677000  4.23059000 17.13710000
   6.21077000  6.96306000 16.91850000
   7.49961000  4.89042000 16.83920000
   7.43118000  6.25542000 16.61600000
   8.70039000  4.25961000 16.46990000
   8.52642000  6.97531000 16.09420000
   9.84864000  4.93891000 16.06200000
   9.79983000  6.30590000 15.81030000
  11.07590000  4.26370000 15.82840000
  11.00880000  6.95774000 15.34820000
  12.25390000  4.93654000 15.62200000
  12.23280000  6.28979000 15.28580000
  13.50650000  4.29843000 15.44720000
  13.51350000  6.94383000 15.04160000
  14.75090000  4.98129000 15.30610000
  14.75410000  6.34201000 15.11400000
  15.97310000  4.29515000 15.48200000
  16.03990000  6.97933000 15.12070000
  17.24410000  4.98612000 15.55440000
  17.26570000  6.33053000 15.37170000
  18.40290000  4.26614000 16.00660000
  18.50660000  6.98381000 15.66040000
  19.61780000  4.91702000 16.17910000
  19.69700000  6.25920000 16.00560000
  20.76220000  4.23861000 16.74230000
  20.91620000  6.91941000 16.32920000
  22.02180000  4.81853000 16.98180000
  22.10740000  6.19031000 16.83200000
  23.12340000  4.16994000 17.64810000
  23.30800000  6.83192000 17.10080000
  24.43250000  4.83643000 17.84400000
  24.49760000  6.15804000 17.49400000
  25.62930000  4.16396000 18.29280000
  25.68470000  6.84405000 17.90900000
  26.88360000  4.79430000 18.50060000
  26.84580000  6.22181000 18.38540000
 


--------------------------------------------------------------------------------------------------------


 k-point     1 :   0.0000 0.0000 0.0000  plane waves:  193173
 k-point     2 :   0.0000 0.2500 0.0000  plane waves:  193166
 k-point     3 :   0.0000 0.5000 0.0000  plane waves:  193226

 maximum and minimum number of plane-waves per node :    193226   193166

 maximum number of plane-waves:    193226
 maximum index in each direction: 
   IXMAX=   51   IYMAX=   14   IZMAX=   61
   IXMIN=  -51   IYMIN=  -15   IZMIN=  -61


 serial   3D FFT for wavefunctions
 parallel 3D FFT for charge:
    minimum data exchange during FFTs selected (reduces bandwidth)


 total amount of memory used by VASP MPI-rank0  2294507. kBytes
=======================================================================

   base                                    :      30000. kBytes
   nonlr-proj                              :      15073. kBytes
   fftplans                                :     436558. kBytes
   grid                                    :     732614. kBytes
   one-center                              :        282. kBytes
   wavefun                                 :    1079980. kBytes
 
     INWAV:  cpu time      0.0000: real time      0.0000
 Broyden mixing: mesh for mixing (old mesh)
   NGX =103   NGY = 29   NGZ =123
  (NGX  =420   NGY  =120   NGZ  =500)
  gives a total of 367401 points

 initial charge density was supplied:
 charge density of overlapping atoms calculated
 number of electron     368.0000000 magnetization 
 keeping initial charge density in first step


--------------------------------------------------------------------------------------------------------


 Maximum index for non-local projection operator          1872
 Maximum index for augmentation-charges          2383 (set IRDMAX)


--------------------------------------------------------------------------------------------------------


 First call to EWALD:  gamma=   0.090
 Maximum number of real-space cells   2x   6x   2
 Maximum number of reciprocal cells   4x   1x   4

    FEWALD:  cpu time      0.1590: real time      0.1591


--------------------------------------- Ionic step        1  -------------------------------------------




--------------------------------------- Iteration      1(   1)  ---------------------------------------


    POTLOK:  cpu time      0.4217: real time      0.4407
    SETDIJ:  cpu time      0.0419: real time      0.0419
     EDDAV:  cpu time     11.0338: real time     11.0413
       DOS:  cpu time      0.0008: real time      0.0008
    --------------------------------------------
      LOOP:  cpu time     11.4982: real time     11.5247

 eigenvalue-minimisations  :  1704
 total energy-change (2. order) : 0.3722698E+04  (-0.1185059E+05)
 number of electron     368.0000000 magnetization 
 augmentation part      368.0000000 magnetization 

 Free energy of the ion-electron system (eV)
  ---------------------------------------------------
  alpha Z        PSCENC =        91.34886789
  Ewald energy   TEWEN  =    119147.85596425
  -Hartree energ DENC   =   -128494.54180769
  -exchange      EXHF   =         0.00000000
  -V(xc)+E(xc)   XCENC  =      1220.19013079
  PAW double counting   =      9984.02826696   -10036.41360137
  entropy T*S    EENTRO =        -0.87815290
  eigenvalues    EBANDS =     -1726.54646009
  atomic energy  EATOM  =     13537.65479391
  Solvation  Ediel_sol  =         0.00000000
  ---------------------------------------------------
  free energy    TOTEN  =      3722.69800175 eV

  energy without entropy =     3723.57615465  energy(sigma->0) =     3723.13707820


--------------------------------------------------------------------------------------------------------




--------------------------------------- Iteration      1(   2)  ---------------------------------------


     EDDAV:  cpu time     13.1343: real time     13.1421
       DOS:  cpu time      0.0007: real time      0.0007
    --------------------------------------------
      LOOP:  cpu time     13.1350: real time     13.1427

 eigenvalue-minimisations  :  2144
 total energy-change (2. order) :-0.3534108E+04  (-0.3271834E+04)
 number of electron     368.0000000 magnetization 
 augmentation part      368.0000000 magnetization 

 Free energy of the ion-electron system (eV)
  ---------------------------------------------------
  alpha Z        PSCENC =        91.34886789
  Ewald energy   TEWEN  =    119147.85596425
  -Hartree energ DENC   =   -128494.54180769
  -exchange      EXHF   =         0.00000000
  -V(xc)+E(xc)   XCENC  =      1220.19013079
  PAW double counting   =      9984.02826696   -10036.41360137
  entropy T*S    EENTRO =        -0.20496093
  eigenvalues    EBANDS =     -5261.32742536
  atomic energy  EATOM  =     13537.65479391
  Solvation  Ediel_sol  =         0.00000000
  ---------------------------------------------------
  free energy    TOTEN  =       188.59022844 eV

  energy without entropy =      188.79518937  energy(sigma->0) =      188.69270891


--------------------------------------------------------------------------------------------------------




--------------------------------------- Iteration      1(   3)  ---------------------------------------


     EDDAV:  cpu time     11.2929: real time     11.2996
       DOS:  cpu time      0.0007: real time      0.0007
    --------------------------------------------
      LOOP:  cpu time     11.2936: real time     11.3003

 eigenvalue-minimisations  :  1792
 total energy-change (2. order) :-0.1021437E+04  (-0.9978641E+03)
 number of electron     368.0000000 magnetization 
 augmentation part      368.0000000 magnetization 

 Free energy of the ion-electron system (eV)
  ---------------------------------------------------
  alpha Z        PSCENC =        91.34886789
  Ewald energy   TEWEN  =    119147.85596425
  -Hartree energ DENC   =   -128494.54180769
  -exchange      EXHF   =         0.00000000
  -V(xc)+E(xc)   XCENC  =      1220.19013079
  PAW double counting   =      9984.02826696   -10036.41360137
  entropy T*S    EENTRO =        -0.05450828
  eigenvalues    EBANDS =     -6282.91513435
  atomic energy  EATOM  =     13537.65479391
  Solvation  Ediel_sol  =         0.00000000
  ---------------------------------------------------
  free energy    TOTEN  =      -832.84702789 eV

  energy without entropy =     -832.79251961  energy(sigma->0) =     -832.81977375


--------------------------------------------------------------------------------------------------------




--------------------------------------- Iteration      1(   4)  ---------------------------------------


     EDDAV:  cpu time     10.9074: real time     10.9111
       DOS:  cpu time      0.0007: real time      0.0007
    --------------------------------------------
      LOOP:  cpu time     10.9080: real time     10.9118

 eigenvalue-minimisations  :  1712
 total energy-change (2. order) :-0.6215743E+02  (-0.6117263E+02)
 number of electron     368.0000000 magnetization 
 augmentation part      368.0000000 magnetization 

 Free energy of the ion-electron system (eV)
  ---------------------------------------------------
  alpha Z        PSCENC =        91.34886789
  Ewald energy   TEWEN  =    119147.85596425
  -Hartree energ DENC   =   -128494.54180769
  -exchange      EXHF   =         0.00000000
  -V(xc)+E(xc)   XCENC  =      1220.19013079
  PAW double counting   =      9984.02826696   -10036.41360137
  entropy T*S    EENTRO =        -0.05874352
  eigenvalues    EBANDS =     -6345.06833202
  atomic energy  EATOM  =     13537.65479391
  Solvation  Ediel_sol  =         0.00000000
  ---------------------------------------------------
  free energy    TOTEN  =      -895.00446081 eV

  energy without entropy =     -894.94571729  energy(sigma->0) =     -894.97508905


--------------------------------------------------------------------------------------------------------




--------------------------------------- Iteration      1(   5)  ---------------------------------------


     EDDAV:  cpu time     11.2119: real time     11.2156
       DOS:  cpu time      0.0007: real time      0.0007
    CHARGE:  cpu time      1.2054: real time      1.2077
    MIXING:  cpu time      0.2734: real time      0.2752
    --------------------------------------------
      LOOP:  cpu time     12.6915: real time     12.6992

 eigenvalue-minimisations  :  1776
 total energy-change (2. order) :-0.1521830E+01  (-0.1500482E+01)
 number of electron     367.9999999 magnetization 
 augmentation part       10.0992373 magnetization 

 Broyden mixing:
  rms(total) = 0.45164E+01    rms(broyden)= 0.45158E+01
  rms(prec ) = 0.46327E+01
  weight for this iteration     100.00

 Free energy of the ion-electron system (eV)
  ---------------------------------------------------
  alpha Z        PSCENC =        91.34886789
  Ewald energy   TEWEN  =    119147.85596425
  -Hartree energ DENC   =   -128494.54180769
  -exchange      EXHF   =         0.00000000
  -V(xc)+E(xc)   XCENC  =      1220.19013079
  PAW double counting   =      9984.02826696   -10036.41360137
  entropy T*S    EENTRO =        -0.05887677
  eigenvalues    EBANDS =     -6346.59002862
  atomic energy  EATOM  =     13537.65479391
  Solvation  Ediel_sol  =         0.00000000
  ---------------------------------------------------
  free energy    TOTEN  =      -896.52629065 eV

  energy without entropy =     -896.46741388  energy(sigma->0) =     -896.49685226


--------------------------------------------------------------------------------------------------------




--------------------------------------- Iteration      1(   6)  ---------------------------------------


    POTLOK:  cpu time      0.3199: real time      0.3199
    SETDIJ:  cpu time      0.0406: real time      0.0406
     EDDAV:  cpu time     10.2291: real time     10.2327
       DOS:  cpu time      0.0007: real time      0.0007
    CHARGE:  cpu time      1.1557: real time      1.1584
    MIXING:  cpu time      0.2780: real time      0.2790
    --------------------------------------------
      LOOP:  cpu time     12.0239: real time     12.0313

 eigenvalue-minimisations  :  1576
 total energy-change (2. order) : 0.4871519E+02  (-0.4670938E+01)
 number of electron     367.9999999 magnetization 
 augmentation part        9.6792468 magnetization 

 Broyden mixing:
  rms(total) = 0.26515E+01    rms(broyden)= 0.26514E+01
  rms(prec ) = 0.27091E+01
  weight for this iteration     100.00

 eigenvalues of (default mixing * dielectric matrix)
  average eigenvalue GAMMA=   2.1810
  2.1810

 Free energy of the ion-electron system (eV)
  ---------------------------------------------------
  alpha Z        PSCENC =        91.34886789
  Ewald energy   TEWEN  =    119147.85596425
  -Hartree energ DENC   =   -129059.25520143
  -exchange      EXHF   =         0.00000000
  -V(xc)+E(xc)   XCENC  =      1243.32986984
  PAW double counting   =     18850.92523503   -18910.83434475
  entropy T*S    EENTRO =        -0.06143068
  eigenvalues    EBANDS =     -5748.77485765
  atomic energy  EATOM  =     13537.65479391
  Solvation  Ediel_sol  =         0.00000000
  ---------------------------------------------------
  free energy    TOTEN  =      -847.81110358 eV

  energy without entropy =     -847.74967290  energy(sigma->0) =     -847.78038824


--------------------------------------------------------------------------------------------------------




--------------------------------------- Iteration      1(   7)  ---------------------------------------


    POTLOK:  cpu time      0.3206: real time      0.3207
    SETDIJ:  cpu time      0.0405: real time      0.0404
     EDDAV:  cpu time     10.1877: real time     10.1913
       DOS:  cpu time      0.0007: real time      0.0007
    CHARGE:  cpu time      1.1544: real time      1.1547
    MIXING:  cpu time      0.2818: real time      0.2817
    --------------------------------------------
      LOOP:  cpu time     11.9857: real time     11.9895

 eigenvalue-minimisations  :  1568
 total energy-change (2. order) : 0.1812543E+02  (-0.6399635E+01)
 number of electron     367.9999999 magnetization 
 augmentation part        9.1312968 magnetization 

 Broyden mixing:
  rms(total) = 0.72452E+00    rms(broyden)= 0.72425E+00
  rms(prec ) = 0.73424E+00
  weight for this iteration     100.00

 eigenvalues of (default mixing * dielectric matrix)
  average eigenvalue GAMMA=   2.1734
  2.1734  2.1734

 Free energy of the ion-electron system (eV)
  ---------------------------------------------------
  alpha Z        PSCENC =        91.34886789
  Ewald energy   TEWEN  =    119147.85596425
  -Hartree energ DENC   =   -129814.69794622
  -exchange      EXHF   =         0.00000000
  -V(xc)+E(xc)   XCENC  =      1274.10737164
  PAW double counting   =     36229.38318127   -36296.10204067
  entropy T*S    EENTRO =        -0.06756299
  eigenvalues    EBANDS =     -4999.16830460
  atomic energy  EATOM  =     13537.65479391
  Solvation  Ediel_sol  =         0.00000000
  ---------------------------------------------------
  free energy    TOTEN  =      -829.68567552 eV

  energy without entropy =     -829.61811253  energy(sigma->0) =     -829.65189402


--------------------------------------------------------------------------------------------------------




--------------------------------------- Iteration      1(   8)  ---------------------------------------


    POTLOK:  cpu time      0.3214: real time      0.3214
    SETDIJ:  cpu time      0.0403: real time      0.0403
     EDDAV:  cpu time     10.3120: real time     10.3156
       DOS:  cpu time      0.0008: real time      0.0008
    CHARGE:  cpu time      1.1525: real time      1.1570
    MIXING:  cpu time      0.2816: real time      0.2816
    --------------------------------------------
      LOOP:  cpu time     12.1086: real time     12.1167

 eigenvalue-minimisations  :  1592
 total energy-change (2. order) : 0.2825158E+00  (-0.2359276E+00)
 number of electron     367.9999999 magnetization 
 augmentation part        9.1135718 magnetization 

 Broyden mixing:
  rms(total) = 0.10349E+00    rms(broyden)= 0.10345E+00
  rms(prec ) = 0.12495E+00
  weight for this iteration     100.00

 eigenvalues of (default mixing * dielectric matrix)
  average eigenvalue GAMMA=   1.8412
  1.1477  1.9571  2.4187

 Free energy of the ion-electron system (eV)
  ---------------------------------------------------
  alpha Z        PSCENC =        91.34886789
  Ewald energy   TEWEN  =    119147.85596425
  -Hartree energ DENC   =   -129907.57872938
  -exchange      EXHF   =         0.00000000
  -V(xc)+E(xc)   XCENC  =      1273.99748785
  PAW double counting   =     40354.68929269   -40418.85859528
  entropy T*S    EENTRO =        -0.06472970
  eigenvalues    EBANDS =     -4908.44751198
  atomic energy  EATOM  =     13537.65479391
  Solvation  Ediel_sol  =         0.00000000
  ---------------------------------------------------
  free energy    TOTEN  =      -829.40315976 eV

  energy without entropy =     -829.33843006  energy(sigma->0) =     -829.37079491


--------------------------------------------------------------------------------------------------------




--------------------------------------- Iteration      1(   9)  ---------------------------------------


    POTLOK:  cpu time      0.3192: real time      0.3192
    SETDIJ:  cpu time      0.0403: real time      0.0403
     EDDAV:  cpu time     10.7145: real time     10.7182
       DOS:  cpu time      0.0007: real time      0.0007
    CHARGE:  cpu time      1.1539: real time      1.1560
    MIXING:  cpu time      0.2860: real time      0.2861
    --------------------------------------------
      LOOP:  cpu time     12.5147: real time     12.5204

 eigenvalue-minimisations  :  1672
 total energy-change (2. order) : 0.1040921E+00  (-0.2397345E-01)
 number of electron     367.9999999 magnetization 
 augmentation part        9.0918522 magnetization 

 Broyden mixing:
  rms(total) = 0.56897E-01    rms(broyden)= 0.56889E-01
  rms(prec ) = 0.78523E-01
  weight for this iteration     100.00

 eigenvalues of (default mixing * dielectric matrix)
  average eigenvalue GAMMA=   1.6825
  2.2024  2.2024  1.0108  1.3143

 Free energy of the ion-electron system (eV)
  ---------------------------------------------------
  alpha Z        PSCENC =        91.34886789
  Ewald energy   TEWEN  =    119147.85596425
  -Hartree energ DENC   =   -129974.81028164
  -exchange      EXHF   =         0.00000000
  -V(xc)+E(xc)   XCENC  =      1275.28828527
  PAW double counting   =     40943.72907228   -41007.87936993
  entropy T*S    EENTRO =        -0.06537297
  eigenvalues    EBANDS =     -4842.42102674
  atomic energy  EATOM  =     13537.65479391
  Solvation  Ediel_sol  =         0.00000000
  ---------------------------------------------------
  free energy    TOTEN  =      -829.29906768 eV

  energy without entropy =     -829.23369471  energy(sigma->0) =     -829.26638119


--------------------------------------------------------------------------------------------------------




--------------------------------------- Iteration      1(  10)  ---------------------------------------


    POTLOK:  cpu time      0.3191: real time      0.3191
    SETDIJ:  cpu time      0.0404: real time      0.0404
     EDDAV:  cpu time     10.9857: real time     10.9895
       DOS:  cpu time      0.0008: real time      0.0008
    CHARGE:  cpu time      1.1553: real time      1.1569
    MIXING:  cpu time      0.2930: real time      0.2929
    --------------------------------------------
      LOOP:  cpu time     12.7944: real time     12.7996

 eigenvalue-minimisations  :  1728
 total energy-change (2. order) : 0.3860055E-01  (-0.4179017E-02)
 number of electron     367.9999999 magnetization 
 augmentation part        9.0826583 magnetization 

 Broyden mixing:
  rms(total) = 0.37156E-01    rms(broyden)= 0.37153E-01
  rms(prec ) = 0.56785E-01
  weight for this iteration     100.00

 eigenvalues of (default mixing * dielectric matrix)
  average eigenvalue GAMMA=   1.6783
  2.3885  2.3885  1.5700  1.1851  0.8594

 Free energy of the ion-electron system (eV)
  ---------------------------------------------------
  alpha Z        PSCENC =        91.34886789
  Ewald energy   TEWEN  =    119147.85596425
  -Hartree energ DENC   =   -130022.31980208
  -exchange      EXHF   =         0.00000000
  -V(xc)+E(xc)   XCENC  =      1275.65187299
  PAW double counting   =     40755.26415869   -40819.30271748
  entropy T*S    EENTRO =        -0.06539471
  eigenvalues    EBANDS =     -4795.34821059
  atomic energy  EATOM  =     13537.65479391
  Solvation  Ediel_sol  =         0.00000000
  ---------------------------------------------------
  free energy    TOTEN  =      -829.26046713 eV

  energy without entropy =     -829.19507243  energy(sigma->0) =     -829.22776978


--------------------------------------------------------------------------------------------------------




--------------------------------------- Iteration      1(  11)  ---------------------------------------


    POTLOK:  cpu time      0.3192: real time      0.3193
    SETDIJ:  cpu time      0.0402: real time      0.0402
     EDDAV:  cpu time     10.1737: real time     10.1771
       DOS:  cpu time      0.0007: real time      0.0007
    CHARGE:  cpu time      1.1650: real time      1.1658
    MIXING:  cpu time      0.2973: real time      0.2992
    --------------------------------------------
      LOOP:  cpu time     11.9961: real time     12.0024

 eigenvalue-minimisations  :  1568
 total energy-change (2. order) : 0.2942615E-01  (-0.1930059E-02)
 number of electron     367.9999999 magnetization 
 augmentation part        9.0781844 magnetization 

 Broyden mixing:
  rms(total) = 0.23951E-01    rms(broyden)= 0.23949E-01
  rms(prec ) = 0.38765E-01
  weight for this iteration     100.00

 eigenvalues of (default mixing * dielectric matrix)
  average eigenvalue GAMMA=   1.7790
  3.0300  2.5378  1.9193  0.9358  1.1257  1.1257

 Free energy of the ion-electron system (eV)
  ---------------------------------------------------
  alpha Z        PSCENC =        91.34886789
  Ewald energy   TEWEN  =    119147.85596425
  -Hartree energ DENC   =   -130082.11089632
  -exchange      EXHF   =         0.00000000
  -V(xc)+E(xc)   XCENC  =      1276.17478920
  PAW double counting   =     40693.74282707   -40757.67902851
  entropy T*S    EENTRO =        -0.06529007
  eigenvalues    EBANDS =     -4736.15306840
  atomic energy  EATOM  =     13537.65479391
  Solvation  Ediel_sol  =         0.00000000
  ---------------------------------------------------
  free energy    TOTEN  =      -829.23104099 eV

  energy without entropy =     -829.16575092  energy(sigma->0) =     -829.19839595


--------------------------------------------------------------------------------------------------------




--------------------------------------- Iteration      1(  12)  ---------------------------------------


    POTLOK:  cpu time      0.3199: real time      0.3200
    SETDIJ:  cpu time      0.0403: real time      0.0403
     EDDAV:  cpu time     10.1742: real time     10.1828
       DOS:  cpu time      0.0007: real time      0.0007
    CHARGE:  cpu time      1.1550: real time      1.1565
    MIXING:  cpu time      0.3057: real time      0.3067
    --------------------------------------------
      LOOP:  cpu time     11.9958: real time     12.0071

 eigenvalue-minimisations  :  1568
 total energy-change (2. order) : 0.5752603E-02  (-0.2613530E-02)
 number of electron     367.9999999 magnetization 
 augmentation part        9.0710329 magnetization 

 Broyden mixing:
  rms(total) = 0.14989E-01    rms(broyden)= 0.14985E-01
  rms(prec ) = 0.23059E-01
  weight for this iteration     100.00

 eigenvalues of (default mixing * dielectric matrix)
  average eigenvalue GAMMA=   2.0430
  4.7584  2.2527  2.2527  1.9406  0.9615  1.0677  1.0677

 Free energy of the ion-electron system (eV)
  ---------------------------------------------------
  alpha Z        PSCENC =        91.34886789
  Ewald energy   TEWEN  =    119147.85596425
  -Hartree energ DENC   =   -130152.83998609
  -exchange      EXHF   =         0.00000000
  -V(xc)+E(xc)   XCENC  =      1276.83573744
  PAW double counting   =     40711.65067782   -40775.55530871
  entropy T*S    EENTRO =        -0.06543274
  eigenvalues    EBANDS =     -4666.11060215
  atomic energy  EATOM  =     13537.65479391
  Solvation  Ediel_sol  =         0.00000000
  ---------------------------------------------------
  free energy    TOTEN  =      -829.22528839 eV

  energy without entropy =     -829.15985565  energy(sigma->0) =     -829.19257202


--------------------------------------------------------------------------------------------------------




--------------------------------------- Iteration      1(  13)  ---------------------------------------


    POTLOK:  cpu time      0.3217: real time      0.3218
    SETDIJ:  cpu time      0.0404: real time      0.0404
     EDDAV:  cpu time     10.0038: real time     10.0072
       DOS:  cpu time      0.0007: real time      0.0007
    CHARGE:  cpu time      1.1558: real time      1.1562
    MIXING:  cpu time      0.3120: real time      0.3151
    --------------------------------------------
      LOOP:  cpu time     11.8344: real time     11.8414

 eigenvalue-minimisations  :  1536
 total energy-change (2. order) :-0.1202638E-01  (-0.8580442E-03)
 number of electron     367.9999999 magnetization 
 augmentation part        9.0680075 magnetization 

 Broyden mixing:
  rms(total) = 0.82854E-02    rms(broyden)= 0.82832E-02
  rms(prec ) = 0.11985E-01
  weight for this iteration     100.00

 eigenvalues of (default mixing * dielectric matrix)
  average eigenvalue GAMMA=   2.0676
  5.4699  2.3981  2.3981  1.9965  1.1805  1.1805  0.9225  0.9948

 Free energy of the ion-electron system (eV)
  ---------------------------------------------------
  alpha Z        PSCENC =        91.34886789
  Ewald energy   TEWEN  =    119147.85596425
  -Hartree energ DENC   =   -130203.35798166
  -exchange      EXHF   =         0.00000000
  -V(xc)+E(xc)   XCENC  =      1277.05920235
  PAW double counting   =     40684.75785716   -40748.66116930
  entropy T*S    EENTRO =        -0.06537825
  eigenvalues    EBANDS =     -4615.82947109
  atomic energy  EATOM  =     13537.65479391
  Solvation  Ediel_sol  =         0.00000000
  ---------------------------------------------------
  free energy    TOTEN  =      -829.23731476 eV

  energy without entropy =     -829.17193651  energy(sigma->0) =     -829.20462564


--------------------------------------------------------------------------------------------------------




--------------------------------------- Iteration      1(  14)  ---------------------------------------


    POTLOK:  cpu time      0.3196: real time      0.3197
    SETDIJ:  cpu time      0.0404: real time      0.0404
     EDDAV:  cpu time     10.3321: real time     10.3358
       DOS:  cpu time      0.0007: real time      0.0007
    CHARGE:  cpu time      1.1552: real time      1.1566
    MIXING:  cpu time      0.3226: real time      0.3228
    --------------------------------------------
      LOOP:  cpu time     12.1707: real time     12.1761

 eigenvalue-minimisations  :  1600
 total energy-change (2. order) :-0.1656093E-01  (-0.1111669E-03)
 number of electron     367.9999999 magnetization 
 augmentation part        9.0672995 magnetization 

 Broyden mixing:
  rms(total) = 0.54573E-02    rms(broyden)= 0.54568E-02
  rms(prec ) = 0.77771E-02
  weight for this iteration     100.00

 eigenvalues of (default mixing * dielectric matrix)
  average eigenvalue GAMMA=   2.1875
  6.3347  2.7108  2.7108  1.8596  1.8596  1.1587  1.1587  0.9474  0.9474

 Free energy of the ion-electron system (eV)
  ---------------------------------------------------
  alpha Z        PSCENC =        91.34886789
  Ewald energy   TEWEN  =    119147.85596425
  -Hartree energ DENC   =   -130218.27709686
  -exchange      EXHF   =         0.00000000
  -V(xc)+E(xc)   XCENC  =      1277.06123647
  PAW double counting   =     40667.33164849   -40731.24365708
  entropy T*S    EENTRO =        -0.06537733
  eigenvalues    EBANDS =     -4600.92025543
  atomic energy  EATOM  =     13537.65479391
  Solvation  Ediel_sol  =         0.00000000
  ---------------------------------------------------
  free energy    TOTEN  =      -829.25387569 eV

  energy without entropy =     -829.18849836  energy(sigma->0) =     -829.22118703


--------------------------------------------------------------------------------------------------------




--------------------------------------- Iteration      1(  15)  ---------------------------------------


    POTLOK:  cpu time      0.3200: real time      0.3198
    SETDIJ:  cpu time      0.0403: real time      0.0403
     EDDAV:  cpu time     10.2540: real time     10.2577
       DOS:  cpu time      0.0007: real time      0.0007
    CHARGE:  cpu time      1.1555: real time      1.1564
    MIXING:  cpu time      0.3304: real time      0.3311
    --------------------------------------------
      LOOP:  cpu time     12.1010: real time     12.1060

 eigenvalue-minimisations  :  1584
 total energy-change (2. order) :-0.2061783E-01  (-0.1790229E-03)
 number of electron     367.9999999 magnetization 
 augmentation part        9.0668030 magnetization 

 Broyden mixing:
  rms(total) = 0.30191E-02    rms(broyden)= 0.30187E-02
  rms(prec ) = 0.41688E-02
  weight for this iteration     100.00

 eigenvalues of (default mixing * dielectric matrix)
  average eigenvalue GAMMA=   2.2380
  7.1222  3.5065  2.2256  2.2256  1.7119  1.3009  1.3009  1.0532  0.9668  0.9668

 Free energy of the ion-electron system (eV)
  ---------------------------------------------------
  alpha Z        PSCENC =        91.34886789
  Ewald energy   TEWEN  =    119147.85596425
  -Hartree energ DENC   =   -130229.30376352
  -exchange      EXHF   =         0.00000000
  -V(xc)+E(xc)   XCENC  =      1277.05092337
  PAW double counting   =     40682.29940342   -40746.21323870
  entropy T*S    EENTRO =        -0.06541488
  eigenvalues    EBANDS =     -4589.90202925
  atomic energy  EATOM  =     13537.65479391
  Solvation  Ediel_sol  =         0.00000000
  ---------------------------------------------------
  free energy    TOTEN  =      -829.27449352 eV

  energy without entropy =     -829.20907864  energy(sigma->0) =     -829.24178608


--------------------------------------------------------------------------------------------------------




--------------------------------------- Iteration      1(  16)  ---------------------------------------


    POTLOK:  cpu time      0.3196: real time      0.3195
    SETDIJ:  cpu time      0.0402: real time      0.0402
     EDDAV:  cpu time     10.3349: real time     10.3408
       DOS:  cpu time      0.0007: real time      0.0007
    CHARGE:  cpu time      1.1663: real time      1.1693
    MIXING:  cpu time      0.3368: real time      0.3388
    --------------------------------------------
      LOOP:  cpu time     12.1986: real time     12.2094

 eigenvalue-minimisations  :  1600
 total energy-change (2. order) :-0.8387742E-02  (-0.4419893E-04)
 number of electron     367.9999999 magnetization 
 augmentation part        9.0667509 magnetization 

 Broyden mixing:
  rms(total) = 0.21007E-02    rms(broyden)= 0.21006E-02
  rms(prec ) = 0.26889E-02
  weight for this iteration     100.00

 eigenvalues of (default mixing * dielectric matrix)
  average eigenvalue GAMMA=   2.3483
  7.9392  4.0591  2.4344  2.4344  1.9279  1.4967  1.4967  0.9599  0.9599  1.0616
  1.0616

 Free energy of the ion-electron system (eV)
  ---------------------------------------------------
  alpha Z        PSCENC =        91.34886789
  Ewald energy   TEWEN  =    119147.85596425
  -Hartree energ DENC   =   -130233.16226082
  -exchange      EXHF   =         0.00000000
  -V(xc)+E(xc)   XCENC  =      1277.02925510
  PAW double counting   =     40671.15866587   -40735.07124991
  entropy T*S    EENTRO =        -0.06540624
  eigenvalues    EBANDS =     -4586.03151129
  atomic energy  EATOM  =     13537.65479391
  Solvation  Ediel_sol  =         0.00000000
  ---------------------------------------------------
  free energy    TOTEN  =      -829.28288126 eV

  energy without entropy =     -829.21747501  energy(sigma->0) =     -829.25017814


--------------------------------------------------------------------------------------------------------




--------------------------------------- Iteration      1(  17)  ---------------------------------------


    POTLOK:  cpu time      0.3183: real time      0.3204
    SETDIJ:  cpu time      0.0403: real time      0.0403
     EDDAV:  cpu time     10.2869: real time     10.2906
       DOS:  cpu time      0.0008: real time      0.0008
    CHARGE:  cpu time      1.1524: real time      1.1556
    MIXING:  cpu time      0.3510: real time      0.3515
    --------------------------------------------
      LOOP:  cpu time     12.1498: real time     12.1591

 eigenvalue-minimisations  :  1592
 total energy-change (2. order) :-0.5686127E-02  (-0.4031678E-04)
 number of electron     367.9999999 magnetization 
 augmentation part        9.0666512 magnetization 

 Broyden mixing:
  rms(total) = 0.10172E-02    rms(broyden)= 0.10171E-02
  rms(prec ) = 0.13210E-02
  weight for this iteration     100.00

 eigenvalues of (default mixing * dielectric matrix)
  average eigenvalue GAMMA=   2.3578
  8.3906  4.5390  2.4488  2.4488  2.0650  1.5677  1.3759  1.3759  0.9772  0.9772
  1.0634  1.0634

 Free energy of the ion-electron system (eV)
  ---------------------------------------------------
  alpha Z        PSCENC =        91.34886789
  Ewald energy   TEWEN  =    119147.85596425
  -Hartree energ DENC   =   -130235.51876619
  -exchange      EXHF   =         0.00000000
  -V(xc)+E(xc)   XCENC  =      1277.02951824
  PAW double counting   =     40678.97408243   -40742.88257055
  entropy T*S    EENTRO =        -0.06541162
  eigenvalues    EBANDS =     -4583.68504574
  atomic energy  EATOM  =     13537.65479391
  Solvation  Ediel_sol  =         0.00000000
  ---------------------------------------------------
  free energy    TOTEN  =      -829.28856739 eV

  energy without entropy =     -829.22315577  energy(sigma->0) =     -829.25586158


--------------------------------------------------------------------------------------------------------




--------------------------------------- Iteration      1(  18)  ---------------------------------------


    POTLOK:  cpu time      0.3199: real time      0.3200
    SETDIJ:  cpu time      0.0403: real time      0.0403
     EDDAV:  cpu time     10.4531: real time     10.4568
       DOS:  cpu time      0.0007: real time      0.0007
    CHARGE:  cpu time      1.1528: real time      1.1563
    MIXING:  cpu time      0.3608: real time      0.3610
    --------------------------------------------
      LOOP:  cpu time     12.3275: real time     12.3351

 eigenvalue-minimisations  :  1624
 total energy-change (2. order) :-0.1712394E-02  (-0.6383866E-05)
 number of electron     367.9999999 magnetization 
 augmentation part        9.0665709 magnetization 

 Broyden mixing:
  rms(total) = 0.60826E-03    rms(broyden)= 0.60819E-03
  rms(prec ) = 0.79893E-03
  weight for this iteration     100.00

 eigenvalues of (default mixing * dielectric matrix)
  average eigenvalue GAMMA=   2.3939
  8.8641  4.9615  2.8277  2.5400  1.8520  1.8520  1.5130  1.5130  1.1219  1.1219
  0.9758  0.9758  1.0015

 Free energy of the ion-electron system (eV)
  ---------------------------------------------------
  alpha Z        PSCENC =        91.34886789
  Ewald energy   TEWEN  =    119147.85596425
  -Hartree energ DENC   =   -130236.24457976
  -exchange      EXHF   =         0.00000000
  -V(xc)+E(xc)   XCENC  =      1277.02876295
  PAW double counting   =     40676.45003486   -40740.35923023
  entropy T*S    EENTRO =        -0.06540751
  eigenvalues    EBANDS =     -4582.95948613
  atomic energy  EATOM  =     13537.65479391
  Solvation  Ediel_sol  =         0.00000000
  ---------------------------------------------------
  free energy    TOTEN  =      -829.29027978 eV

  energy without entropy =     -829.22487227  energy(sigma->0) =     -829.25757602


--------------------------------------------------------------------------------------------------------




--------------------------------------- Iteration      1(  19)  ---------------------------------------


    POTLOK:  cpu time      0.3199: real time      0.3199
    SETDIJ:  cpu time      0.0403: real time      0.0403
     EDDAV:  cpu time      8.9853: real time      8.9892
       DOS:  cpu time      0.0007: real time      0.0008
    CHARGE:  cpu time      1.1530: real time      1.1559
    MIXING:  cpu time      0.3698: real time      0.3711
    --------------------------------------------
      LOOP:  cpu time     10.8690: real time     10.8770

 eigenvalue-minimisations  :  1328
 total energy-change (2. order) :-0.1063659E-02  (-0.3657905E-05)
 number of electron     367.9999999 magnetization 
 augmentation part        9.0666065 magnetization 

 Broyden mixing:
  rms(total) = 0.35848E-03    rms(broyden)= 0.35847E-03
  rms(prec ) = 0.45273E-03
  weight for this iteration     100.00

 eigenvalues of (default mixing * dielectric matrix)
  average eigenvalue GAMMA=   2.4091
  8.9012  5.5753  3.1568  2.4225  2.4225  1.8936  1.4122  1.4122  1.2886  1.2886
  0.9872  0.9872  0.9568  1.0229

 Free energy of the ion-electron system (eV)
  ---------------------------------------------------
  alpha Z        PSCENC =        91.34886789
  Ewald energy   TEWEN  =    119147.85596425
  -Hartree energ DENC   =   -130236.53202417
  -exchange      EXHF   =         0.00000000
  -V(xc)+E(xc)   XCENC  =      1277.02553633
  PAW double counting   =     40675.57195182   -40739.47961738
  entropy T*S    EENTRO =        -0.06540509
  eigenvalues    EBANDS =     -4582.67141100
  atomic energy  EATOM  =     13537.65479391
  Solvation  Ediel_sol  =         0.00000000
  ---------------------------------------------------
  free energy    TOTEN  =      -829.29134344 eV

  energy without entropy =     -829.22593835  energy(sigma->0) =     -829.25864089


--------------------------------------------------------------------------------------------------------




--------------------------------------- Iteration      1(  20)  ---------------------------------------


    POTLOK:  cpu time      0.3194: real time      0.3195
    SETDIJ:  cpu time      0.0402: real time      0.0402
     EDDAV:  cpu time      9.2371: real time      9.2434
       DOS:  cpu time      0.0007: real time      0.0007
    CHARGE:  cpu time      1.1546: real time      1.1547
    MIXING:  cpu time      0.3905: real time      0.3923
    --------------------------------------------
      LOOP:  cpu time     11.1425: real time     11.1509

 eigenvalue-minimisations  :  1376
 total energy-change (2. order) :-0.4059716E-03  (-0.7759200E-06)
 number of electron     367.9999999 magnetization 
 augmentation part        9.0665709 magnetization 

 Broyden mixing:
  rms(total) = 0.21264E-03    rms(broyden)= 0.21263E-03
  rms(prec ) = 0.26391E-03
  weight for this iteration     100.00

 eigenvalues of (default mixing * dielectric matrix)
  average eigenvalue GAMMA=   2.4451
  9.2016  5.8875  3.7017  2.6316  2.3279  1.9963  1.5674  1.5674  1.3920  1.3133
  0.9698  0.9856  0.9856  1.0742  1.0742

 Free energy of the ion-electron system (eV)
  ---------------------------------------------------
  alpha Z        PSCENC =        91.34886789
  Ewald energy   TEWEN  =    119147.85596425
  -Hartree energ DENC   =   -130236.76460508
  -exchange      EXHF   =         0.00000000
  -V(xc)+E(xc)   XCENC  =      1277.02681654
  PAW double counting   =     40676.26483065   -40740.17322219
  entropy T*S    EENTRO =        -0.06540692
  eigenvalues    EBANDS =     -4582.43978846
  atomic energy  EATOM  =     13537.65479391
  Solvation  Ediel_sol  =         0.00000000
  ---------------------------------------------------
  free energy    TOTEN  =      -829.29174941 eV

  energy without entropy =     -829.22634249  energy(sigma->0) =     -829.25904595


--------------------------------------------------------------------------------------------------------




--------------------------------------- Iteration      1(  21)  ---------------------------------------


    POTLOK:  cpu time      0.3199: real time      0.3199
    SETDIJ:  cpu time      0.0404: real time      0.0404
     EDDAV:  cpu time      8.7105: real time      8.7147
       DOS:  cpu time      0.0008: real time      0.0008
    CHARGE:  cpu time      1.1665: real time      1.1668
    MIXING:  cpu time      0.3949: real time      0.3963
    --------------------------------------------
      LOOP:  cpu time     10.6329: real time     10.6389

 eigenvalue-minimisations  :  1272
 total energy-change (2. order) :-0.2130551E-03  (-0.2862700E-06)
 number of electron     367.9999999 magnetization 
 augmentation part        9.0665782 magnetization 

 Broyden mixing:
  rms(total) = 0.10426E-03    rms(broyden)= 0.10425E-03
  rms(prec ) = 0.12958E-03
  weight for this iteration     100.00

 eigenvalues of (default mixing * dielectric matrix)
  average eigenvalue GAMMA=   2.4235
  9.1784  6.2193  3.8838  2.6589  2.2982  2.2982  1.8378  1.4911  1.4911  1.2437
  1.2437  0.9956  0.9956  1.0411  0.9495  0.9495

 Free energy of the ion-electron system (eV)
  ---------------------------------------------------
  alpha Z        PSCENC =        91.34886789
  Ewald energy   TEWEN  =    119147.85596425
  -Hartree energ DENC   =   -130236.83291993
  -exchange      EXHF   =         0.00000000
  -V(xc)+E(xc)   XCENC  =      1277.02543156
  PAW double counting   =     40674.95973418   -40738.86839223
  entropy T*S    EENTRO =        -0.06540836
  eigenvalues    EBANDS =     -4582.37003373
  atomic energy  EATOM  =     13537.65479391
  Solvation  Ediel_sol  =         0.00000000
  ---------------------------------------------------
  free energy    TOTEN  =      -829.29196246 eV

  energy without entropy =     -829.22655411  energy(sigma->0) =     -829.25925829


[...]
   0.227E+02 -.166E+02 0.130E+03   -.223E+02 0.169E+02 -.131E+03   0.786E+00 -.209E+00 0.194E+01   0.715E-06 0.115E-05 -.610E-06
   0.341E+02 -.948E+01 0.168E+03   -.355E+02 0.950E+01 -.168E+03   -.136E+01 -.214E+00 -.978E-01   0.764E-05 0.358E-06 0.795E-06
   0.197E+02 0.114E+02 0.764E+02   -.209E+02 -.121E+02 -.757E+02   -.127E+01 0.275E+00 -.463E+00   0.550E-05 0.334E-05 0.548E-06
   0.125E+02 0.335E+01 0.179E+03   -.122E+02 -.288E+01 -.180E+03   0.292E+00 0.574E+00 0.231E+00   -.339E-05 -.221E-05 0.359E-05
   0.667E+01 -.988E+01 0.166E+03   -.585E+01 0.103E+02 -.167E+03   0.321E+00 0.395E+00 0.145E+01   0.350E-06 -.567E-05 0.138E-05
   -.659E+01 -.789E+01 0.155E+03   0.802E+01 0.698E+01 -.155E+03   0.103E+01 -.579E+00 -.165E+01   -.337E-05 0.252E-05 0.457E-05
   -.301E+01 0.159E+02 0.106E+03   0.343E+01 -.171E+02 -.106E+03   0.451E+00 -.762E+00 -.261E+00   0.328E-05 -.185E-05 0.195E-05
   -.716E+01 0.136E+02 0.214E+03   0.654E+01 -.144E+02 -.215E+03   -.267E+00 -.799E-01 0.234E+01   0.846E-05 0.106E-05 0.539E-05
   -.124E+01 -.133E+02 0.126E+03   0.463E+00 0.139E+02 -.126E+03   0.324E-01 0.637E+00 -.465E+00   0.850E-05 0.851E-06 0.341E-05
   -.143E+02 -.193E+02 0.145E+03   0.142E+02 0.203E+02 -.145E+03   0.640E+00 0.707E+00 -.690E+00   0.170E-05 -.384E-05 0.304E-05
   -.116E+02 0.665E+01 0.907E+02   0.115E+02 -.645E+01 -.907E+02   0.181E+00 0.493E+00 0.774E+00   -.644E-06 -.656E-05 0.642E-07
   -.182E+02 0.180E+02 0.903E+02   0.184E+02 -.181E+02 -.900E+02   0.103E+01 0.123E+00 -.582E+00   -.949E-05 0.168E-05 -.118E-05
   -.135E+02 -.158E+02 0.527E+02   0.142E+02 0.159E+02 -.526E+02   0.156E+00 -.400E+00 0.529E+00   -.861E-05 -.244E-05 -.289E-05
   -.145E+02 -.172E+02 0.128E+03   0.134E+02 0.167E+02 -.129E+03   -.121E+01 -.200E+01 0.152E+01   -.279E-05 0.362E-05 -.213E-06
   0.179E+02 0.698E+01 -.284E+02   -.194E+02 -.647E+01 0.286E+02   -.865E+00 0.132E+01 -.163E+01   -.205E-05 -.462E-05 -.111E-05
   -.775E+01 0.631E+01 0.583E+01   0.821E+01 -.480E+01 -.442E+01   0.238E+00 0.196E+01 -.212E+01   0.302E-05 -.301E-06 0.143E-05
   0.125E+01 0.247E+01 -.971E+01   -.372E+00 -.433E+01 0.943E+01   -.529E+00 -.934E+00 0.972E+00   0.288E-05 0.467E-06 0.503E-06
   -.228E+02 -.153E+02 0.783E+02   0.229E+02 0.153E+02 -.792E+02   -.111E+01 -.773E+00 0.958E+00   0.695E-06 0.179E-05 0.780E-06
   0.578E-02 0.813E+01 -.573E+02   0.392E+00 -.796E+01 0.576E+02   -.302E+00 -.267E+00 -.557E-01   0.269E-07 0.347E-05 -.386E-06
   -.110E+02 0.928E+01 -.411E+01   0.114E+02 -.948E+01 0.462E+01   -.185E+00 0.570E+00 -.350E+00   -.658E-05 -.121E-05 -.208E-05
   0.153E+02 -.127E+02 -.804E+02   -.147E+02 0.135E+02 0.810E+02   0.703E+00 0.725E+00 0.307E+00   -.617E-05 -.435E-06 -.281E-05
   -.151E+02 -.888E+01 0.439E+00   0.160E+02 0.844E+01 -.385E+00   0.796E-02 -.421E+00 0.297E-01   -.246E-05 -.218E-05 -.392E-06
   0.242E+02 0.115E+02 -.146E+03   -.241E+02 -.117E+02 0.146E+03   -.201E+00 0.657E+00 0.188E+00   -.229E-05 -.505E-05 -.116E-05
   0.137E+02 0.200E+02 -.798E+02   -.135E+02 -.215E+02 0.793E+02   -.339E+00 -.127E+01 0.721E-01   0.107E-04 -.442E-05 0.246E-05
   0.479E+02 -.152E+02 -.186E+03   -.497E+02 0.160E+02 0.187E+03   -.783E+00 0.251E+00 -.172E+01   0.672E-05 -.127E-06 0.139E-05
   0.514E+01 -.157E+02 -.841E+02   -.580E+01 0.180E+02 0.840E+02   0.550E+00 0.178E+01 0.425E+00   -.189E-05 -.963E-05 -.438E-05
   0.741E+01 -.873E+01 -.177E+03   -.591E+01 0.989E+01 0.177E+03   0.915E+00 0.212E+00 0.909E+00   -.384E-05 -.262E-05 -.345E-05
   0.109E+02 0.645E+02 -.183E+03   -.139E+02 -.659E+02 0.184E+03   0.110E+01 0.190E+01 -.303E+00   0.428E-05 -.119E-05 -.710E-05
   0.119E+02 -.674E+02 -.224E+03   -.152E+02 0.686E+02 0.225E+03   0.131E+01 -.432E+00 -.137E+01   0.468E-05 -.547E-05 -.643E-05
   0.163E+02 0.570E+02 -.229E+03   -.145E+02 -.566E+02 0.231E+03   -.244E+01 0.144E+01 -.120E+01   -.112E-05 0.496E-05 -.787E-05
   0.871E+01 -.611E+02 -.226E+03   -.501E+01 0.624E+02 0.227E+03   -.364E+00 -.212E+01 -.262E+01   -.114E-05 -.550E-05 -.645E-05
   -.121E+01 -.616E+00 -.152E+03   0.158E+01 0.791E+00 0.151E+03   -.343E+00 0.280E+00 0.889E+00   0.515E-05 -.114E-05 -.456E-05
   -.191E+01 0.719E+01 -.904E+02   0.215E+01 -.733E+01 0.893E+02   -.238E-02 0.414E+00 0.204E+01   -.616E-07 0.232E-06 -.378E-05
   -.202E+02 0.107E+02 -.151E+03   0.212E+02 -.108E+02 0.151E+03   0.717E+00 -.196E-01 -.188E+00   -.294E-05 -.101E-05 -.138E-05
   -.824E+01 -.175E+02 -.143E+03   0.651E+01 0.175E+02 0.144E+03   -.154E+01 -.232E+00 -.659E+00   -.375E-06 -.438E-05 -.127E-05
   -.210E+02 -.793E+01 -.122E+03   0.206E+02 0.803E+01 0.122E+03   -.229E+00 0.255E+00 -.206E+00   0.146E-05 0.228E-05 -.124E-05
   -.214E+02 0.279E+01 -.832E+02   0.237E+02 -.232E+01 0.824E+02   0.593E+00 0.644E+00 -.333E+00   0.521E-05 -.992E-05 -.361E-06
   -.238E+02 0.109E+02 -.124E+03   0.240E+02 -.117E+02 0.125E+03   0.303E+00 -.189E+00 -.908E+00   0.191E-05 0.372E-05 -.125E-05
   -.169E+02 -.197E+02 -.793E+02   0.161E+02 0.212E+02 0.797E+02   -.124E+01 0.685E+00 0.207E+00   0.243E-05 -.275E-05 -.845E-06
   -.211E+02 -.923E+01 -.642E+02   0.212E+02 0.914E+01 0.644E+02   0.370E+00 -.373E-01 -.692E-01   -.173E-05 0.533E-05 0.122E-05
   0.256E+01 0.114E+02 -.364E-01   -.190E+01 -.126E+02 -.268E+00   0.404E+00 -.104E+01 0.105E+00   -.263E-05 0.178E-05 0.120E-05
   -.180E+02 0.751E+01 -.849E+02   0.179E+02 -.779E+01 0.854E+02   -.302E+00 0.841E+00 -.103E+01   -.107E-05 0.352E-06 0.110E-05
   0.105E+01 -.775E+01 0.912E+00   -.186E+01 0.818E+01 -.571E+00   0.931E-01 0.108E+01 0.933E-01   -.479E-05 -.217E-05 0.240E-05
   -.121E+02 -.446E+01 -.589E+02   0.118E+02 0.430E+01 0.590E+02   -.233E+00 -.588E+00 0.579E-01   -.125E-05 0.658E-05 0.984E-06
   0.121E+02 0.125E+02 0.684E+02   -.111E+02 -.127E+02 -.688E+02   0.176E+01 -.899E+00 -.429E+00   -.638E-05 -.854E-07 0.273E-05
   -.203E+01 -.812E+00 -.176E+01   0.235E+01 0.163E+01 0.155E+01   0.400E+00 -.982E-02 0.164E+00   -.132E-05 -.634E-05 0.164E-05
   0.175E+02 -.151E+02 0.781E+02   -.183E+02 0.158E+02 -.777E+02   0.233E+00 -.551E+00 0.559E-02   0.306E-06 -.325E-05 0.109E-05
   0.569E+01 -.407E+01 -.145E+02   -.665E+01 0.388E+01 0.150E+02   0.759E-01 -.898E-01 -.547E+00   0.115E-06 0.317E-05 0.703E-06
   0.342E+02 0.178E+02 0.154E+03   -.351E+02 -.183E+02 -.154E+03   -.639E-01 -.200E+00 0.100E+01   0.371E-05 0.756E-05 -.824E-06
   -.882E+01 -.432E+01 -.151E+01   0.967E+01 0.527E+01 0.166E+01   0.807E+00 0.515E+00 -.133E+01   -.241E-05 -.348E-05 0.158E-05
   0.232E+01 -.681E+01 0.130E+03   -.137E+01 0.659E+01 -.130E+03   0.574E+00 -.223E+00 0.319E+00   -.179E-05 0.126E-06 0.197E-05
   -.699E+01 -.135E+02 0.375E+02   0.712E+01 0.144E+02 -.371E+02   -.193E+00 -.351E+00 -.489E+00   0.900E-06 0.114E-05 0.102E-05
   0.123E+02 0.117E+02 0.178E+03   -.139E+02 -.108E+02 -.178E+03   -.836E+00 0.782E+00 0.115E+01   0.496E-05 0.125E-05 0.310E-05
   -.465E+01 0.965E+01 0.962E+02   0.482E+01 -.998E+01 -.966E+02   -.288E+00 -.563E+00 0.984E+00   0.236E-05 0.250E-05 0.890E-06
   -.125E+02 -.998E+01 0.151E+03   0.138E+02 0.992E+01 -.151E+03   0.195E+00 -.109E+01 -.332E+00   0.884E-05 0.238E-05 0.300E-05
   -.125E+02 -.996E+01 0.538E+02   0.130E+02 0.105E+02 -.533E+02   0.130E+00 0.267E+00 -.127E+01   -.200E-05 -.356E-05 -.256E-06
   -.187E+02 0.188E+02 0.183E+03   0.183E+02 -.197E+02 -.184E+03   -.791E+00 -.620E-01 0.909E+00   0.461E-07 0.400E-05 0.346E-05
   -.167E+02 0.183E+02 0.100E+03   0.165E+02 -.199E+02 -.100E+03   -.564E+00 -.127E+01 0.115E+01   -.409E-05 0.487E-05 -.148E-05
   -.276E+02 -.117E+02 0.154E+03   0.284E+02 0.126E+02 -.154E+03   0.654E-01 -.514E+00 0.251E+00   -.986E-05 0.345E-05 -.109E-05
   0.941E+01 -.436E+01 0.184E+02   -.103E+02 0.401E+01 -.181E+02   0.547E+00 0.231E+00 -.787E+00   0.106E-05 0.155E-05 -.111E-06
   -.256E+02 0.933E+01 0.126E+03   0.257E+02 -.901E+01 -.126E+03   -.845E-01 -.661E+00 -.617E+00   -.413E-05 -.183E-05 0.405E-07
   -.242E+02 0.128E+02 0.585E+02   0.247E+02 -.140E+02 -.588E+02   0.743E+00 -.181E+00 0.163E+01   0.434E-05 -.469E-06 0.135E-05
   -.275E+02 -.106E+02 0.109E+03   0.274E+02 0.120E+02 -.110E+03   -.396E-03 0.540E+00 -.182E+00   0.114E-05 -.250E-05 0.988E-06
   0.126E+02 -.185E+02 -.360E+02   -.134E+02 0.191E+02 0.366E+02   0.133E+01 -.839E+00 -.124E+01   0.182E-05 -.132E-05 0.832E-06
   -.389E+02 0.196E+02 0.105E+03   0.398E+02 -.208E+02 -.105E+03   0.217E+00 -.734E+00 0.847E+00   0.282E-06 0.283E-05 0.846E-06
   -.166E+02 0.152E+02 0.110E+02   0.172E+02 -.155E+02 -.119E+02   -.313E+00 0.119E+01 0.230E+01   -.527E-05 0.377E-06 -.305E-05
   -.204E+01 -.807E+01 0.382E+02   0.454E+00 0.839E+01 -.383E+02   0.898E-02 0.358E+00 -.178E+01   0.956E-06 -.248E-05 0.172E-05
   0.211E+02 -.195E+02 -.129E+03   -.207E+02 0.195E+02 0.130E+03   0.130E+01 -.145E+00 -.170E+01   -.518E-05 0.756E-05 -.269E-05
   -.289E+02 0.120E+01 0.664E+02   0.294E+02 -.202E+00 -.666E+02   0.271E+00 0.757E+00 0.989E+00   0.215E-05 -.582E-05 0.692E-06
   0.142E+02 0.211E+02 -.866E+02   -.150E+02 -.219E+02 0.866E+02   -.282E+00 -.360E+00 -.283E+00   0.410E-05 0.814E-05 -.548E-06
   -.201E+02 -.422E+01 0.478E+02   0.202E+02 0.419E+01 -.484E+02   0.177E+00 0.427E+00 0.147E+01   0.843E-05 0.705E-05 0.256E-05
   0.925E+01 -.612E+01 -.141E+03   -.917E+01 0.565E+01 0.141E+03   0.291E+00 -.166E+00 -.315E+00   0.268E-05 0.325E-05 -.187E-05
   -.902E+01 0.167E+02 -.127E+02   0.873E+01 -.187E+02 0.116E+02   0.105E+01 -.622E+00 0.931E+00   -.535E-05 0.388E-05 -.234E-05
   0.102E+02 0.663E+02 -.164E+03   -.133E+02 -.666E+02 0.164E+03   -.777E-01 0.205E+01 -.208E+00   0.523E-05 0.687E-05 -.450E-05
   0.139E+02 -.500E+02 -.137E+03   -.173E+02 0.493E+02 0.138E+03   0.154E+01 -.232E+01 -.684E+00   -.263E-05 -.461E-05 -.629E-05
 -----------------------------------------------------------------------------------------------
   -.846E+00 -.283E+00 0.163E+01   0.515E-12 0.242E-12 0.256E-12   0.774E+00 0.272E+00 -.160E+01   0.970E-05 -.724E-05 -.190E-04
 
 
 POSITION                                       TOTAL-FORCE (eV/Angst)
 -----------------------------------------------------------------------------------
      0.24603      0.77025     18.66850        -0.320183      2.744716     -1.103182
      0.22950      2.18224     18.61280         1.225418     -1.387957      0.794428
      1.36459      0.16727     18.28140         3.462332     -1.898260     -0.737548
      1.46085      2.85173     18.40190        -1.977381     -1.397504     -0.333148
      2.61308      0.80776     17.93700        -0.431133      0.897255     -0.233829
      2.61872      2.19668     17.97180         0.257011     -1.370190      0.271335
      3.82667      0.16543     17.56970         0.189375      0.173279      0.251218
      3.82558      2.84356     17.67250         0.679646      0.823678      0.329169
      5.03450      0.87549     17.13950        -2.373259     -2.904414      0.263158
      5.00443      2.20531     17.22080        -0.676521      1.637611     -0.304764
      6.18222      0.21312     16.69940        -0.760940     -0.346474      0.319356
      6.16627      2.89018     16.88090         3.349757     -0.274995      0.084457
      7.31904      0.88849     16.26150         2.331869     -0.698700     -0.671814
      7.43701      2.21635     16.45050        -2.544550      2.495197      0.864877
      8.54815      0.24967     15.88270        -1.586628     -1.802550      0.371304
      8.68512      2.87820     16.31010        -0.665835     -0.140154     -1.133391
      9.75227      0.86384     15.52120         0.926693      1.181470     -0.336524
      9.78698      2.24512     15.67900         1.241505      0.153206      1.033237
     11.02390      0.22380     15.25050        -2.773063     -0.190060     -0.039854
     11.07670      2.90992     15.57070        -2.490561     -0.437627      0.161848
     12.22200      0.88268     15.08590         0.530116      1.039575     -0.165436
     12.23810      2.25865     15.19530         1.138834      0.830896      0.692606
     13.45210      0.24838     15.03570         2.464947     -1.485871     -1.467803
     13.48590      2.95095     15.26980         0.868966     -1.982534     -0.200133
     14.75260      0.90678     14.97120        -0.884104     -0.931207      1.477136
     14.75160      2.25188     15.19430        -0.744059      1.234622     -0.317109
     15.99630      0.22487     15.18330         0.525679      1.708971     -0.672200
     15.97450      2.91369     15.42180         0.117921      0.687563      0.760242
     17.20790      0.89390     15.53150         1.215348     -0.071509     -0.274919
     17.18920      2.25261     15.68230         0.821982     -0.313676      0.597772
     18.52000      0.27568     15.72600        -2.346088     -2.428787      0.194926
     18.41580      2.86609     16.14380        -2.415059      1.833502     -1.425766
     19.66250      0.81212     16.27260         0.696273      3.471191     -0.702487
     19.60740      2.23263     16.41280         0.350313     -2.787892      0.693463
     20.91840      0.18054     16.44740        -1.066687     -0.781836      0.074629
     20.77210      2.86336     16.83950         0.097086     -0.095819      0.320618
     22.04940      0.79015     16.99240         0.277507      0.371204      0.156220
     21.94230      2.13562     17.22970         1.271999      1.499356      0.833128
     23.26610      0.14012     17.28700         0.885339     -0.865109      0.082862
     23.12300      2.77969     17.75500        -0.139729      0.449054      0.190267
     24.42780      0.79099     17.86520        -0.134988     -2.723193     -0.399355
     24.37270      2.10892     18.15780        -2.577560      1.021724     -1.267083
     25.66060      0.05668     18.09410        -0.114031      4.121703      0.238178
     25.55560      2.76568     18.40880         2.412531      1.367446      1.074781
     26.82610      0.72192     18.54040        -1.898697      0.470003      0.303405
     26.78430      2.09191     18.65920        -2.052621      0.768997     -0.590593
      0.29818      4.84040     18.68570        -0.616924      1.783530      0.311362
      0.21810      6.23995     18.64570         3.338217     -0.839947     -0.881660
      1.47540      4.20864     18.45220         0.031789      0.455058      0.487765
      1.41320      6.87836     18.29780         0.233768      0.279671      0.974980
      2.68629      4.87409     18.24170         1.701172     -0.129311     -0.218540
      2.72097      6.24190     18.18050        -3.269731     -0.208840      0.294531
      3.90305      4.20549     17.89050        -0.632126      0.360875      0.067403
      3.85552      6.89289     17.78010         2.874631      1.115133     -1.166981
      5.10729      4.89533     17.59340         0.504668     -1.063437     -0.433827
      5.11998      6.24505     17.46530        -2.043706      2.211011      0.663731
      6.26677      4.23059     17.13710         0.447132     -0.130641      0.138321
      6.21077      6.96306     16.91850         1.064513     -2.197743     -0.200155
      7.49961      4.89042     16.83920        -0.380984      0.559900     -0.488343
      7.43118      6.25542     16.61600        -0.713449      1.509670      0.434229
      8.70039      4.25961     16.46990        -0.602680     -0.746124      0.192365
      8.52642      6.97531     16.09420         2.704740     -1.135645     -0.903981
      9.84864      4.93891     16.06200         0.723437      0.810446     -0.047137
      9.79983      6.30590     15.81030        -0.569304      0.143174      0.375003
     11.07590      4.26370     15.82840        -0.890680     -0.283343     -0.084029
     11.00880      6.95774     15.34820        -0.930434     -0.708349      0.737269
     12.25390      4.93654     15.62200         1.658754      1.459148     -1.179948
     12.23280      6.28979     15.28580         1.526913     -0.439274      0.446523
     13.50650      4.29843     15.44720        -0.054692      0.516804     -0.074236
     13.51350      6.94383     15.04160        -2.441953      1.723809      0.590889
     14.75090      4.98129     15.30610        -0.115772     -0.902041      0.589870
     14.75410      6.34201     15.11400         1.435343     -1.144390     -0.067160
     15.97310      4.29515     15.48200         0.635783      0.836151     -0.721100
     16.03990      6.97933     15.12070        -1.179076     -0.929744      0.162517
     17.24410      4.98612     15.55440        -0.801992     -2.839325      0.859700
     17.26570      6.33053     15.37170         0.913410      0.407005      0.288321
     18.40290      4.26614     16.00660        -0.362661     -0.115415     -0.528016
     18.50660      6.98381     15.66040         0.034460     -0.343716     -0.649718
     19.61780      4.91702     16.17910         1.249231     -1.304738      1.295602
     19.69700      6.25920     16.00560        -0.118650      1.956210     -0.340234
     20.76220      4.23861     16.74230         0.612177     -0.268098     -0.636501
     20.91620      6.91941     16.32920         1.145585     -1.940135      0.739881
     22.02180      4.81853     16.98180         0.304052      0.846021      1.477274
     22.10740      6.19031     16.83200        -1.576911      0.674551     -1.897170
     23.12340      4.16994     17.64810         1.669316     -0.074335     -0.775033
     23.30800      6.83192     17.10080         0.776110      1.759921      0.743611
     24.43250      4.83643     17.84400        -0.998972     -1.164703     -0.296709
     24.49760      6.15804     17.49400         0.315062      0.407089      0.862393
     25.62930      4.16396     18.29280         0.376893     -0.630158      0.153755
     25.68470      6.84405     17.90900         0.763343     -2.630887     -0.184620
     26.88360      4.79430     18.50060        -3.244186      1.745864     -0.623579
     26.84580      6.22181     18.38540        -1.860387     -3.056602     -0.546301
 -----------------------------------------------------------------------------------
    total drift:                               -0.071706     -0.010552      0.036439


--------------------------------------------------------------------------------------------------------



  FREE ENERGIE OF THE ION-ELECTRON SYSTEM (eV)
  ---------------------------------------------------
  free  energy   TOTEN  =      -829.29207560 eV

  energy  without entropy=     -829.22666783  energy(sigma->0) =     -829.25937172
 


--------------------------------------------------------------------------------------------------------


    POTLOK:  cpu time      0.4539: real time      0.4539


--------------------------------------------------------------------------------------------------------


     LOOP+:  cpu time    333.4142: real time    333.6253
    4ORBIT:  cpu time      0.0000: real time      0.0000

 total amount of memory used by VASP MPI-rank0  2294507. kBytes
=======================================================================

   base                                    :      30000. kBytes
   nonlr-proj                              :      15073. kBytes
   fftplans                                :     436558. kBytes
   grid                                    :     732614. kBytes
   one-center                              :        282. kBytes
   wavefun                                 :    1079980. kBytes
 
  
  
 General timing and accounting informations for this job:
 ========================================================
  
                  Total CPU time used (sec):      366.715
                            User time (sec):      358.363
                          System time (sec):        8.352
                         Elapsed time (sec):      367.030
  
                   Maximum memory used (kb):     3730572.
                   Average memory used (kb):          N/A
  
                          Minor page faults:      3178754
                          Major page faults:         5009
                 Voluntary context switches:        10113
