unknown system                          
            1
    28.050000    0.000000    0.000000
     0.000000    8.100000    0.000000
     0.000000    0.000000   33.500000
   C 
    92
Direct configuration=     1
   0.00877098  0.09509309  0.55726866
   0.00818164  0.26941235  0.55560597
   0.04864848  0.02065037  0.54571343
   0.05208021  0.35206543  0.54931045
   0.09315793  0.09972383  0.53543284
   0.09335900  0.27119506  0.53647164
   0.13642317  0.02042370  0.52446866
   0.13638431  0.35105679  0.52753731
   0.17948307  0.10808494  0.51162687
   0.17841105  0.27226049  0.51405373
   0.22040000  0.02631062  0.49848955
   0.21983137  0.35681235  0.50390746
   0.26092834  0.10969012  0.48541791
   0.26513405  0.27362346  0.49105970
   0.30474688  0.03082346  0.47411045
   0.30962995  0.35533333  0.48686866
   0.34767451  0.10664741  0.46331940
   0.34891194  0.27717531  0.46802985
   0.39300891  0.02762938  0.45523881
   0.39489127  0.35924938  0.46479701
   0.43572193  0.10897272  0.45032537
   0.43629590  0.27884568  0.45359104
   0.47957576  0.03066420  0.44882687
   0.48078075  0.36431481  0.45581493
   0.52593939  0.11194778  0.44690149
   0.52590374  0.27800988  0.45356119
   0.57027807  0.02776111  0.45323284
   0.56950089  0.35971481  0.46035224
   0.61347237  0.11035802  0.46362687
   0.61280570  0.27810000  0.46812836
   0.66024955  0.03403506  0.46943284
   0.65653476  0.35383827  0.48190448
   0.70098039  0.10026222  0.48574925
   0.69901604  0.27563333  0.48993433
   0.74575401  0.02228864  0.49096716
   0.74053832  0.35350123  0.50267164
   0.78607487  0.09754975  0.50723582
   0.78225668  0.26365679  0.51431940
   0.82945098  0.01729889  0.51602985
   0.82434938  0.34317160  0.53000000
   0.87086631  0.09765333  0.53328955
   0.86890196  0.26036049  0.54202388
   0.91481640  0.00699702  0.54012239
   0.91107308  0.34144198  0.54951642
   0.95636720  0.08912605  0.55344478
   0.95487701  0.25826049  0.55699104
   0.01063020  0.59758025  0.55778209
   0.00777551  0.77036420  0.55658806
   0.05259893  0.51958519  0.55081194
   0.05038146  0.84918025  0.54620299
   0.09576791  0.60173951  0.54452836
   0.09700428  0.77060494  0.54270149
   0.13914617  0.51919630  0.53404478
   0.13745169  0.85097407  0.53074925
   0.18207807  0.60436173  0.52517612
   0.18253048  0.77099383  0.52135224
   0.22341426  0.52229506  0.51155522
   0.22141783  0.85963704  0.50502985
   0.26736578  0.60375556  0.50266269
   0.26492620  0.77227407  0.49600000
   0.31017433  0.52587778  0.49163881
   0.30397219  0.86114938  0.48042388
   0.35111016  0.60974198  0.47946269
   0.34937005  0.77850617  0.47194925
   0.39486275  0.52638272  0.47248955
   0.39247059  0.85898025  0.45815522
   0.43685918  0.60944938  0.46632836
   0.43610695  0.77651728  0.45629254
   0.48151515  0.53067037  0.46111045
   0.48176471  0.85726296  0.44900299
   0.52587879  0.61497407  0.45689851
   0.52599287  0.78296420  0.45116418
   0.56945098  0.53026543  0.46214925
   0.57183244  0.86164568  0.45136418
   0.61476292  0.61557037  0.46431045
   0.61553298  0.78154691  0.45885672
   0.65607487  0.52668395  0.47780896
   0.65977184  0.86219877  0.46747463
   0.69938681  0.60703951  0.48295821
   0.70221034  0.77274074  0.47777910
   0.74018538  0.52328519  0.49977015
   0.74567558  0.85424815  0.48743881
   0.78509091  0.59488025  0.50691940
   0.78814260  0.76423580  0.50244776
   0.82436364  0.51480741  0.52680896
   0.83094474  0.84344691  0.51047164
   0.87103387  0.59709012  0.53265672
   0.87335472  0.76025185  0.52220896
   0.91370053  0.51406914  0.54605373
   0.91567558  0.84494444  0.53459701
   0.95841711  0.59188889  0.55225672
   0.95706952  0.76812469  0.54881791
