 vasp.6.5.0 16Dec24 (build Feb 19 2025 19:45:31) complex                         
 executed on              LinuxNV date 2025.10.25  17:18:23
 running    2 mpi-ranks, on    1 nodes
 distrk:  each k-point on    2 cores,    1 groups
 distr:  one band on NCORE=   1 cores,    2 groups
 Offloading initialized ...    2 GPUs detected


--------------------------------------------------------------------------------------------------------


 INCAR:
   ISTART = 0            (Not Read existing wavefunction
   ISPIN = 1            (Non-Spin polarised DFT, Default\=1)
   ICHARG = 2            (The initial guess charge density is generated by superposition of atomic charge density)
   LREAL = Auto         (Projection operators: automatic)
   ENCUT = 500          (Cut-off energy for plane wave basis set, in eV)
   LWAVE = .FALSE.       (Write WAVECAR or not)
   LCHARG = .FALSE.       (Write CHGCAR or not)
   PREC = Accurate   (Precision level)
   KGAMMA = .TRUE.
   ALGO = Normal
   NSW = 0           (Default: NSW \= 0)
   IBRION = -1           (Ions are not moved)
   ISMEAR = 0
   EDIFF = 1E-06        (SCF energy convergence
   NELM = 150          (Max electronic SCF steps)

 POTCAR:    PAW_PBE C 08Apr2002                   
 POTCAR:    PAW_PBE C 08Apr2002                   
   SHA256 =  253f7b50bb8d59471dbedb8285d89021f4a42ed1a2c5d38a03a736e69125dd95 C/POTCAR              
   COPYR  = (c) Copyright 08Apr2002 Georg Kresse                                                    
   COPYR  = This file is part of the software VASP. Any use, copying, and all other rights are regul
   COPYR  = If you do not have a valid VASP license, you may not use, copy or distribute this file. 
   VRHFIN =C: s2p2                                                                                  
   LEXCH  = PE                                                                                      
   EATOM  =   147.1560 eV,   10.8157 Ry                                                             
                                                                                                    
   TITEL  = PAW_PBE C 08Apr2002                                                                     
   LULTRA =        F    use ultrasoft PP ?                                                          
   IUNSCR =        1    unscreen: 0-lin 1-nonlin 2-no                                               
   RPACOR =    1.200    partial core radius                                                         
   POMASS =   12.011; ZVAL   =    4.000    mass and valenz                                          
   RCORE  =    1.500    outmost cutoff radius                                                       
   RWIGS  =    1.630; RWIGS  =    0.863    wigner-seitz radius (au A)                               
   ENMAX  =  400.000; ENMIN  =  300.000 eV                                                          
   ICORE  =        2    local potential                                                             
   LCOR   =        T    correct aug charges                                                         
   LPAW   =        T    paw PP                                                                      
   EAUG   =  644.873                                                                                
   DEXC   =    0.000                                                                                
   RMAX   =    1.529    core radius for proj-oper                                                   
   RAUG   =    1.300    factor for augmentation sphere                                              
   RDEP   =    1.501    radius for radial grids                                                     
   RDEPT  =    1.300    core radius for aug-charge                                                  
                                                                                                    
   Atomic configuration                                                                             
    4 entries                                                                                       
     n  l   j            E        occ.                                                              
     1  0  0.50      -273.3789   2.0000                                                             
     2  0  0.50       -13.7508   2.0000                                                             
     2  1  0.50        -5.2854   2.0000                                                             
     3  2  1.50        -5.4423   0.0000                                                             
   Description                                                                                      
     l       E           TYP  RCUT    TYP  RCUT                                                     
     0    -13.7508458     23  1.200                                                                 
     0     -8.2022199     23  1.200                                                                 
     1     -5.2854383     23  1.500                                                                 
     1     34.0145650     23  1.500                                                                 
     2     -5.4423304      7  1.500                                                                 
  local pseudopotential read in
  partial core-charges read in
  partial kinetic energy density read in
  atomic valenz-charges read in
  non local Contribution for L=            0  read in
    real space projection operators read in
  non local Contribution for L=            0  read in
    real space projection operators read in
  non local Contribution for L=            1  read in
    real space projection operators read in
  non local Contribution for L=            1  read in
    real space projection operators read in
    PAW grid and wavefunctions read in
 
   number of l-projection  operators is LMAX  =            4
   number of lm-projection operators is LMMAX =            8
 
 Optimization of the real space projectors (new method)

 maximal supplied QI-value         = 25.13
 optimisation between [QCUT,QGAM] = [ 11.31, 22.87] = [ 35.82,146.48] Ry 
 Optimized for a Real-space Cutoff    1.03 Angstroem

   l    n(q)    QCUT    max X(q) W(low)/X(q) W(high)/X(q)  e(spline) 
   0      7    11.310   115.676    0.20E-03    0.90E-03    0.20E-06
   0      7    11.310    87.132    0.20E-03    0.89E-03    0.19E-06
   1      6    11.310     4.429    0.16E-03    0.28E-03    0.12E-06
   1      6    11.310     2.733    0.12E-03    0.21E-03    0.99E-07
  PAW_PBE C 08Apr2002                   :
 energy of atom  1       EATOM= -147.1560
 kinetic energy error for atom=    0.0076 (will be added to EATOM!!)
 
 
 POSCAR:  C
  positions in cartesian coordinates
  No initial velocities read in


 exchange-correlation table for PE
   RHO(1)=    0.500       N(1)  =     2000
   RHO(2)=  100.500       N(2)  =     4000
 


--------------------------------------------------------------------------------------------------------


 ion  position               nearest neighbor table
   1  0.008  0.104  0.530-   3 1.39   2 1.40  45 1.43  46 1.95
   2  0.010  0.277  0.533-   4 1.38   1 1.40  46 1.42  45 2.04
   3  0.052  0.025  0.527-  50 1.37   1 1.39   5 1.40
   4  0.053  0.355  0.535-   2 1.38  49 1.39   6 1.41
   5  0.095  0.104  0.519-   6 1.38   3 1.40   7 1.41
   6  0.095  0.272  0.524-   5 1.38   4 1.41   8 1.43
   7  0.137  0.020  0.507-  54 1.34   5 1.41   9 1.45
   8  0.139  0.350  0.513-  10 1.40   6 1.43  53 1.44
   9  0.180  0.105  0.495-  10 1.37  11 1.38   7 1.45
  10  0.181  0.273  0.499-   9 1.37  12 1.39   8 1.40
  11  0.221  0.019  0.486-  58 1.34   9 1.38  13 1.47
  12  0.223  0.355  0.491-  57 1.37  10 1.39  14 1.40
  13  0.264  0.110  0.474-  14 1.40  15 1.45  11 1.47
  14  0.266  0.281  0.478-  12 1.40  13 1.40  16 1.40
  15  0.309  0.026  0.466-  62 1.33  17 1.44  13 1.45
  16  0.309  0.362  0.470-  18 1.38  14 1.40  61 1.41
  17  0.353  0.112  0.460-  18 1.38  15 1.44  19 1.45
  18  0.351  0.282  0.461-  17 1.38  16 1.38  20 1.47
  19  0.397  0.022  0.453-  66 1.33  21 1.39  17 1.45
  20  0.398  0.363  0.456-  65 1.37  22 1.41  18 1.47
  21  0.439  0.109  0.447-  22 1.36  19 1.39  23 1.47
  22  0.441  0.277  0.450-  21 1.36  24 1.40  20 1.41
  23  0.485  0.023  0.449-  70 1.39  25 1.40  21 1.47
  24  0.484  0.358  0.454-  69 1.38  22 1.40  26 1.46
  25  0.529  0.107  0.453-  26 1.35  23 1.40  27 1.45
  26  0.530  0.273  0.452-  25 1.35  28 1.40  24 1.46
  27  0.573  0.022  0.461-  74 1.36  29 1.41  25 1.45
  28  0.573  0.352  0.461-  26 1.40  30 1.42  73 1.43
  29  0.617  0.101  0.469-  31 1.39  30 1.41  27 1.41
  30  0.618  0.275  0.467-  29 1.41  32 1.41  28 1.42
  31  0.659  0.020  0.480-  29 1.39  78 1.40  33 1.44
  32  0.661  0.357  0.476-  77 1.37  34 1.38  30 1.41
  33  0.701  0.109  0.490-  34 1.38  35 1.43  31 1.44
  34  0.704  0.277  0.483-  33 1.38  32 1.38  36 1.43
  35  0.744  0.034  0.505-  37 1.41  82 1.43  33 1.43
  36  0.746  0.353  0.498-  81 1.38  38 1.41  34 1.43
  37  0.789  0.104  0.513-  38 1.33  35 1.41  39 1.41
  38  0.789  0.266  0.507-  37 1.33  40 1.40  36 1.41
  39  0.831  0.025  0.526-  41 1.37  86 1.38  37 1.41
  40  0.830  0.350  0.519-  38 1.40  85 1.42  42 1.43
  41  0.873  0.107  0.530-  42 1.36  39 1.37  43 1.43
  42  0.875  0.275  0.528-  41 1.36  44 1.41  40 1.43
  43  0.917  0.018  0.534-  90 1.31  45 1.34  41 1.43
  44  0.918  0.357  0.537-  89 1.34  46 1.37  42 1.41
  45  0.958  0.100  0.537-  43 1.34  46 1.40   1 1.43   2 2.04
  46  0.960  0.273  0.539-  44 1.37  45 1.40   2 1.42   1 1.95
  47  0.010  0.604  0.548-  48 1.40  49 1.41  91 1.48  92 2.03
  48  0.012  0.777  0.545-  50 1.35  47 1.40  92 1.49
  49  0.054  0.524  0.542-   4 1.39  51 1.39  47 1.41
  50  0.052  0.857  0.534-  48 1.35  52 1.37   3 1.37
  51  0.097  0.605  0.533-  49 1.39  52 1.41  53 1.45
  52  0.095  0.779  0.530-  50 1.37  51 1.41  54 1.46
  53  0.141  0.525  0.521-  55 1.41   8 1.44  51 1.45
  54  0.139  0.859  0.516-   7 1.34  56 1.39  52 1.46
  55  0.184  0.602  0.512-  56 1.40  57 1.40  53 1.41
  56  0.181  0.775  0.509-  54 1.39  55 1.40  58 1.41
  57  0.224  0.523  0.495-  12 1.37  55 1.40  59 1.42
  58  0.221  0.857  0.493-  11 1.34  56 1.41  60 1.41
  59  0.267  0.612  0.486-  60 1.37  61 1.40  57 1.42
  60  0.266  0.780  0.483-  59 1.37  58 1.41  62 1.45
  61  0.309  0.533  0.476-  59 1.40  63 1.40  16 1.41
  62  0.309  0.863  0.471-  15 1.33  64 1.38  60 1.45
  63  0.354  0.612  0.472-  64 1.38  61 1.40  65 1.40
  64  0.352  0.782  0.469-  62 1.38  63 1.38  66 1.43
  65  0.396  0.527  0.466-  20 1.37  63 1.40  67 1.43
  66  0.397  0.862  0.462-  19 1.33  68 1.43  64 1.43
  67  0.441  0.610  0.465-  68 1.34  69 1.39  65 1.43
  68  0.441  0.775  0.464-  67 1.34  70 1.42  66 1.43
  69  0.484  0.522  0.465-  24 1.38  67 1.39  71 1.41
  70  0.486  0.856  0.459-  72 1.37  23 1.39  68 1.42
  71  0.527  0.608  0.470-  72 1.39  73 1.40  69 1.41
  72  0.527  0.779  0.470-  70 1.37  71 1.39  74 1.41
  73  0.571  0.526  0.468-  75 1.40  71 1.40  28 1.43
  74  0.571  0.860  0.472-  27 1.36  76 1.38  72 1.41
  75  0.613  0.604  0.481-  73 1.40  76 1.40  77 1.44
  76  0.611  0.776  0.484-  74 1.38  75 1.40  78 1.41
  77  0.659  0.524  0.482-  32 1.37  79 1.43  75 1.44
  78  0.656  0.851  0.489-  31 1.40  80 1.40  76 1.41
  79  0.699  0.608  0.498-  80 1.35  81 1.42  77 1.43
  80  0.699  0.775  0.501-  79 1.35  78 1.40  82 1.42
  81  0.742  0.521  0.505-  83 1.37  36 1.38  79 1.42
  82  0.741  0.859  0.511-  84 1.40  80 1.42  35 1.43
  83  0.783  0.599  0.516-  81 1.37  84 1.42  85 1.44
  84  0.783  0.774  0.520-  82 1.40  83 1.42  86 1.43
  85  0.829  0.525  0.522-  87 1.41  40 1.42  83 1.44
  86  0.828  0.854  0.528-  39 1.38  88 1.41  84 1.43
  87  0.872  0.608  0.533-  88 1.33  85 1.41  89 1.47
  88  0.872  0.771  0.530-  87 1.33  86 1.41  90 1.44
  89  0.918  0.523  0.539-  91 1.33  44 1.34  87 1.47
  90  0.917  0.857  0.535-  43 1.31  92 1.38  88 1.44
  91  0.957  0.604  0.548-  89 1.33  92 1.43  47 1.48
  92  0.959  0.780  0.547-  90 1.38  91 1.43  48 1.49  47 2.03
 
  LATTYP: Found a simple orthorhombic cell.
 ALAT       =     8.1000000000
 B/A-ratio  =     3.4629629630
 C/A-ratio  =     4.1358024691
  
  Lattice vectors:
  
 A1 = (   0.0000000000,  -8.1000000000,   0.0000000000)
 A2 = (  28.0500000000,   0.0000000000,   0.0000000000)
 A3 = (   0.0000000000,   0.0000000000,  33.5000000000)


Analysis of symmetry for initial positions (statically):
=====================================================================
 Subroutine PRICEL returns:
 Original cell was already a primitive cell.
 

 Routine SETGRP: Setting up the symmetry group for a 
 simple orthorhombic supercell.


 Subroutine GETGRP returns: Found  1 space group operations
 (whereof  1 operations were pure point group operations)
 out of a pool of  8 trial point group operations.


The static configuration has the point symmetry C_1 .


Analysis of symmetry for dynamics (positions and initial velocities):
=====================================================================
 Subroutine PRICEL returns:
 Original cell was already a primitive cell.
 

 Routine SETGRP: Setting up the symmetry group for a 
 simple orthorhombic supercell.


 Subroutine GETGRP returns: Found  1 space group operations
 (whereof  1 operations were pure point group operations)
 out of a pool of  8 trial point group operations.


The dynamic configuration has the point symmetry C_1 .


 Subroutine INISYM returns: Found  1 space group operations
 (whereof  1 operations are pure point group operations),
 and found     1 'primitive' translations


----------------------------------------------------------------------------------------

                                     Primitive cell                                     

  volume of cell :    7611.3675

  direct lattice vectors                    reciprocal lattice vectors
    28.050000000  0.000000000  0.000000000     0.035650624  0.000000000  0.000000000
     0.000000000  8.100000000  0.000000000     0.000000000  0.123456790  0.000000000
     0.000000000  0.000000000 33.500000000     0.000000000  0.000000000  0.029850746

  length of vectors
    28.050000000  8.100000000 33.500000000     0.035650624  0.123456790  0.029850746

  position of ions in fractional coordinates (direct lattice)
     0.008342852  0.104307160  0.530238806
     0.009781248  0.277004938  0.533370149
     0.052200000  0.024510864  0.527208955
     0.053343672  0.355424691  0.535414925
     0.095234938  0.103898642  0.518898507
     0.095476649  0.272180247  0.524385075
     0.137083779  0.019911481  0.507274627
     0.139233868  0.349996296  0.513361194
     0.180200357  0.104813704  0.494665672
     0.180514439  0.273153086  0.498567164
     0.221236364  0.019233210  0.485734328
     0.223193226  0.355172840  0.491008955
     0.264068449  0.109811481  0.473591045
     0.265620321  0.281403704  0.478274627
     0.308894831  0.026120370  0.465841791
     0.308773262  0.361569136  0.469910448
     0.353180392  0.111791728  0.459958209
     0.350945811  0.281613580  0.460617910
     0.397319073  0.022163457  0.453053731
     0.397511586  0.362519753  0.456226866
     0.439336898  0.108797654  0.446922388
     0.440566845  0.276800000  0.449698507
     0.485290553  0.023105802  0.448800000
     0.484228164  0.357696296  0.454259701
     0.528873440  0.106564321  0.452829851
     0.529953654  0.273454321  0.451835821
     0.573237077  0.021661235  0.461080597
     0.572844920  0.351956790  0.461232836
     0.617051693  0.101313951  0.468767164
     0.617618538  0.274851852  0.467370149
     0.658524064  0.020145062  0.479847761
     0.660759358  0.357232099  0.476223881
     0.701279857  0.109334074  0.490271642
     0.703568627  0.277360494  0.483310448
     0.743771836  0.033920617  0.505313433
     0.746256684  0.353022222  0.497653731
     0.788976827  0.103958519  0.512570149
     0.788655971  0.266392593  0.506656716
     0.831001783  0.024691111  0.525653731
     0.829942959  0.350455556  0.518829851
     0.873194296  0.107479506  0.529862687
     0.874737968  0.275160494  0.528289552
     0.916730838  0.018017654  0.534104478
     0.917672014  0.357459259  0.537394030
     0.958235294  0.100060123  0.537340299
     0.959750446  0.273082716  0.539361194
     0.010227522  0.604213580  0.548167164
     0.012230267  0.776755556  0.544716418
     0.054266667  0.524401235  0.542074627
     0.052371123  0.857416049  0.534310448
     0.096706239  0.604754321  0.532740299
     0.095424242  0.778787654  0.529743284
     0.140688057  0.524562963  0.521283582
     0.138981818  0.859327160  0.516214925
     0.184341533  0.602271605  0.511561194
     0.181305882  0.774518519  0.508704478
     0.224090196  0.523409877  0.494782090
     0.221473797  0.856575309  0.492671642
     0.266600000  0.612130864  0.486101493
     0.265505882  0.780464198  0.483450746
     0.309385027  0.533187654  0.476426866
     0.309004278  0.863243210  0.471388060
     0.353601783  0.611843210  0.472367164
     0.352107665  0.781783951  0.468698507
     0.396470588  0.526523457  0.466328358
     0.396998217  0.862450617  0.462459701
     0.441426025  0.609675309  0.464641791
     0.441311943  0.774656790  0.464047761
     0.484049911  0.521585185  0.465014925
     0.485511586  0.856370370  0.458701493
     0.527415330  0.607923457  0.469994030
     0.526905526  0.778966667  0.470000000
     0.571308378  0.525597531  0.468071642
     0.571101604  0.860316049  0.472465672
     0.613069519  0.603816049  0.480695522
     0.611479501  0.775937037  0.484298507
     0.659108734  0.524217284  0.481588060
     0.656442068  0.851348148  0.488594030
     0.698991087  0.607954321  0.498459701
     0.698852050  0.774651852  0.500841791
     0.742281640  0.520574074  0.504802985
     0.741372549  0.859150617  0.511047761
     0.783308378  0.599217284  0.516405970
     0.783376114  0.774332099  0.520474627
     0.829443850  0.525208642  0.521579104
     0.828024955  0.854293827  0.527925373
     0.871786096  0.607738272  0.532570149
     0.872299465  0.771330864  0.529994030
     0.917579323  0.522569136  0.538931343
     0.916898396  0.856632099  0.535417910
     0.957361854  0.603644444  0.548122388
     0.959023173  0.780403704  0.546567164

  ion indices of the primitive-cell ions
   primitive index   ion index
                 1           1
                 2           2
                 3           3
                 4           4
                 5           5
                 6           6
                 7           7
                 8           8
                 9           9
                10          10
                11          11
                12          12
                13          13
                14          14
                15          15
                16          16
                17          17
                18          18
                19          19
                20          20
                21          21
                22          22
                23          23
                24          24
                25          25
                26          26
                27          27
                28          28
                29          29
                30          30
                31          31
                32          32
                33          33
                34          34
                35          35
                36          36
                37          37
                38          38
                39          39
                40          40
                41          41
                42          42
                43          43
                44          44
                45          45
                46          46
                47          47
                48          48
                49          49
                50          50
                51          51
                52          52
                53          53
                54          54
                55          55
                56          56
                57          57
                58          58
                59          59
                60          60
                61          61
                62          62
                63          63
                64          64
                65          65
                66          66
                67          67
                68          68
                69          69
                70          70
                71          71
                72          72
                73          73
                74          74
                75          75
                76          76
                77          77
                78          78
                79          79
                80          80
                81          81
                82          82
                83          83
                84          84
                85          85
                86          86
                87          87
                88          88
                89          89
                90          90
                91          91
                92          92

----------------------------------------------------------------------------------------

 
 
 KPOINTS: K-Spacing Value to Generate K-Mesh: 0.03

Automatic generation of k-mesh.
 Grid dimensions read from file:
 generate k-points for:    1    4    1

 Generating k-lattice:

  Cartesian coordinates                     Fractional coordinates (reciprocal lattice)
     0.035650624  0.000000000  0.000000000     1.000000000  0.000000000  0.000000000
     0.000000000  0.030864198  0.000000000     0.000000000  0.250000000  0.000000000
     0.000000000  0.000000000  0.029850746     0.000000000  0.000000000  1.000000000

  Length of vectors
     0.035650624  0.030864198  0.029850746

  Shift w.r.t. Gamma in fractional coordinates (k-lattice)
     0.000000000  0.000000000  0.000000000

 
 Subroutine IBZKPT returns following result:
 ===========================================
 
 Found      3 irreducible k-points:
 
 Following reciprocal coordinates:
            Coordinates               Weight
  0.000000  0.000000  0.000000      1.000000
  0.000000  0.250000  0.000000      2.000000
  0.000000  0.500000  0.000000      1.000000
 
 Following cartesian coordinates:
            Coordinates               Weight
  0.000000  0.000000  0.000000      1.000000
  0.000000  0.030864  0.000000      2.000000
  0.000000  0.061728  0.000000      1.000000
 


--------------------------------------------------------------------------------------------------------




 Dimension of arrays:
   k-points           NKPTS =      3   k-points in BZ     NKDIM =      3   number of bands    NBANDS=    232
   number of dos      NEDOS =    301   number of ions     NIONS =     92
   non local maximal  LDIM  =      4   non local SUM 2l+1 LMDIM =      8
   total plane-waves  NPLWV = ******
   max r-space proj   IRMAX =   1967   max aug-charges    IRDMAX=   5083
   dimension x,y,z NGX =   210 NGY =   60 NGZ =  250
   dimension x,y,z NGXF=   420 NGYF=  120 NGZF=  500
   support grid    NGXF=   420 NGYF=  120 NGZF=  500
   ions per type =              92
   NGX,Y,Z   is equivalent  to a cutoff of  12.45, 12.31, 12.41 a.u.
   NGXF,Y,Z  is equivalent  to a cutoff of  24.89, 24.63, 24.81 a.u.

 SYSTEM =  unknown system                          
 POSCAR =   C                                      

 Startparameter for this run:
   NWRITE =      2    write-flag & timer
   PREC   = accura    normal or accurate (medium, high low for compatibility)
   ISTART =      0    job   : 0-new  1-cont  2-samecut
   ICHARG =      2    charge: 1-file 2-atom 10-const
   ISPIN  =      1    spin polarized calculation?
   LNONCOLLINEAR =      F non collinear calculations
   LSORBIT =      F    spin-orbit coupling
   INIWAV =      1    electr: 0-lowe 1-rand  2-diag
   LASPH  =      F    aspherical Exc in radial PAW
 Electronic Relaxation 1
   ENCUT  =  500.0 eV  36.75 Ry    6.06 a.u.  51.14 14.77 61.08*2*pi/ulx,y,z
   ENINI  =  500.0     initial cutoff
   ENAUG  =  644.9 eV  augmentation charge cutoff
   NELM   =    150;   NELMIN=  2; NELMDL= -5     # of ELM steps 
   EDIFF  = 0.1E-05   stopping-criterion for ELM
   LREAL  =      T    real-space projection
   NLSPLINE    = F    spline interpolate recip. space projectors
   LCOMPAT=      F    compatible to vasp.4.4
   GGA_COMPAT  = T    GGA compatible to vasp.4.4-vasp.4.6
   LMAXPAW     = -100 max onsite density
   LMAXMIX     =    2 max onsite mixed and CHGCAR
   VOSKOWN=      0    Vosko Wilk Nusair interpolation
   ROPT   =   -0.00025
 Ionic relaxation
   EDIFFG = 0.1E-04   stopping-criterion for IOM
   NSW    =      0    number of steps for IOM
   NBLOCK =      1;   KBLOCK =      1    inner block; outer block 
   IBRION =     -1    ionic relax: 0-MD 1-quasi-New 2-CG
   NFREE  =      0    steps in history (QN), initial steepest desc. (CG)
   ISIF   =      2    stress and relaxation
   IWAVPR =     10    prediction:  0-non 1-charg 2-wave 3-comb
   ISYM   =      2    0-nonsym 1-usesym 2-fastsym
   LCORR  =      T    Harris-Foulkes like correction to forces

   POTIM  = 0.5000    time-step for ionic-motion
   TEIN   =    0.0    initial temperature
   TEBEG  =    0.0;   TEEND  =   0.0 temperature during run
   SMASS  =  -3.00    Nose mass-parameter (am)
   estimated Nose-frequenzy (Omega)   =  0.10E-29 period in steps = 0.13E+47 mass=  -0.180E-25a.u.
   SCALEE = 1.0000    scale energy and forces
   NPACO  =    256;   APACO  = 10.0  distance and # of slots for P.C.
   PSTRESS=    0.0 pullay stress

  Mass of Ions in am
   POMASS =  12.01
  Ionic Valenz
   ZVAL   =   4.00
  Atomic Wigner-Seitz radii
   RWIGS  =  -1.00
  virtual crystal weights 
   VCA    =   1.00
   NELECT =     368.0000    total number of electrons
   NUPDOWN=      -1.0000    fix difference up-down

 DOS related values:
   EMIN   =  10.00;   EMAX   =-10.00  energy-range for DOS
   EFERMI =   0.00;   METHOD = LEGACY      
   ISMEAR =     0;   SIGMA  =   0.20  broadening in eV -4-tet -1-fermi 0-gaus
   EFERMI_NEDOS =   21; number of points for ismear=-14 and -15

 Electronic relaxation 2 (details)
   IALGO  =     38    algorithm
   LDIAG  =      T    sub-space diagonalisation (order eigenvalues)
   LSUBROT=      F    optimize rotation matrix (better conditioning)
   TURBO    =      0    0=normal 1=particle mesh
   IRESTART =      0    0=no restart 2=restart with 2 vectors
   NREBOOT  =      0    no. of reboots
   NMIN     =      0    reboot dimension
   EREF     =   0.00    reference energy to select bands
   IMIX   =      4    mixing-type and parameters
     AMIX     =   0.40;   BMIX     =  1.00
     AMIX_MAG =   1.60;   BMIX_MAG =  1.00
     AMIN     =   0.10
     WC   =   100.;   INIMIX=   1;  MIXPRE=   1;  MAXMIX= -45

 Intra band minimization:
   WEIMIN = 0.0000     energy-eigenvalue tresh-hold
   EBREAK =  0.11E-08  absolut break condition
   DEPER  =   0.30     relativ break condition  

   TIME   =   0.40     timestep for ELM

  volume/ion in A,a.u.               =      82.73       558.30
  Fermi-wavevector in a.u.,A,eV,Ry     =   0.596398  1.127030  4.839472  0.355691
  Thomas-Fermi vector in A             =   1.646729
 
 Write flags
   LWAVE        =      F    write WAVECAR
   LDOWNSAMPLE  =      F    k-point downsampling of WAVECAR
   LCHARG       =      F    write CHGCAR
   LVTOT        =      F    write LOCPOT, total local potential
   LVHAR        =      F    write LOCPOT, Hartree potential only
   WRT_POTENTIAL= false  ! write potential to hdf5 file
   LELF         =      F    write electronic localiz. function (ELF)
   LORBIT       =      0    0 simple, 1 ext, 2 COOP (PROOUT), +10 PAW based schemes


 Python interface
   PLUGINS active      =      F    recompile with -DPLUGINS to activate
 
 Dipole corrections
   LMONO      =      F    monopole corrections only (constant potential shift)
   LDIPOL     =      F    correct potential (dipole corrections)
   IDIPOL     =      0    1-x, 2-y, 3-z, 4-all directions 
   EPSILON    =  1.0000000 bulk dielectric constant
   LVACPOTAV  =      F  vacuum potentials using an averaging scheme for the charge density
   VACPOTFLAT =  0.1000000 required flatness to determine vacuum potential
 
Coulomb truncation method
  LTRUNCATE          =      F  Coulomb kernel truncation to be used
  IDIMENSIONALITY    =      3  Dimensionality of cutoff (0 molecules / 2 surfaces)
  ISURFACE           =     -1  Direction of surface normal
  LCOARSEN           =      F  Coarsen the charge grid before padding, preferred

 
 Exchange correlation treatment:
   GGA     = PE    functional components
   XC_C    = 1    coefficients multiplying the functional components
   LIBXC   =     F    Libxc                    
   VOSKOWN =     0    Vosko Wilk Nusair interpolation
   LHFCALC =     F    Hartree Fock is set to
   LHFONE  =     F    Hartree Fock one center treatment
   AEXX    =    0.0000 exact exchange contribution

 Parameters of functionals:
   PE:
     No parameter
 
 Van der Waals corrections
   IVDW    =     0    specifies the selected vdW correction

 Linear response parameters
   LEPSILON=     F    determine dielectric tensor
   LRPA    =     F    only Hartree local field effects (RPA)
   LNABLA  =     F    use nabla operator in PAW spheres
   LVEL    =     F    velocity operator in full k-point grid
   CSHIFT  =0.1000    complex shift for real part using Kramers Kronig
   OMEGAMAX=  -1.0    maximum frequency
   DEG_THRESHOLD= 0.2000000E-02 threshold for treating states as degnerate
   RTIME   =   -0.100 relaxation time in fs
  (WPLASMAI=    0.000 imaginary part of plasma frequency in eV, 0.658/RTIME)
   DFIELD  = 0.0000000 0.0000000 0.0000000 field for delta impulse in time
 
  Optional k-point grid parameters
   LKPOINTS_OPT  =     F    use optional k-point grid
   KPOINTS_OPT_MODE=     1    mode for optional k-point grid
 
 Orbital magnetization related:
   ORBITALMAG=     F  switch on orbital magnetization
   LCHIMAG   =     F  perturbation theory with respect to B field
   DQ        =  0.001000  dq finite difference perturbation B field
   LLRAUG    =     F  two centre corrections for induced B field
   LBONE     =     F  B-component reconstruction in AE one-centre
   LVGVCALC  =     T  calculate vGv susceptibility
   LVGVAPPL  =     F  apply vGv susceptibility instead of pGv for G=0

 Random number generation:
   RANDOM_GENERATOR = DEFAULT
   PCG_SEED         = not used


--------------------------------------------------------------------------------------------------------


 Static calculation
 charge density and potential will be updated during run
 non-spin polarized calculation
 Variant of blocked Davidson
 Davidson routine will perform the subspace rotation
 perform sub-space diagonalisation
    after iterative eigenvector-optimisation
 modified Broyden-mixing scheme, WC =      100.0
 initial mixing is a Kerker type mixing with AMIX =  0.4000 and BMIX =      1.0000
 Hartree-type preconditioning will be used
 using additional bands            48
 real space projection scheme for non local part
 use partial core corrections
 calculate Harris-corrections to forces 
   (improved forces if not selfconsistent)
 use gradient corrections 
 use of overlap-Matrix (Vanderbilt PP)
 Gauss-broadening in eV      SIGMA  =   0.20


--------------------------------------------------------------------------------------------------------


  energy-cutoff  :      500.00
  volume of cell :     7611.37
      direct lattice vectors                 reciprocal lattice vectors
    28.050000000  0.000000000  0.000000000     0.035650624  0.000000000  0.000000000
     0.000000000  8.100000000  0.000000000     0.000000000  0.123456790  0.000000000
     0.000000000  0.000000000 33.500000000     0.000000000  0.000000000  0.029850746

  length of vectors
    28.050000000  8.100000000 33.500000000     0.035650624  0.123456790  0.029850746


 
 k-points in units of 2pi/SCALE and weight: K-Spacing Value to Generate K-Mesh: 0.03
   0.00000000  0.00000000  0.00000000       0.250
   0.00000000  0.03086420  0.00000000       0.500
   0.00000000  0.06172840  0.00000000       0.250
 
 k-points in reciprocal lattice and weights: K-Spacing Value to Generate K-Mesh: 0.03
   0.00000000  0.00000000  0.00000000       0.250
   0.00000000  0.25000000  0.00000000       0.500
   0.00000000  0.50000000  0.00000000       0.250
 
 position of ions in fractional coordinates (direct lattice) 
   0.00834285  0.10430716  0.53023881
   0.00978125  0.27700494  0.53337015
   0.05220000  0.02451086  0.52720896
   0.05334367  0.35542469  0.53541493
   0.09523494  0.10389864  0.51889851
   0.09547665  0.27218025  0.52438507
   0.13708378  0.01991148  0.50727463
   0.13923387  0.34999630  0.51336119
   0.18020036  0.10481370  0.49466567
   0.18051444  0.27315309  0.49856716
   0.22123636  0.01923321  0.48573433
   0.22319323  0.35517284  0.49100896
   0.26406845  0.10981148  0.47359104
   0.26562032  0.28140370  0.47827463
   0.30889483  0.02612037  0.46584179
   0.30877326  0.36156914  0.46991045
   0.35318039  0.11179173  0.45995821
   0.35094581  0.28161358  0.46061791
   0.39731907  0.02216346  0.45305373
   0.39751159  0.36251975  0.45622687
   0.43933690  0.10879765  0.44692239
   0.44056684  0.27680000  0.44969851
   0.48529055  0.02310580  0.44880000
   0.48422816  0.35769630  0.45425970
   0.52887344  0.10656432  0.45282985
   0.52995365  0.27345432  0.45183582
   0.57323708  0.02166123  0.46108060
   0.57284492  0.35195679  0.46123284
   0.61705169  0.10131395  0.46876716
   0.61761854  0.27485185  0.46737015
   0.65852406  0.02014506  0.47984776
   0.66075936  0.35723210  0.47622388
   0.70127986  0.10933407  0.49027164
   0.70356863  0.27736049  0.48331045
   0.74377184  0.03392062  0.50531343
   0.74625668  0.35302222  0.49765373
   0.78897683  0.10395852  0.51257015
   0.78865597  0.26639259  0.50665672
   0.83100178  0.02469111  0.52565373
   0.82994296  0.35045556  0.51882985
   0.87319430  0.10747951  0.52986269
   0.87473797  0.27516049  0.52828955
   0.91673084  0.01801765  0.53410448
   0.91767201  0.35745926  0.53739403
   0.95823529  0.10006012  0.53734030
   0.95975045  0.27308272  0.53936119
   0.01022752  0.60421358  0.54816716
   0.01223027  0.77675556  0.54471642
   0.05426667  0.52440123  0.54207463
   0.05237112  0.85741605  0.53431045
   0.09670624  0.60475432  0.53274030
   0.09542424  0.77878765  0.52974328
   0.14068806  0.52456296  0.52128358
   0.13898182  0.85932716  0.51621493
   0.18434153  0.60227160  0.51156119
   0.18130588  0.77451852  0.50870448
   0.22409020  0.52340988  0.49478209
   0.22147380  0.85657531  0.49267164
   0.26660000  0.61213086  0.48610149
   0.26550588  0.78046420  0.48345075
   0.30938503  0.53318765  0.47642687
   0.30900428  0.86324321  0.47138806
   0.35360178  0.61184321  0.47236716
   0.35210766  0.78178395  0.46869851
   0.39647059  0.52652346  0.46632836
   0.39699822  0.86245062  0.46245970
   0.44142602  0.60967531  0.46464179
   0.44131194  0.77465679  0.46404776
   0.48404991  0.52158519  0.46501493
   0.48551159  0.85637037  0.45870149
   0.52741533  0.60792346  0.46999403
   0.52690553  0.77896667  0.47000000
   0.57130838  0.52559753  0.46807164
   0.57110160  0.86031605  0.47246567
   0.61306952  0.60381605  0.48069552
   0.61147950  0.77593704  0.48429851
   0.65910873  0.52421728  0.48158806
   0.65644207  0.85134815  0.48859403
   0.69899109  0.60795432  0.49845970
   0.69885205  0.77465185  0.50084179
   0.74228164  0.52057407  0.50480299
   0.74137255  0.85915062  0.51104776
   0.78330838  0.59921728  0.51640597
   0.78337611  0.77433210  0.52047463
   0.82944385  0.52520864  0.52157910
   0.82802496  0.85429383  0.52792537
   0.87178610  0.60773827  0.53257015
   0.87229947  0.77133086  0.52999403
   0.91757932  0.52256914  0.53893134
   0.91689840  0.85663210  0.53541791
   0.95736185  0.60364444  0.54812239
   0.95902317  0.78040370  0.54656716
 
 position of ions in cartesian coordinates  (Angst):
   0.23401700  0.84488800 17.76300000
   0.27436400  2.24374000 17.86790000
   1.46421000  0.19853800 17.66150000
   1.49629000  2.87894000 17.93640000
   2.67134000  0.84157900 17.38310000
   2.67812000  2.20466000 17.56690000
   3.84520000  0.16128300 16.99370000
   3.90551000  2.83497000 17.19760000
   5.05462000  0.84899100 16.57130000
   5.06343000  2.21254000 16.70200000
   6.20568000  0.15578900 16.27210000
   6.26057000  2.87690000 16.44880000
   7.40712000  0.88947300 15.86530000
   7.45065000  2.27937000 16.02220000
   8.66450000  0.21157500 15.60570000
   8.66109000  2.92871000 15.74200000
   9.90671000  0.90551300 15.40860000
   9.84403000  2.28107000 15.43070000
  11.14480000  0.17952400 15.17730000
  11.15020000  2.93641000 15.28360000
  12.32340000  0.88126100 14.97190000
  12.35790000  2.24208000 15.06490000
  13.61240000  0.18715700 15.03480000
  13.58260000  2.89734000 15.21770000
  14.83490000  0.86317100 15.16980000
  14.86520000  2.21498000 15.13650000
  16.07930000  0.17545600 15.44620000
  16.06830000  2.85085000 15.45130000
  17.30830000  0.82064300 15.70370000
  17.32420000  2.22630000 15.65690000
  18.47160000  0.16317500 16.07490000
  18.53430000  2.89358000 15.95350000
  19.67090000  0.88560600 16.42410000
  19.73510000  2.24662000 16.19090000
  20.86280000  0.27475700 16.92800000
  20.93250000  2.85948000 16.67140000
  22.13080000  0.84206400 17.17110000
  22.12180000  2.15778000 16.97300000
  23.30960000  0.19999800 17.60940000
  23.27990000  2.83869000 17.38080000
  24.49310000  0.87058400 17.75040000
  24.53640000  2.22880000 17.69770000
  25.71430000  0.14594300 17.89250000
  25.74070000  2.89542000 18.00270000
  26.87850000  0.81048700 18.00090000
  26.92100000  2.21197000 18.06860000
   0.28688200  4.89413000 18.36360000
   0.34305900  6.29172000 18.24800000
   1.52218000  4.24765000 18.15950000
   1.46901000  6.94507000 17.89940000
   2.71261000  4.89851000 17.84680000
   2.67665000  6.30818000 17.74640000
   3.94630000  4.24896000 17.46300000
   3.89844000  6.96055000 17.29320000
   5.17078000  4.87840000 17.13730000
   5.08563000  6.27360000 17.04160000
   6.28573000  4.23962000 16.57520000
   6.21234000  6.93826000 16.50450000
   7.47813000  4.95826000 16.28440000
   7.44744000  6.32176000 16.19560000
   8.67825000  4.31882000 15.96030000
   8.66757000  6.99227000 15.79150000
   9.91853000  4.95593000 15.82430000
   9.87662000  6.33245000 15.70140000
  11.12100000  4.26484000 15.62200000
  11.13580000  6.98585000 15.49240000
  12.38200000  4.93837000 15.56550000
  12.37880000  6.27472000 15.54560000
  13.57760000  4.22484000 15.57800000
  13.61860000  6.93660000 15.36650000
  14.79400000  4.92418000 15.74480000
  14.77970000  6.30963000 15.74500000
  16.02520000  4.25734000 15.68040000
  16.01940000  6.96856000 15.82760000
  17.19660000  4.89091000 16.10330000
  17.15200000  6.28509000 16.22400000
  18.48800000  4.24616000 16.13320000
  18.41320000  6.89592000 16.36790000
  19.60670000  4.92443000 16.69840000
  19.60280000  6.27468000 16.77820000
  20.82100000  4.21665000 16.91090000
  20.79550000  6.95912000 17.12010000
  21.97180000  4.85366000 17.29960000
  21.97370000  6.27209000 17.43590000
  23.26590000  4.25419000 17.47290000
  23.22610000  6.91978000 17.68550000
  24.45360000  4.92268000 17.84110000
  24.46800000  6.24778000 17.75480000
  25.73810000  4.23281000 18.05420000
  25.71900000  6.93872000 17.93650000
  26.85400000  4.88952000 18.36210000
  26.90060000  6.32127000 18.31000000
 


--------------------------------------------------------------------------------------------------------


 k-point     1 :   0.0000 0.0000 0.0000  plane waves:  193173
 k-point     2 :   0.0000 0.2500 0.0000  plane waves:  193166
 k-point     3 :   0.0000 0.5000 0.0000  plane waves:  193226

 maximum and minimum number of plane-waves per node :    193226   193166

 maximum number of plane-waves:    193226
 maximum index in each direction: 
   IXMAX=   51   IYMAX=   14   IZMAX=   61
   IXMIN=  -51   IYMIN=  -15   IZMIN=  -61


 serial   3D FFT for wavefunctions
 parallel 3D FFT for charge:
    minimum data exchange during FFTs selected (reduces bandwidth)


 total amount of memory used by VASP MPI-rank0  2294505. kBytes
=======================================================================

   base                                    :      30000. kBytes
   nonlr-proj                              :      15071. kBytes
   fftplans                                :     436558. kBytes
   grid                                    :     732614. kBytes
   one-center                              :        282. kBytes
   wavefun                                 :    1079980. kBytes
 
     INWAV:  cpu time      0.0000: real time      0.0000
 Broyden mixing: mesh for mixing (old mesh)
   NGX =103   NGY = 29   NGZ =123
  (NGX  =420   NGY  =120   NGZ  =500)
  gives a total of 367401 points

 initial charge density was supplied:
 charge density of overlapping atoms calculated
 number of electron     368.0000000 magnetization 
 keeping initial charge density in first step


--------------------------------------------------------------------------------------------------------


 Maximum index for non-local projection operator          1874
 Maximum index for augmentation-charges          2388 (set IRDMAX)


--------------------------------------------------------------------------------------------------------


 First call to EWALD:  gamma=   0.090
 Maximum number of real-space cells   2x   6x   2
 Maximum number of reciprocal cells   4x   1x   4

    FEWALD:  cpu time      0.1585: real time      0.1585


--------------------------------------- Ionic step        1  -------------------------------------------




--------------------------------------- Iteration      1(   1)  ---------------------------------------


    POTLOK:  cpu time      0.4206: real time      0.4522
    SETDIJ:  cpu time      0.0416: real time      0.0415
     EDDAV:  cpu time     11.0282: real time     11.0350
       DOS:  cpu time      0.0008: real time      0.0008
    --------------------------------------------
      LOOP:  cpu time     11.4912: real time     11.5295

 eigenvalue-minimisations  :  1712
 total energy-change (2. order) : 0.3722423E+04  (-0.1190554E+05)
 number of electron     368.0000000 magnetization 
 augmentation part      368.0000000 magnetization 

 Free energy of the ion-electron system (eV)
  ---------------------------------------------------
  alpha Z        PSCENC =        91.34886789
  Ewald energy   TEWEN  =    120590.66838247
  -Hartree energ DENC   =   -129891.06371425
  -exchange      EXHF   =         0.00000000
  -V(xc)+E(xc)   XCENC  =      1223.08082785
  PAW double counting   =      9984.02826696   -10036.41360137
  entropy T*S    EENTRO =        -0.86294542
  eigenvalues    EBANDS =     -1776.01754084
  atomic energy  EATOM  =     13537.65479391
  Solvation  Ediel_sol  =         0.00000000
  ---------------------------------------------------
  free energy    TOTEN  =      3722.42333722 eV

  energy without entropy =     3723.28628264  energy(sigma->0) =     3722.85480993


--------------------------------------------------------------------------------------------------------




--------------------------------------- Iteration      1(   2)  ---------------------------------------


     EDDAV:  cpu time     13.1187: real time     13.1236
       DOS:  cpu time      0.0007: real time      0.0007
    --------------------------------------------
      LOOP:  cpu time     13.1194: real time     13.1243

 eigenvalue-minimisations  :  2144
 total energy-change (2. order) :-0.3532942E+04  (-0.3280078E+04)
 number of electron     368.0000000 magnetization 
 augmentation part      368.0000000 magnetization 

 Free energy of the ion-electron system (eV)
  ---------------------------------------------------
  alpha Z        PSCENC =        91.34886789
  Ewald energy   TEWEN  =    120590.66838247
  -Hartree energ DENC   =   -129891.06371425
  -exchange      EXHF   =         0.00000000
  -V(xc)+E(xc)   XCENC  =      1223.08082785
  PAW double counting   =      9984.02826696   -10036.41360137
  entropy T*S    EENTRO =        -0.27026615
  eigenvalues    EBANDS =     -5309.55205871
  atomic energy  EATOM  =     13537.65479391
  Solvation  Ediel_sol  =         0.00000000
  ---------------------------------------------------
  free energy    TOTEN  =       189.48149861 eV

  energy without entropy =      189.75176476  energy(sigma->0) =      189.61663168


--------------------------------------------------------------------------------------------------------




--------------------------------------- Iteration      1(   3)  ---------------------------------------


     EDDAV:  cpu time     11.3014: real time     11.3055
       DOS:  cpu time      0.0007: real time      0.0007
    --------------------------------------------
      LOOP:  cpu time     11.3021: real time     11.3062

 eigenvalue-minimisations  :  1792
 total energy-change (2. order) :-0.1024399E+04  (-0.1000113E+04)
 number of electron     368.0000000 magnetization 
 augmentation part      368.0000000 magnetization 

 Free energy of the ion-electron system (eV)
  ---------------------------------------------------
  alpha Z        PSCENC =        91.34886789
  Ewald energy   TEWEN  =    120590.66838247
  -Hartree energ DENC   =   -129891.06371425
  -exchange      EXHF   =         0.00000000
  -V(xc)+E(xc)   XCENC  =      1223.08082785
  PAW double counting   =      9984.02826696   -10036.41360137
  entropy T*S    EENTRO =        -0.04424954
  eigenvalues    EBANDS =     -6334.17751333
  atomic energy  EATOM  =     13537.65479391
  Solvation  Ediel_sol  =         0.00000000
  ---------------------------------------------------
  free energy    TOTEN  =      -834.91793940 eV

  energy without entropy =     -834.87368986  energy(sigma->0) =     -834.89581463


--------------------------------------------------------------------------------------------------------




--------------------------------------- Iteration      1(   4)  ---------------------------------------


     EDDAV:  cpu time     10.8467: real time     10.8506
       DOS:  cpu time      0.0007: real time      0.0007
    --------------------------------------------
      LOOP:  cpu time     10.8473: real time     10.8513

 eigenvalue-minimisations  :  1704
 total energy-change (2. order) :-0.6276025E+02  (-0.6175338E+02)
 number of electron     368.0000000 magnetization 
 augmentation part      368.0000000 magnetization 

 Free energy of the ion-electron system (eV)
  ---------------------------------------------------
  alpha Z        PSCENC =        91.34886789
  Ewald energy   TEWEN  =    120590.66838247
  -Hartree energ DENC   =   -129891.06371425
  -exchange      EXHF   =         0.00000000
  -V(xc)+E(xc)   XCENC  =      1223.08082785
  PAW double counting   =      9984.02826696   -10036.41360137
  entropy T*S    EENTRO =        -0.06651760
  eigenvalues    EBANDS =     -6396.91550023
  atomic energy  EATOM  =     13537.65479391
  Solvation  Ediel_sol  =         0.00000000
  ---------------------------------------------------
  free energy    TOTEN  =      -897.67819436 eV

  energy without entropy =     -897.61167676  energy(sigma->0) =     -897.64493556


--------------------------------------------------------------------------------------------------------




--------------------------------------- Iteration      1(   5)  ---------------------------------------


     EDDAV:  cpu time     11.2301: real time     11.2341
       DOS:  cpu time      0.0007: real time      0.0007
    CHARGE:  cpu time      1.2058: real time      1.2061
    MIXING:  cpu time      0.2749: real time      0.2753
    --------------------------------------------
      LOOP:  cpu time     12.7115: real time     12.7161

 eigenvalue-minimisations  :  1784
 total energy-change (2. order) :-0.1554045E+01  (-0.1529180E+01)
 number of electron     368.0000007 magnetization 
 augmentation part       10.2248380 magnetization 

 Broyden mixing:
  rms(total) = 0.45945E+01    rms(broyden)= 0.45939E+01
  rms(prec ) = 0.47130E+01
  weight for this iteration     100.00

 Free energy of the ion-electron system (eV)
  ---------------------------------------------------
  alpha Z        PSCENC =        91.34886789
  Ewald energy   TEWEN  =    120590.66838247
  -Hartree energ DENC   =   -129891.06371425
  -exchange      EXHF   =         0.00000000
  -V(xc)+E(xc)   XCENC  =      1223.08082785
  PAW double counting   =      9984.02826696   -10036.41360137
  entropy T*S    EENTRO =        -0.06724263
  eigenvalues    EBANDS =     -6398.46882017
  atomic energy  EATOM  =     13537.65479391
  Solvation  Ediel_sol  =         0.00000000
  ---------------------------------------------------
  free energy    TOTEN  =      -899.23223933 eV

  energy without entropy =     -899.16499670  energy(sigma->0) =     -899.19861802


--------------------------------------------------------------------------------------------------------




--------------------------------------- Iteration      1(   6)  ---------------------------------------


    POTLOK:  cpu time      0.3212: real time      0.3211
    SETDIJ:  cpu time      0.0404: real time      0.0404
     EDDAV:  cpu time     10.2938: real time     10.2986
       DOS:  cpu time      0.0007: real time      0.0007
    CHARGE:  cpu time      1.1532: real time      1.1545
    MIXING:  cpu time      0.2760: real time      0.2764
    --------------------------------------------
      LOOP:  cpu time     12.0854: real time     12.0917

 eigenvalue-minimisations  :  1592
 total energy-change (2. order) : 0.5068098E+02  (-0.4851051E+01)
 number of electron     368.0000006 magnetization 
 augmentation part        9.7931417 magnetization 

 Broyden mixing:
  rms(total) = 0.26987E+01    rms(broyden)= 0.26986E+01
  rms(prec ) = 0.27573E+01
  weight for this iteration     100.00

 eigenvalues of (default mixing * dielectric matrix)
  average eigenvalue GAMMA=   2.1771
  2.1771

 Free energy of the ion-electron system (eV)
  ---------------------------------------------------
  alpha Z        PSCENC =        91.34886789
  Ewald energy   TEWEN  =    120590.66838247
  -Hartree energ DENC   =   -130468.39602269
  -exchange      EXHF   =         0.00000000
  -V(xc)+E(xc)   XCENC  =      1246.63170178
  PAW double counting   =     19055.63604295   -19115.75635594
  entropy T*S    EENTRO =        -0.07400687
  eigenvalues    EBANDS =     -5786.26466222
  atomic energy  EATOM  =     13537.65479391
  Solvation  Ediel_sol  =         0.00000000
  ---------------------------------------------------
  free energy    TOTEN  =      -848.55125872 eV

  energy without entropy =     -848.47725185  energy(sigma->0) =     -848.51425528


--------------------------------------------------------------------------------------------------------




--------------------------------------- Iteration      1(   7)  ---------------------------------------


    POTLOK:  cpu time      0.3217: real time      0.3218
    SETDIJ:  cpu time      0.0404: real time      0.0404
     EDDAV:  cpu time     10.1197: real time     10.1258
       DOS:  cpu time      0.0007: real time      0.0007
    CHARGE:  cpu time      1.1507: real time      1.1513
    MIXING:  cpu time      0.2792: real time      0.2793
    --------------------------------------------
      LOOP:  cpu time     11.9123: real time     11.9193

 eigenvalue-minimisations  :  1560
 total energy-change (2. order) : 0.1885042E+02  (-0.6654050E+01)
 number of electron     368.0000006 magnetization 
 augmentation part        9.2330696 magnetization 

 Broyden mixing:
  rms(total) = 0.74738E+00    rms(broyden)= 0.74711E+00
  rms(prec ) = 0.75719E+00
  weight for this iteration     100.00

 eigenvalues of (default mixing * dielectric matrix)
  average eigenvalue GAMMA=   2.1503
  2.1503  2.1503

 Free energy of the ion-electron system (eV)
  ---------------------------------------------------
  alpha Z        PSCENC =        91.34886789
  Ewald energy   TEWEN  =    120590.66838247
  -Hartree energ DENC   =   -131240.65893384
  -exchange      EXHF   =         0.00000000
  -V(xc)+E(xc)   XCENC  =      1277.95507603
  PAW double counting   =     36909.84792641   -36976.96447031
  entropy T*S    EENTRO =        -0.08146250
  eigenvalues    EBANDS =     -5019.47102300
  atomic energy  EATOM  =     13537.65479391
  Solvation  Ediel_sol  =         0.00000000
  ---------------------------------------------------
  free energy    TOTEN  =      -829.70084292 eV

  energy without entropy =     -829.61938042  energy(sigma->0) =     -829.66011167


--------------------------------------------------------------------------------------------------------




--------------------------------------- Iteration      1(   8)  ---------------------------------------


    POTLOK:  cpu time      0.3213: real time      0.3213
    SETDIJ:  cpu time      0.0402: real time      0.0402
     EDDAV:  cpu time     10.4442: real time     10.4494
       DOS:  cpu time      0.0007: real time      0.0007
    CHARGE:  cpu time      1.1500: real time      1.1517
    MIXING:  cpu time      0.2810: real time      0.2815
    --------------------------------------------
      LOOP:  cpu time     12.2375: real time     12.2449

 eigenvalue-minimisations  :  1624
 total energy-change (2. order) : 0.2981673E+00  (-0.2337106E+00)
 number of electron     368.0000006 magnetization 
 augmentation part        9.2148399 magnetization 

 Broyden mixing:
  rms(total) = 0.11311E+00    rms(broyden)= 0.11307E+00
  rms(prec ) = 0.13422E+00
  weight for this iteration     100.00

 eigenvalues of (default mixing * dielectric matrix)
  average eigenvalue GAMMA=   1.8346
  1.1232  2.4123  1.9684

 Free energy of the ion-electron system (eV)
  ---------------------------------------------------
  alpha Z        PSCENC =        91.34886789
  Ewald energy   TEWEN  =    120590.66838247
  -Hartree energ DENC   =   -131335.72716764
  -exchange      EXHF   =         0.00000000
  -V(xc)+E(xc)   XCENC  =      1277.89615637
  PAW double counting   =     41157.53813337   -41222.11729826
  entropy T*S    EENTRO =        -0.08138722
  eigenvalues    EBANDS =     -4926.58315655
  atomic energy  EATOM  =     13537.65479391
  Solvation  Ediel_sol  =         0.00000000
  ---------------------------------------------------
  free energy    TOTEN  =      -829.40267567 eV

  energy without entropy =     -829.32128844  energy(sigma->0) =     -829.36198206


--------------------------------------------------------------------------------------------------------




--------------------------------------- Iteration      1(   9)  ---------------------------------------


    POTLOK:  cpu time      0.3214: real time      0.3215
    SETDIJ:  cpu time      0.0401: real time      0.0401
     EDDAV:  cpu time     10.6148: real time     10.6193
       DOS:  cpu time      0.0008: real time      0.0008
    CHARGE:  cpu time      1.1532: real time      1.1540
    MIXING:  cpu time      0.2873: real time      0.2873
    --------------------------------------------
      LOOP:  cpu time     12.4175: real time     12.4229

 eigenvalue-minimisations  :  1656
 total energy-change (2. order) : 0.1134945E+00  (-0.2460153E-01)
 number of electron     368.0000006 magnetization 
 augmentation part        9.1948262 magnetization 

 Broyden mixing:
  rms(total) = 0.58379E-01    rms(broyden)= 0.58371E-01
  rms(prec ) = 0.80591E-01
  weight for this iteration     100.00

 eigenvalues of (default mixing * dielectric matrix)
  average eigenvalue GAMMA=   1.6521
  2.1952  2.1952  1.0113  1.2067

 Free energy of the ion-electron system (eV)
  ---------------------------------------------------
  alpha Z        PSCENC =        91.34886789
  Ewald energy   TEWEN  =    120590.66838247
  -Hartree energ DENC   =   -131405.62532005
  -exchange      EXHF   =         0.00000000
  -V(xc)+E(xc)   XCENC  =      1279.18237489
  PAW double counting   =     41859.93633892   -41924.43297846
  entropy T*S    EENTRO =        -0.08025487
  eigenvalues    EBANDS =     -4857.94138589
  atomic energy  EATOM  =     13537.65479391
  Solvation  Ediel_sol  =         0.00000000
  ---------------------------------------------------
  free energy    TOTEN  =      -829.28918119 eV

  energy without entropy =     -829.20892632  energy(sigma->0) =     -829.24905375


--------------------------------------------------------------------------------------------------------




--------------------------------------- Iteration      1(  10)  ---------------------------------------


    POTLOK:  cpu time      0.3216: real time      0.3216
    SETDIJ:  cpu time      0.0402: real time      0.0402
     EDDAV:  cpu time     11.0340: real time     11.0380
       DOS:  cpu time      0.0007: real time      0.0007
    CHARGE:  cpu time      1.1529: real time      1.1554
    MIXING:  cpu time      0.2925: real time      0.2928
    --------------------------------------------
      LOOP:  cpu time     12.8419: real time     12.8489

 eigenvalue-minimisations  :  1744
 total energy-change (2. order) : 0.3782691E-01  (-0.4912428E-02)
 number of electron     368.0000006 magnetization 
 augmentation part        9.1840619 magnetization 

 Broyden mixing:
  rms(total) = 0.39366E-01    rms(broyden)= 0.39363E-01
  rms(prec ) = 0.59742E-01
  weight for this iteration     100.00

 eigenvalues of (default mixing * dielectric matrix)
  average eigenvalue GAMMA=   1.6553
  2.3464  2.3464  1.4232  1.2694  0.8910

 Free energy of the ion-electron system (eV)
  ---------------------------------------------------
  alpha Z        PSCENC =        91.34886789
  Ewald energy   TEWEN  =    120590.66838247
  -Hartree energ DENC   =   -131450.41515669
  -exchange      EXHF   =         0.00000000
  -V(xc)+E(xc)   XCENC  =      1279.54048709
  PAW double counting   =     41697.82154472   -41762.22089663
  entropy T*S    EENTRO =        -0.07997170
  eigenvalues    EBANDS =     -4813.56940535
  atomic energy  EATOM  =     13537.65479391
  Solvation  Ediel_sol  =         0.00000000
  ---------------------------------------------------
  free energy    TOTEN  =      -829.25135428 eV

  energy without entropy =     -829.17138259  energy(sigma->0) =     -829.21136844


--------------------------------------------------------------------------------------------------------




--------------------------------------- Iteration      1(  11)  ---------------------------------------


    POTLOK:  cpu time      0.3218: real time      0.3218
    SETDIJ:  cpu time      0.0402: real time      0.0402
     EDDAV:  cpu time     10.1048: real time     10.1085
       DOS:  cpu time      0.0007: real time      0.0007
    CHARGE:  cpu time      1.1623: real time      1.1626
    MIXING:  cpu time      0.2978: real time      0.2984
    --------------------------------------------
      LOOP:  cpu time     11.9276: real time     11.9322

 eigenvalue-minimisations  :  1560
 total energy-change (2. order) : 0.3274648E-01  (-0.1908034E-02)
 number of electron     368.0000006 magnetization 
 augmentation part        9.1800163 magnetization 

 Broyden mixing:
  rms(total) = 0.25350E-01    rms(broyden)= 0.25348E-01
  rms(prec ) = 0.41092E-01
  weight for this iteration     100.00

 eigenvalues of (default mixing * dielectric matrix)
  average eigenvalue GAMMA=   1.7763
  3.0499  2.5349  1.9250  0.9685  1.0896  1.0896

 Free energy of the ion-electron system (eV)
  ---------------------------------------------------
  alpha Z        PSCENC =        91.34886789
  Ewald energy   TEWEN  =    120590.66838247
  -Hartree energ DENC   =   -131510.66664450
  -exchange      EXHF   =         0.00000000
  -V(xc)+E(xc)   XCENC  =      1280.03794744
  PAW double counting   =     41603.31936167   -41667.60892902
  entropy T*S    EENTRO =        -0.08023906
  eigenvalues    EBANDS =     -4753.89214860
  atomic energy  EATOM  =     13537.65479391
  Solvation  Ediel_sol  =         0.00000000
  ---------------------------------------------------
  free energy    TOTEN  =      -829.21860780 eV

  energy without entropy =     -829.13836875  energy(sigma->0) =     -829.17848827


--------------------------------------------------------------------------------------------------------




--------------------------------------- Iteration      1(  12)  ---------------------------------------


    POTLOK:  cpu time      0.3204: real time      0.3205
    SETDIJ:  cpu time      0.0404: real time      0.0403
     EDDAV:  cpu time     10.1018: real time     10.1069
       DOS:  cpu time      0.0007: real time      0.0007
    CHARGE:  cpu time      1.1525: real time      1.1526
    MIXING:  cpu time      0.3063: real time      0.3068
    --------------------------------------------
      LOOP:  cpu time     11.9221: real time     11.9279

 eigenvalue-minimisations  :  1560
 total energy-change (2. order) : 0.1035986E-01  (-0.3223144E-02)
 number of electron     368.0000006 magnetization 
 augmentation part        9.1721643 magnetization 

 Broyden mixing:
  rms(total) = 0.15690E-01    rms(broyden)= 0.15686E-01
  rms(prec ) = 0.23919E-01
  weight for this iteration     100.00

 eigenvalues of (default mixing * dielectric matrix)
  average eigenvalue GAMMA=   2.0265
  4.6544  2.2646  2.2646  1.9304  0.9987  1.0363  1.0363

 Free energy of the ion-electron system (eV)
  ---------------------------------------------------
  alpha Z        PSCENC =        91.34886789
  Ewald energy   TEWEN  =    120590.66838247
  -Hartree energ DENC   =   -131589.13222369
  -exchange      EXHF   =         0.00000000
  -V(xc)+E(xc)   XCENC  =      1280.78091483
  PAW double counting   =     41621.21883953   -41685.46652146
  entropy T*S    EENTRO =        -0.08027625
  eigenvalues    EBANDS =     -4676.20102517
  atomic energy  EATOM  =     13537.65479391
  Solvation  Ediel_sol  =         0.00000000
  ---------------------------------------------------
  free energy    TOTEN  =      -829.20824794 eV

  energy without entropy =     -829.12797169  energy(sigma->0) =     -829.16810981


--------------------------------------------------------------------------------------------------------




--------------------------------------- Iteration      1(  13)  ---------------------------------------


    POTLOK:  cpu time      0.3208: real time      0.3207
    SETDIJ:  cpu time      0.0404: real time      0.0404
     EDDAV:  cpu time     10.0538: real time     10.0589
       DOS:  cpu time      0.0008: real time      0.0008
    CHARGE:  cpu time      1.1518: real time      1.1534
    MIXING:  cpu time      0.3130: real time      0.3131
    --------------------------------------------
      LOOP:  cpu time     11.8805: real time     11.8872

 eigenvalue-minimisations  :  1552
 total energy-change (2. order) :-0.1243310E-01  (-0.9031148E-03)
 number of electron     368.0000006 magnetization 
 augmentation part        9.1688799 magnetization 

 Broyden mixing:
  rms(total) = 0.85356E-02    rms(broyden)= 0.85329E-02
  rms(prec ) = 0.12406E-01
  weight for this iteration     100.00

 eigenvalues of (default mixing * dielectric matrix)
  average eigenvalue GAMMA=   2.0711
  5.5479  2.5647  2.1170  2.1170  1.1444  1.1444  0.9667  0.9667

 Free energy of the ion-electron system (eV)
  ---------------------------------------------------
  alpha Z        PSCENC =        91.34886789
  Ewald energy   TEWEN  =    120590.66838247
  -Hartree energ DENC   =   -131641.05978673
  -exchange      EXHF   =         0.00000000
  -V(xc)+E(xc)   XCENC  =      1281.00912299
  PAW double counting   =     41605.64421768   -41669.89297997
  entropy T*S    EENTRO =        -0.08026353
  eigenvalues    EBANDS =     -4624.51303575
  atomic energy  EATOM  =     13537.65479391
  Solvation  Ediel_sol  =         0.00000000
  ---------------------------------------------------
  free energy    TOTEN  =      -829.22068104 eV

  energy without entropy =     -829.14041751  energy(sigma->0) =     -829.18054927


--------------------------------------------------------------------------------------------------------




--------------------------------------- Iteration      1(  14)  ---------------------------------------


    POTLOK:  cpu time      0.3210: real time      0.3211
    SETDIJ:  cpu time      0.0400: real time      0.0400
     EDDAV:  cpu time     10.2639: real time     10.2675
       DOS:  cpu time      0.0008: real time      0.0008
    CHARGE:  cpu time      1.1551: real time      1.1556
    MIXING:  cpu time      0.3223: real time      0.3225
    --------------------------------------------
      LOOP:  cpu time     12.1031: real time     12.1074

 eigenvalue-minimisations  :  1592
 total energy-change (2. order) :-0.1617567E-01  (-0.1232046E-03)
 number of electron     368.0000006 magnetization 
 augmentation part        9.1683774 magnetization 

 Broyden mixing:
  rms(total) = 0.60016E-02    rms(broyden)= 0.60012E-02
  rms(prec ) = 0.83031E-02
  weight for this iteration     100.00

 eigenvalues of (default mixing * dielectric matrix)
  average eigenvalue GAMMA=   2.1513
  6.1231  2.6593  2.6593  1.8410  1.8410  1.1978  1.0694  0.9853  0.9853

 Free energy of the ion-electron system (eV)
  ---------------------------------------------------
  alpha Z        PSCENC =        91.34886789
  Ewald energy   TEWEN  =    120590.66838247
  -Hartree energ DENC   =   -131656.73268723
  -exchange      EXHF   =         0.00000000
  -V(xc)+E(xc)   XCENC  =      1281.00123591
  PAW double counting   =     41568.01794091   -41632.27434122
  entropy T*S    EENTRO =        -0.08025147
  eigenvalues    EBANDS =     -4608.84079788
  atomic energy  EATOM  =     13537.65479391
  Solvation  Ediel_sol  =         0.00000000
  ---------------------------------------------------
  free energy    TOTEN  =      -829.23685671 eV

  energy without entropy =     -829.15660524  energy(sigma->0) =     -829.19673097


--------------------------------------------------------------------------------------------------------




--------------------------------------- Iteration      1(  15)  ---------------------------------------


    POTLOK:  cpu time      0.3197: real time      0.3197
    SETDIJ:  cpu time      0.0402: real time      0.0402
     EDDAV:  cpu time     10.1590: real time     10.1626
       DOS:  cpu time      0.0008: real time      0.0008
    CHARGE:  cpu time      1.1575: real time      1.1575
    MIXING:  cpu time      0.3315: real time      0.3316
    --------------------------------------------
      LOOP:  cpu time     12.0086: real time     12.0124

 eigenvalue-minimisations  :  1568
 total energy-change (2. order) :-0.2115617E-01  (-0.1984879E-03)
 number of electron     368.0000006 magnetization 
 augmentation part        9.1677845 magnetization 

 Broyden mixing:
  rms(total) = 0.32190E-02    rms(broyden)= 0.32185E-02
  rms(prec ) = 0.44839E-02
  weight for this iteration     100.00

 eigenvalues of (default mixing * dielectric matrix)
  average eigenvalue GAMMA=   2.2211
  7.1198  3.4721  2.2874  2.0561  1.7823  1.2706  1.2706  0.9722  0.9722  1.0082

 Free energy of the ion-electron system (eV)
  ---------------------------------------------------
  alpha Z        PSCENC =        91.34886789
  Ewald energy   TEWEN  =    120590.66838247
  -Hartree energ DENC   =   -131667.48891187
  -exchange      EXHF   =         0.00000000
  -V(xc)+E(xc)   XCENC  =      1280.99918725
  PAW double counting   =     41597.93479909   -41662.19119242
  entropy T*S    EENTRO =        -0.08027126
  eigenvalues    EBANDS =     -4598.10366794
  atomic energy  EATOM  =     13537.65479391
  Solvation  Ediel_sol  =         0.00000000
  ---------------------------------------------------
  free energy    TOTEN  =      -829.25801288 eV

  energy without entropy =     -829.17774162  energy(sigma->0) =     -829.21787725


--------------------------------------------------------------------------------------------------------




--------------------------------------- Iteration      1(  16)  ---------------------------------------


    POTLOK:  cpu time      0.3210: real time      0.3210
    SETDIJ:  cpu time      0.0403: real time      0.0403
     EDDAV:  cpu time     10.3714: real time     10.3759
       DOS:  cpu time      0.0008: real time      0.0008
    CHARGE:  cpu time      1.1637: real time      1.1650
    MIXING:  cpu time      0.3396: real time      0.3408
    --------------------------------------------
      LOOP:  cpu time     12.2368: real time     12.2437

 eigenvalue-minimisations  :  1608
 total energy-change (2. order) :-0.8643423E-02  (-0.4342676E-04)
 number of electron     368.0000006 magnetization 
 augmentation part        9.1676582 magnetization 

 Broyden mixing:
  rms(total) = 0.23248E-02    rms(broyden)= 0.23247E-02
  rms(prec ) = 0.29623E-02
  weight for this iteration     100.00

 eigenvalues of (default mixing * dielectric matrix)
  average eigenvalue GAMMA=   2.3521
  7.8436  4.1100  2.4849  2.4849  1.9067  1.5083  1.5083  1.0169  1.0169  0.9962
  0.9962

 Free energy of the ion-electron system (eV)
  ---------------------------------------------------
  alpha Z        PSCENC =        91.34886789
  Ewald energy   TEWEN  =    120590.66838247
  -Hartree energ DENC   =   -131672.17568200
  -exchange      EXHF   =         0.00000000
  -V(xc)+E(xc)   XCENC  =      1280.97856572
  PAW double counting   =     41582.16929652   -41646.42775504
  entropy T*S    EENTRO =        -0.08025376
  eigenvalues    EBANDS =     -4593.40287201
  atomic energy  EATOM  =     13537.65479391
  Solvation  Ediel_sol  =         0.00000000
  ---------------------------------------------------
  free energy    TOTEN  =      -829.26665631 eV

  energy without entropy =     -829.18640254  energy(sigma->0) =     -829.22652942


--------------------------------------------------------------------------------------------------------




--------------------------------------- Iteration      1(  17)  ---------------------------------------


    POTLOK:  cpu time      0.3208: real time      0.3208
    SETDIJ:  cpu time      0.0402: real time      0.0402
     EDDAV:  cpu time     10.1994: real time     10.2031
       DOS:  cpu time      0.0008: real time      0.0008
    CHARGE:  cpu time      1.1555: real time      1.1566
    MIXING:  cpu time      0.3511: real time      0.3509
    --------------------------------------------
      LOOP:  cpu time     12.0677: real time     12.0723

 eigenvalue-minimisations  :  1576
 total energy-change (2. order) :-0.6862144E-02  (-0.5471675E-04)
 number of electron     368.0000006 magnetization 
 augmentation part        9.1676297 magnetization 

 Broyden mixing:
  rms(total) = 0.10991E-02    rms(broyden)= 0.10990E-02
  rms(prec ) = 0.13912E-02
  weight for this iteration     100.00

 eigenvalues of (default mixing * dielectric matrix)
  average eigenvalue GAMMA=   2.3462
  8.4140  4.5481  2.5161  2.2006  2.2006  1.4130  1.4130  1.4002  1.0867  0.9682
  0.9968  0.9968

 Free energy of the ion-electron system (eV)
  ---------------------------------------------------
  alpha Z        PSCENC =        91.34886789
  Ewald energy   TEWEN  =    120590.66838247
  -Hartree energ DENC   =   -131674.70997321
  -exchange      EXHF   =         0.00000000
  -V(xc)+E(xc)   XCENC  =      1280.97261047
  PAW double counting   =     41588.57514244   -41652.82680425
  entropy T*S    EENTRO =        -0.08025078
  eigenvalues    EBANDS =     -4590.87628738
  atomic energy  EATOM  =     13537.65479391
  Solvation  Ediel_sol  =         0.00000000
  ---------------------------------------------------
  free energy    TOTEN  =      -829.27351845 eV

  energy without entropy =     -829.19326767  energy(sigma->0) =     -829.23339306


--------------------------------------------------------------------------------------------------------




--------------------------------------- Iteration      1(  18)  ---------------------------------------


    POTLOK:  cpu time      0.3211: real time      0.3212
    SETDIJ:  cpu time      0.0403: real time      0.0403
     EDDAV:  cpu time     10.9375: real time     10.9428
       DOS:  cpu time      0.0008: real time      0.0008
    CHARGE:  cpu time      1.1565: real time      1.1589
    MIXING:  cpu time      0.3608: real time      0.3608
    --------------------------------------------
      LOOP:  cpu time     12.8169: real time     12.8248

 eigenvalue-minimisations  :  1720
 total energy-change (2. order) :-0.1508742E-02  (-0.5776929E-05)
 number of electron     368.0000006 magnetization 
 augmentation part        9.1674805 magnetization 

 Broyden mixing:
  rms(total) = 0.74069E-03    rms(broyden)= 0.74059E-03
  rms(prec ) = 0.92981E-03
  weight for this iteration     100.00

 eigenvalues of (default mixing * dielectric matrix)
  average eigenvalue GAMMA=   2.3799
  8.8447  4.8854  2.7870  2.5862  1.8033  1.5883  1.5883  1.5006  0.9948  0.9948
  0.9923  1.2839  1.0888

 Free energy of the ion-electron system (eV)
  ---------------------------------------------------
  alpha Z        PSCENC =        91.34886789
  Ewald energy   TEWEN  =    120590.66838247
  -Hartree energ DENC   =   -131675.54212537
  -exchange      EXHF   =         0.00000000
  -V(xc)+E(xc)   XCENC  =      1280.97500379
  PAW double counting   =     41587.79965325   -41652.05330909
  entropy T*S    EENTRO =        -0.08026470
  eigenvalues    EBANDS =     -4590.04602935
  atomic energy  EATOM  =     13537.65479391
  Solvation  Ediel_sol  =         0.00000000
  ---------------------------------------------------
  free energy    TOTEN  =      -829.27502719 eV

  energy without entropy =     -829.19476250  energy(sigma->0) =     -829.23489484


--------------------------------------------------------------------------------------------------------




--------------------------------------- Iteration      1(  19)  ---------------------------------------


    POTLOK:  cpu time      0.3209: real time      0.3210
    SETDIJ:  cpu time      0.0404: real time      0.0405
     EDDAV:  cpu time     10.0013: real time     10.0048
       DOS:  cpu time      0.0008: real time      0.0008
    CHARGE:  cpu time      1.1538: real time      1.1553
    MIXING:  cpu time      0.3711: real time      0.3715
    --------------------------------------------
      LOOP:  cpu time     11.8884: real time     11.8938

 eigenvalue-minimisations  :  1536
 total energy-change (2. order) :-0.1172287E-02  (-0.4217087E-05)
 number of electron     368.0000006 magnetization 
 augmentation part        9.1675693 magnetization 

 Broyden mixing:
  rms(total) = 0.40973E-03    rms(broyden)= 0.40970E-03
  rms(prec ) = 0.50829E-03
  weight for this iteration     100.00

 eigenvalues of (default mixing * dielectric matrix)
  average eigenvalue GAMMA=   2.3964
  8.9602  5.5161  3.1488  2.3364  2.3364  1.9794  1.5358  1.5358  1.1577  1.1577
  0.9714  0.9714  0.9711  0.9711

 Free energy of the ion-electron system (eV)
  ---------------------------------------------------
  alpha Z        PSCENC =        91.34886789
  Ewald energy   TEWEN  =    120590.66838247
  -Hartree energ DENC   =   -131675.72876528
  -exchange      EXHF   =         0.00000000
  -V(xc)+E(xc)   XCENC  =      1280.96874355
  PAW double counting   =     41584.27318025   -41648.52472196
  entropy T*S    EENTRO =        -0.08026121
  eigenvalues    EBANDS =     -4589.85641909
  atomic energy  EATOM  =     13537.65479391
  Solvation  Ediel_sol  =         0.00000000
  ---------------------------------------------------
  free energy    TOTEN  =      -829.27619948 eV

  energy without entropy =     -829.19593827  energy(sigma->0) =     -829.23606887


--------------------------------------------------------------------------------------------------------




--------------------------------------- Iteration      1(  20)  ---------------------------------------


    POTLOK:  cpu time      0.3219: real time      0.3220
    SETDIJ:  cpu time      0.0403: real time      0.0403
     EDDAV:  cpu time      9.1163: real time      9.1196
       DOS:  cpu time      0.0008: real time      0.0008
    CHARGE:  cpu time      1.1537: real time      1.1573
    MIXING:  cpu time      0.3840: real time      0.3842
    --------------------------------------------
      LOOP:  cpu time     11.0170: real time     11.0241

 eigenvalue-minimisations  :  1352
 total energy-change (2. order) :-0.4556124E-03  (-0.1047023E-05)
 number of electron     368.0000006 magnetization 
 augmentation part        9.1675286 magnetization 

 Broyden mixing:
  rms(total) = 0.26979E-03    rms(broyden)= 0.26977E-03
  rms(prec ) = 0.31913E-03
  weight for this iteration     100.00

 eigenvalues of (default mixing * dielectric matrix)
  average eigenvalue GAMMA=   2.4123
  9.1867  5.7636  3.5571  2.5325  2.2849  1.9922  1.5855  1.5855  1.3263  1.3263
  0.9963  0.9963  0.9930  1.0293  1.0293

 Free energy of the ion-electron system (eV)
  ---------------------------------------------------
  alpha Z        PSCENC =        91.34886789
  Ewald energy   TEWEN  =    120590.66838247
  -Hartree energ DENC   =   -131676.01009491
  -exchange      EXHF   =         0.00000000
  -V(xc)+E(xc)   XCENC  =      1280.97060344
  PAW double counting   =     41584.99862425   -41649.25114845
  entropy T*S    EENTRO =        -0.08025986
  eigenvalues    EBANDS =     -4589.57642383
  atomic energy  EATOM  =     13537.65479391
  Solvation  Ediel_sol  =         0.00000000
  ---------------------------------------------------
  free energy    TOTEN  =      -829.27665509 eV

  energy without entropy =     -829.19639523  energy(sigma->0) =     -829.23652516


--------------------------------------------------------------------------------------------------------




--------------------------------------- Iteration      1(  21)  ---------------------------------------


    POTLOK:  cpu time      0.3212: real time      0.3211
    SETDIJ:  cpu time      0.0403: real time      0.0403
     EDDAV:  cpu time      8.7259: real time      8.7290
       DOS:  cpu time      0.0008: real time      0.0008
    CHARGE:  cpu time      1.1657: real time      1.1655
    MIXING:  cpu time      0.3972: real time      0.3972
    --------------------------------------------
      LOOP:  cpu time     10.6509: real time     10.6539

 eigenvalue-minimisations  :  1272
 total energy-change (2. order) :-0.2129257E-03  (-0.2470911E-06)
 number of electron     368.0000006 magnetization 
 augmentation part        9.1675154 magnetization 

 Broyden mixing:
  rms(total) = 0.14213E-03    rms(broyden)= 0.14211E-03
  rms(prec ) = 0.16896E-03
  weight for this iteration     100.00

 eigenvalues of (default mixing * dielectric matrix)
  average eigenvalue GAMMA=   2.4080
  9.1892  6.1769  3.8345  2.6394  2.3475  2.1068  1.7858  1.5874  1.5874  1.1631
  1.1631  0.9832  0.9832  1.0314  0.9742  0.9742

 Free energy of the ion-electron system (eV)
  ---------------------------------------------------
  alpha Z        PSCENC =        91.34886789
  Ewald energy   TEWEN  =    120590.66838247
  -Hartree energ DENC   =   -131676.10937358
  -exchange      EXHF   =         0.00000000
  -V(xc)+E(xc)   XCENC  =      1280.97055392
  PAW double counting   =     41584.32727609   -41648.58037726
  entropy T*S    EENTRO =        -0.08026022
  eigenvalues    EBANDS =     -4589.47673123
  atomic energy  EATOM  =     13537.65479391
  Solvation  Ediel_sol  =         0.00000000
  ---------------------------------------------------
  free energy    TOTEN  =      -829.27686802 eV

  energy without entropy =     -829.19660779  energy(sigma->0) =     -829.23673790


[...]
   0.106E+02 -.125E+02 0.131E+03   -.893E+01 0.126E+02 -.132E+03   0.110E+01 -.617E+00 -.401E-01   -.394E-05 0.111E-05 -.137E-05
   0.229E+02 -.113E+02 0.178E+03   -.240E+02 0.130E+02 -.179E+03   -.759E+00 0.163E+01 0.115E+01   -.143E-05 -.240E-08 -.111E-05
   0.183E+02 0.105E+02 0.147E+03   -.195E+02 -.110E+02 -.147E+03   -.130E+01 -.446E-01 0.113E+01   0.292E-06 -.276E-06 -.103E-05
   -.871E-01 0.117E+02 0.220E+03   0.145E+01 -.128E+02 -.221E+03   0.126E+01 -.565E+00 0.199E+00   -.356E-05 0.300E-05 -.151E-05
   0.783E+01 -.122E+02 0.187E+03   -.793E+01 0.127E+02 -.187E+03   -.494E+00 0.392E+00 0.305E+00   -.109E-06 -.359E-07 -.157E-05
   0.130E+01 -.325E+01 0.213E+03   -.242E+01 0.361E+01 -.213E+03   -.447E-01 -.640E-01 0.106E+01   0.360E-05 -.257E-06 -.722E-06
   -.130E+02 0.689E+01 0.140E+03   0.142E+02 -.738E+01 -.140E+03   0.526E+00 0.505E-01 -.716E-01   0.525E-06 0.903E-06 -.110E-05
   -.194E+02 0.147E+02 0.166E+03   0.198E+02 -.159E+02 -.166E+03   0.858E+00 -.587E+00 -.116E+01   0.621E-05 0.199E-05 -.165E-05
   -.120E+02 -.221E+02 0.200E+03   0.111E+02 0.233E+02 -.201E+03   -.457E+00 0.274E+00 0.169E+01   0.310E-05 -.218E-05 -.163E-05
   -.180E+02 -.107E+02 0.157E+03   0.176E+02 0.116E+02 -.158E+03   -.219E+00 0.163E+00 0.168E+01   0.379E-05 -.194E-05 -.232E-06
   -.205E+02 -.118E+01 0.130E+03   0.209E+02 0.216E+01 -.129E+03   0.444E+00 0.136E+01 -.514E+00   0.213E-05 -.115E-05 -.294E-05
   -.186E+02 0.299E+01 0.110E+03   0.182E+02 -.203E+01 -.111E+03   -.477E-01 0.639E+00 -.887E+00   0.330E-05 -.632E-06 -.233E-05
   -.206E+02 -.902E+01 0.123E+03   0.205E+02 0.843E+01 -.123E+03   -.402E+00 -.531E+00 -.851E-02   0.600E-05 -.233E-05 -.181E-05
   -.316E+02 -.160E+01 0.833E+02   0.328E+02 0.766E+00 -.832E+02   0.216E+00 0.511E+00 0.147E+01   -.157E-05 -.935E-06 -.132E-05
   -.174E+02 0.587E+01 0.113E+03   0.167E+02 -.593E+01 -.113E+03   -.188E+00 0.447E+00 -.772E+00   0.481E-05 -.311E-06 -.267E-05
   -.440E+01 0.186E+02 0.271E+02   0.397E+01 -.189E+02 -.270E+02   0.111E+01 -.567E+00 -.101E+01   -.165E-05 0.269E-05 -.278E-05
   -.375E+02 -.731E+01 0.135E+03   0.388E+02 0.691E+01 -.135E+03   -.306E+00 -.821E+00 0.209E+01   -.216E-05 0.270E-05 -.304E-05
   0.129E+02 -.382E+01 -.349E+02   -.134E+02 0.250E+01 0.350E+02   -.304E+00 -.213E+01 0.117E+00   0.171E-05 -.527E-06 0.214E-05
   -.165E+02 0.540E+01 0.511E+02   0.159E+02 -.556E+01 -.511E+02   -.752E+00 0.408E+00 -.905E+00   -.199E-05 0.351E-05 -.140E-05
   0.145E+01 0.257E+02 -.259E+02   -.126E+01 -.277E+02 0.261E+02   -.164E+01 0.640E+00 -.405E+00   0.232E-06 0.303E-05 0.611E-06
   -.119E+02 -.182E+02 0.536E+02   0.123E+02 0.197E+02 -.544E+02   0.307E+00 0.181E+01 0.131E+01   -.446E-05 -.581E-05 -.861E-06
   0.193E+02 -.145E+01 -.101E+03   -.202E+02 0.733E+00 0.101E+03   -.163E+01 -.140E+00 -.102E+01   -.409E-05 -.998E-06 0.821E-06
   -.445E+01 -.292E+01 -.250E+02   0.472E+01 0.416E+01 0.255E+02   0.134E+01 0.116E+01 -.400E+00   -.641E-05 -.170E-05 -.153E-05
   0.194E+00 0.667E+01 -.845E+02   0.138E+01 -.663E+01 0.846E+02   0.306E+00 -.829E+00 0.212E-02   0.586E-06 -.551E-05 0.977E-06
   0.278E+01 -.224E+02 -.565E+02   -.321E+01 0.233E+02 0.559E+02   -.111E+01 -.714E+00 0.538E+00   0.349E-05 -.225E-05 0.150E-05
   0.179E+01 -.703E+01 -.761E+02   -.324E+01 0.927E+01 0.755E+02   0.423E+00 0.165E+01 0.472E+00   0.177E-05 -.630E-05 -.126E-06
   0.253E+01 0.152E+01 -.123E+03   -.272E+01 -.244E+01 0.123E+03   -.161E+00 -.735E+00 -.858E+00   0.666E-05 0.202E-05 0.403E-06
   -.124E+02 0.537E+02 -.121E+03   0.979E+01 -.541E+02 0.122E+03   0.214E+01 0.259E+01 -.973E+00   -.358E-06 -.116E-05 -.150E-05
   -.833E+01 -.580E+02 -.145E+03   0.480E+01 0.587E+02 0.146E+03   0.608E+00 -.163E+01 -.645E+00   0.992E-06 0.135E-05 -.403E-06
   -.983E+00 0.645E+02 -.219E+03   0.367E+01 -.653E+02 0.219E+03   -.111E+00 0.190E+01 -.533E+00   0.495E-05 -.319E-05 0.115E-05
   0.484E+01 -.541E+02 -.184E+03   -.400E+01 0.534E+02 0.185E+03   -.268E+01 -.138E+01 -.390E+00   0.989E-05 0.901E-05 -.179E-05
   -.952E+01 0.297E+01 -.199E+03   0.886E+01 -.339E+01 0.200E+03   -.692E+00 -.365E+00 -.772E+00   -.290E-05 -.287E-05 0.176E-05
   0.367E+01 -.261E+01 -.107E+03   -.323E+01 0.353E+01 0.107E+03   0.146E+00 -.293E+00 0.408E+00   -.174E-05 0.808E-05 -.228E-06
   -.316E+02 0.981E+01 -.143E+03   0.325E+02 -.858E+01 0.143E+03   0.746E+00 0.567E+00 0.246E+00   -.188E-05 0.271E-05 0.399E-05
   -.297E+02 -.285E+01 -.119E+03   0.312E+02 0.169E+01 0.119E+03   0.935E+00 -.855E+00 -.411E+00   -.428E-05 0.690E-05 0.202E-05
   -.123E+02 -.254E+01 -.116E+03   0.122E+02 0.108E+01 0.116E+03   -.130E+00 -.858E+00 -.322E+00   0.342E-05 0.133E-05 0.252E-05
   -.258E+01 0.203E+02 -.736E+02   0.170E+01 -.222E+02 0.743E+02   -.444E+00 -.791E+00 -.331E+00   0.269E-06 0.279E-05 0.730E-06
   -.231E+02 0.872E+01 -.116E+03   0.229E+02 -.852E+01 0.117E+03   -.150E+01 0.112E+01 -.111E+01   0.781E-05 0.119E-05 0.323E-06
   -.130E+02 -.134E+01 -.741E+02   0.133E+02 0.550E+00 0.744E+02   0.972E+00 0.333E+00 -.550E+00   0.260E-05 0.164E-05 0.155E-05
   0.270E+01 -.103E+02 0.358E+01   -.266E+01 0.105E+02 -.411E+01   0.290E+00 0.523E+00 0.164E+01   0.109E-05 -.564E-05 0.102E-05
   0.557E+01 0.176E+02 0.101E+02   -.572E+01 -.193E+02 -.982E+01   0.127E+01 0.275E+00 -.459E+00   -.335E-05 0.338E-05 0.601E-06
   0.393E+01 0.106E+02 -.635E+01   -.412E+01 -.107E+02 0.688E+01   0.155E+00 -.508E+00 -.738E+00   -.297E-05 -.454E-05 0.144E-05
   0.150E+01 -.168E+02 0.289E+02   -.120E+01 0.174E+02 -.288E+02   0.220E+00 -.681E+00 0.148E-01   -.284E-05 -.867E-06 0.956E-06
   0.525E+01 -.632E+00 0.258E+02   -.511E+01 -.105E+00 -.260E+02   0.320E+00 -.106E+01 -.675E-01   -.416E-05 -.271E-05 0.315E-06
   0.255E+02 0.155E+02 0.760E+02   -.269E+02 -.169E+02 -.757E+02   -.346E+00 -.881E+00 0.357E+00   -.455E-06 0.115E-05 -.166E-05
   -.303E+01 0.862E+01 -.490E+00   0.278E+01 -.846E+01 0.936E+00   -.456E+00 0.270E-01 -.607E+00   -.326E-05 0.586E-06 0.571E-06
   0.943E+00 -.777E+01 0.518E+02   0.149E+00 0.767E+01 -.517E+02   0.104E+01 -.438E+00 0.379E+00   -.371E-05 -.731E-06 0.363E-06
   0.477E+01 -.317E+01 0.202E+02   -.387E+01 0.326E+01 -.199E+02   0.542E+00 0.369E+00 -.106E+01   0.342E-06 0.798E-06 -.428E-06
   0.578E+01 0.155E+02 0.588E+02   -.585E+01 -.177E+02 -.582E+02   -.506E-01 -.710E+00 -.627E+00   -.218E-05 0.187E-05 -.143E-05
   0.803E+01 0.149E+02 0.400E+02   -.900E+01 -.165E+02 -.400E+02   -.631E+00 -.391E+00 0.128E+01   0.153E-05 0.234E-07 0.112E-05
   0.807E+01 -.208E+02 0.276E+02   -.835E+01 0.226E+02 -.271E+02   -.196E+00 0.607E+00 -.136E+01   0.125E-05 -.374E-05 -.167E-07
   -.460E+01 0.638E+01 0.137E+02   0.521E+01 -.632E+01 -.134E+02   0.158E+00 0.534E+00 -.101E+01   0.225E-06 0.126E-05 -.752E-06
   0.241E+01 0.124E+01 0.113E+03   -.341E+01 -.652E+00 -.113E+03   -.713E+00 0.543E+00 0.119E+01   0.416E-05 -.312E-05 0.994E-06
   -.392E+00 0.136E+02 -.740E+01   0.115E+00 -.142E+02 0.779E+01   0.274E-02 -.221E+00 -.642E+00   0.868E-06 0.238E-05 -.394E-06
   0.276E-01 -.881E+01 -.160E+02   0.725E+00 0.884E+01 0.169E+02   0.447E+00 -.848E+00 -.124E+01   0.491E-05 0.644E-06 0.104E-06
   -.113E+02 0.343E+01 0.850E+02   0.116E+02 -.441E+01 -.859E+02   -.511E-01 -.673E+00 0.185E+01   0.187E-05 0.760E-06 -.100E-05
   -.258E+00 0.536E+00 0.140E+02   -.476E+00 -.566E+00 -.144E+02   -.381E+00 -.461E+00 0.111E+00   0.289E-05 -.288E-06 -.925E-07
   -.500E+01 0.157E+02 -.217E+02   0.554E+01 -.163E+02 0.225E+02   0.315E+00 0.764E+00 -.143E+01   0.288E-05 0.295E-05 0.805E-07
   0.862E+01 -.413E+01 -.699E+02   -.796E+01 0.347E+01 0.708E+02   0.140E+01 -.637E+00 -.116E+01   0.729E-06 0.248E-05 0.541E-06
   -.143E+02 -.172E+02 0.773E+02   0.142E+02 0.186E+02 -.781E+02   -.111E+01 0.235E+00 0.237E+01   0.531E-05 -.271E-05 0.462E-06
   -.292E+01 0.241E+01 -.143E+02   0.267E+01 -.180E+01 0.141E+02   -.433E-01 0.140E+01 0.190E+00   0.186E-05 -.352E-06 0.129E-05
   0.107E+02 0.163E+02 -.538E+02   -.111E+02 -.177E+02 0.543E+02   0.783E+00 -.103E+01 -.145E+01   0.293E-05 0.131E-05 0.219E-05
   0.692E+01 -.176E+02 -.678E+02   -.644E+01 0.188E+02 0.681E+02   -.525E+00 -.373E+00 0.712E-02   -.111E-05 -.330E-05 0.222E-05
   0.124E+02 -.409E+01 -.334E+02   -.133E+02 0.374E+01 0.329E+02   0.872E+00 -.464E-01 0.162E+00   -.266E-05 0.154E-05 0.863E-06
   0.207E+02 -.450E+01 -.948E+02   -.208E+02 0.625E+01 0.948E+02   -.237E+00 -.257E+00 -.376E+00   -.366E-05 -.251E-05 0.250E-05
   0.177E+01 0.343E+01 -.754E+02   -.511E+00 -.232E+01 0.761E+02   0.147E+01 0.160E+01 0.164E+00   -.925E-05 0.473E-06 0.699E-06
   0.143E+02 -.226E+01 -.116E+03   -.140E+02 0.136E+01 0.116E+03   0.421E+00 0.400E-02 0.514E-01   -.408E-05 -.201E-05 0.268E-05
   0.197E+01 -.808E+01 -.391E+02   -.261E+01 0.708E+01 0.384E+02   -.815E+00 -.931E+00 0.982E+00   -.439E-05 0.244E-05 0.156E-05
   0.244E+02 0.131E+02 -.124E+03   -.249E+02 -.135E+02 0.125E+03   0.463E+00 0.354E+00 -.956E+00   0.276E-06 0.275E-05 0.236E-05
   0.537E+01 0.257E+02 -.114E+03   -.463E+01 -.275E+02 0.115E+03   0.440E+00 -.950E+00 -.164E+01   0.236E-05 0.432E-05 0.182E-05
   -.177E+01 -.153E+02 -.524E+02   0.212E+01 0.167E+02 0.520E+02   -.367E-02 0.495E+00 0.178E+01   0.188E-05 0.328E-05 0.215E-05
   0.111E+02 -.846E+01 -.113E+03   -.133E+02 0.946E+01 0.111E+03   -.663E+00 0.808E+00 0.124E+01   0.174E-05 -.285E-05 0.139E-05
   -.426E+01 0.229E+02 -.724E+02   0.406E+01 -.259E+02 0.717E+02   0.470E-02 -.813E+00 0.125E+01   -.162E-05 0.618E-05 -.459E-06
   -.136E+02 0.480E+02 -.219E+03   0.125E+02 -.467E+02 0.220E+03   0.267E+01 0.195E+01 -.114E+01   -.364E-05 -.489E-05 -.106E-05
   -.120E+02 -.558E+02 -.204E+03   0.100E+02 0.561E+02 0.205E+03   0.662E+00 -.270E+01 -.203E+01   -.443E-05 0.673E-05 -.148E-05
 -----------------------------------------------------------------------------------------------
   0.244E+00 0.214E+00 0.788E+00   -.369E-12 0.362E-12 0.171E-12   -.294E+00 -.170E+00 -.872E+00   -.211E-06 0.186E-05 -.122E-05
 
 
 POSITION                                       TOTAL-FORCE (eV/Angst)
 -----------------------------------------------------------------------------------
      0.23402      0.84489     17.76300         4.052325      0.622077     -0.229762
      0.27436      2.24374     17.86790         2.421749     -1.322742      0.173586
      1.46421      0.19854     17.66150        -1.862780     -0.216656     -0.082215
      1.49629      2.87894     17.93640        -0.515418     -0.008476     -0.191009
      2.67134      0.84158     17.38310        -0.471532      0.691427     -0.280993
      2.67812      2.20466     17.56690         1.246766     -0.173599     -1.400473
      3.84520      0.16128     16.99370         0.983331      2.759367     -0.019379
      3.90551      2.83497     17.19760        -0.788444      2.819803      1.548830
      5.05462      0.84899     16.57130        -2.445591     -0.699144      0.773686
      5.06343      2.21254     16.70200        -0.614739     -0.106833      0.068816
      6.20568      0.15579     16.27210         1.376766      3.133568     -0.966265
      6.26057      2.87690     16.44880         0.422843      1.077859     -0.292244
      7.40712      0.88947     15.86530         0.647631     -0.830019      0.470643
      7.45065      2.27937     16.02220        -0.448975     -2.476814     -0.971661
      8.66450      0.21158     15.60570        -0.812103      3.372657      0.328420
      8.66109      2.92871     15.74200        -0.614915      1.562741      0.971842
      9.90671      0.90551     15.40860        -1.054075     -1.181179     -1.050573
      9.84403      2.28107     15.43070         2.775602     -0.537428     -0.767569
     11.14480      0.17952     15.17730        -1.917929      3.341440      0.458194
     11.15020      2.93641     15.28360        -2.519224     -0.496502      0.996574
     12.32340      0.88126     14.97190         2.628401     -1.677294     -0.205054
     12.35790      2.24208     15.06490        -0.593581      0.898628     -0.036411
     13.61240      0.18716     15.03480        -1.172768      0.296938      0.661608
     13.58260      2.89734     15.21770         1.682081     -0.432694     -0.194976
     14.83490      0.86317     15.16980         1.206573     -1.754928     -0.939615
     14.86520      2.21498     15.13650        -1.311159      1.502144      0.745724
     16.07930      0.17546     15.44620        -0.625167      1.063396      0.721425
     16.06830      2.85085     15.45130         0.788027      2.330084      0.079076
     17.30830      0.82064     15.70370        -0.507121      1.601038     -1.067800
     17.32420      2.22630     15.65690        -0.451247     -1.124930     -0.451962
     18.47160      0.16317     16.07490         1.366608     -0.328182      1.618927
     18.53430      2.89358     15.95350        -0.854827      0.387536     -0.725935
     19.67090      0.88561     16.42410         0.675230     -0.830074     -1.001973
     19.73510      2.24662     16.19090         1.072192     -1.224830      1.413746
     20.86280      0.27476     16.92800        -0.760789     -3.449474      0.265935
     20.93250      2.85948     16.67140        -1.378613      0.249500     -0.958239
     22.13080      0.84206     17.17110        -1.449942     -1.427417     -0.138261
     22.12180      2.15778     16.97300         0.688730      3.356154      0.484418
     23.30960      0.20000     17.60940        -2.459888     -0.861039     -0.768558
     23.27990      2.83869     17.38080         1.610373      2.395614      0.104436
     24.49310      0.87058     17.75040         1.878215     -0.794452      0.104733
     24.53640      2.22880     17.69770        -1.539746      0.103391     -0.000020
     25.71430      0.14594     17.89250        -1.025110      3.894076     -0.099949
     25.74070      2.89542     18.00270        -0.350141     -1.649530     -0.602374
     26.87850      0.81049     18.00090        -0.464489      2.224453     -0.134950
     26.92100      2.21197     18.06860        -2.920811     -0.892931      0.227074
      0.28688      4.89413     18.36360         2.577706      1.109062      0.018461
      0.34306      6.29172     18.24800        -1.839338     -2.015710      0.885352
      1.52218      4.24765     18.15950        -1.357146     -0.784082     -0.134082
      1.46901      6.94507     17.89940         0.585365      0.625148     -0.233016
      2.71261      4.89851     17.84680         1.623128      1.797627      0.120402
      2.67665      6.30818     17.74640         2.418552     -2.009854     -0.245980
      3.94630      4.24896     17.46300        -0.222647     -2.315137     -0.415605
      3.89844      6.96055     17.29320        -1.318494     -2.619256      0.329625
      5.17078      4.87840     17.13730        -1.681434      1.321899     -0.371992
      5.08563      6.27360     17.04160         1.204440     -0.458840     -0.225262
      6.28573      4.23962     16.57520         0.332205      0.737914      1.115699
      6.21234      6.93826     16.50450         1.115912     -1.463218     -0.195400
      7.47813      4.95826     16.28440        -0.035275     -0.587502     -0.205266
      7.44744      6.32176     16.19560         0.515443     -0.005095      0.150927
      8.67825      4.31882     15.96030         0.468824     -1.792839     -0.306539
      8.66757      6.99227     15.79150        -1.693787     -2.306353      0.591400
      9.91853      4.95593     15.82430        -0.703925      0.182372     -0.159935
      9.87662      6.33245     15.70140         2.132166     -0.533675      0.438487
     11.12100      4.26484     15.62200         1.440521      0.454844     -0.785515
     11.13580      6.98585     15.49240        -0.113792     -2.963121     -0.056620
     12.38200      4.93837     15.56550        -1.595281     -1.974250      1.217453
     12.37880      6.27472     15.54560        -0.469280      2.395724     -0.830231
     13.57760      4.22484     15.57800         0.764925      0.584427     -0.748206
     13.61860      6.93660     15.36650        -1.713483      1.125845      0.444618
     14.79400      4.92418     15.74480        -0.274063     -0.732060     -0.249189
     14.77970      6.30963     15.74500         1.200543     -0.821185     -0.383837
     16.02520      4.25734     15.68040         0.196302     -1.654987      0.926798
     16.01940      6.96856     15.82760        -1.114345     -0.491356     -0.233242
     17.19660      4.89091     16.10330         0.858995      0.188600     -0.656916
     17.15200      6.28509     16.22400         2.061062     -1.299366     -0.184400
     18.48800      4.24616     16.13320        -1.269064      1.688289      1.521240
     18.41320      6.89592     16.36790        -0.295164      2.009581      0.027260
     19.60670      4.92443     16.69840         0.319090     -2.411893     -0.952880
     19.60280      6.27468     16.77820        -0.047424      0.824075      0.388912
     20.82100      4.21665     16.91090        -0.035920     -0.398399     -0.324422
     20.79550      6.95912     17.12010        -0.337604      1.494584     -0.342117
     21.97180      4.85366     17.29960         2.731945      2.709663      0.871005
     21.97370      6.27209     17.43590         0.748227     -0.900731      0.118328
     23.26590      4.25419     17.47290        -1.446509     -1.929305      0.289684
     23.22610      6.91978     17.68550        -0.050144     -0.060001     -0.773516
     24.45360      4.92268     17.84110         1.185726     -2.714816     -0.581627
     24.46800      6.24778     17.75480         0.345919      1.888246      1.377390
     25.73810      4.23281     18.05420        -2.866045      1.806216      0.059580
     25.71900      6.93872     17.93650        -0.198552     -3.831012      0.574809
     26.85400      4.88952     18.36210         1.627259      3.292555      0.274928
     26.90060      6.32127     18.31000        -1.367854     -2.349351     -0.786036
 -----------------------------------------------------------------------------------
    total drift:                               -0.050323      0.044355     -0.084134


--------------------------------------------------------------------------------------------------------



  FREE ENERGIE OF THE ION-ELECTRON SYSTEM (eV)
  ---------------------------------------------------
  free  energy   TOTEN  =      -829.27702211 eV

  energy  without entropy=     -829.19676187  energy(sigma->0) =     -829.23689199
 


--------------------------------------------------------------------------------------------------------


    POTLOK:  cpu time      0.4552: real time      0.4550


--------------------------------------------------------------------------------------------------------


     LOOP+:  cpu time    334.2811: real time    334.4663
    4ORBIT:  cpu time      0.0000: real time      0.0000

 total amount of memory used by VASP MPI-rank0  2294505. kBytes
=======================================================================

   base                                    :      30000. kBytes
   nonlr-proj                              :      15071. kBytes
   fftplans                                :     436558. kBytes
   grid                                    :     732614. kBytes
   one-center                              :        282. kBytes
   wavefun                                 :    1079980. kBytes
 
  
  
 General timing and accounting informations for this job:
 ========================================================
  
                  Total CPU time used (sec):      367.509
                            User time (sec):      359.290
                          System time (sec):        8.220
                         Elapsed time (sec):      367.763
  
                   Maximum memory used (kb):     3735032.
                   Average memory used (kb):          N/A
  
                          Minor page faults:      3179687
                          Major page faults:         6772
                 Voluntary context switches:         9784
