unknown system                          
            1
    28.050000    0.000000    0.000000
     0.000000    8.100000    0.000000
     0.000000    0.000000   33.500000
   C 
    92
Direct configuration=     1
   0.00834285  0.10430716  0.53023881
   0.00978125  0.27700494  0.53337015
   0.05220000  0.02451086  0.52720896
   0.05334367  0.35542469  0.53541493
   0.09523494  0.10389864  0.51889851
   0.09547665  0.27218025  0.52438507
   0.13708378  0.01991148  0.50727463
   0.13923387  0.34999630  0.51336119
   0.18020036  0.10481370  0.49466567
   0.18051444  0.27315309  0.49856716
   0.22123636  0.01923321  0.48573433
   0.22319323  0.35517284  0.49100896
   0.26406845  0.10981148  0.47359104
   0.26562032  0.28140370  0.47827463
   0.30889483  0.02612037  0.46584179
   0.30877326  0.36156914  0.46991045
   0.35318039  0.11179173  0.45995821
   0.35094581  0.28161358  0.46061791
   0.39731907  0.02216346  0.45305373
   0.39751159  0.36251975  0.45622687
   0.43933690  0.10879765  0.44692239
   0.44056684  0.27680000  0.44969851
   0.48529055  0.02310580  0.44880000
   0.48422816  0.35769630  0.45425970
   0.52887344  0.10656432  0.45282985
   0.52995365  0.27345432  0.45183582
   0.57323708  0.02166123  0.46108060
   0.57284492  0.35195679  0.46123284
   0.61705169  0.10131395  0.46876716
   0.61761854  0.27485185  0.46737015
   0.65852406  0.02014506  0.47984776
   0.66075936  0.35723210  0.47622388
   0.70127986  0.10933407  0.49027164
   0.70356863  0.27736049  0.48331045
   0.74377184  0.03392062  0.50531343
   0.74625668  0.35302222  0.49765373
   0.78897683  0.10395852  0.51257015
   0.78865597  0.26639259  0.50665672
   0.83100178  0.02469111  0.52565373
   0.82994296  0.35045556  0.51882985
   0.87319430  0.10747951  0.52986269
   0.87473797  0.27516049  0.52828955
   0.91673084  0.01801765  0.53410448
   0.91767201  0.35745926  0.53739403
   0.95823529  0.10006012  0.53734030
   0.95975045  0.27308272  0.53936119
   0.01022752  0.60421358  0.54816716
   0.01223027  0.77675556  0.54471642
   0.05426667  0.52440123  0.54207463
   0.05237112  0.85741605  0.53431045
   0.09670624  0.60475432  0.53274030
   0.09542424  0.77878765  0.52974328
   0.14068806  0.52456296  0.52128358
   0.13898182  0.85932716  0.51621493
   0.18434153  0.60227160  0.51156119
   0.18130588  0.77451852  0.50870448
   0.22409020  0.52340988  0.49478209
   0.22147380  0.85657531  0.49267164
   0.26660000  0.61213086  0.48610149
   0.26550588  0.78046420  0.48345075
   0.30938503  0.53318765  0.47642687
   0.30900428  0.86324321  0.47138806
   0.35360178  0.61184321  0.47236716
   0.35210766  0.78178395  0.46869851
   0.39647059  0.52652346  0.46632836
   0.39699822  0.86245062  0.46245970
   0.44142602  0.60967531  0.46464179
   0.44131194  0.77465679  0.46404776
   0.48404991  0.52158519  0.46501493
   0.48551159  0.85637037  0.45870149
   0.52741533  0.60792346  0.46999403
   0.52690553  0.77896667  0.47000000
   0.57130838  0.52559753  0.46807164
   0.57110160  0.86031605  0.47246567
   0.61306952  0.60381605  0.48069552
   0.61147950  0.77593704  0.48429851
   0.65910873  0.52421728  0.48158806
   0.65644207  0.85134815  0.48859403
   0.69899109  0.60795432  0.49845970
   0.69885205  0.77465185  0.50084179
   0.74228164  0.52057407  0.50480299
   0.74137255  0.85915062  0.51104776
   0.78330838  0.59921728  0.51640597
   0.78337611  0.77433210  0.52047463
   0.82944385  0.52520864  0.52157910
   0.82802496  0.85429383  0.52792537
   0.87178610  0.60773827  0.53257015
   0.87229947  0.77133086  0.52999403
   0.91757932  0.52256914  0.53893134
   0.91689840  0.85663210  0.53541791
   0.95736185  0.60364444  0.54812239
   0.95902317  0.78040370  0.54656716
