  92  92   0   0
  0.8273226E+02  0.2805000E-08  0.8100000E-09  0.3350000E-08  0.5000000E-15
   1.0000000000000000E-004
  CAR 
 unknown system                          
      3.73369960    -25.24183427  301     -3.15913207      1.00000000
    -25.242  0.0000E+00  0.0000E+00
    -25.145  0.0000E+00  0.0000E+00
    -25.049  0.0000E+00  0.0000E+00
    -24.952  0.0000E+00  0.0000E+00
    -24.855  0.0000E+00  0.0000E+00
    -24.759  0.0000E+00  0.0000E+00
    -24.662  0.0000E+00  0.0000E+00
    -24.566  0.0000E+00  0.0000E+00
    -24.469  0.0000E+00  0.0000E+00
    -24.373  0.3448E-14  0.3331E-15
    -24.276  0.7164E-12  0.6953E-13
    -24.179  0.9363E-10  0.9113E-11
    -24.083  0.7789E-08  0.7614E-09
    -23.986  0.4136E-06  0.4071E-07
    -23.890  0.1407E-04  0.1400E-05
    -23.793  0.3082E-03  0.3117E-04
    -23.696  0.4367E-02  0.4530E-03
    -23.600  0.4034E-01  0.4349E-02
    -23.503  0.2451E+00  0.2802E-01
    -23.407  0.9942E+00  0.1240E+00
    -23.310  0.2756E+01  0.3902E+00
    -23.214  0.5431E+01  0.9147E+00
    -23.117  0.8098E+01  0.1697E+01
    -23.020  0.9905E+01  0.2654E+01
    -22.924  0.1083E+02  0.3699E+01
    -22.827  0.1159E+02  0.4819E+01
    -22.731  0.1318E+02  0.6092E+01
    -22.634  0.1546E+02  0.7584E+01
    -22.537  0.1670E+02  0.9197E+01
    -22.441  0.1545E+02  0.1069E+02
    -22.344  0.1279E+02  0.1192E+02
    -22.248  0.1133E+02  0.1302E+02
    -22.151  0.1202E+02  0.1418E+02
    -22.055  0.1344E+02  0.1548E+02
    -21.958  0.1420E+02  0.1685E+02
    -21.861  0.1409E+02  0.1821E+02
    -21.765  0.1356E+02  0.1952E+02
    -21.668  0.1308E+02  0.2078E+02
    -21.572  0.1266E+02  0.2201E+02
    -21.475  0.1186E+02  0.2315E+02
    -21.378  0.1106E+02  0.2422E+02
    -21.282  0.1146E+02  0.2533E+02
    -21.185  0.1357E+02  0.2664E+02
    -21.089  0.1612E+02  0.2819E+02
    -20.992  0.1695E+02  0.2983E+02
    -20.896  0.1535E+02  0.3131E+02
    -20.799  0.1302E+02  0.3257E+02
    -20.702  0.1201E+02  0.3373E+02
    -20.606  0.1262E+02  0.3495E+02
    -20.509  0.1363E+02  0.3627E+02
    -20.413  0.1388E+02  0.3761E+02
    -20.316  0.1347E+02  0.3891E+02
    -20.219  0.1332E+02  0.4019E+02
    -20.123  0.1414E+02  0.4156E+02
    -20.026  0.1567E+02  0.4307E+02
    -19.930  0.1654E+02  0.4467E+02
    -19.833  0.1553E+02  0.4617E+02
    -19.736  0.1364E+02  0.4749E+02
    -19.640  0.1333E+02  0.4878E+02
    -19.543  0.1514E+02  0.5024E+02
    -19.447  0.1647E+02  0.5183E+02
    -19.350  0.1533E+02  0.5331E+02
    -19.254  0.1317E+02  0.5458E+02
    -19.157  0.1228E+02  0.5577E+02
    -19.060  0.1286E+02  0.5701E+02
    -18.964  0.1378E+02  0.5834E+02
    -18.867  0.1399E+02  0.5969E+02
    -18.771  0.1367E+02  0.6101E+02
    -18.674  0.1446E+02  0.6241E+02
    -18.577  0.1682E+02  0.6403E+02
    -18.481  0.1824E+02  0.6579E+02
    -18.384  0.1698E+02  0.6743E+02
    -18.288  0.1538E+02  0.6892E+02
    -18.191  0.1606E+02  0.7047E+02
    -18.095  0.1765E+02  0.7218E+02
    -17.998  0.1734E+02  0.7385E+02
    -17.901  0.1527E+02  0.7533E+02
    -17.805  0.1369E+02  0.7665E+02
    -17.708  0.1308E+02  0.7791E+02
    -17.612  0.1239E+02  0.7911E+02
    -17.515  0.1169E+02  0.8024E+02
    -17.418  0.1155E+02  0.8135E+02
    -17.322  0.1167E+02  0.8248E+02
    -17.225  0.1183E+02  0.8362E+02
    -17.129  0.1238E+02  0.8482E+02
    -17.032  0.1286E+02  0.8606E+02
    -16.936  0.1209E+02  0.8723E+02
    -16.839  0.1021E+02  0.8821E+02
    -16.742  0.9186E+01  0.8910E+02
    -16.646  0.1034E+02  0.9010E+02
    -16.549  0.1277E+02  0.9133E+02
    -16.453  0.1492E+02  0.9277E+02
    -16.356  0.1613E+02  0.9433E+02
    -16.259  0.1665E+02  0.9594E+02
    -16.163  0.1733E+02  0.9761E+02
    -16.066  0.1844E+02  0.9940E+02
    -15.970  0.1850E+02  0.1012E+03
    -15.873  0.1652E+02  0.1028E+03
    -15.776  0.1385E+02  0.1041E+03
    -15.680  0.1201E+02  0.1053E+03
    -15.583  0.1106E+02  0.1063E+03
    -15.487  0.1123E+02  0.1074E+03
    -15.390  0.1346E+02  0.1087E+03
    -15.294  0.1735E+02  0.1104E+03
    -15.197  0.2072E+02  0.1124E+03
    -15.100  0.2209E+02  0.1145E+03
    -15.004  0.2201E+02  0.1167E+03
    -14.907  0.2109E+02  0.1187E+03
    -14.811  0.1870E+02  0.1205E+03
    -14.714  0.1476E+02  0.1219E+03
    -14.617  0.1096E+02  0.1230E+03
    -14.521  0.9049E+01  0.1239E+03
    -14.424  0.9091E+01  0.1247E+03
    -14.328  0.1013E+02  0.1257E+03
    -14.231  0.1134E+02  0.1268E+03
    -14.135  0.1257E+02  0.1280E+03
    -14.038  0.1402E+02  0.1294E+03
    -13.941  0.1508E+02  0.1308E+03
    -13.845  0.1506E+02  0.1323E+03
    -13.748  0.1495E+02  0.1337E+03
    -13.652  0.1598E+02  0.1353E+03
    -13.555  0.1764E+02  0.1370E+03
    -13.458  0.1905E+02  0.1388E+03
    -13.362  0.2036E+02  0.1408E+03
    -13.265  0.2139E+02  0.1429E+03
    -13.169  0.2054E+02  0.1448E+03
    -13.072  0.1711E+02  0.1465E+03
    -12.976  0.1367E+02  0.1478E+03
    -12.879  0.1317E+02  0.1491E+03
    -12.782  0.1471E+02  0.1505E+03
    -12.686  0.1549E+02  0.1520E+03
    -12.589  0.1475E+02  0.1534E+03
    -12.493  0.1379E+02  0.1548E+03
    -12.396  0.1390E+02  0.1561E+03
    -12.299  0.1543E+02  0.1576E+03
    -12.203  0.1832E+02  0.1594E+03
    -12.106  0.2218E+02  0.1615E+03
    -12.010  0.2547E+02  0.1640E+03
    -11.913  0.2646E+02  0.1665E+03
    -11.817  0.2465E+02  0.1689E+03
    -11.720  0.2088E+02  0.1709E+03
    -11.623  0.1655E+02  0.1725E+03
    -11.527  0.1353E+02  0.1738E+03
    -11.430  0.1356E+02  0.1751E+03
    -11.334  0.1666E+02  0.1767E+03
    -11.237  0.2112E+02  0.1788E+03
    -11.140  0.2532E+02  0.1812E+03
    -11.044  0.2890E+02  0.1840E+03
    -10.947  0.3188E+02  0.1871E+03
    -10.851  0.3365E+02  0.1903E+03
    -10.754  0.3415E+02  0.1936E+03
    -10.657  0.3507E+02  0.1970E+03
    -10.561  0.3754E+02  0.2007E+03
    -10.464  0.3954E+02  0.2045E+03
    -10.368  0.3857E+02  0.2082E+03
    -10.271  0.3534E+02  0.2116E+03
    -10.175  0.3288E+02  0.2148E+03
    -10.078  0.3285E+02  0.2180E+03
     -9.981  0.3375E+02  0.2212E+03
     -9.885  0.3390E+02  0.2245E+03
     -9.788  0.3432E+02  0.2278E+03
     -9.692  0.3628E+02  0.2313E+03
     -9.595  0.3900E+02  0.2351E+03
     -9.498  0.4097E+02  0.2390E+03
     -9.402  0.4115E+02  0.2430E+03
     -9.305  0.3884E+02  0.2468E+03
     -9.209  0.3440E+02  0.2501E+03
     -9.112  0.3026E+02  0.2530E+03
     -9.016  0.2906E+02  0.2558E+03
     -8.919  0.3094E+02  0.2588E+03
     -8.822  0.3428E+02  0.2621E+03
     -8.726  0.3741E+02  0.2657E+03
     -8.629  0.3845E+02  0.2694E+03
     -8.533  0.3643E+02  0.2730E+03
     -8.436  0.3303E+02  0.2762E+03
     -8.339  0.3088E+02  0.2791E+03
     -8.243  0.2992E+02  0.2820E+03
     -8.146  0.2837E+02  0.2848E+03
     -8.050  0.2652E+02  0.2873E+03
     -7.953  0.2606E+02  0.2898E+03
     -7.857  0.2737E+02  0.2925E+03
     -7.760  0.2935E+02  0.2953E+03
     -7.663  0.3052E+02  0.2983E+03
     -7.567  0.2998E+02  0.3012E+03
     -7.470  0.2825E+02  0.3039E+03
     -7.374  0.2663E+02  0.3065E+03
     -7.277  0.2574E+02  0.3090E+03
     -7.180  0.2578E+02  0.3114E+03
     -7.084  0.2651E+02  0.3140E+03
     -6.987  0.2682E+02  0.3166E+03
     -6.891  0.2603E+02  0.3191E+03
     -6.794  0.2470E+02  0.3215E+03
     -6.697  0.2383E+02  0.3238E+03
     -6.601  0.2297E+02  0.3260E+03
     -6.504  0.2109E+02  0.3281E+03
     -6.408  0.1912E+02  0.3299E+03
     -6.311  0.1886E+02  0.3317E+03
     -6.215  0.2025E+02  0.3337E+03
     -6.118  0.2193E+02  0.3358E+03
     -6.021  0.2375E+02  0.3381E+03
     -5.925  0.2579E+02  0.3406E+03
     -5.828  0.2634E+02  0.3431E+03
     -5.732  0.2416E+02  0.3455E+03
     -5.635  0.2063E+02  0.3475E+03
     -5.538  0.1720E+02  0.3491E+03
     -5.442  0.1388E+02  0.3505E+03
     -5.345  0.1140E+02  0.3516E+03
     -5.249  0.1132E+02  0.3526E+03
     -5.152  0.1272E+02  0.3539E+03
     -5.056  0.1252E+02  0.3551E+03
     -4.959  0.1013E+02  0.3561E+03
     -4.862  0.8168E+01  0.3569E+03
     -4.766  0.8767E+01  0.3577E+03
     -4.669  0.1177E+02  0.3588E+03
     -4.573  0.1530E+02  0.3603E+03
     -4.476  0.1666E+02  0.3619E+03
     -4.379  0.1406E+02  0.3633E+03
     -4.283  0.9138E+01  0.3642E+03
     -4.186  0.5355E+01  0.3647E+03
     -4.090  0.3762E+01  0.3650E+03
     -3.993  0.3091E+01  0.3653E+03
     -3.897  0.2783E+01  0.3656E+03
     -3.800  0.3099E+01  0.3659E+03
     -3.703  0.3658E+01  0.3663E+03
     -3.607  0.3910E+01  0.3666E+03
     -3.510  0.3739E+01  0.3670E+03
     -3.414  0.3098E+01  0.3673E+03
     -3.317  0.2423E+01  0.3675E+03
     -3.220  0.2589E+01  0.3678E+03
     -3.124  0.3780E+01  0.3682E+03
     -3.027  0.5211E+01  0.3687E+03
     -2.931  0.5924E+01  0.3692E+03
     -2.834  0.5856E+01  0.3698E+03
     -2.738  0.5768E+01  0.3703E+03
     -2.641  0.6018E+01  0.3709E+03
     -2.544  0.6365E+01  0.3715E+03
     -2.448  0.6527E+01  0.3722E+03
     -2.351  0.6529E+01  0.3728E+03
     -2.255  0.6978E+01  0.3735E+03
     -2.158  0.7962E+01  0.3742E+03
     -2.061  0.8077E+01  0.3750E+03
     -1.965  0.6759E+01  0.3757E+03
     -1.868  0.6353E+01  0.3763E+03
     -1.772  0.9558E+01  0.3772E+03
     -1.675  0.1561E+02  0.3787E+03
     -1.578  0.2082E+02  0.3807E+03
     -1.482  0.2270E+02  0.3829E+03
     -1.385  0.2164E+02  0.3850E+03
     -1.289  0.1937E+02  0.3869E+03
     -1.192  0.1783E+02  0.3886E+03
     -1.096  0.1756E+02  0.3903E+03
     -0.999  0.1733E+02  0.3920E+03
     -0.902  0.1633E+02  0.3936E+03
     -0.806  0.1488E+02  0.3950E+03
     -0.709  0.1342E+02  0.3963E+03
     -0.613  0.1218E+02  0.3975E+03
     -0.516  0.1121E+02  0.3986E+03
     -0.419  0.1099E+02  0.3996E+03
     -0.323  0.1241E+02  0.4008E+03
     -0.226  0.1547E+02  0.4023E+03
     -0.130  0.1835E+02  0.4041E+03
     -0.033  0.1952E+02  0.4060E+03
      0.063  0.2003E+02  0.4079E+03
      0.160  0.2107E+02  0.4099E+03
      0.257  0.2124E+02  0.4120E+03
      0.353  0.1923E+02  0.4138E+03
      0.450  0.1681E+02  0.4155E+03
      0.546  0.1666E+02  0.4171E+03
      0.643  0.1956E+02  0.4190E+03
      0.740  0.2464E+02  0.4213E+03
      0.836  0.3002E+02  0.4242E+03
      0.933  0.3385E+02  0.4275E+03
      1.029  0.3612E+02  0.4310E+03
      1.126  0.3834E+02  0.4347E+03
      1.222  0.4188E+02  0.4387E+03
      1.319  0.4673E+02  0.4433E+03
      1.416  0.5056E+02  0.4481E+03
      1.512  0.5020E+02  0.4530E+03
      1.609  0.4417E+02  0.4573E+03
      1.705  0.3357E+02  0.4605E+03
      1.802  0.2113E+02  0.4625E+03
      1.899  0.1033E+02  0.4635E+03
      1.995  0.3674E+01  0.4639E+03
      2.092  0.9035E+00  0.4640E+03
      2.188  0.1487E+00  0.4640E+03
      2.285  0.1606E-01  0.4640E+03
      2.382  0.1125E-02  0.4640E+03
      2.478  0.5077E-04  0.4640E+03
      2.575  0.1467E-05  0.4640E+03
      2.671  0.2704E-07  0.4640E+03
      2.768  0.3172E-09  0.4640E+03
      2.864  0.2363E-11  0.4640E+03
      2.961  0.1092E-13  0.4640E+03
      3.058  0.0000E+00  0.4640E+03
      3.154  0.0000E+00  0.4640E+03
      3.251  0.0000E+00  0.4640E+03
      3.347  0.0000E+00  0.4640E+03
      3.444  0.0000E+00  0.4640E+03
      3.541  0.0000E+00  0.4640E+03
      3.637  0.0000E+00  0.4640E+03
      3.734  0.0000E+00  0.4640E+03
