unknown system                          
            1
    28.050000    0.000000    0.000000
     0.000000    8.100000    0.000000
     0.000000    0.000000   33.500000
   C 
    92
Direct configuration=     1
   0.01183519  0.10027840  0.50764478
   0.01029868  0.27236173  0.50460597
   0.05034332  0.01691358  0.49088358
   0.04748556  0.35050988  0.48516119
   0.09329234  0.09832333  0.48158806
   0.09071444  0.26607654  0.47619701
   0.13440321  0.01914444  0.46604776
   0.13340499  0.35005062  0.46387463
   0.17750588  0.10007407  0.46276716
   0.17718645  0.27527901  0.46218209
   0.22207594  0.02342432  0.45331343
   0.22061533  0.36152222  0.45571343
   0.26598681  0.11017926  0.45937910
   0.26563565  0.28100247  0.45745970
   0.30979465  0.02715049  0.45905970
   0.30899465  0.35903951  0.46009254
   0.35224314  0.11298852  0.46779701
   0.35193832  0.28166420  0.47008657
   0.39571123  0.03322753  0.48172537
   0.39400000  0.36157654  0.48302985
   0.43718360  0.11222173  0.49639104
   0.43577897  0.28264444  0.49574030
   0.47824242  0.02493111  0.50830448
   0.47905526  0.35742593  0.50661493
   0.52043850  0.10152778  0.51989552
   0.52169340  0.27111235  0.51749254
   0.56350446  0.01828309  0.52786567
   0.56554367  0.34821481  0.52408060
   0.60866667  0.09830259  0.53817313
   0.60860250  0.26754321  0.53649254
   0.65465954  0.02267346  0.54106567
   0.65454189  0.34440000  0.54432239
   0.70027807  0.09979358  0.54938806
   0.69842781  0.26934815  0.55336716
   0.74434225  0.01948370  0.54491642
   0.74426738  0.34775185  0.54758806
   0.78927629  0.09490160  0.55084776
   0.78969697  0.27196543  0.55171045
   0.83381818  0.01992444  0.54127164
   0.83213191  0.35688642  0.54440597
   0.87866310  0.10085617  0.54154925
   0.87758289  0.27462222  0.54212537
   0.92336185  0.02329185  0.53080299
   0.92036007  0.35543086  0.52702090
   0.96475223  0.10058815  0.52581493
   0.96372549  0.27956420  0.52454030
   0.00447843  0.60056173  0.48674925
   0.00683576  0.76720247  0.48864478
   0.04497861  0.51598642  0.47475821
   0.04898681  0.85100864  0.48261791
   0.08688806  0.59942222  0.46293134
   0.09047914  0.76604815  0.46744776
   0.13068663  0.51899877  0.45527463
   0.13326952  0.84899753  0.45844179
   0.17480749  0.60832346  0.44780597
   0.17550624  0.77879753  0.44673433
   0.21944920  0.52581358  0.45024179
   0.22220642  0.86110370  0.44462090
   0.26459857  0.61142099  0.44962687
   0.26382032  0.77679630  0.44928060
   0.31027986  0.53320617  0.45575821
   0.31053690  0.86278025  0.45603284
   0.35228948  0.61087531  0.46635522
   0.35491373  0.77967778  0.46021791
   0.39330838  0.53131605  0.48164478
   0.39802139  0.86443704  0.47380299
   0.43694831  0.60937654  0.49034030
   0.43959715  0.77629136  0.48518806
   0.48138324  0.52506420  0.50010746
   0.48227094  0.85994444  0.49659104
   0.52468093  0.60742469  0.50856716
   0.52657754  0.77560988  0.50458806
   0.56660963  0.52213210  0.51714030
   0.56753654  0.85166667  0.51945075
   0.61326203  0.59775802  0.52419403
   0.61152228  0.76739506  0.52239403
   0.65601070  0.50979136  0.53242388
   0.65313012  0.85440988  0.53185970
   0.69896613  0.59387160  0.53467164
   0.69932264  0.76896914  0.53511940
   0.74149020  0.51097284  0.53537313
   0.74250980  0.84685432  0.53691642
   0.78557932  0.59306420  0.52818507
   0.78761141  0.76279136  0.53305970
   0.83094118  0.51838519  0.53016418
   0.83224599  0.85051605  0.52925970
   0.87424599  0.60210494  0.51922388
   0.87515865  0.77556173  0.51787164
   0.91864528  0.52036173  0.51440299
   0.92045276  0.86240864  0.51525373
   0.95572549  0.60490494  0.50020896
   0.95683422  0.77611111  0.49805075
